G2POcore-PETIM in water
46171
    1aaa     O1    1   4.427   1.680   5.936  0.3800 -0.3624 -0.4050
    1aaa     C1    2   4.466   1.562   5.868  0.1852 -0.4864  0.8664
    1aaa     H1    3   4.525   1.495   5.932  0.2341 -1.5565 -0.2636
    1aaa     H2    4   4.518   1.593   5.777  0.8636 -0.1688  1.3540
    1aaa     C2    5   4.536   1.771   5.941 -0.7974  0.0640  0.5928
    1aaa     H3    6   4.560   1.809   5.841 -0.3455 -0.1077  0.6318
    1aaa     H4    7   4.619   1.713   5.984  0.0634  0.8460  0.0357
    1aaa     C3    8   4.331   1.492   5.837 -0.3528  0.7166 -0.0322
    1aaa     H5    9   4.346   1.394   5.791  1.0940  1.5808 -1.4817
    1aaa     H6   10   4.277   1.553   5.764 -0.5398 -0.5509 -0.9924
    1aaa     C4   11   4.509   1.892   6.027  0.3804 -0.1327  0.7541
    1aaa     H7   12   4.448   1.968   5.977 -0.7888 -0.1903  2.0299
    1aaa     H8   13   4.603   1.944   6.050 -0.5248  1.4263  1.0757
    1aaa     C5   14   4.239   1.477   5.970  0.0753 -0.0115  0.2328
    1aaa     H9   15   4.285   1.410   6.043  1.6232 -0.3235 -0.9561
    1aaa    H10   16   4.242   1.578   6.012  0.6293  0.0943 -0.0447
    1aaa     C6   17   4.434   1.862   6.168 -0.2919  0.8362  0.0703
    1aaa    H11   18   4.341   1.808   6.152  0.5617 -1.4765  2.0959
    1aaa    H12   19   4.411   1.958   6.214 -0.3170  0.2131  1.4209
    1aaa     N1   20   4.089   1.446   5.960 -0.1729  0.6167  0.5865
    1aaa     N2   21   4.513   1.780   6.262  0.0109  0.0075  0.1463
    1aaa     C7   22   4.425   1.741   6.378  0.4345  0.2392 -0.1505
    1aaa    H13   23   4.486   1.681   6.446  2.1194 -0.5517 -2.2423
    1aaa    H14   24   4.392   1.836   6.419  0.7076 -1.1054  3.5695
    1aaa     C8   25   4.638   1.853   6.305  0.0955  0.1429 -0.3938
    1aaa    H15   26   4.653   1.936   6.236  2.3754 -1.0039 -1.3862
    1aaa    H16   27   4.608   1.895   6.402  0.5094 -0.3693 -0.0376
    1aaa     C9   28   4.084   1.303   5.927 -0.1990  0.8392  0.1894
    1aaa    H17   29   4.155   1.280   5.847 -0.1086 -0.5865  0.6445
    1aaa    H18   30   4.129   1.255   6.014 -0.7334 -1.0440 -0.5178
    1aaa    C10   31   4.011   1.467   6.095  0.2569 -1.1718 -0.0895
    1aaa    H19   32   4.034   1.385   6.163 -0.6038 -0.3152  1.2801
    1aaa    H20   33   4.053   1.560   6.134 -0.1510 -0.1678 -1.9025
    1aaa    C11   34   4.299   1.658   6.335  0.0064 -0.9438  0.0900
    1aaa    H21   35   4.221   1.734   6.332 -0.5550 -1.4960  0.5853
    1aaa    H22   36   4.315   1.616   6.235  2.1671  0.9433 -0.4318
    1aaa    C12   37   4.772   1.767   6.310 -1.0517  0.7972  0.0171
    1aaa    H23   38   4.761   1.670   6.359  0.0812 -0.6696 -2.4257
    1aaa    H24   39   4.810   1.741   6.210  2.0798  1.1268  1.0197
    1aaa    C13   40   3.946   1.226   5.902  0.0406  0.1848 -0.2857
    1aaa    H25   41   3.890   1.219   5.996 -1.0966 -1.7393 -1.0396
    1aaa    H26   42   3.887   1.276   5.825 -1.2333 -0.6388  0.1340
    1aaa    C14   43   3.860   1.477   6.091 -0.7314  0.0523  0.1832
    1aaa    H27   44   3.817   1.505   5.994 -0.5031 -0.2992 -0.0221
    1aaa    H28   45   3.827   1.378   6.123 -0.4286  0.3228  1.3819
    1aaa    C15   46   3.811   1.573   6.204  0.4030 -0.7655  0.6228
    1aaa    H29   47   3.881   1.554   6.286 -1.2153 -2.7653  1.6354
    1aaa    H30   48   3.819   1.679   6.178  1.1908 -0.6482  1.3202
    1aaa    C16   49   3.988   1.090   5.849 -0.5477 -0.5583  0.8691
    1aaa    H31   50   3.907   1.059   5.781  0.5656 -0.6338 -0.4688
    1aaa    H32   51   4.072   1.106   5.780 -1.2042 -0.5958  0.0355
    1aaa    C17   52   4.888   1.851   6.377  0.0092  0.6109  0.3802
    1aaa    H33   53   4.850   1.883   6.475 -1.0611  1.5637 -0.3097
    1aaa    H34   54   4.971   1.780   6.387  0.7269  1.2450 -0.7649
    1aaa    C18   55   4.281   1.555   6.443 -0.1316  0.0872 -0.2309
    1aaa    H35   56   4.204   1.491   6.396  2.3884 -2.4435 -1.2166
    1aaa    H36   57   4.366   1.493   6.473 -2.0444 -1.0577  3.3609
    1aaa    H38   58   4.039   1.503   5.890 -2.2890  1.3094  2.5380
    1aaa    H37   59   4.544   1.694   6.214 -5.2825 -1.6618 -0.8893
    2bbb     N1   60   3.248   1.569   6.281  0.8554 -0.3201  0.0391
    2bbb     C1   61   3.177   1.593   6.418 -0.1362 -1.2513  0.5660
    2bbb     H1   62   3.135   1.692   6.399  1.5562 -0.5105  0.4581
    2bbb     H2   63   3.247   1.604   6.501  0.4427 -0.0677 -0.0499
    2bbb     C2   64   3.147   1.614   6.170 -0.0834  0.5110  0.5422
    2bbb     H3   65   3.123   1.718   6.193 -1.3757 -0.0748  2.0716
    2bbb     H4   66   3.055   1.556   6.181 -0.9428  1.3003 -1.8096
    2bbb     C3   67   3.367   1.652   6.291  0.0616 -0.5233  0.0218
    2bbb     H5   68   3.339   1.750   6.329 -1.4137 -1.3294  1.1190
    2bbb     H6   69   3.406   1.652   6.189 -2.4642  1.6807 -1.0795
    2bbb     C4   70   3.478   1.595   6.385  0.1670 -0.2945 -0.2208
    2bbb     H7   71   3.469   1.486   6.374 -2.0505 -0.4371  2.0599
    2bbb     H8   72   3.449   1.620   6.488  1.1653 -1.9473  0.4883
    2bbb     C5   73   3.058   1.502   6.449  0.1799  0.2419  0.1066
    2bbb     H9   74   3.075   1.401   6.487 -0.5638  0.0359 -0.0969
    2bbb    H10   75   2.995   1.502   6.359  2.2724  1.4243 -1.4477
    2bbb     C6   76   3.197   1.598   6.023  0.2443 -0.5317 -1.1118
    2bbb    H11   77   3.218   1.492   6.005 -1.9423 -1.5142  1.3413
    2bbb    H12   78   3.285   1.660   6.007 -1.2777  2.4010  0.8979
    2bbb     C7   79   3.623   1.630   6.353  0.2610 -0.5948  0.4435
    2bbb    H13   80   3.685   1.615   6.442  1.4375 -4.1768 -0.8216
    2bbb    H14   81   3.636   1.737   6.330 -0.5360 -0.7784 -1.0357
    2bbb     C8   82   3.096   1.650   5.917  0.5691 -0.0425  0.1811
    2bbb    H15   83   3.137   1.656   5.815 -0.9865 -3.1507 -0.7518
    2bbb    H16   84   3.011   1.581   5.911  0.5730  0.0505 -1.5621
    2bbb     C9   85   2.966   1.568   6.564  0.7729 -0.3474 -0.9867
    2bbb    H17   86   2.933   1.667   6.531  0.2234 -0.1084  0.2316
    2bbb    H18   87   3.020   1.578   6.659  0.9687 -1.3695 -0.9753
    2bbb     O1   88   3.682   1.545   6.242  0.5062 -0.1264  0.4035
    2bbb    H19   89   3.271   1.469   6.270  0.7758 -0.2582 -0.7472
    3bbb     N1   90   3.850   0.558   5.749  0.0763  0.3609 -0.0433
    3bbb     C1   91   3.891   0.529   5.600 -0.0595  0.6478 -0.2232
    3bbb     H1   92   3.802   0.488   5.554  0.4803  0.4592 -1.1228
    3bbb     H2   93   3.973   0.458   5.612  0.5553  1.2825 -0.5716
    3bbb     C2   94   3.840   0.422   5.810 -0.2480  0.4475  0.3008
    3bbb     H3   95   3.841   0.431   5.919 -1.7798 -0.2780  0.3926
    3bbb     H4   96   3.926   0.363   5.777 -0.8284 -0.5266  0.5007
    3bbb     C3   97   3.959   0.635   5.829  0.0466  0.3644 -0.1584
    3bbb     H5   98   4.048   0.626   5.766 -2.6655  1.4385 -4.5727
    3bbb     H6   99   3.977   0.590   5.927 -0.9854  1.0642  0.3717
    3bbb     C4  100   3.927   0.785   5.847  0.1988  1.0120  0.4399
    3bbb     H7  101   3.845   0.790   5.919 -0.8106  0.4503 -0.6342
    3bbb     H8  102   3.899   0.839   5.755 -2.4937  0.0702  0.6234
    3bbb     C5  103   3.939   0.646   5.513  0.6990 -0.0375  0.0709
    3bbb     H9  104   4.038   0.673   5.553 -0.2337  1.9142  1.2232
    3bbb    H10  105   3.868   0.727   5.534 -0.2109 -0.0162 -2.7450
    3bbb     C6  106   3.707   0.353   5.776 -0.1544  0.4498 -0.9993
    3bbb    H11  107   3.687   0.349   5.668  1.5830 -0.1987 -1.3269
    3bbb    H12  108   3.624   0.406   5.825  1.0510  0.1677  1.4655
    3bbb     C7  109   4.048   0.860   5.909 -0.8905  0.2638 -0.1229
    3bbb    H13  110   4.128   0.872   5.834 -1.7203  0.6161 -0.9690
    3bbb    H14  111   4.091   0.797   5.987 -1.1158 -1.5606 -1.4031
    3bbb     C8  112   3.704   0.210   5.830  0.4855 -0.0143 -0.3986
    3bbb    H15  113   3.746   0.221   5.931  1.4497 -0.5392 -0.7260
    3bbb    H16  114   3.607   0.160   5.834  0.7948 -0.5387  1.7390
    3bbb     C9  115   3.950   0.618   5.363  0.1241  0.3033 -0.1034
    3bbb    H17  116   3.999   0.520   5.356  1.1500  0.7055  1.1067
    3bbb    H18  117   4.001   0.696   5.306  2.1611 -0.0717  1.1234
    3bbb     O1  118   4.020   0.996   5.953  0.1244 -0.6633  0.4530
    3bbb    H19  119   3.758   0.604   5.752 -0.7040 -1.1305 -0.0155
    4bbb     N1  120   5.172   2.208   5.986 -0.4905 -0.4605 -0.1033
    4bbb     C1  121   5.078   2.326   5.959  0.4217  0.0851  0.8834
    4bbb     H1  122   5.119   2.400   5.891  0.7171 -1.9543 -1.2796
    4bbb     H2  123   5.074   2.370   6.059  0.1339  0.4581  0.7062
    4bbb     C2  124   5.309   2.262   6.037  0.7661 -0.1227 -0.0778
    4bbb     H3  125   5.355   2.170   6.071 -1.8195 -0.3761  3.2579
    4bbb     H4  126   5.283   2.320   6.126 -0.2572 -2.4857  1.2445
    4bbb     C3  127   5.113   2.106   6.083 -0.0684  0.5786 -0.6696
    4bbb     H5  128   5.184   2.024   6.091 -0.6338  0.1049 -0.4319
    4bbb     H6  129   5.023   2.059   6.044 -0.1005 -0.0093  0.0970
    4bbb     C4  130   5.078   2.150   6.221 -0.4418  0.1968 -0.5942
    4bbb     H7  131   4.995   2.219   6.202 -0.5165 -0.1843 -1.7021
    4bbb     H8  132   5.154   2.222   6.251 -0.7391  0.8500 -1.3753
    4bbb     C5  133   4.941   2.285   5.907  0.2975  0.0729  0.2739
    4bbb     H9  134   4.883   2.377   5.898  0.3918  0.3301  1.9430
    4bbb    H10  135   4.886   2.228   5.983 -1.1679 -1.3791 -1.7493
    4bbb     C6  136   5.397   2.338   5.944  0.0235 -0.1092 -0.1885
    4bbb    H11  137   5.335   2.400   5.879 -0.9888 -1.1488 -0.2506
    4bbb    H12  138   5.451   2.270   5.877  0.5722 -0.0720  0.2100
    4bbb     C7  139   5.052   2.039   6.326 -0.2435  0.6347  0.4570
    4bbb    H13  140   5.028   2.083   6.423 -2.1939  0.8191 -0.0573
    4bbb    H14  141   5.144   1.982   6.340 -0.3104  0.4082  0.0029
    4bbb     C8  142   5.496   2.441   6.015 -0.1637  0.3623  0.6449
    4bbb    H15  143   5.560   2.490   5.941  0.5709  0.8360  1.5789
    4bbb    H16  144   5.440   2.520   6.067  0.1961  1.2245 -0.2439
    4bbb     C9  145   4.934   2.199   5.780 -0.1931 -0.4271  0.9387
    4bbb    H17  146   4.837   2.148   5.771 -2.1842  3.0271  0.6900
    4bbb    H18  147   5.012   2.124   5.796  1.1498  1.0313  1.4378
    4bbb     O1  148   4.932   1.958   6.288  0.9489 -0.0458 -0.0058
    4bbb    H19  149   5.187   2.156   5.898  0.0253 -1.5813  0.6224
    5bbb     N1  150   4.137   1.950   6.795 -0.3448 -0.3318 -0.2783
    5bbb     C1  151   4.259   2.035   6.774 -0.1316 -0.0590 -0.1161
    5bbb     H1  152   4.273   2.098   6.862  3.7040 -0.0969 -0.5182
    5bbb     H2  153   4.245   2.108   6.694 -0.6106 -0.9734 -0.8766
    5bbb     C2  154   4.017   2.043   6.835  0.1975  0.0074  0.7552
    5bbb     H3  155   4.054   2.098   6.921 -0.3514  1.9554 -0.2063
    5bbb     H4  156   3.926   1.987   6.857  0.2755 -0.1694  0.6314
    5bbb     C3  157   4.117   1.878   6.665 -0.1982  0.4946 -0.0043
    5bbb     H5  158   4.213   1.886   6.615  0.1162 -0.8404  0.3428
    5bbb     H6  159   4.045   1.928   6.601  1.5373  1.0645 -1.6037
    5bbb     C4  160   4.077   1.733   6.702  0.2957 -0.0311 -0.6005
    5bbb     H7  161   3.971   1.731   6.730  0.3295 -1.3627 -0.5461
    5bbb     H8  162   4.147   1.705   6.781 -0.6055  0.5007  0.4070
    5bbb     C5  163   4.396   1.966   6.753  0.1644 -0.2161 -0.7992
    5bbb     H9  164   4.465   2.038   6.709  1.6011 -1.6648 -1.0069
    5bbb    H10  165   4.399   1.886   6.678  1.5337  0.0424 -1.0440
    5bbb     C6  166   3.977   2.156   6.738 -0.2047  0.0344  0.6981
    5bbb    H11  167   3.943   2.116   6.641 -1.4857  2.4109  0.0977
    5bbb    H12  168   4.059   2.226   6.717 -0.2308 -0.2472 -0.4052
    5bbb     C7  169   4.092   1.640   6.573  0.1153 -1.2490 -0.1316
    5bbb    H13  170   4.046   1.688   6.486  1.6056  1.9674  0.6837
    5bbb    H14  171   4.049   1.540   6.586 -0.8503 -0.8311 -0.0469
    5bbb     C8  172   3.859   2.243   6.790  0.2488  0.5807 -0.6283
    5bbb    H15  173   3.769   2.188   6.820  0.6768 -0.3063 -0.9549
    5bbb    H16  174   3.895   2.291   6.882 -0.8085  1.4579 -0.6572
    5bbb     C9  175   4.445   1.917   6.886 -0.8019  0.1034 -0.0068
    5bbb    H17  176   4.439   2.000   6.957  1.1253  0.3420 -0.0658
    5bbb    H18  177   4.547   1.878   6.871 -2.0593 -3.5740 -0.0437
    5bbb     O1  178   4.237   1.619   6.561 -0.0680 -0.7885 -0.2160
    5bbb    H19  179   4.156   1.884   6.872  0.8645 -2.5803 -2.3747
    6bbb     N1  180   2.922   2.155   5.729 -0.3624  0.1045 -0.3340
    6bbb     C1  181   3.047   2.245   5.710 -0.2739 -0.0035  0.8346
    6bbb     H1  182   3.055   2.250   5.602  0.7385  1.6850  0.9558
    6bbb     H2  183   3.138   2.197   5.747 -0.7699 -0.2456  1.7848
    6bbb     C2  184   2.797   2.204   5.658  0.9288  0.0544 -0.0982
    6bbb     H3  185   2.829   2.247   5.563 -0.5521  0.8513 -0.2786
    6bbb     H4  186   2.747   2.287   5.708  1.6536  0.5351 -0.1684
    6bbb     C3  187   2.966   2.022   5.671 -0.0647  0.3742  0.6511
    6bbb     H5  188   3.018   2.039   5.577  0.3333 -2.6445  0.2432
    6bbb     H6  189   2.874   1.974   5.636 -0.4928  0.5282  1.5339
    6bbb     C4  190   3.049   1.920   5.757 -0.2773  0.0392  0.4131
    6bbb     H7  191   3.140   1.962   5.802  0.5637 -3.1081  1.9733
    6bbb     H8  192   3.090   1.844   5.688 -1.6706  1.6091 -2.3337
    6bbb     C5  193   3.036   2.387   5.773 -0.3804  0.5582  0.1739
    6bbb     H9  194   3.028   2.395   5.882  1.0860  2.3863  0.2131
    6bbb    H10  195   2.952   2.446   5.733 -0.3839 -0.4506 -1.3945
    6bbb     C6  196   2.679   2.104   5.648  0.1828  0.7338  0.0208
    6bbb    H11  197   2.674   2.046   5.742 -0.8100  0.1203 -0.3970
    6bbb    H12  198   2.683   2.032   5.565  2.8079 -0.2970  0.9326
    6bbb     C7  199   2.963   1.854   5.868 -0.4842 -0.9703  0.2563
    6bbb    H13  200   2.895   1.789   5.812 -1.4318  0.2865 -0.0956
    6bbb    H14  201   2.911   1.932   5.924 -0.2753  0.0714 -0.9594
    6bbb     C8  202   2.543   2.179   5.634  0.1568 -0.1349  0.2991
    6bbb    H15  203   2.553   2.248   5.549 -2.5010  1.4980  1.1551
    6bbb    H16  204   2.457   2.112   5.620 -0.0805  0.4847 -1.5121
    6bbb     C9  205   3.162   2.459   5.729  0.0133  0.0734  0.7503
    6bbb    H17  206   3.165   2.467   5.620 -2.0734 -1.5836  0.5011
    6bbb    H18  207   3.247   2.402   5.769 -0.1791 -1.8793 -1.4313
    6bbb     O1  208   3.051   1.784   5.962 -0.0657 -0.0129 -0.0275
    6bbb    H19  209   2.898   2.158   5.829 -0.4365  1.0256 -0.3706
    7bbb     N1  210   2.405   1.355   6.640 -0.0029  0.2930 -0.5625
    7bbb     C1  211   2.296   1.430   6.566 -0.1503  0.8547  1.0809
    7bbb     H1  212   2.208   1.370   6.588  0.3023 -0.3681 -0.3130
    7bbb     H2  213   2.327   1.413   6.463  0.8666  0.6646  1.4085
    7bbb     C2  214   2.424   1.214   6.588  0.0957  0.4370  0.1769
    7bbb     H3  215   2.503   1.169   6.648 -0.1804 -1.6986 -0.9651
    7bbb     H4  216   2.452   1.226   6.483 -0.1377 -0.5622 -0.0049
    7bbb     C3  217   2.538   1.434   6.612  0.1715  0.1602 -0.3946
    7bbb     H5  218   2.502   1.533   6.638 -2.1695 -0.5862 -0.4701
    7bbb     H6  219   2.576   1.431   6.510  0.0694 -0.3702 -0.4243
    7bbb     C4  220   2.659   1.396   6.701  0.0748 -0.3435 -0.7239
    7bbb     H7  221   2.698   1.297   6.674  0.3798 -0.2350 -0.6866
    7bbb     H8  222   2.632   1.396   6.807  0.8539  2.7463 -0.4350
    7bbb     C5  223   2.262   1.575   6.593  0.0442 -0.8558  0.2107
    7bbb     H9  224   2.331   1.643   6.543 -1.5951  1.4602  0.9359
    7bbb    H10  225   2.269   1.600   6.700 -0.9313 -1.6761  0.4875
    7bbb     C6  226   2.304   1.120   6.581  0.1127  0.4857 -0.2364
    7bbb    H11  227   2.336   1.034   6.520  1.4695  1.4501 -0.9354
    7bbb    H12  228   2.211   1.164   6.543  1.4087  4.4196  0.6822
    7bbb     C7  229   2.773   1.506   6.696  0.2745  0.3616 -0.1349
    7bbb    H13  230   2.824   1.490   6.792 -0.5408 -0.7158  0.1494
    7bbb    H14  231   2.724   1.603   6.688  0.0964  0.2450 -0.4659
    7bbb     C8  232   2.270   1.068   6.720 -0.2924 -0.4568  0.3022
    7bbb    H15  233   2.277   1.157   6.783  0.4833 -1.4243  1.6208
    7bbb    H16  234   2.170   1.023   6.723 -0.9219  0.9462  1.1016
    7bbb     C9  235   2.128   1.629   6.532 -0.0136 -0.0648 -0.2722
    7bbb    H17  236   2.137   1.640   6.423  0.8245 -1.0996 -0.3185
    7bbb    H18  237   2.093   1.722   6.580 -0.9189 -1.0157  0.9861
    7bbb     O1  238   2.856   1.475   6.584 -0.0941  0.0786  0.2969
    7bbb    H19  239   2.383   1.354   6.741  2.3475 -1.0700  0.0149
    8bbb     N1  240   3.971  -0.224   5.560 -0.1369 -0.5995 -0.0400
    8bbb     C1  241   4.024  -0.339   5.638 -0.6456  0.3245  0.0031
    8bbb     H1  242   4.079  -0.305   5.726  0.5671  0.5644 -0.8351
    8bbb     H2  243   4.097  -0.385   5.572 -0.5889 -0.0851  0.3406
    8bbb     C2  244   3.876  -0.277   5.448 -0.6720  0.5443  0.0891
    8bbb     H3  245   3.807  -0.204   5.407  0.2689  1.6272  0.3952
    8bbb     H4  246   3.808  -0.345   5.499 -1.1945  1.1748  0.2354
    8bbb     C3  247   3.884  -0.138   5.650 -0.2492  0.1447 -0.1582
    8bbb     H5  248   3.838  -0.207   5.721 -1.5411  1.7386  0.6120
    8bbb     H6  249   3.804  -0.093   5.592  0.4984  0.9706 -0.5763
    8bbb     C4  250   3.967  -0.032   5.725  0.3378 -0.2211  0.4693
    8bbb     H7  251   3.997   0.041   5.649  0.9399 -0.3656  0.5700
    8bbb     H8  252   4.051  -0.073   5.781  0.1693 -0.3637  0.6182
    8bbb     C5  253   3.935  -0.452   5.671  0.5923 -0.8729 -0.5050
    8bbb     H9  254   3.921  -0.511   5.579  0.1403 -0.7376 -0.5242
    8bbb    H10  255   3.842  -0.420   5.718  0.2353  0.7748 -2.1938
    8bbb     C6  256   3.960  -0.350   5.336 -0.3128 -0.7196  0.1844
    8bbb    H11  257   3.999  -0.448   5.365  1.6853 -0.4611 -1.4277
    8bbb    H12  258   4.050  -0.291   5.317  0.2754 -1.6025  0.1792
    8bbb     C7  259   3.886   0.050   5.826  0.0205 -0.5527  0.7299
    8bbb    H13  260   3.941   0.118   5.892 -1.0079  1.1690 -0.1256
    8bbb    H14  261   3.833  -0.015   5.897 -0.5500  0.0825  0.8999
    8bbb     C8  262   3.867  -0.370   5.211 -0.0744  0.4731 -0.1475
    8bbb    H15  263   3.761  -0.379   5.239 -0.1682 -1.5001 -0.9744
    8bbb    H16  264   3.891  -0.286   5.144  0.4088  1.1246  0.8113
    8bbb     C9  265   4.014  -0.547   5.767 -0.1190 -0.5126  0.2663
    8bbb    H17  266   3.956  -0.639   5.777  0.4674 -0.9394 -0.2456
    8bbb    H18  267   4.040  -0.500   5.864  1.3507  1.4817 -1.0019
    8bbb     O1  268   3.783   0.126   5.750 -0.6683 -0.1348 -0.5229
    8bbb    H19  269   4.054  -0.177   5.522 -0.7542  0.2015 -0.4253
    9bbb     N1  270   3.571   0.275   5.311  0.3474 -0.0745 -0.3553
    9bbb     C1  271   3.450   0.310   5.400  0.0574  0.2311  0.2448
    9bbb     H1  272   3.367   0.346   5.340 -1.1205  2.0910  2.7780
    9bbb     H2  273   3.485   0.399   5.452 -1.5886 -0.2428  2.3097
    9bbb     C2  274   3.557   0.171   5.202 -0.3697  0.4523  0.2956
    9bbb     H3  275   3.576   0.073   5.244 -1.3679  0.4247  0.7009
    9bbb     H4  276   3.638   0.194   5.132 -1.1568  1.5452 -0.2904
    9bbb     C3  277   3.610   0.412   5.253 -0.4681  0.6218  0.4445
    9bbb     H5  278   3.614   0.488   5.331  2.8177  0.2212  0.8299
    9bbb     H6  279   3.537   0.451   5.182 -0.9416  1.6121  1.4519
    9bbb     C4  280   3.745   0.422   5.181  0.7037  0.1328  0.0798
    9bbb     H7  281   3.729   0.392   5.077 -1.3807 -3.5110  1.2538
    9bbb     H8  282   3.821   0.354   5.222  0.7764 -0.8607 -1.6312
    9bbb     C5  283   3.405   0.207   5.506 -0.4867  0.3816 -0.3885
    9bbb     H9  284   3.486   0.182   5.576 -0.7553 -1.5358 -0.7148
    9bbb    H10  285   3.394   0.105   5.468  0.8392 -0.6062  1.6723
    9bbb     C6  286   3.418   0.168   5.129  0.3422 -1.1073 -0.1646
    9bbb    H11  287   3.362   0.261   5.141  0.9933 -0.9450  2.0367
    9bbb    H12  288   3.348   0.091   5.166  0.7299 -2.1532 -1.5173
    9bbb     C7  289   3.802   0.564   5.175  0.1131 -0.2645 -1.7783
    9bbb    H13  290   3.738   0.637   5.125 -1.1284  0.0971  0.1980
    9bbb    H14  291   3.903   0.556   5.133  1.2992  1.1753  0.5846
    9bbb     C8  292   3.430   0.149   4.975 -0.0204 -0.4068 -0.3512
    9bbb    H15  293   3.493   0.061   4.954 -0.1675 -0.8264  0.8750
    9bbb    H16  294   3.332   0.139   4.926 -0.4032  1.1546  0.0540
    9bbb     C9  295   3.277   0.257   5.575 -0.2211 -0.2030  0.2217
    9bbb    H17  296   3.204   0.284   5.498 -0.5477 -0.6490  0.3718
    9bbb    H18  297   3.289   0.350   5.633  1.6725  0.0942 -0.5682
    9bbb     O1  298   3.811   0.600   5.319 -1.0855  0.4404  0.1984
    9bbb    H19  299   3.645   0.252   5.378  0.3152 -0.3115 -0.4008
   10bbb     N1  300   5.848   2.251   6.408 -0.1167 -0.0108  0.3753
   10bbb     C1  301   5.970   2.163   6.379 -0.1713  0.3072  0.0917
   10bbb     H1  302   6.049   2.207   6.440  0.3165 -0.6184  0.1465
   10bbb     H2  303   5.997   2.181   6.275 -0.9358  3.0487  0.2837
   10bbb     C2  304   5.888   2.365   6.499  0.1478 -0.8841 -0.5590
   10bbb     H3  305   5.972   2.420   6.455 -0.4085  0.3675 -0.0968
   10bbb     H4  306   5.922   2.320   6.592  2.3900 -0.3694 -1.0700
   10bbb     C3  307   5.812   2.312   6.277 -0.4518 -0.6389 -0.3865
   10bbb     H5  308   5.880   2.389   6.242  0.3641 -1.7814 -1.4359
   10bbb     H6  309   5.718   2.358   6.308 -1.2337 -1.5434 -1.3039
   10bbb     C4  310   5.765   2.214   6.170  0.7236 -0.2814  0.2504
   10bbb     H7  311   5.697   2.136   6.205  2.4155 -1.0534  1.9512
   10bbb     H8  312   5.850   2.167   6.118 -0.6122 -0.0606 -2.3137
   10bbb     C5  313   5.958   2.023   6.428  0.0341 -0.5878 -0.9808
   10bbb     H9  314   5.871   1.980   6.377 -0.2410  0.6230 -1.5621
   10bbb    H10  315   5.935   2.027   6.536 -0.9783  0.2476 -1.2079
   10bbb     C6  316   5.780   2.476   6.525  0.6121  0.3353 -0.0412
   10bbb    H11  317   5.688   2.425   6.554  0.2899  0.8863 -0.0934
   10bbb    H12  318   5.757   2.528   6.431 -1.9505 -0.1689  0.2592
   10bbb     C7  319   5.691   2.299   6.060  0.6756 -0.2965  0.7503
   10bbb    H13  320   5.664   2.239   5.972  1.5762 -0.5863  0.6672
   10bbb    H14  321   5.752   2.379   6.017  0.4093  0.8682  2.4500
   10bbb     C8  322   5.811   2.580   6.630 -0.0251  0.1847 -0.4290
   10bbb    H15  323   5.844   2.544   6.728 -0.7908  0.3469 -0.1048
   10bbb    H16  324   5.890   2.651   6.603  0.0450  0.1315 -0.3657
   10bbb     C9  325   6.092   1.953   6.409 -0.3243  0.1350  0.1313
   10bbb    H17  326   6.086   1.861   6.468  0.5888  0.2582  0.4350
   10bbb    H18  327   6.170   2.013   6.456 -2.0675  1.5497  1.3549
   10bbb     O1  328   5.575   2.370   6.114 -0.4654 -0.4190 -0.3881
   10bbb    H19  329   5.767   2.201   6.447  0.9847 -1.6778  0.6187
   11bbb     N1  330   5.143   2.434   5.237  0.0513  0.4256  0.4987
   11bbb     C1  331   5.288   2.485   5.271  0.4578 -0.2091 -0.3263
   11bbb     H1  332   5.357   2.418   5.218 -1.5178 -0.7017 -2.4398
   11bbb     H2  333   5.302   2.454   5.375 -2.1590 -0.2109  0.0920
   11bbb     C2  334   5.134   2.374   5.091 -0.6651  0.9924  0.4736
   11bbb     H3  335   5.043   2.314   5.087  0.0557 -0.0774 -0.9379
   11bbb     H4  336   5.208   2.296   5.073 -2.2952 -0.3453 -0.7330
   11bbb     C3  337   5.114   2.315   5.333 -0.4340  0.5995 -0.2082
   11bbb     H5  338   5.203   2.279   5.384 -2.5133 -1.8742  1.9348
   11bbb     H6  339   5.072   2.235   5.272  3.5689 -2.1414  0.3393
   11bbb     C4  340   5.007   2.339   5.441 -0.4758 -0.1453  0.7746
   11bbb     H7  341   4.913   2.370   5.393  1.1456  1.4816 -1.5316
   11bbb     H8  342   5.050   2.428   5.487 -0.3422 -0.0745  0.5143
   11bbb     C5  343   5.309   2.639   5.265 -0.6031  0.4500  0.1119
   11bbb     H9  344   5.217   2.685   5.304 -1.1391 -1.7063  1.5720
   11bbb    H10  345   5.331   2.669   5.162 -0.2437  0.8527  0.3035
   11bbb     C6  346   5.126   2.480   4.981 -0.3783  0.1708 -0.3682
   11bbb    H11  347   5.166   2.575   5.016 -0.2975  0.0623 -0.1586
   11bbb    H12  348   5.018   2.488   4.963 -0.7872 -1.9436  0.7382
   11bbb     C7  349   5.003   2.224   5.545  0.0620  0.4196  1.0643
   11bbb    H13  350   5.107   2.190   5.554  0.4301  0.7141 -1.4888
   11bbb    H14  351   4.939   2.139   5.519  1.8576 -0.5194 -0.5269
   11bbb     C8  352   5.198   2.435   4.849  0.5563 -0.2813  0.5029
   11bbb    H15  353   5.205   2.526   4.788  2.5426  1.1025  2.6456
   11bbb    H16  354   5.300   2.399   4.867  0.4820 -0.7339  0.0719
   11bbb     C9  355   5.439   2.684   5.335  0.3885 -0.1013 -0.3547
   11bbb    H17  356   5.438   2.664   5.443 -1.2350  1.9655  0.0887
   11bbb    H18  357   5.448   2.793   5.323 -0.4665  0.0037 -0.0570
   11bbb     O1  358   4.965   2.287   5.666 -0.1746  0.5788 -0.2963
   11bbb    H19  359   5.075   2.512   5.243  0.1843  0.6259 -0.4368
   12bbb     N1  360   3.915   2.739   6.860 -0.4393  0.4237 -0.1545
   12bbb     C1  361   4.027   2.717   6.958  0.1693 -0.2712  0.1523
   12bbb     H1  362   4.105   2.661   6.906  0.3779 -0.8080  1.0250
   12bbb     H2  363   3.982   2.641   7.021 -1.0593 -1.0787 -1.6121
   12bbb     C2  364   3.959   2.834   6.749 -0.0625 -0.2375  0.3114
   12bbb     H3  365   4.050   2.806   6.695  0.8609  2.0608  0.5830
   12bbb     H4  366   3.996   2.925   6.796 -0.7995 -0.5705  1.5784
   12bbb     C3  367   3.878   2.603   6.797  0.1141 -0.5534 -1.0243
   12bbb     H5  368   3.868   2.533   6.880  3.4116  1.3683  1.2340
   12bbb     H6  369   3.965   2.560   6.748  1.6436  0.4866  0.6466
   12bbb     C4  370   3.750   2.576   6.718  0.2751  0.0427 -0.7403
   12bbb     H7  371   3.763   2.593   6.611 -2.8877 -0.2246 -1.2611
   12bbb     H8  372   3.669   2.640   6.758  2.1205  0.2053  3.2263
   12bbb     C5  373   4.080   2.842   7.037  0.0753  0.0975 -0.8503
   12bbb     H9  374   4.023   2.931   7.006 -0.1179  0.3243  0.1434
   12bbb    H10  375   4.186   2.861   7.016 -0.2384  0.8721 -1.8167
   12bbb     C6  376   3.848   2.882   6.654 -0.0295  0.2201 -0.5044
   12bbb    H11  377   3.763   2.896   6.722  0.2439  2.1834 -0.5144
   12bbb    H12  378   3.814   2.798   6.592 -0.2664 -0.8704  1.0467
   12bbb     C7  379   3.711   2.430   6.746  0.1074 -0.7078 -0.2615
   12bbb    H13  380   3.621   2.410   6.686  0.6708  0.9771 -1.7398
   12bbb    H14  381   3.698   2.418   6.854 -0.7093 -0.1584 -0.2873
   12bbb     C8  382   3.882   3.007   6.575 -1.1626  0.3734  0.0093
   12bbb    H15  383   3.964   2.981   6.507 -0.4212  1.2290  0.5450
   12bbb    H16  384   3.796   3.040   6.515 -0.8811  0.2591 -0.4629
   12bbb     C9  385   4.071   2.817   7.190  0.7324  0.0082 -0.1159
   12bbb    H17  386   3.972   2.787   7.228  1.5144 -1.9046  0.5386
   12bbb    H18  387   4.097   2.912   7.239  0.1414  0.4848 -0.6973
   12bbb     O1  388   3.825   2.350   6.697 -0.8602 -0.3018 -0.1267
   12bbb    H19  389   3.838   2.783   6.912 -0.6372 -0.3622  0.2447
   13bbb     N1  390   4.154   1.433   7.034 -0.2860 -0.2219 -0.4307
   13bbb     C1  391   4.196   1.313   6.952  0.6007 -0.4155 -0.4133
   13bbb     H1  392   4.131   1.228   6.971  0.1019  0.1076  0.2672
   13bbb     H2  393   4.298   1.294   6.987  0.3733 -0.8741  0.0159
   13bbb     C2  394   4.138   1.399   7.185 -0.2735 -1.0395 -0.7050
   13bbb     H3  395   4.098   1.489   7.234 -0.9195 -0.9714 -1.3372
   13bbb     H4  396   4.235   1.376   7.230 -0.5639 -2.0783 -0.5698
   13bbb     C3  397   4.264   1.543   7.025 -0.1369 -0.7060  0.0102
   13bbb     H5  398   4.290   1.560   6.920 -2.1106  0.0975 -0.3956
   13bbb     H6  399   4.348   1.502   7.081 -1.1071 -0.5977  1.6111
   13bbb     C4  400   4.239   1.680   7.088 -1.1821  0.4286  0.3225
   13bbb     H7  401   4.224   1.661   7.195 -2.0755 -0.4655  0.0549
   13bbb     H8  402   4.143   1.720   7.054 -0.5049  3.1405  1.3869
   13bbb     C5  403   4.186   1.343   6.801 -0.2099  0.5397 -0.7467
   13bbb     H9  404   4.273   1.404   6.773  1.6615 -1.5354  0.2846
   13bbb    H10  405   4.091   1.393   6.776 -0.6652  0.4207  0.7060
   13bbb     C6  406   4.037   1.285   7.213 -0.2842 -0.1514 -0.1197
   13bbb    H11  407   4.076   1.190   7.174 -0.5999 -0.5139  0.4441
   13bbb    H12  408   3.945   1.309   7.158 -0.6689  0.5249  0.7917
   13bbb     C7  409   4.352   1.782   7.067  0.8234  0.5627  0.0378
   13bbb    H13  410   4.440   1.729   7.105 -1.8304 -4.6018 -0.2058
   13bbb    H14  411   4.331   1.872   7.125 -2.0870  1.4226 -2.0846
   13bbb     C8  412   4.006   1.285   7.363 -0.7053  0.0008 -0.3609
   13bbb    H15  413   4.102   1.261   7.410 -0.2493  3.2348  0.5734
   13bbb    H16  414   3.971   1.383   7.397 -0.7671 -0.3521  0.6301
   13bbb     C9  415   4.192   1.215   6.709  0.6949 -0.0844  0.7866
   13bbb    H17  416   4.190   1.252   6.606 -1.4545  1.2360  1.2293
   13bbb    H18  417   4.105   1.149   6.720  1.5627 -1.5904 -0.9464
   13bbb     O1  418   4.353   1.814   6.926  0.2858  0.1402 -0.1020
   13bbb    H19  419   4.060   1.462   7.002 -0.0930 -0.3299 -1.1256
   14ccc     C1  420   2.313   2.558   5.854 -0.0551 -0.0569 -0.5252
   14ccc     H1  421   2.216   2.522   5.819  0.4332 -0.4328 -1.5107
   14ccc     H2  422   2.368   2.625   5.788  1.4572  2.5805  3.0421
   14ccc     C2  423   2.405   2.433   5.881 -0.0471  0.0487 -0.4920
   14ccc     H3  424   2.502   2.458   5.924 -0.3183 -0.1677  0.2654
   14ccc     H4  425   2.359   2.368   5.956  0.7298  1.1157  0.9350
   14ccc     C3  426   2.416   2.353   5.748  0.6801 -0.7727  0.0860
   14ccc     H5  427   2.444   2.430   5.675 -0.5886  0.2729  0.6456
   14ccc     H6  428   2.322   2.299   5.732  0.9232 -1.5562  1.1829
   14ccc     N1  429   2.291   2.648   5.978 -0.4307  0.5664  0.8601
   14ccc     H7  430   2.380   2.660   6.029 -0.0615  1.0828  0.1058
   14ccc     H8  431   2.261   2.739   5.941 -1.5157 -0.1188 -0.0108
   14ccc     O1  432   2.524   2.259   5.754 -0.3363  0.0405  0.8862
   14ccc    H17  433   2.210   2.622   6.037  1.0616  0.9137  3.1890
   15ccc     C1  434   3.425   2.852   5.730  0.5736 -0.3055 -0.0541
   15ccc     H1  435   3.424   2.830   5.623 -1.4898 -0.1305 -0.1197
   15ccc     H2  436   3.512   2.802   5.772  0.6307  1.5286  2.2031
   15ccc     C2  437   3.301   2.791   5.794 -0.0346 -0.2434 -0.3058
   15ccc     H3  438   3.325   2.763   5.897  0.9938 -2.2122 -1.0165
   15ccc     H4  439   3.218   2.862   5.783  1.2446  1.1104 -1.5959
   15ccc     C3  440   3.265   2.660   5.714 -0.3687 -0.5250  0.1950
   15ccc     H5  441   3.355   2.598   5.720  0.1009  0.1006 -0.2957
   15ccc     H6  442   3.242   2.692   5.612 -0.1238  0.8655  0.5509
   15ccc     N1  443   3.447   3.006   5.739 -0.0455 -0.5463  0.0571
   15ccc     H7  444   3.427   3.044   5.832 -0.7415  0.3422 -0.4383
   15ccc     H8  445   3.545   3.027   5.714  0.6458 -0.4912  2.5089
   15ccc     O1  446   3.162   2.591   5.774  0.0934  0.1259 -0.2946
   15ccc    H17  447   3.384   3.050   5.671 -2.2253 -1.1497  1.5902
   16ccc     C1  448   2.398   0.762   7.087 -0.3902  1.0499  0.1080
   16ccc     H1  449   2.295   0.736   7.110  0.2239 -1.4053  0.3805
   16ccc     H2  450   2.430   0.847   7.148 -0.5639  1.3091 -0.1607
   16ccc     C2  451   2.416   0.802   6.934 -0.4023 -0.5324  0.5423
   16ccc     H3  452   2.523   0.815   6.912 -0.0279 -4.0915 -0.2919
   16ccc     H4  453   2.393   0.719   6.866  4.2329 -1.2530 -0.4863
   16ccc     C3  454   2.353   0.938   6.899  0.0183  0.0205  0.0561
   16ccc     H5  455   2.387   1.025   6.956  0.2203  0.1837 -0.3128
   16ccc     H6  456   2.245   0.930   6.918  0.2187  0.9366  1.8409
   16ccc     N1  457   2.461   0.637   7.133  0.5404  0.1391  0.0504
   16ccc     H7  458   2.557   0.629   7.095  0.9819 -1.1662  1.3424
   16ccc     H8  459   2.470   0.616   7.234 -1.2422  0.1589  0.2399
   16ccc     O1  460   2.371   0.967   6.760 -0.1551 -0.4383  0.0444
   16ccc    H17  461   2.408   0.563   7.084 -0.2153  1.9085 -1.9671
   17ccc     C1  462   1.966   1.304   6.362  0.3756  0.1238  0.4468
   17ccc     H1  463   1.869   1.264   6.393 -0.5931  1.4188 -0.7431
   17ccc     H2  464   2.043   1.284   6.436  0.9809 -1.6689 -0.6186
   17ccc     C2  465   1.949   1.454   6.339  0.5467  0.7874  0.1181
   17ccc     H3  466   2.042   1.497   6.300  0.1333 -0.2360 -2.1683
   17ccc     H4  467   1.869   1.466   6.264  0.8121  3.0478  0.1424
   17ccc     C3  468   1.918   1.535   6.460 -0.6876  0.6195  0.4622
   17ccc     H5  469   1.824   1.499   6.503 -1.6179  1.7005 -0.6177
   17ccc     H6  470   1.904   1.640   6.435 -1.9034  0.5448  0.7845
   17ccc     N1  471   2.008   1.233   6.239 -0.1158 -0.3374  0.2426
   17ccc     H7  472   1.934   1.234   6.168  0.2639  1.6973 -0.1845
   17ccc     H8  473   2.096   1.268   6.198 -1.1620  1.3667 -0.6419
   17ccc     O1  474   2.029   1.531   6.559 -0.1599 -0.3243  0.2598
   17ccc    H17  475   2.014   1.132   6.260  0.2181 -0.6065 -1.0716
   18ccc     C1  476   4.004  -0.651   4.907  0.4708 -0.3021 -0.0040
   18ccc     H1  477   4.086  -0.637   4.978  0.5693  2.5329 -0.5772
   18ccc     H2  478   3.976  -0.571   4.839 -2.0114 -0.7527  0.3778
   18ccc     C2  479   3.873  -0.669   4.986 -0.2509  0.3167  0.1756
   18ccc     H3  480   3.799  -0.708   4.916  1.3693 -1.1554 -0.7920
   18ccc     H4  481   3.883  -0.748   5.061  1.7869  1.8542  1.6540
   18ccc     C3  482   3.819  -0.537   5.039 -0.5077  0.6613 -0.3345
   18ccc     H5  483   3.717  -0.554   5.075  0.0966  1.5396  1.9571
   18ccc     H6  484   3.824  -0.460   4.960 -1.4757  1.0850  0.0121
   18ccc     N1  485   4.044  -0.776   4.820  0.0008  0.0781 -0.7005
   18ccc     H7  486   4.142  -0.773   4.789 -0.0127 -0.0911 -0.7639
   18ccc     H8  487   4.028  -0.863   4.873  0.2851 -1.0223 -2.3273
   18ccc     O1  488   3.903  -0.496   5.148 -0.3962  0.1550  0.3005
   18ccc    H17  489   3.986  -0.779   4.735 -1.5170 -0.2207  0.3059
   19ccc     C1  490   4.398  -0.865   5.717 -0.1894 -0.2590 -0.7525
   19ccc     H1  491   4.462  -0.883   5.630  0.5559  0.6163 -0.4017
   19ccc     H2  492   4.321  -0.942   5.721 -2.6420  2.1365  1.5657
   19ccc     C2  493   4.342  -0.719   5.697 -0.3563  0.6450  0.7157
   19ccc     H3  494   4.403  -0.637   5.737  1.7449 -1.2234  1.5543
   19ccc     H4  495   4.338  -0.700   5.589 -0.8303 -2.2188  0.1647
   19ccc     C3  496   4.208  -0.702   5.771  0.4325  0.6504  0.8080
   19ccc     H5  497   4.222  -0.666   5.874 -0.0489  1.5055  0.5817
   19ccc     H6  498   4.152  -0.795   5.760 -1.5676  1.6634  1.9163
   19ccc     N1  499   4.492  -0.885   5.839  0.1996 -0.3815 -0.7647
   19ccc     H7  500   4.533  -0.979   5.842  0.4815 -0.2407  1.0275
   19ccc     H8  501   4.572  -0.820   5.842 -0.2585  0.1573  0.4131
   19ccc     O1  502   4.141  -0.585   5.708  0.3922 -0.7042 -0.1478
   19ccc    H17  503   4.437  -0.871   5.925 -3.4041  0.1487 -2.8858
   20ccc     C1  504   3.586   0.515   4.760 -0.2417  1.4357  0.4100
   20ccc     H1  505   3.679   0.569   4.745  0.8766 -0.2605  0.9843
   20ccc     H2  506   3.553   0.523   4.864  1.1611 -0.1820  1.0222
   20ccc     C2  507   3.610   0.363   4.739 -0.2382  0.8057 -0.9469
   20ccc     H3  508   3.622   0.337   4.633  0.7380  0.4766 -0.7627
   20ccc     H4  509   3.700   0.335   4.795 -0.6160 -1.4019 -1.3494
   20ccc     C3  510   3.493   0.278   4.786  0.8767 -0.2543 -0.0156
   20ccc     H5  511   3.500   0.178   4.742  2.8241 -0.9254  1.6494
   20ccc     H6  512   3.404   0.332   4.750  1.2572  0.1363 -0.3765
   20ccc     N1  513   3.488   0.581   4.671  0.1790  0.4405 -0.2376
   20ccc     H7  514   3.390   0.564   4.697  0.1601  1.5881  0.5079
   20ccc     H8  515   3.505   0.683   4.670 -0.0494  0.5101  1.3737
   20ccc     O1  516   3.494   0.269   4.927  0.2642  0.0715  0.6649
   20ccc    H17  517   3.492   0.556   4.571  0.9099  2.8963 -0.9143
   21ccc     C1  518   3.043  -0.028   5.816 -0.1330  0.5944 -0.0593
   21ccc     H1  519   3.116  -0.070   5.746 -2.0568  0.9984 -2.4243
   21ccc     H2  520   2.957  -0.023   5.750  1.3263  0.6263 -2.0504
   21ccc     C2  521   3.101   0.101   5.868 -0.1328 -0.3789 -0.1618
   21ccc     H3  522   3.027   0.150   5.932 -0.5534 -1.8542  0.5441
   21ccc     H4  523   3.194   0.085   5.924  0.6720 -2.1403 -1.8721
   21ccc     C3  524   3.123   0.194   5.744  0.0630  0.2715  0.9675
   21ccc     H5  525   3.146   0.294   5.783 -0.6139  0.2322  1.4899
   21ccc     H6  526   3.026   0.208   5.695 -0.2359 -1.3504  1.0115
   21ccc     N1  527   3.001  -0.133   5.908 -0.1210  0.0555  0.6649
   21ccc     H7  528   2.973  -0.095   6.000  2.1605  2.5708  0.4053
   21ccc     H8  529   2.922  -0.190   5.872  0.6508 -1.7923  1.7560
   21ccc     O1  530   3.231   0.153   5.651 -0.0388  0.3521 -0.2938
   21ccc    H17  531   3.067  -0.212   5.914 -1.0461 -0.8664 -0.6162
   22ccc     C1  532   5.605   2.985   6.823  0.5889  0.5339  0.1409
   22ccc     H1  533   5.601   2.951   6.927 -1.1803 -1.0332 -0.3710
   22ccc     H2  534   5.525   3.056   6.801  0.1055 -0.1421 -0.3263
   22ccc     C2  535   5.583   2.862   6.729 -0.7409 -0.7161  0.1194
   22ccc     H3  536   5.489   2.810   6.755  0.0486 -1.9274  0.6462
   22ccc     H4  537   5.581   2.894   6.624  0.8309 -3.0572 -0.6973
   22ccc     C3  538   5.702   2.766   6.741 -0.4941  1.2833  0.6724
   22ccc     H5  539   5.721   2.742   6.847 -1.7939 -1.2604  0.4087
   22ccc     H6  540   5.785   2.826   6.704 -0.3504 -0.0774 -1.3569
   22ccc     N1  541   5.732   3.067   6.795 -0.4644 -0.8179  0.8801
   22ccc     H7  542   5.739   3.094   6.696 -1.0408 -2.9331  0.2109
   22ccc     H8  543   5.727   3.152   6.853 -1.2080  0.2128 -0.6361
   22ccc     O1  544   5.688   2.649   6.658  0.2409 -0.1375  1.1036
   22ccc    H17  545   5.818   3.015   6.819  0.5269  0.2919 -0.1438
   23ccc     C1  546   6.141   1.787   5.993  0.2742  0.2280 -0.0397
   23ccc     H1  547   6.038   1.796   6.027  0.4623  0.7819  0.4139
   23ccc     H2  548   6.172   1.692   6.037  1.0330  0.2579 -0.4914
   23ccc     C2  549   6.228   1.891   6.062 -0.3475 -0.2460  0.1555
   23ccc     H3  550   6.332   1.874   6.031 -0.1871  1.2558 -0.2282
   23ccc     H4  551   6.224   1.996   6.031  3.1637  0.7693  2.5100
   23ccc     C3  552   6.237   1.891   6.222 -0.3954  0.6847  0.3614
   23ccc     H5  553   6.309   1.970   6.246  1.1146 -0.6196  0.2702
   23ccc     H6  554   6.287   1.799   6.254 -0.3031  0.4407 -0.4573
   23ccc     N1  555   6.140   1.792   5.842 -0.1355 -0.0246 -0.2057
   23ccc     H7  556   6.116   1.887   5.811  0.7583 -0.6395 -3.0979
   23ccc     H8  557   6.235   1.764   5.815  0.9529  2.7191  0.4296
   23ccc     O1  558   6.103   1.917   6.270 -0.3830 -0.3235  0.4562
   23ccc    H17  559   6.065   1.729   5.810  1.3874 -3.3146  2.1740
   24ccc     C1  560   4.977   2.092   4.656  1.1332  0.0606  0.4041
   24ccc     H1  561   5.078   2.065   4.687  2.3922  0.2108 -3.1510
   24ccc     H2  562   4.978   2.095   4.547  0.8081 -3.4628  0.1765
   24ccc     C2  563   4.913   2.234   4.703 -0.8468  0.2382  0.1335
   24ccc     H3  564   4.839   2.258   4.626 -0.1216 -0.9079 -0.9555
   24ccc     H4  565   4.864   2.237   4.801  0.5798  1.1202  0.8590
   24ccc     C3  566   5.014   2.354   4.704 -0.5364  0.6013  0.0081
   24ccc     H5  567   4.961   2.439   4.751 -0.5187  0.9714 -0.6290
   24ccc     H6  568   5.038   2.374   4.599 -1.1173 -2.5760 -0.8339
   24ccc     N1  569   4.895   1.979   4.697  0.0806  0.4407 -0.8522
   24ccc     H7  570   4.863   1.992   4.794 -1.7635  0.2481 -1.4014
   24ccc     H8  571   4.809   1.972   4.640 -1.6995 -0.0135  1.7010
   24ccc     O1  572   5.125   2.326   4.790 -0.0845  0.4758  0.4604
   24ccc    H17  573   4.941   1.888   4.690  1.0982  0.6459  1.9245
   25ccc     C1  574   5.885   2.512   5.343  0.0169  0.6446  0.4017
   25ccc     H1  575   5.865   2.536   5.447 -1.1278  3.7699 -0.4405
   25ccc     H2  576   5.953   2.590   5.310  0.1333  0.7297  0.8386
   25ccc     C2  577   5.760   2.508   5.262 -0.3429 -0.2864  0.4483
   25ccc     H3  578   5.794   2.523   5.159 -1.8180  0.1787 -0.0028
   25ccc     H4  579   5.699   2.418   5.273  0.6166 -1.4315 -2.6014
   25ccc     C3  580   5.675   2.627   5.305  0.5035 -0.0948  0.5761
   25ccc     H5  581   5.712   2.715   5.252  1.4360 -1.0117 -0.3606
   25ccc     H6  582   5.682   2.645   5.412 -0.0930  2.1899  0.2876
   25ccc     N1  583   5.970   2.388   5.325 -0.6820  1.3414  0.0448
   25ccc     H7  584   5.996   2.363   5.228 -0.4302  1.7027  0.0173
   25ccc     H8  585   6.060   2.400   5.374 -1.4665 -0.3722  2.0407
   25ccc     O1  586   5.542   2.603   5.270  0.1006  0.0797  0.2070
   25ccc    H17  587   5.923   2.310   5.372 -0.6590  1.4249  0.2092
   26ccc     C1  588   3.678   3.268   6.691  0.1997  0.0636 -0.4230
   26ccc     H1  589   3.720   3.262   6.791 -0.1221  1.3192 -0.2048
   26ccc     H2  590   3.644   3.167   6.667  0.6163 -0.7517  2.0852
   26ccc     C2  591   3.794   3.299   6.592 -0.2388  0.2253 -0.0118
   26ccc     H3  592   3.770   3.267   6.490  0.7611  1.1389 -0.5539
   26ccc     H4  593   3.806   3.407   6.580 -0.2667  0.1142 -1.2294
   26ccc     C3  594   3.931   3.239   6.639  0.3483  0.6594  0.3244
   26ccc     H5  595   3.962   3.305   6.720 -0.4374  1.0457  0.3179
   26ccc     H6  596   4.009   3.246   6.563 -0.5813 -0.3340 -0.7667
   26ccc     N1  597   3.546   3.346   6.679  0.2542  0.0261  0.0069
   26ccc     H7  598   3.487   3.313   6.601 -1.7071  1.6802  0.7127
   26ccc     H8  599   3.486   3.313   6.756 -0.1858  0.3811 -0.1798
   26ccc     O1  600   3.912   3.108   6.674 -0.2305  0.3775  0.5566
   26ccc    H17  601   3.554   3.447   6.664  1.3571 -0.2248 -1.2469
   27ccc     C1  602   4.211   2.378   7.311 -0.4657 -0.1908  0.5887
   27ccc     H1  603   4.306   2.324   7.312 -0.6020 -0.4282  1.1042
   27ccc     H2  604   4.164   2.364   7.214  1.3289  1.3754 -0.5728
   27ccc     C2  605   4.242   2.522   7.327 -1.2345  0.1685 -0.2927
   27ccc     H3  606   4.290   2.544   7.424  1.7762  0.9408 -1.8350
   27ccc     H4  607   4.317   2.545   7.250  0.1105  0.0448  0.9266
   27ccc     C3  608   4.121   2.610   7.313  0.1548  0.1749  0.0095
   27ccc     H5  609   4.081   2.647   7.408  0.5725 -0.1988  0.3321
   27ccc     H6  610   4.041   2.553   7.264  0.1852 -0.3051  0.5090
   27ccc     N1  611   4.128   2.317   7.421 -0.2301 -0.2242  0.7951
   27ccc     H7  612   4.123   2.217   7.395  0.5007  0.2635 -1.4675
   27ccc     H8  613   4.164   2.336   7.516  1.5787  1.3553 -0.1469
   27ccc     O1  614   4.165   2.714   7.219  0.2853  0.1352  0.4894
   27ccc    H17  615   4.034   2.356   7.408 -0.1844 -0.4669 -0.3834
   28ccc     C1  616   3.554   1.085   7.423  0.1364 -0.1020 -0.2703
   28ccc     H1  617   3.522   0.996   7.477 -0.5479  0.2716 -0.0441
   28ccc     H2  618   3.507   1.089   7.325 -2.5625 -1.5185  0.8510
   28ccc     C2  619   3.708   1.082   7.434 -0.1750 -0.1227 -0.0695
   28ccc     H3  620   3.717   1.052   7.539 -0.3313  4.2705  1.4452
   28ccc     H4  621   3.741   1.002   7.367 -0.0376  0.7740 -1.1141
   28ccc     C3  622   3.780   1.214   7.398 -0.2284  0.0500 -0.5187
   28ccc     H5  623   3.763   1.290   7.475  0.5002 -1.0294  0.7556
   28ccc     H6  624   3.749   1.235   7.295  1.0990 -1.5156 -1.2791
   28ccc     N1  625   3.481   1.191   7.497  0.2858  0.9776  0.2325
   28ccc     H7  626   3.492   1.171   7.597  0.8458  0.9303  0.1637
   28ccc     H8  627   3.518   1.285   7.477  0.6484  1.0316  1.1209
   28ccc     O1  628   3.924   1.181   7.398  0.4826 -0.1101 -0.1046
   28ccc    H17  629   3.382   1.189   7.466  0.1911 -0.6230  0.5978
   29ccc     C1  630   4.563   0.996   6.679  0.6598  0.2511 -0.0723
   29ccc     H1  631   4.556   1.085   6.742 -0.6005 -0.5670  0.9774
   29ccc     H2  632   4.601   1.022   6.580 -1.6591 -0.3053 -1.1621
   29ccc     C2  633   4.425   0.931   6.682 -0.3866  0.1171  0.2408
   29ccc     H3  634   4.432   0.846   6.613 -1.6416  0.4236 -0.2944
   29ccc     H4  635   4.395   0.898   6.783 -0.2879  1.9914  0.9221
   29ccc     C3  636   4.309   1.029   6.646 -0.3758 -0.3768 -0.3625
   29ccc     H5  637   4.217   0.968   6.650 -1.0895  0.7295  1.5869
   29ccc     H6  638   4.318   1.065   6.543  0.5450 -2.6572 -1.1570
   29ccc     N1  639   4.671   0.895   6.734  0.0212  0.1650  0.0844
   29ccc     H7  640   4.659   0.861   6.831 -0.9314 -0.2620 -0.1720
   29ccc     H8  641   4.673   0.814   6.670  0.9229 -0.5721  1.0052
   29ccc     O1  642   4.303   1.139   6.743  0.5519  0.9257 -0.2348
   29ccc    H17  643   4.768   0.930   6.736  0.1522 -0.2192  1.4165
   30SOL     OW  644   5.083   3.982   4.525 -0.7291 -0.3874  1.0444
   30SOL    HW1  645   4.992   3.995   4.552 -1.8192 -1.4824 -1.8167
   30SOL    HW2  646   5.097   3.888   4.533 -1.0102 -0.7312 -1.5887
   31SOL     OW  647   3.269   5.338   4.110 -0.3133 -0.0793 -0.0699
   31SOL    HW1  648   3.331   5.379   4.049 -0.8375  0.3464 -0.3249
   31SOL    HW2  649   3.291   5.245   4.108 -0.3794 -0.0828 -0.9727
   32SOL     OW  650   1.006   0.853   4.268 -0.1436  0.3258 -0.4134
   32SOL    HW1  651   0.913   0.867   4.283 -0.3428  0.7587 -1.8992
   32SOL    HW2  652   1.010   0.781   4.205  0.5977 -0.6376  0.6887
   33SOL     OW  653   1.978   2.742   4.636  0.0855  0.3370 -0.2959
   33SOL    HW1  654   2.063   2.741   4.680 -0.2452 -0.5236  0.3333
   33SOL    HW2  655   2.000   2.733   4.543  0.6327 -1.3399 -0.0432
   34SOL     OW  656   3.535   3.769   4.601  0.4481 -0.0840 -0.2513
   34SOL    HW1  657   3.572   3.761   4.513 -1.0892  1.4268 -1.0796
   34SOL    HW2  658   3.496   3.856   4.603 -0.0330 -0.2995  1.7555
   35SOL     OW  659   2.786   0.664   2.021  0.7936 -0.4397 -0.4317
   35SOL    HW1  660   2.840   0.701   2.090 -0.7790 -0.0974  0.6634
   35SOL    HW2  661   2.711   0.724   2.014 -0.9954 -2.4534  0.2500
   36SOL     OW  662   3.995   6.352   2.472  0.1735  0.2094  0.4584
   36SOL    HW1  663   4.023   6.431   2.517  2.1964  1.4267 -2.5841
   36SOL    HW2  664   4.070   6.293   2.478 -0.6651 -0.8264  1.1948
   37SOL     OW  665   3.684   5.416   5.138 -0.2627 -0.8521  0.9536
   37SOL    HW1  666   3.695   5.444   5.229 -1.1224 -0.2638  0.8897
   37SOL    HW2  667   3.731   5.483   5.087 -1.2448 -0.2073  0.8743
   38SOL     OW  668   7.543   2.850   4.458 -0.1005  0.3301 -0.0797
   38SOL    HW1  669   7.599   2.904   4.402 -0.3609 -0.8054 -1.4867
   38SOL    HW2  670   7.514   2.910   4.527  0.7430  1.6107 -0.7915
   39SOL     OW  671   0.446   2.521   0.122  0.0485  0.3231 -0.0322
   39SOL    HW1  672   0.386   2.579   0.170  2.0880  0.5360  2.5481
   39SOL    HW2  673   0.530   2.568   0.125  0.7549 -0.7417 -1.9534
   40SOL     OW  674   2.655   5.634   6.103  1.0475 -0.3998  0.2728
   40SOL    HW1  675   2.675   5.698   6.035  0.3698 -1.6771 -1.2044
   40SOL    HW2  676   2.561   5.617   6.094  0.5692  0.5822  2.6532
   41SOL     OW  677   0.436   7.727   5.553 -0.9702  0.2118  0.3628
   41SOL    HW1  678   0.511   7.771   5.594 -1.3047 -0.2213  1.4760
   41SOL    HW2  679   0.413   7.783   5.478  1.0072 -0.0949 -0.5532
   42SOL     OW  680   3.955   0.041   7.135 -0.1557  0.3054  0.3358
   42SOL    HW1  681   3.963   0.077   7.047  0.7371 -0.2428  0.1835
   42SOL    HW2  682   4.035   0.067   7.179  0.5789 -1.5289  0.1926
   43SOL     OW  683   0.043   4.459   2.274 -0.4746 -0.4396  0.4635
   43SOL    HW1  684   0.046   4.429   2.183  0.6944 -0.3271  0.4553
   43SOL    HW2  685   0.134   4.460   2.303 -0.9206 -1.5899  2.0295
   44SOL     OW  686   7.560   3.984   1.346 -0.1293 -0.0434  0.0748
   44SOL    HW1  687   7.570   3.917   1.413 -2.1892  1.3970  1.9745
   44SOL    HW2  688   7.609   4.059   1.378  1.8302 -0.4044 -1.8414
   45SOL     OW  689   7.013   0.371   6.558  0.3626  0.6242 -0.2320
   45SOL    HW1  690   7.029   0.350   6.650  1.2138  0.0858 -0.4892
   45SOL    HW2  691   6.922   0.401   6.556 -0.3057 -1.1456  0.5025
   46SOL     OW  692   2.193   1.321   4.048  0.3125  0.1930 -0.1876
   46SOL    HW1  693   2.257   1.312   4.119 -1.4081 -1.1364  1.2881
   46SOL    HW2  694   2.134   1.391   4.079  1.0402  1.4751 -1.5743
   47SOL     OW  695   3.204   4.642   0.340 -0.1796 -0.2352  0.1789
   47SOL    HW1  696   3.291   4.679   0.353  0.3170 -1.3646  0.1187
   47SOL    HW2  697   3.144   4.711   0.370  0.7304  0.4465  0.4624
   48SOL     OW  698   2.471   1.956   1.285 -0.7282  0.1671 -0.2612
   48SOL    HW1  699   2.483   2.050   1.274  0.3314  0.0755  0.0839
   48SOL    HW2  700   2.559   1.919   1.283 -0.8514 -0.4852  2.6142
   49SOL     OW  701   0.397   2.418   5.175  0.0186 -0.6884 -0.4336
   49SOL    HW1  702   0.336   2.447   5.243  0.3936 -1.8803  0.4559
   49SOL    HW2  703   0.356   2.341   5.137  1.5339 -2.4017  1.1679
   50SOL     OW  704   6.349   2.123   1.495 -0.3172  0.7618 -0.3279
   50SOL    HW1  705   6.404   2.071   1.555  0.8525 -0.9239 -2.6826
   50SOL    HW2  706   6.333   2.204   1.542  2.3600  0.4246  1.4131
   51SOL     OW  707   0.940   1.897   3.910 -0.4970 -0.8172  0.0574
   51SOL    HW1  708   0.991   1.898   3.828  0.7894 -3.1597  0.7390
   51SOL    HW2  709   1.005   1.885   3.979 -1.4049  2.4216  1.6835
   52SOL     OW  710   6.630   0.567   4.271  0.2069  0.2281  0.5489
   52SOL    HW1  711   6.554   0.527   4.315 -0.4907  0.9397  0.0277
   52SOL    HW2  712   6.703   0.509   4.291 -0.8566 -1.6124 -0.6197
   53SOL     OW  713   0.474   6.292   4.670  0.7470  0.2082  0.2919
   53SOL    HW1  714   0.409   6.238   4.715 -1.2544  2.0502 -0.2320
   53SOL    HW2  715   0.471   6.264   4.579 -1.3207  1.9854 -0.2748
   54SOL     OW  716   0.849   2.292   1.744  0.4298  0.9204  0.5336
   54SOL    HW1  717   0.765   2.259   1.711 -0.2113  1.2726  1.7658
   54SOL    HW2  718   0.827   2.338   1.825  2.0694 -0.8322  2.0914
   55SOL     OW  719   1.475   0.535   0.059  0.3337 -0.2474 -0.3059
   55SOL    HW1  720   1.412   0.600   0.091  0.9061 -0.2227  0.8073
   55SOL    HW2  721   1.428   0.489  -0.011  0.2517  2.0101 -1.8141
   56SOL     OW  722   4.586   7.035   7.610  0.4657  0.3637  0.4074
   56SOL    HW1  723   4.496   7.005   7.621 -0.0754  1.7750  0.1138
   56SOL    HW2  724   4.580   7.101   7.541  2.0674 -0.9222 -1.0235
   57SOL     OW  725   3.701   6.834   1.361  0.8656  0.2140  0.4210
   57SOL    HW1  726   3.779   6.877   1.326  2.4550 -0.6332  2.6411
   57SOL    HW2  727   3.679   6.767   1.296  0.9312  1.5474 -1.0309
   58SOL     OW  728   4.174   2.418   1.107 -0.4214  0.3636  0.5117
   58SOL    HW1  729   4.181   2.434   1.013  0.0894  0.5302  0.5752
   58SOL    HW2  730   4.101   2.357   1.115  0.4963 -0.9014 -0.1491
   59SOL     OW  731   3.952   1.180   2.737  0.0212  0.1767 -0.4996
   59SOL    HW1  732   3.857   1.168   2.728  0.3243 -3.9697 -0.2553
   59SOL    HW2  733   3.984   1.179   2.647 -0.1412  2.1472 -0.6133
   60SOL     OW  734   0.977   4.391   1.525 -0.3894 -0.2660  0.5263
   60SOL    HW1  735   0.920   4.326   1.485 -3.0127  2.6631 -0.9210
   60SOL    HW2  736   1.019   4.435   1.451 -0.2989  1.0090  1.3018
   61SOL     OW  737   5.408   0.331   3.388 -0.7075  0.2793  0.2218
   61SOL    HW1  738   5.431   0.302   3.476 -1.6958 -1.5847 -0.0906
   61SOL    HW2  739   5.490   0.324   3.339 -0.3437  0.5261  0.7766
   62SOL     OW  740   3.926   4.833   0.427  0.3947  0.4575  0.5846
   62SOL    HW1  741   3.924   4.790   0.342 -0.7621  0.3531  0.6466
   62SOL    HW2  742   4.009   4.880   0.428  0.5103  0.3066 -0.5184
   63SOL     OW  743   4.497   5.693   5.561  0.2163 -0.2848 -0.1501
   63SOL    HW1  744   4.508   5.636   5.638  1.0748 -1.9804 -1.4471
   63SOL    HW2  745   4.586   5.718   5.537  0.0131 -0.3057 -0.9536
   64SOL     OW  746   3.107   7.680   0.277 -0.3763  0.2681  0.0814
   64SOL    HW1  747   3.102   7.733   0.356  0.4606 -0.7538  0.8557
   64SOL    HW2  748   3.028   7.627   0.278 -1.5811  1.9506 -1.0768
   65SOL     OW  749   4.205   6.395   3.171  0.3535  0.6992  0.1674
   65SOL    HW1  750   4.183   6.392   3.078 -1.0458  1.8526  0.4162
   65SOL    HW2  751   4.275   6.461   3.177  0.6439  0.4159 -0.0976
   66SOL     OW  752   1.715   3.878   0.679 -0.0148 -0.6982  0.1558
   66SOL    HW1  753   1.755   3.822   0.613  1.6974 -0.4421  0.9013
   66SOL    HW2  754   1.741   3.838   0.762 -0.0083  0.3706  0.6831
   67SOL     OW  755   2.695   0.703   3.606 -0.1562  0.3660 -0.0903
   67SOL    HW1  756   2.621   0.659   3.647 -0.7768  1.2172 -0.2816
   67SOL    HW2  757   2.722   0.645   3.535 -0.2855 -0.2070  0.3275
   68SOL     OW  758   5.937   1.018   0.591 -0.5418  0.0025  0.3758
   68SOL    HW1  759   5.975   1.094   0.545 -1.3696  1.0063  1.2997
   68SOL    HW2  760   5.945   0.946   0.528 -0.2385  0.9772 -0.7416
   69SOL     OW  761   7.532   6.332   6.148 -0.3975  0.1118  0.3310
   69SOL    HW1  762   7.626   6.328   6.165 -0.3233 -1.3706 -0.1865
   69SOL    HW2  763   7.491   6.339   6.234  0.1498 -1.1472  0.7196
   70SOL     OW  764   1.990   7.201   2.324 -0.1596  0.2474  0.3285
   70SOL    HW1  765   2.039   7.144   2.383 -0.7897  0.5657  1.1848
   70SOL    HW2  766   2.047   7.277   2.312 -0.5969  0.8239  1.6845
   71SOL     OW  767   1.100   3.700   5.015  0.5708  0.3214  0.0240
   71SOL    HW1  768   1.181   3.649   5.014  0.9075  0.8369 -1.9025
   71SOL    HW2  769   1.129   3.790   5.029  0.0050  0.1489  3.0266
   72SOL     OW  770   6.585   4.073   4.498  0.0881 -0.0137  0.0447
   72SOL    HW1  771   6.650   4.140   4.521 -0.2531  0.4168 -0.2440
   72SOL    HW2  772   6.635   3.991   4.498  1.0559  0.5219 -1.9149
   73SOL     OW  773   3.459   0.652   7.348  0.4204 -0.0111 -0.6049
   73SOL    HW1  774   3.508   0.603   7.281 -0.3621 -0.7773 -0.6297
   73SOL    HW2  775   3.527   0.692   7.402  1.1131 -1.9625  0.0331
   74SOL     OW  776   6.218   3.412   0.836 -0.2617  0.0840 -0.0466
   74SOL    HW1  777   6.305   3.444   0.813 -1.2102  3.4120  0.3973
   74SOL    HW2  778   6.172   3.408   0.752 -0.5058  1.2918  0.0115
   75SOL     OW  779   5.747   6.395   3.688 -0.3052 -0.1836 -0.3951
   75SOL    HW1  780   5.716   6.305   3.695 -0.3453 -0.1373  0.0540
   75SOL    HW2  781   5.671   6.449   3.709 -0.4651 -0.0287 -1.3583
   76SOL     OW  782   2.672   2.762   5.960  0.2277  0.4058  0.0675
   76SOL    HW1  783   2.722   2.685   5.988 -0.1818 -0.9039 -2.5325
   76SOL    HW2  784   2.686   2.826   6.031  3.2734 -0.8481  0.7835
   77SOL     OW  785   0.312   0.964   1.785 -0.6274  0.4378  0.1625
   77SOL    HW1  786   0.336   0.958   1.878 -0.2856  1.2003  0.1334
   77SOL    HW2  787   0.322   0.875   1.752 -1.1084  0.0829  0.9393
   78SOL     OW  788   6.556   1.158   1.229 -0.7991 -0.0981 -0.2138
   78SOL    HW1  789   6.478   1.202   1.196 -1.5666 -0.9177  0.4728
   78SOL    HW2  790   6.533   1.066   1.230 -0.6789 -0.1714  2.1930
   79SOL     OW  791   4.462   4.785   1.493 -0.3390 -0.4069 -0.4338
   79SOL    HW1  792   4.426   4.848   1.556 -1.0997 -1.2617  0.0117
   79SOL    HW2  793   4.545   4.823   1.466 -0.4526  0.4441  0.3574
   80SOL     OW  794   4.031   7.157   1.461 -0.1634  0.1267  0.0778
   80SOL    HW1  795   4.055   7.241   1.423 -1.8357 -0.3007 -2.1930
   80SOL    HW2  796   4.113   7.107   1.464  0.3167  0.7504 -1.6156
   81SOL     OW  797   0.216   4.520   5.729  0.2570  0.3526 -0.4058
   81SOL    HW1  798   0.253   4.453   5.787 -0.9575 -1.2002 -1.3234
   81SOL    HW2  799   0.134   4.482   5.699  0.9932  0.9069 -3.4297
   82SOL     OW  800   6.181   3.918   5.792  0.5441  0.0136  0.3202
   82SOL    HW1  801   6.259   3.932   5.846  1.2642 -1.3569 -0.3153
   82SOL    HW2  802   6.213   3.923   5.702  0.0624 -1.3397  0.0582
   83SOL     OW  803   0.624   0.444   7.295  0.3551  0.1597 -0.1697
   83SOL    HW1  804   0.649   0.352   7.300  0.1775  0.1692  1.5433
   83SOL    HW2  805   0.542   0.444   7.246  1.0305 -0.4301 -1.3392
   84SOL     OW  806   4.574   7.025   5.474  0.0127  0.1848  0.4824
   84SOL    HW1  807   4.497   7.015   5.418 -0.3127  1.4591  0.6795
   84SOL    HW2  808   4.648   7.010   5.416 -0.3130  1.6136 -0.3465
   85SOL     OW  809   5.264   7.227   4.793 -0.3612  0.0834 -0.0835
   85SOL    HW1  810   5.273   7.295   4.726  1.4911 -0.1986 -0.1679
   85SOL    HW2  811   5.278   7.145   4.745 -0.3084 -0.2030  0.4219
   86SOL     OW  812   2.654   1.359   3.937 -0.1540 -0.0917 -0.0138
   86SOL    HW1  813   2.638   1.411   3.858  1.9131  0.5907 -0.0462
   86SOL    HW2  814   2.747   1.374   3.957 -0.8444  0.6880  3.1901
   87SOL     OW  815   1.816   4.529   5.223 -0.2302  0.2273  0.6434
   87SOL    HW1  816   1.731   4.514   5.263  0.2643 -1.9556  0.9664
   87SOL    HW2  817   1.849   4.609   5.265 -2.6165  1.9068 -0.4512
   88SOL     OW  818   2.051   0.055   2.550  0.0765 -0.4129  0.6463
   88SOL    HW1  819   1.975   0.093   2.505  1.7411  1.4000 -0.7673
   88SOL    HW2  820   2.066  -0.028   2.505  0.6308  0.5482 -0.9867
   89SOL     OW  821   2.167   5.368   1.512 -0.9992  0.0689 -0.7378
   89SOL    HW1  822   2.184   5.371   1.607  1.2731 -0.2953 -1.0692
   89SOL    HW2  823   2.184   5.457   1.482 -1.5054  0.1306 -0.8557
   90SOL     OW  824   6.670   4.279   6.275  0.5555 -0.0033  0.0948
   90SOL    HW1  825   6.604   4.218   6.243  0.1580  1.2599 -1.6715
   90SOL    HW2  826   6.623   4.337   6.335  0.0586  0.7239 -0.9494
   91SOL     OW  827   3.443   6.289   0.150  0.0067 -0.2843 -0.2459
   91SOL    HW1  828   3.388   6.245   0.214 -0.7007 -0.6441 -1.0810
   91SOL    HW2  829   3.388   6.360   0.116  0.7612  0.6036  0.3261
   92SOL     OW  830   1.598   5.900   5.006  0.1918 -0.3485 -0.3419
   92SOL    HW1  831   1.605   5.867   5.095  1.6347  0.7124 -0.0471
   92SOL    HW2  832   1.520   5.856   4.971  0.4662 -1.9342  0.9235
   93SOL     OW  833   0.728   0.105   4.777  0.8952 -0.1882  0.1502
   93SOL    HW1  834   0.674   0.118   4.855  1.0773 -1.2975  0.4772
   93SOL    HW2  835   0.689   0.161   4.711  2.0283  2.5516  1.6127
   94SOL     OW  836   0.729   4.197   7.515 -0.5819 -0.3378 -0.0921
   94SOL    HW1  837   0.708   4.175   7.606  0.3289 -0.2434  0.1572
   94SOL    HW2  838   0.820   4.167   7.505 -0.7805 -0.6293 -1.0680
   95SOL     OW  839   7.515   3.027   3.183  0.4532  0.1196  0.2661
   95SOL    HW1  840   7.465   3.103   3.150 -0.7950 -1.1569 -0.9345
   95SOL    HW2  841   7.490   3.020   3.275  0.2077  0.8873  0.2659
   96SOL     OW  842   0.338   2.126   3.774  0.6277  0.7122  0.0454
   96SOL    HW1  843   0.290   2.092   3.850 -0.2951  0.8182 -0.4758
   96SOL    HW2  844   0.300   2.213   3.758  2.0115  1.4301  0.5138
   97SOL     OW  845   0.142   5.279   0.935  0.0473  0.8651 -0.9459
   97SOL    HW1  846   0.109   5.314   1.018 -2.0646 -1.7765 -0.5640
   97SOL    HW2  847   0.082   5.314   0.869 -1.0202 -0.5521 -0.7663
   98SOL     OW  848   6.583   3.946   4.789 -0.6845 -0.1519 -0.6125
   98SOL    HW1  849   6.536   4.027   4.768 -1.0208  0.4250  2.0037
   98SOL    HW2  850   6.663   3.950   4.737 -0.7454  1.8358 -0.6172
   99SOL     OW  851   4.877   2.698   0.797 -0.0225  0.6330  0.5432
   99SOL    HW1  852   4.846   2.751   0.871  0.4318  2.7843 -0.7153
   99SOL    HW2  853   4.964   2.733   0.777 -0.9432  1.5877 -2.2702
  100SOL     OW  854   3.810   5.515   5.366 -0.1484  0.1369  0.6432
  100SOL    HW1  855   3.821   5.484   5.456  1.2585 -0.8001  0.1933
  100SOL    HW2  856   3.791   5.608   5.375  1.2692  0.3447  1.9023
  101SOL     OW  857   1.448   6.776   6.642 -0.2085  0.0480 -0.4002
  101SOL    HW1  858   1.376   6.750   6.701  0.5333 -1.1539  0.0041
  101SOL    HW2  859   1.488   6.693   6.616 -0.3793  0.5714 -2.4541
  102SOL     OW  860   6.926   7.507   7.400  0.0009 -0.3156  0.4573
  102SOL    HW1  861   6.987   7.542   7.335  0.5113  1.6340  1.9163
  102SOL    HW2  862   6.846   7.489   7.350  0.5709  0.5547 -0.8264
  103SOL     OW  863   0.030   6.403   6.214  0.4231  0.6170 -0.9824
  103SOL    HW1  864   0.020   6.497   6.229 -0.4799  0.2287  1.2388
  103SOL    HW2  865   0.049   6.367   6.301 -1.3446 -1.4955 -1.3970
  104SOL     OW  866   5.101   0.624   1.456  0.5585 -0.3142  0.6867
  104SOL    HW1  867   5.109   0.533   1.484 -0.2857 -0.1767  1.4084
  104SOL    HW2  868   5.185   0.664   1.481  1.6119 -1.2573 -1.1570
  105SOL     OW  869   1.259   1.841   5.516  0.1050  0.1786  0.3695
  105SOL    HW1  870   1.207   1.912   5.480  1.6647  0.0494 -2.4000
  105SOL    HW2  871   1.349   1.860   5.489  0.6918 -2.4205  0.1817
  106SOL     OW  872   6.061   1.156   6.968  0.3635 -0.0739  0.5978
  106SOL    HW1  873   6.128   1.218   6.996  0.8124  0.1832 -0.9533
  106SOL    HW2  874   5.979   1.204   6.975  0.6830  0.6414 -0.3673
  107SOL     OW  875   6.319   7.663   2.890  0.2533 -0.1730 -0.0169
  107SOL    HW1  876   6.309   7.568   2.900  0.4281 -0.0830  1.1842
  107SOL    HW2  877   6.384   7.673   2.820 -1.7933 -0.8722 -2.1269
  108SOL     OW  878   6.499   2.466   6.773  0.4166  0.7324 -0.1236
  108SOL    HW1  879   6.523   2.512   6.854  3.3701 -1.4454  0.4033
  108SOL    HW2  880   6.485   2.376   6.801 -2.2933  0.6125 -1.5667
  109SOL     OW  881   0.170   5.701   2.530  0.5873  0.1560 -0.0686
  109SOL    HW1  882   0.173   5.754   2.451  0.9869 -1.1500 -0.9458
  109SOL    HW2  883   0.077   5.689   2.547  0.4890 -0.3702 -0.9144
  110SOL     OW  884   3.755   0.306   1.091 -0.6744  0.9441 -0.2175
  110SOL    HW1  885   3.780   0.272   1.176 -1.4636  2.3226  0.5988
  110SOL    HW2  886   3.825   0.278   1.032 -0.3970 -0.4943  0.7526
  111SOL     OW  887   6.813   5.891   4.252 -0.3796  0.0991 -0.3153
  111SOL    HW1  888   6.865   5.811   4.256 -1.5148 -0.5996  1.6506
  111SOL    HW2  889   6.723   5.862   4.267 -1.2513  1.4204 -2.4296
  112SOL     OW  890   2.112   0.348   5.029  0.0163  0.5174 -0.3889
  112SOL    HW1  891   2.187   0.288   5.036 -1.0929 -0.8167  0.9776
  112SOL    HW2  892   2.078   0.333   4.941  0.2306 -0.3086 -0.3448
  113SOL     OW  893   4.776   1.719   0.536  0.3991  0.1360  0.1915
  113SOL    HW1  894   4.722   1.642   0.554  0.3614  0.2680  0.6614
  113SOL    HW2  895   4.855   1.684   0.495 -0.0051 -0.0681 -0.4128
  114SOL     OW  896   6.927   2.824   4.031  0.2462  0.1443 -0.0151
  114SOL    HW1  897   6.862   2.863   3.973  0.8939 -0.3400 -1.0945
  114SOL    HW2  898   7.009   2.868   4.009  0.6134 -0.4546  0.1230
  115SOL     OW  899   6.592   4.194   3.073  0.8959  0.4819 -0.1730
  115SOL    HW1  900   6.687   4.186   3.082  0.9017  1.6485  0.9145
  115SOL    HW2  901   6.580   4.274   3.023  0.4580  0.9589  0.6869
  116SOL     OW  902   1.426   0.868   0.641 -1.1245 -0.5650 -0.1382
  116SOL    HW1  903   1.466   0.932   0.583  1.7434 -0.7137  1.4694
  116SOL    HW2  904   1.398   0.920   0.717 -1.9818 -0.7891 -0.2910
  117SOL     OW  905   4.572   7.206   7.412 -0.6051  0.2050  0.4547
  117SOL    HW1  906   4.482   7.237   7.407 -0.2051  1.8940  2.3603
  117SOL    HW2  907   4.624   7.284   7.430  1.1271 -0.8699  0.4226
  118SOL     OW  908   7.657   4.668   5.763 -0.4274  0.4694 -0.5383
  118SOL    HW1  909   7.664   4.580   5.727 -0.3508  1.0517 -2.0477
  118SOL    HW2  910   7.578   4.667   5.817  0.6635 -1.0397  1.1148
  119SOL     OW  911   2.569   6.869   4.760 -0.1157  0.2129 -0.0978
  119SOL    HW1  912   2.549   6.840   4.671 -1.3982  1.4578 -0.2580
  119SOL    HW2  913   2.605   6.957   4.749 -0.4340  0.4419  0.6366
  120SOL     OW  914   2.038   5.073   7.381 -0.5220 -0.4371  0.1210
  120SOL    HW1  915   2.102   5.094   7.449 -0.2226 -0.2565 -0.2137
  120SOL    HW2  916   2.085   5.015   7.321 -1.1269 -1.5152  0.6655
  121SOL     OW  917   0.437   3.746   0.469 -0.2397  0.3212 -0.3192
  121SOL    HW1  918   0.461   3.752   0.376 -2.8206 -0.4797 -1.1292
  121SOL    HW2  919   0.382   3.823   0.483  0.1744  0.4593  0.5964
  122SOL     OW  920   3.581   4.556   2.304 -0.0687  0.3789  0.3058
  122SOL    HW1  921   3.584   4.465   2.333 -0.0476  0.5659  0.8962
  122SOL    HW2  922   3.640   4.603   2.364  1.2899  0.4941 -1.0477
  123SOL     OW  923   1.304   6.551   5.835 -0.5915 -0.1274  0.1862
  123SOL    HW1  924   1.317   6.520   5.924 -2.0135 -2.3754 -0.3281
  123SOL    HW2  925   1.238   6.620   5.842 -0.3606  0.0208  0.9057
  124SOL     OW  926   4.250   3.780   2.606 -0.6415 -0.5330 -0.1397
  124SOL    HW1  927   4.280   3.844   2.542  1.3859 -0.6082  0.6686
  124SOL    HW2  928   4.208   3.833   2.674 -0.1410 -0.1666 -0.1066
  125SOL     OW  929   1.699   6.173   6.536 -0.1570  0.5113  0.1789
  125SOL    HW1  930   1.794   6.173   6.522  0.1837  1.8575  2.0269
  125SOL    HW2  931   1.666   6.102   6.482  2.1031 -0.9902  0.6474
  126SOL     OW  932   2.601   3.076   6.913 -0.1371  0.4274 -0.3379
  126SOL    HW1  933   2.522   3.045   6.957  0.9136  0.1959  1.5265
  126SOL    HW2  934   2.655   2.997   6.903 -0.0321  0.6165 -1.3869
  127SOL     OW  935   3.420   4.530   7.427  0.1140  0.3475 -0.3103
  127SOL    HW1  936   3.494   4.590   7.437  0.8419 -0.0792 -2.5539
  127SOL    HW2  937   3.360   4.575   7.368 -1.6582  0.8160  1.7108
  128SOL     OW  938   5.812   6.990   0.368  0.4250  0.1572 -0.2841
  128SOL    HW1  939   5.760   6.918   0.333 -1.2877  1.0803  0.2520
  128SOL    HW2  940   5.886   6.947   0.410  0.2260 -1.1968 -1.2295
  129SOL     OW  941   5.628   5.246   7.285 -0.0812  0.1854 -0.2240
  129SOL    HW1  942   5.698   5.213   7.229 -1.7339 -1.4473 -1.4423
  129SOL    HW2  943   5.603   5.330   7.246  0.9932  0.6451  0.0604
  130SOL     OW  944   1.521   5.383   4.453 -0.2985 -0.0440  0.0551
  130SOL    HW1  945   1.600   5.403   4.403 -0.2379  1.4330  0.6825
  130SOL    HW2  946   1.455   5.443   4.418 -0.0596  1.5672  2.1965
  131SOL     OW  947   6.005   3.569   5.700 -0.1456 -0.3781  0.0458
  131SOL    HW1  948   5.914   3.548   5.722 -0.0554 -1.0210 -0.1832
  131SOL    HW2  949   6.007   3.570   5.605 -0.0014  0.0416  0.0509
  132SOL     OW  950   6.926   1.776   1.407 -0.9484  0.9052  0.1707
  132SOL    HW1  951   6.863   1.847   1.407 -0.0448  1.7504 -1.3271
  132SOL    HW2  952   6.961   1.774   1.318 -0.7016 -1.2044  0.2664
  133SOL     OW  953   5.016   3.957   2.454 -0.3949  0.1958 -0.0928
  133SOL    HW1  954   5.038   4.024   2.389 -3.1904  1.3155 -0.0194
  133SOL    HW2  955   5.072   3.978   2.529 -1.4339  2.8010  0.0808
  134SOL     OW  956   6.991   7.695   3.333 -0.1678 -0.3760 -0.6798
  134SOL    HW1  957   7.037   7.618   3.298  1.1828  0.5107 -0.9459
  134SOL    HW2  958   6.953   7.737   3.256 -0.8900 -0.7579 -0.5368
  135SOL     OW  959   4.726   1.389   3.620  0.6036  0.6139 -0.3488
  135SOL    HW1  960   4.658   1.455   3.610 -0.4024 -0.3899 -0.3137
  135SOL    HW2  961   4.720   1.335   3.541 -0.6596 -1.2553  0.9167
  136SOL     OW  962   3.344   1.347   6.536  0.3065  0.4699  0.8838
  136SOL    HW1  963   3.315   1.256   6.533 -0.6990  0.7890 -0.7764
  136SOL    HW2  964   3.439   1.342   6.529  0.1602 -0.4611 -2.3540
  137SOL     OW  965   2.163   1.199   2.624 -0.3124 -0.4028 -0.1667
  137SOL    HW1  966   2.079   1.158   2.640 -1.4645  2.3025  1.3997
  137SOL    HW2  967   2.185   1.243   2.706  1.3518  1.1033 -1.3258
  138SOL     OW  968   1.949   2.019   3.516  0.1823  0.0838  0.4807
  138SOL    HW1  969   2.019   2.073   3.552  2.2822 -1.8823 -0.3804
  138SOL    HW2  970   1.984   1.987   3.432 -1.9510 -0.6051 -0.2104
  139SOL     OW  971   1.791   6.678   5.361  0.7668 -0.5808  0.1789
  139SOL    HW1  972   1.774   6.760   5.315  1.0985 -0.2671  0.6062
  139SOL    HW2  973   1.737   6.613   5.316  0.4057 -0.1034 -0.0836
  140SOL     OW  974   7.287   3.164   1.996  0.2155 -0.1996 -0.6660
  140SOL    HW1  975   7.312   3.189   2.085 -1.0809 -0.7235 -0.1345
  140SOL    HW2  976   7.287   3.246   1.947  1.9214 -0.0375 -0.4561
  141SOL     OW  977   4.070   7.339   3.270  0.1193  0.3087 -0.3307
  141SOL    HW1  978   4.099   7.278   3.201 -2.3656  0.6820 -1.8228
  141SOL    HW2  979   4.141   7.404   3.276  1.0651 -0.5663 -1.4462
  142SOL     OW  980   6.046   0.921   5.381 -0.0720 -0.7045  0.6588
  142SOL    HW1  981   6.129   0.880   5.404  0.5859 -0.6780 -1.3963
  142SOL    HW2  982   6.067   1.014   5.369 -0.7748 -0.3880  1.7438
  143SOL     OW  983   4.678   3.698   0.315  0.5325 -0.5846  0.9348
  143SOL    HW1  984   4.773   3.690   0.314  0.6610  0.6030  1.6026
  143SOL    HW2  985   4.655   3.693   0.408  0.1871  1.4241  1.0025
  144SOL     OW  986   7.029   0.693   3.729 -0.3075  0.1596  0.2559
  144SOL    HW1  987   6.993   0.605   3.723  1.6575 -0.7130  0.3533
  144SOL    HW2  988   7.076   0.694   3.812 -0.9964  1.5988  0.6606
  145SOL     OW  989   7.256   6.356   1.794 -0.0982  0.0812  0.0134
  145SOL    HW1  990   7.219   6.370   1.707  0.5149  1.0777 -0.1097
  145SOL    HW2  991   7.186   6.313   1.843 -0.0716 -1.5350 -1.2715
  146SOL     OW  992   5.917   0.027   1.661 -0.2381 -0.4500  0.5293
  146SOL    HW1  993   5.924  -0.067   1.642  0.6787 -0.2015 -0.5030
  146SOL    HW2  994   5.915   0.068   1.574 -0.5990  0.4928  0.9751
  147SOL     OW  995   4.464   3.600   2.564 -0.5789  0.3187  0.4049
  147SOL    HW1  996   4.414   3.519   2.577 -1.4418  0.8803  0.6891
  147SOL    HW2  997   4.400   3.669   2.578  0.1064  1.0523 -0.0418
  148SOL     OW  998   1.566   6.259   6.228  0.2355 -0.3884  0.2834
  148SOL    HW1  999   1.505   6.278   6.299 -1.0607  0.1354 -0.9211
  148SOL    HW2 1000   1.642   6.314   6.247 -0.8167  1.1214  0.3374
  149SOL     OW 1001   1.609   2.315   3.180  0.0835  0.0481 -0.7027
  149SOL    HW1 1002   1.675   2.336   3.114  0.1213 -0.6281 -0.8890
  149SOL    HW2 1003   1.657   2.266   3.247 -0.2517 -0.5856 -0.9173
  150SOL     OW 1004   2.456   0.376   0.631 -0.2455  0.1581 -0.1186
  150SOL    HW1 1005   2.428   0.394   0.541  1.2065 -2.5873 -1.2373
  150SOL    HW2 1006   2.533   0.433   0.643 -1.9645  2.4986  0.4366
  151SOL     OW 1007   0.207   0.612   2.383 -0.5530 -0.4961  0.5372
  151SOL    HW1 1008   0.228   0.610   2.290  0.4990  1.0629  0.7131
  151SOL    HW2 1009   0.217   0.521   2.412 -1.2683 -1.0765 -0.9152
  152SOL     OW 1010   4.095   1.770   3.478 -0.3288  0.3687  0.3160
  152SOL    HW1 1011   4.115   1.724   3.559 -1.0605 -0.3957  0.0751
  152SOL    HW2 1012   4.181   1.794   3.443  0.0219  0.0794  0.9562
  153SOL     OW 1013   0.670   2.494   4.459 -0.1412 -0.0409 -0.6723
  153SOL    HW1 1014   0.637   2.463   4.543 -0.5023  0.2496 -0.7033
  153SOL    HW2 1015   0.597   2.481   4.398  0.2723 -0.6732 -1.0398
  154SOL     OW 1016   4.667   5.662   0.772  0.5070 -0.1242 -0.0250
  154SOL    HW1 1017   4.611   5.703   0.839 -0.4464 -0.2517 -0.7243
  154SOL    HW2 1018   4.700   5.583   0.814 -2.1723 -1.6278 -0.4825
  155SOL     OW 1019   3.278   6.696   1.989  0.4117 -0.0883 -0.3207
  155SOL    HW1 1020   3.307   6.702   1.898  0.4999 -0.5312 -0.3228
  155SOL    HW2 1021   3.357   6.672   2.038  0.4017  0.3194 -0.1040
  156SOL     OW 1022   2.743   1.755   3.395 -0.0740  0.2029  0.4330
  156SOL    HW1 1023   2.689   1.685   3.359  0.7309 -0.3311  0.2401
  156SOL    HW2 1024   2.737   1.825   3.330  0.1960 -0.2016 -0.0412
  157SOL     OW 1025   7.209   1.941   2.670  0.3125 -0.0959 -0.0725
  157SOL    HW1 1026   7.189   1.996   2.594  1.0563  2.1074  1.2288
  157SOL    HW2 1027   7.131   1.949   2.726  0.4740 -0.2616  0.1782
  158SOL     OW 1028   6.712   0.784   7.159  0.1936  0.3165  0.4676
  158SOL    HW1 1029   6.690   0.805   7.249 -2.2881  0.1535 -0.0258
  158SOL    HW2 1030   6.771   0.854   7.131  0.3610  0.7928  1.9652
  159SOL     OW 1031   3.174   7.374   7.586 -0.2229  0.7358  0.1633
  159SOL    HW1 1032   3.079   7.364   7.594 -0.1127  0.5967  1.4180
  159SOL    HW2 1033   3.194   7.456   7.629  0.1976  0.9354 -0.3998
  160SOL     OW 1034   1.889   6.618   0.506  0.1144 -0.1339  0.2781
  160SOL    HW1 1035   1.921   6.528   0.512 -0.1654 -0.1299  2.2643
  160SOL    HW2 1036   1.968   6.671   0.491  0.2693 -0.6813 -0.9730
  161SOL     OW 1037   7.142   1.278   0.233 -0.1690 -0.3801 -0.1222
  161SOL    HW1 1038   7.050   1.259   0.216 -0.3811  2.3007 -2.7150
  161SOL    HW2 1039   7.173   1.202   0.282 -2.9852 -2.8073 -1.7468
  162SOL     OW 1040   1.941   2.595   3.349  0.1573  0.0214  0.0544
  162SOL    HW1 1041   1.927   2.559   3.436 -1.3277  0.0262 -0.1406
  162SOL    HW2 1042   1.968   2.686   3.364 -2.3598  0.7685  0.5669
  163SOL     OW 1043   2.519   3.249   4.806 -0.0824  0.2786 -0.2811
  163SOL    HW1 1044   2.482   3.296   4.881 -1.0376  0.2841 -0.7389
  163SOL    HW2 1045   2.607   3.225   4.834 -0.5344 -0.0188  0.9820
  164SOL     OW 1046   2.411   0.344   0.340 -0.7520 -0.2310 -0.3005
  164SOL    HW1 1047   2.363   0.263   0.322  0.8580 -1.5072  0.8354
  164SOL    HW2 1048   2.477   0.349   0.271 -2.2871  1.3923 -1.7219
  165SOL     OW 1049   5.504   5.280   6.111  0.0582 -0.1290  0.5238
  165SOL    HW1 1050   5.411   5.302   6.105  0.0569  0.4581  2.1058
  165SOL    HW2 1051   5.506   5.206   6.173  0.5952 -0.5936 -0.0376
  166SOL     OW 1052   2.071   0.870   1.503 -0.4045  0.1428 -0.5204
  166SOL    HW1 1053   2.027   0.951   1.478 -0.1364 -0.0694 -1.7245
  166SOL    HW2 1054   2.136   0.856   1.435  0.3375 -0.4906  0.2895
  167SOL     OW 1055   3.320   2.183   2.506 -0.1016  0.0694  0.3528
  167SOL    HW1 1056   3.359   2.139   2.431 -2.0530 -2.1563  0.5240
  167SOL    HW2 1057   3.226   2.184   2.488 -0.3485  2.6449  1.2343
  168SOL     OW 1058   1.673   0.692   6.839 -0.3575 -0.6782 -0.0001
  168SOL    HW1 1059   1.673   0.750   6.763 -0.7177  1.0591  1.2502
  168SOL    HW2 1060   1.765   0.683   6.862 -0.3810  0.8812  0.8240
  169SOL     OW 1061   1.770   5.921   5.563 -0.0625  0.0420  0.5662
  169SOL    HW1 1062   1.770   6.005   5.608  1.0251  0.3136  0.1217
  169SOL    HW2 1063   1.859   5.913   5.528  0.1069 -1.6727  1.2876
  170SOL     OW 1064   3.277   4.326   3.204  0.1720 -0.2651  0.7281
  170SOL    HW1 1065   3.223   4.351   3.128  0.1390  0.8834  1.1049
  170SOL    HW2 1066   3.367   4.330   3.172  0.1533  0.1272  0.7183
  171SOL     OW 1067   7.533   7.613   3.216  0.0089  0.5709 -0.2204
  171SOL    HW1 1068   7.532   7.578   3.305 -1.7123  0.7370 -0.1420
  171SOL    HW2 1069   7.621   7.592   3.183 -0.4798 -2.7497  0.2271
  172SOL     OW 1070   7.353   4.279   6.774 -0.2055  0.2648 -0.3996
  172SOL    HW1 1071   7.292   4.284   6.847  0.0663 -0.1729 -0.1298
  172SOL    HW2 1072   7.301   4.298   6.696 -0.7220 -0.2574 -0.1901
  173SOL     OW 1073   1.584   1.992   3.011 -0.3070 -0.7255 -0.4548
  173SOL    HW1 1074   1.552   1.933   2.942  0.0871 -3.5308  1.5598
  173SOL    HW2 1075   1.534   2.072   2.999 -1.8412 -1.8869 -2.6329
  174SOL     OW 1076   0.144   3.842   5.330 -0.4139 -0.4996 -0.1886
  174SOL    HW1 1077   0.214   3.867   5.269 -0.2675  1.7953  0.8076
  174SOL    HW2 1078   0.189   3.799   5.402 -0.0806  0.2824  0.0878
  175SOL     OW 1079   5.804   2.748   7.471  0.5255  0.5106  0.0716
  175SOL    HW1 1080   5.882   2.701   7.499 -0.1246  0.6772  2.3819
  175SOL    HW2 1081   5.836   2.821   7.418  1.7875 -0.3875 -0.4283
  176SOL     OW 1082   2.969   6.023   3.324  0.0621  0.4277  0.1863
  176SOL    HW1 1083   2.959   6.115   3.348 -2.0867  0.1498  0.6158
  176SOL    HW2 1084   3.036   6.022   3.257 -1.6092  2.6584 -1.6712
  177SOL     OW 1085   2.249   4.121   1.277  0.0196  0.4980 -0.0172
  177SOL    HW1 1086   2.295   4.202   1.254  1.4007 -0.6932 -1.6234
  177SOL    HW2 1087   2.317   4.063   1.311 -0.6275 -0.6198 -0.5646
  178SOL     OW 1088   6.307   5.684   0.676  0.1057 -0.1879 -0.3612
  178SOL    HW1 1089   6.220   5.710   0.705 -0.2642 -2.3385  0.6572
  178SOL    HW2 1090   6.292   5.632   0.597  0.2424 -1.7955  0.6026
  179SOL     OW 1091   3.960   5.768   5.825 -0.0730 -0.2700  0.3955
  179SOL    HW1 1092   4.035   5.725   5.784 -1.8852 -2.1069 -1.1351
  179SOL    HW2 1093   3.884   5.718   5.797 -1.8341  0.8445  2.7904
  180SOL     OW 1094   5.668   0.528   1.346  0.6760  0.2449 -0.4227
  180SOL    HW1 1095   5.728   0.465   1.307  1.9186  0.6395  0.7932
  180SOL    HW2 1096   5.589   0.477   1.365 -0.1604  0.0801 -3.6217
  181SOL     OW 1097   0.383   5.219   1.814 -0.0533 -0.0563 -0.2577
  181SOL    HW1 1098   0.323   5.146   1.825 -1.0853  0.9241  0.8542
  181SOL    HW2 1099   0.470   5.181   1.830 -0.5661 -1.0321  0.2956
  182SOL     OW 1100   0.174   1.915   1.963 -0.6518 -0.1493 -0.1759
  182SOL    HW1 1101   0.203   1.841   1.910 -0.1417 -0.2634  0.2525
  182SOL    HW2 1102   0.203   1.893   2.052  1.6324  1.6691 -0.3927
  183SOL     OW 1103   5.692   3.912   4.436 -0.2111 -0.3155  0.2510
  183SOL    HW1 1104   5.747   3.904   4.358 -1.8195  0.6962 -1.0288
  183SOL    HW2 1105   5.653   3.825   4.447 -0.9510 -0.1348 -0.8443
  184SOL     OW 1106   5.070   2.200   6.915 -0.0480  0.0889  0.2844
  184SOL    HW1 1107   5.125   2.219   6.990 -1.5610 -0.5204  1.6038
  184SOL    HW2 1108   4.987   2.243   6.935 -1.1972 -1.8750  0.0065
  185SOL     OW 1109   6.886   2.137   7.623  0.6110 -0.1895  0.1890
  185SOL    HW1 1110   6.841   2.209   7.667  0.1172 -0.9436  0.9630
  185SOL    HW2 1111   6.970   2.173   7.596 -0.3397  1.1911 -1.0765
  186SOL     OW 1112   4.354   1.447   4.102  0.0382  0.2299 -0.5400
  186SOL    HW1 1113   4.299   1.500   4.159  0.4245 -0.6866  0.7360
  186SOL    HW2 1114   4.310   1.450   4.017 -0.1619  2.2189 -0.4202
  187SOL     OW 1115   0.745   5.204   4.389 -0.1799 -0.9578  0.1203
  187SOL    HW1 1116   0.715   5.279   4.441 -1.4716 -0.1145 -1.6872
  187SOL    HW2 1117   0.840   5.204   4.398 -0.2807 -0.0137  1.3552
  188SOL     OW 1118   7.289   5.703   7.717  0.1321 -0.0350 -0.1519
  188SOL    HW1 1119   7.252   5.791   7.716  1.1362  0.4621  1.8003
  188SOL    HW2 1120   7.371   5.712   7.765 -0.0594 -2.1459  0.6771
  189SOL     OW 1121   2.845   4.919   4.403 -0.4168 -0.1440 -0.0792
  189SOL    HW1 1122   2.879   4.900   4.491  0.7129  0.2456 -0.4147
  189SOL    HW2 1123   2.857   5.013   4.393 -0.5416 -0.1888 -0.6550
  190SOL     OW 1124   5.049   2.696   1.477  0.1085 -0.4817 -0.0309
  190SOL    HW1 1125   5.082   2.625   1.533  0.3236  0.2792  0.8230
  190SOL    HW2 1126   4.971   2.727   1.521  1.5715  1.7288  1.1850
  191SOL     OW 1127   5.866   7.209   6.068 -0.5127 -0.2471  0.3157
  191SOL    HW1 1128   5.926   7.202   6.142  1.7739 -0.5139 -1.4689
  191SOL    HW2 1129   5.839   7.301   6.068  0.8837  0.1793  0.4320
  192SOL     OW 1130   1.603   2.755   3.009  0.4890  0.4114 -0.0518
  192SOL    HW1 1131   1.593   2.843   3.045 -1.3886 -0.1457  0.9030
  192SOL    HW2 1132   1.580   2.765   2.916  0.0355  0.8861  0.1067
  193SOL     OW 1133   3.842   7.443   7.509  0.0274  0.4852 -0.5482
  193SOL    HW1 1134   3.821   7.522   7.560 -1.6837  0.4675 -1.1609
  193SOL    HW2 1135   3.863   7.476   7.421  1.8707  0.4271 -0.1640
  194SOL     OW 1136   3.091   6.006   2.166 -0.4572  0.0903  0.3758
  194SOL    HW1 1137   3.064   5.983   2.255 -3.0987 -0.5037 -0.5060
  194SOL    HW2 1138   3.089   5.924   2.118 -1.6908  0.7770 -0.8263
  195SOL     OW 1139   1.364   4.996   0.455  0.1642 -0.3267  0.1440
  195SOL    HW1 1140   1.356   4.988   0.360  1.2701 -3.0582  0.1961
  195SOL    HW2 1141   1.275   4.988   0.488 -0.1596  0.0822 -0.5974
  196SOL     OW 1142   0.696   7.650   6.853 -0.0390 -0.6162  0.1674
  196SOL    HW1 1143   0.691   7.634   6.947  0.0054 -1.0215  0.1052
  196SOL    HW2 1144   0.631   7.717   6.836  0.3564 -0.1250  0.5775
  197SOL     OW 1145   6.268   7.388   0.372 -0.0707 -0.2858  0.7025
  197SOL    HW1 1146   6.265   7.482   0.390  0.0354 -0.3693  1.1525
  197SOL    HW2 1147   6.236   7.347   0.452 -1.4138 -0.5916  0.0372
  198SOL     OW 1148   4.505   6.812   5.152  0.0487  0.3415  0.4750
  198SOL    HW1 1149   4.461   6.868   5.216  0.8158  1.5379 -0.0171
  198SOL    HW2 1150   4.511   6.726   5.196  0.3477  1.0627  1.9254
  199SOL     OW 1151   5.434   7.629   7.053  0.6189  0.6933 -0.1489
  199SOL    HW1 1152   5.484   7.625   6.972  0.4325  0.7327 -0.2657
  199SOL    HW2 1153   5.417   7.538   7.075  3.3439  0.4589  1.5125
  200SOL     OW 1154   2.038   2.604   6.984 -0.5654  0.4256 -0.0501
  200SOL    HW1 1155   2.111   2.634   6.930 -1.0603  2.2612  0.2401
  200SOL    HW2 1156   2.054   2.510   6.995  2.0225  0.8457  0.4209
  201SOL     OW 1157   7.660   2.715   3.489  0.0220 -0.4067 -0.3827
  201SOL    HW1 1158   7.712   2.700   3.568  0.5201 -1.3950 -0.8777
  201SOL    HW2 1159   7.659   2.810   3.479  0.0868 -0.2741  0.7222
  202SOL     OW 1160   6.522   1.579   1.991 -0.1628 -0.3637  0.0958
  202SOL    HW1 1161   6.484   1.590   2.079 -0.6040 -1.3791  0.0384
  202SOL    HW2 1162   6.612   1.550   2.007 -0.5929 -1.6724  0.2197
  203SOL     OW 1163   6.784   0.261   3.288 -0.3410 -0.2613 -0.0252
  203SOL    HW1 1164   6.862   0.230   3.241  0.1259 -0.3157  0.7534
  203SOL    HW2 1165   6.714   0.202   3.261 -0.0808 -0.2998 -0.6280
  204SOL     OW 1166   1.471   3.523   0.540 -0.2242  0.2603 -0.2274
  204SOL    HW1 1167   1.556   3.508   0.582 -1.3988  0.8594  2.5836
  204SOL    HW2 1168   1.488   3.509   0.446  2.9489  0.3938  0.2091
  205SOL     OW 1169   2.186   3.697   4.377 -0.4500  0.0929  0.7282
  205SOL    HW1 1170   2.252   3.756   4.413 -2.8263  4.8324 -1.5929
  205SOL    HW2 1171   2.105   3.721   4.423 -2.1629  1.3497 -2.5398
  206SOL     OW 1172   2.453   0.393   5.214 -0.5468 -0.1347 -0.2321
  206SOL    HW1 1173   2.520   0.338   5.255  2.0683  2.7679 -0.2347
  206SOL    HW2 1174   2.440   0.354   5.127  0.2314 -1.4475  0.2116
  207SOL     OW 1175   0.860   1.178   3.927  1.0270  0.4284 -0.2413
  207SOL    HW1 1176   0.887   1.137   3.845  1.3909  1.3766 -0.6087
  207SOL    HW2 1177   0.939   1.223   3.958  0.6970  0.6685  0.2551
  208SOL     OW 1178   1.840   2.181   6.852 -0.0273 -0.0583  0.1107
  208SOL    HW1 1179   1.918   2.237   6.857 -0.8668  1.3874 -1.4151
  208SOL    HW2 1180   1.794   2.196   6.934  0.5688  0.2533  0.3930
  209SOL     OW 1181   6.945   3.439   5.790  0.1624  0.4387 -0.3733
  209SOL    HW1 1182   7.023   3.404   5.747  0.2763  0.0305  0.1589
  209SOL    HW2 1183   6.898   3.362   5.821 -0.2752  0.6988 -0.3793
  210SOL     OW 1184   0.243   0.132   3.315 -0.2067 -0.3583 -0.7174
  210SOL    HW1 1185   0.184   0.200   3.347  0.9592  0.6715 -0.6863
  210SOL    HW2 1186   0.191   0.053   3.316 -0.9649  0.1018  1.3582
  211SOL     OW 1187   4.364   0.920   1.212  0.2805 -0.6609 -0.0191
  211SOL    HW1 1188   4.394   0.833   1.240 -0.1678 -0.7437  0.2137
  211SOL    HW2 1189   4.307   0.902   1.137 -1.3329 -0.7487  1.1671
  212SOL     OW 1190   6.253   2.010   2.915 -0.0529  0.3706  0.5211
  212SOL    HW1 1191   6.303   2.074   2.865 -0.9964  0.5367 -0.2459
  212SOL    HW2 1192   6.247   2.047   3.003 -0.0260  1.0192  0.2550
  213SOL     OW 1193   6.247   1.350   3.701  0.2148 -0.1842 -0.1693
  213SOL    HW1 1194   6.326   1.358   3.754  0.0414  2.1682 -0.1622
  213SOL    HW2 1195   6.279   1.327   3.613  0.9948  1.4427 -0.3354
  214SOL     OW 1196   3.061   3.435   0.239  0.7517 -0.0234 -0.4773
  214SOL    HW1 1197   3.059   3.521   0.198  0.5673  0.0939 -0.2245
  214SOL    HW2 1198   2.998   3.441   0.311  1.5517 -0.0168  0.2461
  215SOL     OW 1199   3.810   1.999   2.652  0.4628  0.0050  0.4047
  215SOL    HW1 1200   3.748   2.072   2.645  0.6754  0.0408 -1.6907
  215SOL    HW2 1201   3.790   1.959   2.737 -1.3982  0.9302  0.4529
  216SOL     OW 1202   0.199   1.501   6.518 -0.0060  0.3645  0.0553
  216SOL    HW1 1203   0.266   1.537   6.460 -0.6192  1.6707  0.1171
  216SOL    HW2 1204   0.196   1.561   6.592 -0.4081 -0.3483  0.6344
  217SOL     OW 1205   7.456   0.387   2.608  0.1974  0.6711 -0.1293
  217SOL    HW1 1206   7.435   0.294   2.614 -1.3294  1.0207  0.5341
  217SOL    HW2 1207   7.549   0.392   2.629  0.4516 -0.7540 -0.7843
  218SOL     OW 1208   7.390   4.334   7.400  0.0395  0.6458  0.5947
  218SOL    HW1 1209   7.432   4.299   7.321 -1.3962  0.1056  0.0374
  218SOL    HW2 1210   7.456   4.324   7.468  0.7226 -0.4439 -0.1857
  219SOL     OW 1211   6.185   0.020   6.976  0.2155 -0.2360 -0.1251
  219SOL    HW1 1212   6.179   0.022   6.880 -0.4602  1.9137 -0.0943
  219SOL    HW2 1213   6.094   0.023   7.005  0.4341  2.7498  0.5216
  220SOL     OW 1214   3.364   1.360   4.294  0.0791 -0.3664 -0.2824
  220SOL    HW1 1215   3.357   1.334   4.386 -1.3563 -1.4845 -0.6792
  220SOL    HW2 1216   3.345   1.454   4.294 -0.2202 -0.4195  0.5190
  221SOL     OW 1217   4.899   5.216   3.479  0.3139  0.2435 -0.5183
  221SOL    HW1 1218   4.851   5.274   3.419  0.3036  0.1714 -0.5796
  221SOL    HW2 1219   4.991   5.232   3.460  0.3376  0.9263  0.1078
  222SOL     OW 1220   0.056   3.599   0.762  0.1790 -0.9789  0.4512
  222SOL    HW1 1221   0.113   3.560   0.696  0.8437 -0.5466  0.7654
  222SOL    HW2 1222   0.045   3.531   0.829 -0.0611 -1.2266  0.1602
  223SOL     OW 1223   2.869   0.158   2.845 -0.1988  0.2016  0.4927
  223SOL    HW1 1224   2.944   0.160   2.905  1.1383  2.2569 -1.0885
  223SOL    HW2 1225   2.896   0.100   2.774 -0.3374  0.4715  0.2166
  224SOL     OW 1226   6.398   1.634   5.004 -0.1354 -0.1068  0.1991
  224SOL    HW1 1227   6.433   1.647   5.092 -1.4866  3.1301  0.4081
  224SOL    HW2 1228   6.317   1.584   5.016 -0.0935 -0.0420  0.7384
  225SOL     OW 1229   5.778   6.318   0.040  0.4768  0.0661 -0.1306
  225SOL    HW1 1230   5.687   6.348   0.052 -0.5192 -2.8697  0.5655
  225SOL    HW2 1231   5.780   6.285  -0.050 -0.0097 -2.2724  0.6521
  226SOL     OW 1232   3.798   2.163   7.116 -0.0534  0.4233 -0.0416
  226SOL    HW1 1233   3.759   2.093   7.064 -0.8181  1.1398 -0.4502
  226SOL    HW2 1234   3.806   2.125   7.204  0.5078 -0.5195 -0.4861
  227SOL     OW 1235   5.813   2.570   4.298 -0.2872  0.5195 -0.5573
  227SOL    HW1 1236   5.873   2.498   4.314 -0.8616  0.1498 -0.0284
  227SOL    HW2 1237   5.846   2.641   4.353 -1.1797 -0.1618  0.9375
  228SOL     OW 1238   0.273   7.372   0.672  0.0280 -0.1660 -0.1814
  228SOL    HW1 1239   0.236   7.351   0.586  0.4751 -1.1479 -0.1479
  228SOL    HW2 1240   0.262   7.291   0.723  1.8759 -0.3940 -0.0637
  229SOL     OW 1241   5.628   0.322   4.486 -0.5041 -0.2539  0.6394
  229SOL    HW1 1242   5.723   0.335   4.486 -0.7441  2.0790  0.0786
  229SOL    HW2 1243   5.606   0.311   4.393 -0.7609 -1.2774  0.8070
  230SOL     OW 1244   5.941   3.789   4.846  0.1587 -0.1554 -0.1200
  230SOL    HW1 1245   5.865   3.834   4.883 -0.2300  0.5051 -1.6721
  230SOL    HW2 1246   6.016   3.829   4.891 -0.2423  1.3567 -0.7282
  231SOL     OW 1247   7.014   2.046   5.529  0.2387 -0.4029  0.3441
  231SOL    HW1 1248   6.944   2.108   5.550  0.9228  0.7570 -0.6931
  231SOL    HW2 1249   6.968   1.963   5.515 -0.6548 -0.2443  2.0978
  232SOL     OW 1250   2.542   3.299   2.339  0.0334 -0.3385  0.8223
  232SOL    HW1 1251   2.581   3.364   2.397  1.4711 -0.4381  0.0389
  232SOL    HW2 1252   2.512   3.350   2.263 -1.0012 -0.3185  1.2330
  233SOL     OW 1253   4.181   4.718   1.678 -0.0247 -0.2776 -0.0380
  233SOL    HW1 1254   4.165   4.693   1.587 -0.2177  0.0748 -0.1031
  233SOL    HW2 1255   4.184   4.635   1.725 -0.3447 -0.4425 -0.3021
  234SOL     OW 1256   2.801   0.601   1.526  0.8281 -0.2253 -0.4996
  234SOL    HW1 1257   2.841   0.592   1.612 -0.5243 -1.0034  0.0863
  234SOL    HW2 1258   2.712   0.632   1.544  0.0099 -1.8482 -1.4775
  235SOL     OW 1259   1.909   2.101   4.414  0.3885 -0.0435 -0.1999
  235SOL    HW1 1260   1.960   2.174   4.447  0.3796  0.0125 -0.3088
  235SOL    HW2 1261   1.888   2.126   4.324 -0.2005  0.1308 -0.0182
  236SOL     OW 1262   2.963   5.260   2.106 -0.5308 -0.1702 -0.4341
  236SOL    HW1 1263   3.019   5.301   2.172 -1.6581 -0.5683  0.8108
  236SOL    HW2 1264   2.976   5.313   2.028  1.2742 -0.0178 -0.0859
  237SOL     OW 1265   2.327   0.859   4.253  0.5671 -0.2492  0.5147
  237SOL    HW1 1266   2.309   0.837   4.161  2.8246  0.0215 -0.0500
  237SOL    HW2 1267   2.249   0.908   4.281  0.2915  0.6699 -1.6182
  238SOL     OW 1268   7.289   0.922   2.520 -0.0573 -0.0375 -0.0451
  238SOL    HW1 1269   7.260   1.011   2.501  0.5302  0.0410 -0.6013
  238SOL    HW2 1270   7.329   0.892   2.439 -0.0301 -0.7225  0.2157
  239SOL     OW 1271   7.554   1.241   0.880  0.4120 -0.3261 -0.2225
  239SOL    HW1 1272   7.478   1.225   0.935  0.4915  1.0782  0.3522
  239SOL    HW2 1273   7.544   1.182   0.806 -1.3352 -0.0336 -0.2490
  240SOL     OW 1274   7.601   2.408   4.221 -0.4614  0.3397 -0.6073
  240SOL    HW1 1275   7.644   2.426   4.305 -0.1642 -0.5680 -0.5525
  240SOL    HW2 1276   7.671   2.412   4.156 -0.3548 -0.7254 -0.5719
  241SOL     OW 1277   1.731   2.669   4.247  0.0244 -0.2731  0.1257
  241SOL    HW1 1278   1.691   2.704   4.167  0.0395  0.5263  0.4548
  241SOL    HW2 1279   1.744   2.746   4.302 -1.7333 -1.0024  1.6867
  242SOL     OW 1280   6.979   0.061   6.521 -0.6151 -0.0273 -0.7078
  242SOL    HW1 1281   7.012   0.011   6.447  1.1045 -1.6529  1.0409
  242SOL    HW2 1282   7.037   0.137   6.527 -0.2569 -0.3071 -0.5801
  243SOL     OW 1283   7.450   7.120   2.201  0.0843 -0.2726 -0.2294
  243SOL    HW1 1284   7.476   7.087   2.286 -1.2048  0.9603  0.7043
  243SOL    HW2 1285   7.354   7.116   2.202 -0.2145  3.2176 -0.0444
  244SOL     OW 1286   6.692   0.548   1.477  0.1644  0.4953  0.2439
  244SOL    HW1 1287   6.641   0.593   1.544 -0.3216  1.7036 -0.9142
  244SOL    HW2 1288   6.633   0.541   1.402  0.2495 -1.9980  0.3197
  245SOL     OW 1289   6.541   1.501   2.860  0.0351  0.2327  0.2860
  245SOL    HW1 1290   6.563   1.409   2.851  1.3644  0.0336  3.8664
  245SOL    HW2 1291   6.463   1.502   2.916  0.4151  1.2621  0.8298
  246SOL     OW 1292   6.325   5.636   6.451  0.3533 -0.2776  0.4925
  246SOL    HW1 1293   6.420   5.627   6.447  0.3457 -0.4955  0.7559
  246SOL    HW2 1294   6.292   5.575   6.385  0.5125  2.8376 -2.7667
  247SOL     OW 1295   2.429   1.986   2.175  0.1331  0.0579  0.6860
  247SOL    HW1 1296   2.468   2.031   2.249 -1.4092  1.5445  0.6460
  247SOL    HW2 1297   2.335   1.999   2.186 -0.1154  1.6136 -2.2709
  248SOL     OW 1298   0.919   4.537   0.264  0.4090  0.7066  0.1076
  248SOL    HW1 1299   0.975   4.551   0.187 -1.6724  1.7099 -1.3281
  248SOL    HW2 1300   0.883   4.624   0.282 -2.0377 -0.1742 -0.1801
  249SOL     OW 1301   5.950   1.003   0.865 -0.2892  0.1126 -0.6409
  249SOL    HW1 1302   5.986   1.086   0.894  2.9322 -1.6423  0.9787
  249SOL    HW2 1303   5.956   1.006   0.769 -1.7781  2.2440 -0.7395
  250SOL     OW 1304   0.630   1.897   4.328 -0.3892  0.1893 -0.4219
  250SOL    HW1 1305   0.538   1.874   4.341 -0.4510  0.4680 -0.3570
  250SOL    HW2 1306   0.637   1.919   4.235 -0.5608  0.9261 -0.2664
  251SOL     OW 1307   5.709   7.007   6.743  0.5064 -0.0857  0.4164
  251SOL    HW1 1308   5.753   7.092   6.742  0.1683  0.1140  1.4920
  251SOL    HW2 1309   5.644   7.013   6.673  0.1733  0.7153  0.7872
  252SOL     OW 1310   7.427   6.779   7.418  0.7696 -0.4463 -0.0662
  252SOL    HW1 1311   7.344   6.823   7.438 -0.0901 -1.6422 -0.8270
  252SOL    HW2 1312   7.428   6.772   7.322  0.9728 -1.8452  0.0081
  253SOL     OW 1313   5.081   6.314   7.467 -0.3117  0.1826  0.0427
  253SOL    HW1 1314   5.024   6.361   7.528  0.1612  0.7729  0.0388
  253SOL    HW2 1315   5.168   6.318   7.507 -0.2178 -0.4920 -0.0772
  254SOL     OW 1316   2.595   5.765   4.348  0.3394 -0.9613  0.0235
  254SOL    HW1 1317   2.507   5.789   4.378  0.1761  0.6596 -1.5627
  254SOL    HW2 1318   2.599   5.796   4.258  2.9578  0.1281  0.4156
  255SOL     OW 1319   4.808   2.432   0.062 -0.2512 -0.0826 -0.2275
  255SOL    HW1 1320   4.838   2.503   0.119  0.0122 -0.3550 -0.0302
  255SOL    HW2 1321   4.735   2.471   0.013  0.1503  0.4516 -0.4139
  256SOL     OW 1322   0.952   0.891   3.499  0.4356 -0.3499  0.0884
  256SOL    HW1 1323   1.011   0.956   3.536 -0.6796 -1.4906  4.4497
  256SOL    HW2 1324   0.897   0.940   3.438  1.7476  2.0530  0.7091
  257SOL     OW 1325   1.004   0.953   5.511 -0.2043  0.4662 -0.5332
  257SOL    HW1 1326   0.983   0.861   5.526  0.3904  0.3004 -0.7150
  257SOL    HW2 1327   1.034   0.956   5.420  0.9687  0.6234 -0.1512
  258SOL     OW 1328   1.266   1.528   1.862  0.1112 -0.5876  0.1594
  258SOL    HW1 1329   1.261   1.574   1.946 -0.5778  0.2486 -0.3255
  258SOL    HW2 1330   1.292   1.595   1.799 -2.1342 -0.5081 -0.7836
  259SOL     OW 1331   5.243   5.743   6.006 -0.0701 -0.4672  0.2115
  259SOL    HW1 1332   5.335   5.720   5.995  0.1895  0.8840 -0.6511
  259SOL    HW2 1333   5.224   5.722   6.098  1.6291  0.9059  0.9412
  260SOL     OW 1334   3.748   2.979   1.912  0.2625  0.1402  0.2297
  260SOL    HW1 1335   3.712   3.063   1.941 -0.9150  0.0907 -0.9460
  260SOL    HW2 1336   3.828   3.002   1.865  0.6146  0.4807  0.9887
  261SOL     OW 1337   7.403   1.811   1.000  0.5566 -0.3130  0.3122
  261SOL    HW1 1338   7.453   1.845   0.926  1.2228 -1.5150  0.1750
  261SOL    HW2 1339   7.452   1.733   1.027 -1.5230 -1.9033 -0.2050
  262SOL     OW 1340   0.534   4.498   6.916 -0.0246  0.5841 -0.5079
  262SOL    HW1 1341   0.453   4.503   6.967 -0.0057  0.4759 -0.4671
  262SOL    HW2 1342   0.526   4.417   6.866 -0.0449  0.6938 -0.6821
  263SOL     OW 1343   2.467   1.352   5.196 -0.0073  0.0217 -0.2335
  263SOL    HW1 1344   2.375   1.339   5.176 -0.3374  1.2341  0.3975
  263SOL    HW2 1345   2.502   1.399   5.121 -0.2023  0.6522  0.0651
  264SOL     OW 1346   7.083   0.765   2.857 -0.2943 -0.0485 -0.7520
  264SOL    HW1 1347   7.129   0.706   2.916  0.3590  1.3181  0.1637
  264SOL    HW2 1348   7.131   0.760   2.775  0.7431  0.3916 -0.1958
  265SOL     OW 1349   1.382   0.530   3.767  0.4144  0.2743 -0.7592
  265SOL    HW1 1350   1.432   0.488   3.836 -0.2903  3.2317  1.7786
  265SOL    HW2 1351   1.448   0.576   3.714  0.8301 -0.7517 -1.1497
  266SOL     OW 1352   6.699   6.723   5.672 -0.0555 -0.1234 -0.3078
  266SOL    HW1 1353   6.714   6.629   5.675  0.0341 -0.0902  0.4353
  266SOL    HW2 1354   6.781   6.762   5.700 -0.7584  0.1086  1.5720
  267SOL     OW 1355   1.878   7.288   5.842  0.3580  0.2926 -0.3598
  267SOL    HW1 1356   1.887   7.201   5.802  0.0233  0.1396 -0.1157
  267SOL    HW2 1357   1.839   7.342   5.773  0.1080  0.1206 -0.3537
  268SOL     OW 1358   3.790   6.293   3.060  0.4371  0.4231  0.4070
  268SOL    HW1 1359   3.781   6.343   2.979  0.0899 -0.1894  0.0551
  268SOL    HW2 1360   3.699   6.276   3.087  0.5007 -1.6781 -0.5429
  269SOL     OW 1361   1.710   2.266   0.032 -0.1609  0.2775  0.0876
  269SOL    HW1 1362   1.619   2.250   0.058 -0.0252 -0.9880 -0.1315
  269SOL    HW2 1363   1.762   2.217   0.096  0.4125  1.5548  0.6302
  270SOL     OW 1364   6.158   6.168   7.066 -0.1339  0.0084  0.0577
  270SOL    HW1 1365   6.237   6.132   7.106  0.2914 -0.3855 -1.1157
  270SOL    HW2 1366   6.173   6.263   7.063  0.4902 -0.1096 -0.5843
  271SOL     OW 1367   5.099   3.309   2.152 -0.0646 -0.1440 -0.4283
  271SOL    HW1 1368   5.146   3.249   2.094  2.7495  1.6864 -0.2448
  271SOL    HW2 1369   5.120   3.279   2.240  0.0720  0.2260 -0.3361
  272SOL     OW 1370   3.001   6.117   1.506 -0.6733  0.3504 -0.3590
  272SOL    HW1 1371   2.950   6.043   1.474  0.5588 -0.1177 -1.3412
  272SOL    HW2 1372   3.011   6.100   1.600 -2.8666  0.8342  0.0268
  273SOL     OW 1373   0.523   4.603   6.129  0.1396 -0.2329 -0.0935
  273SOL    HW1 1374   0.602   4.561   6.165  0.7134  0.2327 -0.7712
  273SOL    HW2 1375   0.513   4.563   6.042  1.0550  1.4246 -1.0125
  274SOL     OW 1376   4.268   2.913   6.155 -0.4382  0.3242 -0.1323
  274SOL    HW1 1377   4.354   2.938   6.121  0.4284 -2.0712  0.0711
  274SOL    HW2 1378   4.220   2.882   6.078 -0.2227 -0.5897  0.0893
  275SOL     OW 1379   7.451   7.273   2.824  0.1342  0.0285 -0.5021
  275SOL    HW1 1380   7.414   7.244   2.741  1.1016  0.2259 -1.0143
  275SOL    HW2 1381   7.378   7.313   2.871 -0.1269  1.2156 -1.8549
  276SOL     OW 1382   1.863   3.367   7.651  0.6937 -0.0268  0.6226
  276SOL    HW1 1383   1.921   3.305   7.696  0.5669 -0.0442  0.7622
  276SOL    HW2 1384   1.778   3.357   7.695  0.1162 -1.2261 -0.6804
  277SOL     OW 1385   3.171   7.570   7.326  0.1440  0.3627  0.2678
  277SOL    HW1 1386   3.171   7.656   7.284 -0.1928 -0.3162 -1.1562
  277SOL    HW2 1387   3.109   7.518   7.276  2.0790 -1.4338 -0.4025
  278SOL     OW 1388   0.059   6.854   4.680  1.0538  0.3340 -0.3270
  278SOL    HW1 1389  -0.032   6.869   4.654  0.7511 -0.0437  0.4746
  278SOL    HW2 1390   0.087   6.779   4.628  0.9691  0.5607 -0.7071
  279SOL     OW 1391   4.700   7.071   1.698 -0.3526  0.0281 -0.1243
  279SOL    HW1 1392   4.753   7.003   1.739  0.5758 -0.1472 -1.5422
  279SOL    HW2 1393   4.757   7.148   1.697 -0.8107  0.3757  0.0156
  280SOL     OW 1394   7.083   7.387   0.339 -0.4620 -0.3867  0.0996
  280SOL    HW1 1395   7.049   7.362   0.425  2.8275  1.1206  2.0523
  280SOL    HW2 1396   7.065   7.481   0.333  0.3797 -0.2393 -0.2794
  281SOL     OW 1397   1.289   0.098   5.630  0.1123  0.1808  0.3609
  281SOL    HW1 1398   1.312   0.007   5.647  1.1166  0.4736  0.6304
  281SOL    HW2 1399   1.314   0.145   5.710 -0.6874  0.6439  0.3445
  282SOL     OW 1400   1.485   2.552   0.857 -0.0657  0.4636 -0.0841
  282SOL    HW1 1401   1.474   2.552   0.762  4.0579 -0.0354 -0.7792
  282SOL    HW2 1402   1.476   2.461   0.882 -0.3299  0.4759 -0.1320
  283SOL     OW 1403   1.600   7.473   6.472 -0.3802 -0.0079 -0.3270
  283SOL    HW1 1404   1.585   7.391   6.425  0.7944 -0.1422 -0.4954
  283SOL    HW2 1405   1.621   7.536   6.404  0.3126  0.0427 -0.0750
  284SOL     OW 1406   3.606   5.421   1.859  0.2618 -0.2468  0.0805
  284SOL    HW1 1407   3.659   5.497   1.833 -0.2173 -0.1877 -0.7636
  284SOL    HW2 1408   3.613   5.361   1.785 -2.5438  0.6443 -1.0408
  285SOL     OW 1409   2.861   3.417   1.887  0.1652 -0.2200 -0.2678
  285SOL    HW1 1410   2.773   3.383   1.907  0.4121 -1.7391 -1.5154
  285SOL    HW2 1411   2.917   3.380   1.955 -0.1150  0.5985  0.4215
  286SOL     OW 1412   7.110   5.078   5.342 -0.3884 -0.1498 -0.7139
  286SOL    HW1 1413   7.145   5.019   5.276 -0.6512 -0.2786 -0.7387
  286SOL    HW2 1414   7.186   5.129   5.372 -0.3197  0.0994 -1.3054
  287SOL     OW 1415   0.004   1.465   2.472  0.1296  0.5715  0.2899
  287SOL    HW1 1416   0.055   1.384   2.468 -0.1132  0.4354 -0.1413
  287SOL    HW2 1417   0.036   1.510   2.551 -0.6896 -0.5860  1.3134
  288SOL     OW 1418   4.286   7.219   4.792  0.2539 -0.1034  0.3891
  288SOL    HW1 1419   4.363   7.226   4.848 -0.4111 -0.0708  1.3262
  288SOL    HW2 1420   4.301   7.140   4.740  0.3780 -0.7785  1.4266
  289SOL     OW 1421   7.563   0.638   0.585  0.2800 -0.6931 -0.1924
  289SOL    HW1 1422   7.554   0.543   0.587 -1.6109 -0.5815 -1.2390
  289SOL    HW2 1423   7.575   0.663   0.676 -0.4111 -1.8466  0.2395
  290SOL     OW 1424   3.143   2.983   4.393  0.2867  0.3732 -0.4486
  290SOL    HW1 1425   3.082   3.015   4.461  0.8618 -0.3385  0.4172
  290SOL    HW2 1426   3.177   2.901   4.428  1.2433  0.4251 -1.2304
  291SOL     OW 1427   3.262   7.474   5.882 -0.0175  0.1408 -0.6893
  291SOL    HW1 1428   3.308   7.420   5.945  0.8494  0.6571 -0.8627
  291SOL    HW2 1429   3.317   7.472   5.804 -1.4622 -1.1563 -1.7471
  292SOL     OW 1430   5.184   6.963   5.183 -0.4211  0.2030 -0.4351
  292SOL    HW1 1431   5.122   7.036   5.185  0.9001  1.3806 -1.1364
  292SOL    HW2 1432   5.211   6.952   5.275 -0.8491  0.3696 -0.2848
  293SOL     OW 1433   3.142   2.960   0.271 -0.1373  0.4162 -0.0386
  293SOL    HW1 1434   3.050   2.978   0.293 -0.7652  0.1285 -2.2466
  293SOL    HW2 1435   3.192   3.017   0.331 -1.7300  0.6777  1.1157
  294SOL     OW 1436   5.965   0.319   6.146 -0.2998  0.2210  0.6184
  294SOL    HW1 1437   6.002   0.406   6.160 -0.5930  0.3337  0.7092
  294SOL    HW2 1438   5.875   0.326   6.177 -0.7781  0.3075 -0.7341
  295SOL     OW 1439   5.563   3.589   7.682 -0.7949  0.3078  0.4475
  295SOL    HW1 1440   5.498   3.614   7.616 -0.7513 -0.6602  0.0167
  295SOL    HW2 1441   5.514   3.589   7.765 -1.7597 -1.7627 -0.0439
  296SOL     OW 1442   5.447   6.977   2.566 -0.8174  0.4569 -0.6621
  296SOL    HW1 1443   5.472   6.888   2.589  0.6907  0.5672 -1.7909
  296SOL    HW2 1444   5.360   6.967   2.527 -0.4019 -0.6129 -1.3688
  297SOL     OW 1445   0.043   1.313   6.635  0.0891  0.4752 -0.7304
  297SOL    HW1 1446   0.094   1.370   6.579  0.9203 -0.5650 -1.0624
  297SOL    HW2 1447   0.107   1.274   6.695 -0.3131 -0.7704 -1.0811
  298SOL     OW 1448   5.154   2.877   4.293  0.1692  0.5064  0.2057
  298SOL    HW1 1449   5.070   2.830   4.291  0.1844  0.3824  1.6890
  298SOL    HW2 1450   5.220   2.807   4.291  0.2002  0.4845  1.3921
  299SOL     OW 1451   6.796   0.300   6.838  0.3624  0.1730 -0.5067
  299SOL    HW1 1452   6.736   0.232   6.868  2.0196 -1.3737 -0.4846
  299SOL    HW2 1453   6.769   0.318   6.747 -1.5815  1.2874  0.2376
  300SOL     OW 1454   2.919   1.687   3.808  0.2924 -0.5628  0.1846
  300SOL    HW1 1455   2.915   1.761   3.748 -0.9138 -0.1726  0.6980
  300SOL    HW2 1456   2.884   1.613   3.757 -1.1321 -0.1402  0.4932
  301SOL     OW 1457   1.637   1.401   2.702 -0.2289  0.0493  0.1831
  301SOL    HW1 1458   1.639   1.394   2.606 -1.0854 -0.5049  0.1944
  301SOL    HW2 1459   1.729   1.397   2.728 -0.0093 -0.1858 -0.5956
  302SOL     OW 1460   3.965   5.559   0.691  0.4287  1.1164  0.2817
  302SOL    HW1 1461   3.994   5.587   0.604  0.4667  0.6067  0.1236
  302SOL    HW2 1462   4.044   5.526   0.733 -0.0777 -1.7386 -0.7166
  303SOL     OW 1463   5.824   5.377   3.349  0.4519  0.3257 -0.3466
  303SOL    HW1 1464   5.820   5.455   3.295  1.8929 -0.5865 -1.8531
  303SOL    HW2 1465   5.850   5.307   3.289  0.7031 -1.0140  1.2496
  304SOL     OW 1466   4.802   6.821   5.098  0.2861 -0.3149 -0.1513
  304SOL    HW1 1467   4.708   6.807   5.112  0.5527 -0.7961  1.3185
  304SOL    HW2 1468   4.842   6.737   5.118  1.0563 -0.0950 -0.7079
  305SOL     OW 1469   3.583   2.258   4.231 -0.2364 -0.7036  0.4105
  305SOL    HW1 1470   3.537   2.322   4.285  2.7157  1.3171  0.7703
  305SOL    HW2 1471   3.602   2.304   4.150  1.2523 -1.3419  0.3586
  306SOL     OW 1472   7.061   6.438   6.845 -0.0931  0.2147  0.0270
  306SOL    HW1 1473   7.124   6.484   6.790  0.2325  1.7432  1.5856
  306SOL    HW2 1474   7.001   6.396   6.784  0.5945  1.3577 -1.4774
  307SOL     OW 1475   7.656   6.519   1.060  0.5304  0.3097 -0.1710
  307SOL    HW1 1476   7.608   6.460   1.003  2.4319 -0.5246 -1.0040
  307SOL    HW2 1477   7.617   6.507   1.146 -0.8939 -0.1151 -0.8520
  308SOL     OW 1478   0.186   7.332   7.044 -0.4974  0.0820  0.7452
  308SOL    HW1 1479   0.183   7.384   6.964 -1.0595 -0.8312  0.1440
  308SOL    HW2 1480   0.266   7.360   7.089 -0.7814  1.4245  0.4386
  309SOL     OW 1481   6.984   4.588   7.623 -0.2922  0.3057  0.0465
  309SOL    HW1 1482   7.065   4.575   7.674 -0.7236 -0.6020  0.5301
  309SOL    HW2 1483   7.012   4.638   7.546  0.7399 -0.0163  0.1938
  310SOL     OW 1484   4.925   3.543   4.208 -0.2794 -0.0377  0.5258
  310SOL    HW1 1485   4.943   3.481   4.137 -0.5131  0.7019 -0.1955
  310SOL    HW2 1486   4.995   3.608   4.202 -0.4062  0.1362  0.8583
  311SOL     OW 1487   2.262   1.840   1.410 -0.4404  0.0118  0.1767
  311SOL    HW1 1488   2.346   1.848   1.366 -1.5310  2.2763 -1.6832
  311SOL    HW2 1489   2.213   1.777   1.357  0.0248 -1.3071  1.2587
  312SOL     OW 1490   4.995   7.725   5.194  0.3541  0.1671 -0.5412
  312SOL    HW1 1491   5.065   7.664   5.172  0.0627 -0.4163  0.1237
  312SOL    HW2 1492   4.920   7.696   5.141  0.1011 -0.2974  0.0660
  313SOL     OW 1493   3.365   0.638   4.004 -0.6303 -0.1611 -0.3691
  313SOL    HW1 1494   3.403   0.577   3.941 -1.6251 -0.4648 -0.6913
  313SOL    HW2 1495   3.303   0.585   4.054 -0.3374  0.2294  0.4288
  314SOL     OW 1496   6.772   3.787   4.257 -0.0245 -0.1349 -0.0249
  314SOL    HW1 1497   6.685   3.792   4.217  1.1710  0.9839 -2.6792
  314SOL    HW2 1498   6.778   3.696   4.288 -2.0626 -0.2765  0.0885
  315SOL     OW 1499   6.965   0.012   0.963 -0.2453  0.0229  0.0388
  315SOL    HW1 1500   6.994  -0.030   1.044 -0.1881 -1.6414 -0.7979
  315SOL    HW2 1501   6.954  -0.060   0.902 -1.9498  1.0651 -0.9525
  316SOL     OW 1502   5.660   3.076   3.627  0.2608 -0.5575 -0.1444
  316SOL    HW1 1503   5.664   3.099   3.720 -2.7319 -0.4878  0.0627
  316SOL    HW2 1504   5.683   3.157   3.582  0.4614 -0.2262  0.5281
  317SOL     OW 1505   4.509   4.069   2.468 -0.3834 -0.1841 -0.8329
  317SOL    HW1 1506   4.470   4.068   2.556  1.9743  0.1481  0.2769
  317SOL    HW2 1507   4.484   3.984   2.431 -1.9695 -0.0748 -0.1408
  318SOL     OW 1508   5.959   5.331   7.348 -0.2277 -0.0383  0.0696
  318SOL    HW1 1509   5.984   5.283   7.427  1.1603  0.5999  0.0498
  318SOL    HW2 1510   5.891   5.391   7.377  0.5884  0.5128  0.8958
  319SOL     OW 1511   3.670   2.529   5.492 -0.0681  0.2089  0.3473
  319SOL    HW1 1512   3.625   2.528   5.576 -1.6973 -0.9076 -0.4773
  319SOL    HW2 1513   3.722   2.448   5.492  0.4190  0.5187  0.5176
  320SOL     OW 1514   6.228   3.897   0.910 -0.9512  0.2092 -0.1967
  320SOL    HW1 1515   6.189   3.880   0.996 -0.7578  1.5859  0.1725
  320SOL    HW2 1516   6.199   3.822   0.856 -0.6119 -0.9609  1.1902
  321SOL     OW 1517   6.264   2.232   6.257  0.0167 -0.0183  0.5196
  321SOL    HW1 1518   6.334   2.208   6.197 -0.5621  0.1508 -0.2471
  321SOL    HW2 1519   6.222   2.307   6.215 -0.9651 -0.4654  0.6773
  322SOL     OW 1520   2.214   5.917   5.287  0.1101  0.2606  0.4831
  322SOL    HW1 1521   2.307   5.908   5.308  0.6371 -0.0219 -1.7290
  322SOL    HW2 1522   2.199   5.851   5.219 -1.1975  1.7411 -0.7138
  323SOL     OW 1523   3.608   0.542   7.136  0.2524  0.4284 -0.3148
  323SOL    HW1 1524   3.628   0.599   7.062  1.1401 -0.7240 -1.0010
  323SOL    HW2 1525   3.684   0.484   7.144 -0.9298 -1.1851 -0.1856
  324SOL     OW 1526   2.736   3.815   4.105  0.2769 -0.4201 -0.6055
  324SOL    HW1 1527   2.648   3.795   4.074  0.0970 -1.1907  0.3339
  324SOL    HW2 1528   2.739   3.910   4.111 -0.6906 -0.4076 -0.1255
  325SOL     OW 1529   4.068   3.932   5.133  0.6233 -0.2407 -0.8096
  325SOL    HW1 1530   4.146   3.922   5.079  1.2358 -1.3977  0.2307
  325SOL    HW2 1531   4.003   3.872   5.094  0.9757 -0.8773 -0.4307
  326SOL     OW 1532   0.269   1.201   6.304  0.2163 -0.4126  0.5694
  326SOL    HW1 1533   0.216   1.132   6.344  0.1305 -1.4464 -1.2171
  326SOL    HW2 1534   0.341   1.154   6.260  0.5042  0.6717 -0.1673
  327SOL     OW 1535   7.570   4.914   2.535  0.2000  0.3348  0.3170
  327SOL    HW1 1536   7.526   4.994   2.507 -0.3859 -0.0009  0.2681
  327SOL    HW2 1537   7.550   4.906   2.628 -0.5203 -0.2473  0.1153
  328SOL     OW 1538   4.128   4.822   3.770  0.5715  0.4916 -0.3951
  328SOL    HW1 1539   4.092   4.777   3.694 -1.2325  0.9363  0.1339
  328SOL    HW2 1540   4.182   4.757   3.814 -1.1837 -0.9005 -0.1900
  329SOL     OW 1541   5.505   5.388   2.595 -0.6614  0.0224 -0.3845
  329SOL    HW1 1542   5.594   5.405   2.624 -0.7116  1.0768 -0.8127
  329SOL    HW2 1543   5.484   5.302   2.631  0.0908  0.2932  0.7374
  330SOL     OW 1544   7.547   4.928   1.685  0.3292 -0.4247  0.3327
  330SOL    HW1 1545   7.559   4.943   1.592  0.1290 -0.3229  0.3218
  330SOL    HW2 1546   7.543   5.016   1.723  3.0086 -0.4216  0.7964
  331SOL     OW 1547   3.242   6.430   5.798  0.0100  0.4022 -0.3265
  331SOL    HW1 1548   3.230   6.350   5.849  1.4723  0.8165  0.7091
  331SOL    HW2 1549   3.267   6.399   5.710  0.9188 -0.2869  0.1608
  332SOL     OW 1550   2.826   7.209   0.773 -0.2896  0.2926  0.3171
  332SOL    HW1 1551   2.867   7.123   0.765 -0.4812  0.3578 -4.0589
  332SOL    HW2 1552   2.899   7.271   0.778 -0.0517  0.0296  0.1014
  333SOL     OW 1553   6.087   4.175   2.793 -0.2007 -0.0058  0.0358
  333SOL    HW1 1554   6.066   4.248   2.735 -0.3290  0.9013  1.1797
  333SOL    HW2 1555   6.182   4.180   2.804 -0.4739  1.7477  2.2756
  334SOL     OW 1556   2.317   1.144   5.586 -0.5249  0.2007 -0.3917
  334SOL    HW1 1557   2.270   1.161   5.668  1.5543 -0.9680  1.1261
  334SOL    HW2 1558   2.400   1.192   5.595  0.3814 -1.1544 -1.1275
  335SOL     OW 1559   5.384   7.223   1.577  0.3398 -0.4375 -0.0061
  335SOL    HW1 1560   5.300   7.186   1.605  0.7430 -0.3083  1.5125
  335SOL    HW2 1561   5.449   7.172   1.626  1.0402  0.6766  0.2587
  336SOL     OW 1562   7.206   3.379   7.280 -0.3579 -0.2086  0.7104
  336SOL    HW1 1563   7.215   3.303   7.224 -0.1020 -0.7523  1.4775
  336SOL    HW2 1564   7.145   3.352   7.349 -0.2750  0.2788  0.9838
  337SOL     OW 1565   0.536   1.941   0.634  0.0208  0.3482 -0.2071
  337SOL    HW1 1566   0.466   1.876   0.621 -0.8227  1.2997 -0.5486
  337SOL    HW2 1567   0.491   2.017   0.671  1.3913 -0.1250  2.7070
  338SOL     OW 1568   3.947   3.660   7.160  0.2941 -0.2424  0.0136
  338SOL    HW1 1569   3.973   3.720   7.230 -0.3838  0.7312 -0.5476
  338SOL    HW2 1570   4.029   3.617   7.134  0.3057 -1.9707  2.5730
  339SOL     OW 1571   5.325   7.108   2.206 -0.1712 -0.5883  0.0323
  339SOL    HW1 1572   5.418   7.124   2.192 -0.3929 -0.0144 -0.8083
  339SOL    HW2 1573   5.308   7.024   2.164  0.1621 -1.1676  1.0297
  340SOL     OW 1574   5.254   5.471   4.207 -0.0456  0.1376  0.0330
  340SOL    HW1 1575   5.164   5.498   4.188 -0.4533 -0.9751  0.3125
  340SOL    HW2 1576   5.264   5.388   4.160  0.7000  0.0481  0.3453
  341SOL     OW 1577   3.654   0.942   3.772 -0.2625 -0.1801 -0.5686
  341SOL    HW1 1578   3.716   0.983   3.712  0.0272 -0.7059 -0.6381
  341SOL    HW2 1579   3.582   1.005   3.779  0.0484  0.2171 -0.8752
  342SOL     OW 1580   5.230   2.134   2.547  0.1317  0.0999  0.0570
  342SOL    HW1 1581   5.309   2.164   2.501 -0.5702  1.0783 -0.5520
  342SOL    HW2 1582   5.203   2.055   2.499  1.0690 -0.6120  0.6567
  343SOL     OW 1583   4.052   3.434   1.623  0.2250  0.6096  0.2251
  343SOL    HW1 1584   3.976   3.458   1.675 -1.0746 -0.5717 -1.0800
  343SOL    HW2 1585   4.061   3.340   1.633  2.4099  0.8668  1.4701
  344SOL     OW 1586   0.690   5.507   6.156  0.4324 -0.0324 -0.4833
  344SOL    HW1 1587   0.738   5.426   6.174 -0.9877 -0.7656  0.1514
  344SOL    HW2 1588   0.603   5.478   6.129  0.7949  1.1917 -3.3783
  345SOL     OW 1589   7.294   4.902   0.327  0.0752  0.1881  0.1443
  345SOL    HW1 1590   7.258   4.892   0.239  0.3736  1.5348 -0.1484
  345SOL    HW2 1591   7.227   4.948   0.376 -0.1727 -0.7359  0.6965
  346SOL     OW 1592   2.119   6.219   5.847 -0.2401 -0.4290 -0.3600
  346SOL    HW1 1593   2.193   6.209   5.786  0.2444  1.4322 -0.1449
  346SOL    HW2 1594   2.055   6.271   5.798 -0.4612 -0.1559  0.2173
  347SOL     OW 1595   5.942   2.569   1.763  0.1295 -0.0180  0.7840
  347SOL    HW1 1596   5.847   2.559   1.756  0.2267 -0.0103 -1.0170
  347SOL    HW2 1597   5.957   2.598   1.853 -1.3131 -2.7265  2.0088
  348SOL     OW 1598   3.402   4.854   1.219  0.7750  1.0820  0.2176
  348SOL    HW1 1599   3.358   4.845   1.135  1.3031 -2.4265  0.1893
  348SOL    HW2 1600   3.493   4.829   1.202  0.4194 -2.1071  2.1117
  349SOL     OW 1601   7.388   7.056   0.905  0.2137  0.3938  0.0712
  349SOL    HW1 1602   7.354   7.146   0.908  0.4388  0.4801 -0.0284
  349SOL    HW2 1603   7.405   7.039   0.813  0.9508  0.5381  0.1756
  350SOL     OW 1604   4.165   0.229   6.594 -0.7195 -0.1941  0.1082
  350SOL    HW1 1605   4.214   0.167   6.648 -0.6155  0.0746  0.3227
  350SOL    HW2 1606   4.147   0.181   6.513 -0.1327 -0.3050  0.0418
  351SOL     OW 1607   1.790   3.675   0.492  0.1557 -0.0786 -0.0750
  351SOL    HW1 1608   1.799   3.685   0.397  2.6368 -1.2466 -0.0291
  351SOL    HW2 1609   1.736   3.597   0.503  2.1714 -1.6224 -0.6148
  352SOL     OW 1610   5.740   2.208   4.626 -0.0717 -0.0077 -0.3100
  352SOL    HW1 1611   5.712   2.122   4.657  1.0025 -0.5695 -0.8219
  352SOL    HW2 1612   5.820   2.225   4.675  0.3605  0.1532 -1.0503
  353SOL     OW 1613   3.243   2.461   3.494  0.4698 -0.1205 -0.1856
  353SOL    HW1 1614   3.174   2.512   3.451  0.7536  0.3857 -0.0568
  353SOL    HW2 1615   3.307   2.444   3.426  0.4172 -0.2278 -0.2080
  354SOL     OW 1616   6.750   2.664   3.106  0.0150  0.8020  0.2936
  354SOL    HW1 1617   6.766   2.570   3.100 -1.0299  0.6739 -0.9411
  354SOL    HW2 1618   6.702   2.674   3.189  1.3758  0.4778  1.1631
  355SOL     OW 1619   7.610   3.495   3.469  0.3669  0.2379 -0.1750
  355SOL    HW1 1620   7.628   3.418   3.416  2.2473 -0.1855  0.9797
  355SOL    HW2 1621   7.516   3.510   3.459  0.0875 -1.7662 -0.9842
  356SOL     OW 1622   4.136   5.007   5.752  0.4957 -0.2973  0.4548
  356SOL    HW1 1623   4.126   5.029   5.659 -2.4206  3.1881  1.3910
  356SOL    HW2 1624   4.107   4.916   5.757 -0.5430 -0.1781 -1.8865
  357SOL     OW 1625   0.297   6.531   5.404  0.8931  0.3729  0.6796
  357SOL    HW1 1626   0.391   6.522   5.387  0.3073 -0.6257 -2.7412
  357SOL    HW2 1627   0.255   6.500   5.324 -2.3021  3.9676  0.6756
  358SOL     OW 1628   6.170   5.413   1.328  0.1116  0.7124 -0.1228
  358SOL    HW1 1629   6.116   5.469   1.272 -0.0931  0.0349 -0.6276
  358SOL    HW2 1630   6.254   5.406   1.282 -0.2066 -0.2072 -0.5937
  359SOL     OW 1631   6.840   2.631   4.942 -0.1976 -0.0100  0.0921
  359SOL    HW1 1632   6.814   2.718   4.914  1.9351  0.8132  0.4528
  359SOL    HW2 1633   6.851   2.639   5.037  0.2223 -0.5988  0.1018
  360SOL     OW 1634   0.109   1.191   7.367  0.5367  0.6654 -0.2628
  360SOL    HW1 1635   0.195   1.149   7.365  0.8133  1.2333 -0.9171
  360SOL    HW2 1636   0.057   1.137   7.426  2.1627  1.9493  2.5300
  361SOL     OW 1637   5.507   1.319   6.369 -0.3010  0.0998 -0.2631
  361SOL    HW1 1638   5.478   1.228   6.368 -2.6749  0.5940  3.2261
  361SOL    HW2 1639   5.494   1.350   6.279  0.7558 -2.9507 -1.5961
  362SOL     OW 1640   4.720   4.677   7.278 -0.2209 -0.2729 -0.3255
  362SOL    HW1 1641   4.731   4.737   7.204  0.1471 -0.7145 -0.6342
  362SOL    HW2 1642   4.693   4.733   7.351 -2.2185 -0.0182 -1.1798
  363SOL     OW 1643   4.704   1.549   5.145  0.4168  0.4450 -0.6499
  363SOL    HW1 1644   4.662   1.475   5.101 -0.2959  0.8337 -0.6490
  363SOL    HW2 1645   4.796   1.525   5.151  0.1336 -0.5966 -0.3288
  364SOL     OW 1646   2.474   1.508   6.306  0.4935 -0.3427 -0.1879
  364SOL    HW1 1647   2.444   1.586   6.258 -0.4243 -0.6157 -0.0674
  364SOL    HW2 1648   2.565   1.528   6.328  0.1867  0.8300  0.1050
  365SOL     OW 1649   6.185   4.840   1.397 -0.4906 -0.3836 -0.1503
  365SOL    HW1 1650   6.245   4.911   1.422 -3.0065  2.1537 -0.7442
  365SOL    HW2 1651   6.180   4.785   1.475 -0.0991  1.3780  1.2083
  366SOL     OW 1652   2.395   2.196   4.177  0.3570  0.8560 -0.1394
  366SOL    HW1 1653   2.396   2.180   4.271 -1.1244 -0.0200 -0.2373
  366SOL    HW2 1654   2.445   2.276   4.166  3.0268 -0.5026  1.0696
  367SOL     OW 1655   0.071   2.531   7.649 -0.4481  0.4455  0.0281
  367SOL    HW1 1656   0.158   2.528   7.690 -0.0676 -0.5821 -0.7971
  367SOL    HW2 1657   0.013   2.561   7.718  0.5323  0.9601  0.6616
  368SOL     OW 1658   5.204   7.407   0.464  0.5449 -0.4885  0.1210
  368SOL    HW1 1659   5.289   7.391   0.505  0.6971 -1.5247 -0.5442
  368SOL    HW2 1660   5.224   7.457   0.385  0.3377  0.7808  0.8441
  369SOL     OW 1661   3.139   4.283   5.978  0.4398  0.2843 -0.6386
  369SOL    HW1 1662   3.234   4.286   5.994  0.2138 -2.9099  2.4844
  369SOL    HW2 1663   3.105   4.361   6.023  1.4140  0.3613  0.0030
  370SOL     OW 1664   1.705   0.892   2.209  0.0831 -0.1633 -0.2552
  370SOL    HW1 1665   1.705   0.843   2.291  0.2658 -1.2935 -0.9136
  370SOL    HW2 1666   1.759   0.969   2.228 -0.8234  0.1942  1.0111
  371SOL     OW 1667   2.613   2.345   4.133 -0.1362  0.2570  0.7585
  371SOL    HW1 1668   2.690   2.298   4.163 -0.3329 -2.5927 -2.5774
  371SOL    HW2 1669   2.647   2.412   4.073 -0.1698 -0.6829 -0.3380
  372SOL     OW 1670   1.696   5.330   3.784 -0.2396  0.2503 -0.6362
  372SOL    HW1 1671   1.607   5.296   3.794  0.4759 -1.4718  0.3734
  372SOL    HW2 1672   1.716   5.316   3.691 -0.8791  0.2970 -0.7886
  373SOL     OW 1673   7.696   7.329   4.405 -0.1008  0.1556  0.1630
  373SOL    HW1 1674   7.738   7.306   4.322 -1.1515  0.5092 -0.4781
  373SOL    HW2 1675   7.768   7.328   4.469  0.5351 -1.1932 -0.5346
  374SOL     OW 1676   7.484   0.951   1.136 -0.2019  0.9200  0.2148
  374SOL    HW1 1677   7.415   0.908   1.185  0.0110 -0.9561 -1.0269
  374SOL    HW2 1678   7.446   1.035   1.110 -2.1995 -0.2058 -0.7566
  375SOL     OW 1679   2.240   6.239   4.747 -0.1327 -0.0273 -0.1812
  375SOL    HW1 1680   2.282   6.184   4.681  1.0688  1.5287 -0.7822
  375SOL    HW2 1681   2.170   6.285   4.699 -0.1476  0.0906 -0.0493
  376SOL     OW 1682   7.143   7.406   5.318  0.9115  0.4624 -0.4658
  376SOL    HW1 1683   7.078   7.470   5.346  0.2419 -0.2941 -0.2325
  376SOL    HW2 1684   7.188   7.381   5.399 -0.2168 -0.8425 -0.1945
  377SOL     OW 1685   3.145   6.662   4.976  0.0502  0.2449 -0.2700
  377SOL    HW1 1686   3.127   6.650   5.069 -1.1503  1.9723 -0.2251
  377SOL    HW2 1687   3.133   6.756   4.961 -0.4600 -0.0932 -2.3040
  378SOL     OW 1688   6.383   1.070   7.646  0.0582  0.3933 -0.3552
  378SOL    HW1 1689   6.471   1.105   7.640  0.4097 -0.1756  1.0480
  378SOL    HW2 1690   6.326   1.147   7.643  0.6899  0.9025  0.3465
  379SOL     OW 1691   4.869   2.639   0.283 -0.1763  0.4193  0.2629
  379SOL    HW1 1692   4.949   2.692   0.279  0.1026 -0.0398 -0.4140
  379SOL    HW2 1693   4.808   2.692   0.334  1.0652  0.0894  2.2038
  380SOL     OW 1694   1.412   5.948   4.056 -0.2140 -0.3039  0.1627
  380SOL    HW1 1695   1.491   5.931   4.005 -0.4892 -1.8673  0.1925
  380SOL    HW2 1696   1.396   5.866   4.103 -0.9194  0.5364  1.4511
  381SOL     OW 1697   7.648   0.698   4.231 -0.4152 -0.7057  0.8241
  381SOL    HW1 1698   7.733   0.673   4.266 -0.4818 -1.5841  0.3909
  381SOL    HW2 1699   7.611   0.756   4.297  0.4255 -0.4961  1.1170
  382SOL     OW 1700   6.433   3.366   2.017  0.1017  0.0489 -0.5162
  382SOL    HW1 1701   6.514   3.316   2.020  0.1719  0.1741 -0.2992
  382SOL    HW2 1702   6.382   3.333   2.091  0.2209  0.4185 -0.2659
  383SOL     OW 1703   2.824   3.384   3.110 -0.1389  0.6599  0.0669
  383SOL    HW1 1704   2.853   3.338   3.189  1.0433  1.6066  0.2215
  383SOL    HW2 1705   2.888   3.359   3.043  1.4443  3.1620  0.5291
  384SOL     OW 1706   5.782   5.887   0.106 -0.2486  0.1977 -0.3093
  384SOL    HW1 1707   5.853   5.836   0.067  1.5997  0.9197  1.9217
  384SOL    HW2 1708   5.818   5.976   0.115 -1.5795  0.6831  0.5163
  385SOL     OW 1709   7.017   2.717   0.245  0.7814  0.4368 -0.2988
  385SOL    HW1 1710   6.936   2.683   0.284  0.6299 -0.1792 -1.1052
  385SOL    HW2 1711   6.996   2.726   0.152  0.4088  3.9813 -0.0206
  386SOL     OW 1712   2.986   2.405   6.554  0.2118 -0.5036 -0.6559
  386SOL    HW1 1713   3.075   2.410   6.587 -0.2291 -2.2360  0.9534
  386SOL    HW2 1714   2.954   2.319   6.583 -2.8524  1.0632  1.1505
  387SOL     OW 1715   5.835   2.371   3.343 -0.5501  0.3634 -0.0609
  387SOL    HW1 1716   5.790   2.401   3.264 -0.3356  0.0636 -0.3023
  387SOL    HW2 1717   5.903   2.437   3.358 -0.6449  0.4660 -0.0799
  388SOL     OW 1718   1.921   5.799   2.387  0.7261  0.0278 -0.9351
  388SOL    HW1 1719   1.879   5.855   2.452 -1.9777  0.7065 -3.0773
  388SOL    HW2 1720   1.917   5.711   2.425 -1.1184  0.3433 -0.2952
  389SOL     OW 1721   5.324   6.640   2.213 -0.0813 -0.1003  0.2815
  389SOL    HW1 1722   5.380   6.592   2.152  0.6574  1.3746 -0.2748
  389SOL    HW2 1723   5.350   6.610   2.300  1.0544 -0.0009 -0.0106
  390SOL     OW 1724   2.608   6.093   2.819  0.9590  0.0168 -0.3807
  390SOL    HW1 1725   2.591   6.178   2.780  1.2092  0.3966  0.3313
  390SOL    HW2 1726   2.702   6.091   2.834  0.7048  0.5393  1.6528
  391SOL     OW 1727   1.046   4.414   4.713  0.2101  0.3831 -0.0131
  391SOL    HW1 1728   1.061   4.347   4.646 -0.2863  1.6913 -1.4937
  391SOL    HW2 1729   0.953   4.436   4.704  0.0842  0.4393  1.2692
  392SOL     OW 1730   5.959   1.666   0.015  0.0315 -0.4706  1.2096
  392SOL    HW1 1731   5.982   1.753  -0.019 -0.0576 -0.9591 -0.1859
  392SOL    HW2 1732   5.865   1.673   0.034 -0.0003 -0.2825  0.9964
  393SOL     OW 1733   7.434   5.097   2.898  0.1906  0.4141 -0.3598
  393SOL    HW1 1734   7.413   5.076   2.989 -0.2555  0.6763 -0.3959
  393SOL    HW2 1735   7.383   5.176   2.880  0.1790  0.2916 -0.8762
  394SOL     OW 1736   6.017   5.417   3.876  0.2507  0.3019  0.0530
  394SOL    HW1 1737   6.004   5.508   3.902 -0.9363  0.3301 -0.5804
  394SOL    HW2 1738   5.975   5.410   3.790 -0.8005 -1.1508  0.6509
  395SOL     OW 1739   4.282   2.827   3.013 -0.0144 -0.3515  0.3311
  395SOL    HW1 1740   4.359   2.882   3.026  0.1898 -0.1648 -1.4561
  395SOL    HW2 1741   4.252   2.807   3.102 -0.6776  3.4061  1.1258
  396SOL     OW 1742   7.440   5.549   2.649 -0.6454 -0.5394 -0.5107
  396SOL    HW1 1743   7.376   5.489   2.612 -0.6332 -0.7033 -0.2698
  396SOL    HW2 1744   7.393   5.594   2.719 -1.1589  0.9544 -1.7701
  397SOL     OW 1745   0.644   7.390   2.836  0.6909 -0.0511 -0.6024
  397SOL    HW1 1746   0.691   7.308   2.822  0.9396  0.1060 -0.6864
  397SOL    HW2 1747   0.707   7.459   2.814  0.4847  0.1637 -0.5322
  398SOL     OW 1748   5.411   3.369   7.360  0.5220 -0.5133  0.2364
  398SOL    HW1 1749   5.329   3.418   7.370  0.3251 -0.7588 -0.1828
  398SOL    HW2 1750   5.427   3.368   7.266  1.6103  0.5319  0.3857
  399SOL     OW 1751   0.378   6.284   2.202  0.9044  0.2792 -0.5016
  399SOL    HW1 1752   0.423   6.351   2.151 -0.2269  1.3965 -0.0877
  399SOL    HW2 1753   0.339   6.332   2.276 -0.2143 -0.7596 -0.3807
  400SOL     OW 1754   4.199   2.903   3.309 -0.2098  0.2687  0.6589
  400SOL    HW1 1755   4.125   2.844   3.291  0.8935 -0.7417 -0.8712
  400SOL    HW2 1756   4.247   2.860   3.380 -1.2136  1.0869  1.8747
  401SOL     OW 1757   3.084   3.701   0.198  0.1825  0.0254  0.2452
  401SOL    HW1 1758   3.125   3.709   0.284 -2.6763 -0.5731  1.7980
  401SOL    HW2 1759   3.021   3.773   0.195  1.1949  0.9225 -2.0364
  402SOL     OW 1760   2.197   1.800   2.354 -0.4182 -0.1274  0.4924
  402SOL    HW1 1761   2.131   1.821   2.288 -0.0159 -1.0150 -0.2178
  402SOL    HW2 1762   2.199   1.704   2.356  2.7225 -0.2526 -1.4933
  403SOL     OW 1763   2.210   5.696   4.717  0.9668 -0.2003 -0.4135
  403SOL    HW1 1764   2.134   5.688   4.775  0.2413  0.0305 -1.3151
  403SOL    HW2 1765   2.192   5.635   4.645  0.9661  0.8778 -1.3432
  404SOL     OW 1766   3.535   0.440   1.103  0.3989 -0.2539  0.1319
  404SOL    HW1 1767   3.466   0.428   1.037 -0.6287 -1.2103  1.3463
  404SOL    HW2 1768   3.596   0.369   1.086 -0.3244 -1.0353  0.7582
  405SOL     OW 1769   4.746   3.958   3.654 -0.6419 -0.6470 -0.7616
  405SOL    HW1 1770   4.674   4.008   3.617 -0.6163 -1.5721 -2.1650
  405SOL    HW2 1771   4.704   3.890   3.707 -0.6877  0.4926  0.7248
  406SOL     OW 1772   4.778   6.143   4.150 -0.4665  0.9141  0.4401
  406SOL    HW1 1773   4.857   6.175   4.193  0.6338  1.7401 -1.9955
  406SOL    HW2 1774   4.753   6.213   4.090 -1.4299 -0.4286 -0.8143
  407SOL     OW 1775   3.856   1.393   3.323 -0.7399 -0.1308 -0.0712
  407SOL    HW1 1776   3.905   1.398   3.405  0.0226  0.7994 -0.5639
  407SOL    HW2 1777   3.774   1.439   3.341 -0.8537 -0.4898  0.3486
  408SOL     OW 1778   6.077   4.370   7.296  0.0529 -0.0213 -0.4576
  408SOL    HW1 1779   6.052   4.446   7.348  0.9542 -0.4918  0.6938
  408SOL    HW2 1780   6.025   4.378   7.216 -0.5453  1.3037  0.0359
  409SOL     OW 1781   6.015   5.947   1.614  0.6519  0.1367  0.6475
  409SOL    HW1 1782   6.046   5.879   1.674 -0.0094 -0.9725 -0.2248
  409SOL    HW2 1783   6.061   5.929   1.532 -1.1162 -0.6510 -0.2421
  410SOL     OW 1784   5.349   6.058   3.105 -0.7419 -0.1127 -0.6788
  410SOL    HW1 1785   5.431   6.039   3.151 -0.9664  0.5340  0.0132
  410SOL    HW2 1786   5.325   5.975   3.063 -1.1081 -1.0377  1.2774
  411SOL     OW 1787   7.222   4.239   0.034 -0.2895  0.0830  0.0473
  411SOL    HW1 1788   7.216   4.195  -0.051 -0.9111  0.4934 -0.1234
  411SOL    HW2 1789   7.218   4.332   0.014 -3.5511  0.2033  0.7051
  412SOL     OW 1790   7.443   6.739   3.391  0.2061 -0.1345  0.3676
  412SOL    HW1 1791   7.420   6.688   3.314  0.8439 -0.6117  0.4789
  412SOL    HW2 1792   7.538   6.750   3.385  0.3086 -0.4315  1.2215
  413SOL     OW 1793   3.564   4.355   1.122 -0.0135 -0.2272  0.2627
  413SOL    HW1 1794   3.569   4.322   1.212 -0.0312 -0.6122  0.1232
  413SOL    HW2 1795   3.654   4.378   1.099 -0.3143  2.5562  1.3602
  414SOL     OW 1796   1.995   0.514   7.538 -0.1715 -0.3872 -0.2607
  414SOL    HW1 1797   2.016   0.546   7.626  0.4032  0.9209 -0.8408
  414SOL    HW2 1798   1.965   0.424   7.551  0.6575 -0.4783  1.1858
  415SOL     OW 1799   6.106   7.341   5.580  0.0256  0.1496 -0.1913
  415SOL    HW1 1800   6.060   7.338   5.496  1.3856 -0.0416 -0.9727
  415SOL    HW2 1801   6.142   7.429   5.584 -0.7931  0.4571  0.6387
  416SOL     OW 1802   5.419   2.308   7.589  0.2753  0.0822  0.0484
  416SOL    HW1 1803   5.469   2.238   7.633  0.7615  0.6802  0.4749
  416SOL    HW2 1804   5.411   2.279   7.499  1.5185  0.0216 -0.0561
  417SOL     OW 1805   1.787   5.173   6.674  0.1201 -0.4210  0.0314
  417SOL    HW1 1806   1.806   5.263   6.648  0.4596 -0.6992 -0.7130
  417SOL    HW2 1807   1.871   5.139   6.706  0.6454 -1.2679 -2.1116
  418SOL     OW 1808   4.627   0.875   7.034  0.0710 -0.0101  0.7256
  418SOL    HW1 1809   4.581   0.793   7.017 -0.4243 -0.0452  2.1519
  418SOL    HW2 1810   4.718   0.850   7.050  0.1565 -0.1489  0.0767
  419SOL     OW 1811   3.334   3.250   3.950  0.1777  0.0873  0.2393
  419SOL    HW1 1812   3.350   3.300   4.030  1.5025  0.0810  0.0088
  419SOL    HW2 1813   3.397   3.178   3.953 -0.0436 -0.1585 -0.6020
  420SOL     OW 1814   3.017   2.131   0.633  0.2048 -0.4625 -0.3167
  420SOL    HW1 1815   3.063   2.213   0.651 -0.1738 -0.3772  0.2673
  420SOL    HW2 1816   2.946   2.129   0.696  0.5477 -1.5200  0.0540
  421SOL     OW 1817   4.578   2.500   0.676  0.8122  0.1421 -0.0009
  421SOL    HW1 1818   4.657   2.480   0.727 -0.1198  0.0476  1.4664
  421SOL    HW2 1819   4.509   2.509   0.742 -0.0550  2.0234 -1.0990
  422SOL     OW 1820   1.704   3.003   2.683 -0.1010  0.1804 -0.0248
  422SOL    HW1 1821   1.631   3.058   2.655 -0.1000  0.1093 -0.1716
  422SOL    HW2 1822   1.755   3.058   2.743 -1.7674 -0.6501  2.2914
  423SOL     OW 1823   3.791   6.614   2.583  0.2706 -0.4653 -0.0878
  423SOL    HW1 1824   3.788   6.709   2.572  1.5662 -0.3532  0.3762
  423SOL    HW2 1825   3.884   6.593   2.588 -0.0169 -1.6487  0.7547
  424SOL     OW 1826   4.616   3.609   3.513  0.3437  0.0853 -0.2591
  424SOL    HW1 1827   4.630   3.516   3.533 -2.2686  0.0893  2.2859
  424SOL    HW2 1828   4.527   3.627   3.545  1.2922  3.8090  0.7419
  425SOL     OW 1829   3.856   4.370   2.294 -0.2338 -0.1202  0.7163
  425SOL    HW1 1830   3.913   4.360   2.218  0.6371  2.7137  0.8721
  425SOL    HW2 1831   3.767   4.354   2.260  0.3605 -1.8140 -0.1610
  426SOL     OW 1832   3.578   0.402   0.396  0.5211  0.3759 -0.1944
  426SOL    HW1 1833   3.660   0.427   0.437  0.3742  1.0738 -0.3084
  426SOL    HW2 1834   3.518   0.385   0.469  0.4339  1.0162 -0.1137
  427SOL     OW 1835   0.836   1.213   6.010  0.5579  0.5973  0.5581
  427SOL    HW1 1836   0.880   1.201   5.926  0.6343 -0.5111  0.7409
  427SOL    HW2 1837   0.753   1.166   6.000  0.8763 -0.1310  1.3396
  428SOL     OW 1838   0.129   2.584   5.594  0.3748  0.0417 -0.0901
  428SOL    HW1 1839   0.065   2.516   5.617 -1.3881  1.4890 -0.4315
  428SOL    HW2 1840   0.160   2.559   5.507 -1.7981  0.6438 -1.1203
  429SOL     OW 1841   3.654   2.142   5.774  0.3442  0.1552  0.6187
  429SOL    HW1 1842   3.642   2.219   5.718 -0.8956  1.0616  2.0479
  429SOL    HW2 1843   3.568   2.100   5.774  0.4536 -0.0864  1.4374
  430SOL     OW 1844   2.086   7.504   0.557 -0.4958 -0.3168 -0.0011
  430SOL    HW1 1845   2.096   7.560   0.480 -1.0875 -0.1965  0.0063
  430SOL    HW2 1846   2.087   7.415   0.523 -2.0556 -0.2392 -0.3156
  431SOL     OW 1847   5.979   6.661   7.290 -0.0486 -0.1287 -0.5419
  431SOL    HW1 1848   5.985   6.717   7.213 -1.1845  0.5793 -0.1251
  431SOL    HW2 1849   5.886   6.646   7.303  0.1696 -0.9973  0.1641
  432SOL     OW 1850   6.384   5.787   4.070  0.0474 -0.2029 -0.2423
  432SOL    HW1 1851   6.292   5.763   4.060  0.1456 -0.3647 -0.7808
  432SOL    HW2 1852   6.429   5.741   3.999  0.5811 -0.3171  0.1570
  433SOL     OW 1853   6.220   7.620   3.602  0.2554 -0.3192  0.5927
  433SOL    HW1 1854   6.273   7.689   3.563  0.1678 -1.4339 -1.6939
  433SOL    HW2 1855   6.268   7.539   3.583 -0.7460 -1.0857  1.1948
  434SOL     OW 1856   7.192   4.278   0.418  0.4720  0.2367  0.2527
  434SOL    HW1 1857   7.283   4.254   0.398  0.8077  2.5423 -1.5129
  434SOL    HW2 1858   7.163   4.326   0.341 -2.4808 -0.8648  0.5675
  435SOL     OW 1859   7.531   7.189   7.386  0.4780 -0.2291  0.6573
  435SOL    HW1 1860   7.560   7.100   7.370 -1.5358 -1.1360  1.5987
  435SOL    HW2 1861   7.597   7.244   7.344 -0.0830 -2.1724 -3.3335
  436SOL     OW 1862   7.280   5.854   6.187  0.2564  1.0070  0.1206
  436SOL    HW1 1863   7.304   5.918   6.120  0.6958  0.4532 -0.2710
  436SOL    HW2 1864   7.271   5.772   6.139 -1.8930  1.0587  0.3536
  437SOL     OW 1865   3.290   5.037   5.266  0.0406  0.1850  0.3693
  437SOL    HW1 1866   3.200   5.010   5.280 -0.9706  2.3107 -1.3016
  437SOL    HW2 1867   3.327   5.047   5.354 -1.4908 -0.2739  1.0947
  438SOL     OW 1868   2.089   2.295   5.818  0.8876 -0.4137 -0.0538
  438SOL    HW1 1869   2.053   2.283   5.730  1.0407 -1.0698 -0.0304
  438SOL    HW2 1870   2.114   2.207   5.846  1.7605 -0.0758  0.2587
  439SOL     OW 1871   1.068   2.840   4.056 -0.1407  0.2302  0.4230
  439SOL    HW1 1872   1.021   2.775   4.109 -0.5555  0.0664 -0.1427
  439SOL    HW2 1873   1.065   2.805   3.967  1.6521 -0.1395  0.4605
  440SOL     OW 1874   5.972   1.055   2.686 -0.0174  0.2434 -0.0425
  440SOL    HW1 1875   5.954   0.964   2.709  0.8871 -0.1303 -0.7516
  440SOL    HW2 1876   6.029   1.049   2.609 -1.3917  1.4203 -1.2065
  441SOL     OW 1877   1.522   3.887   0.274  0.3057  0.4468 -0.3522
  441SOL    HW1 1878   1.504   3.893   0.368  1.3679 -2.0531  0.0931
  441SOL    HW2 1879   1.577   3.964   0.256  1.0381  0.3798  1.3575
  442SOL     OW 1880   4.500   0.319   5.737  0.3298 -0.6461  0.0817
  442SOL    HW1 1881   4.431   0.315   5.670 -0.2435  0.4843  0.5706
  442SOL    HW2 1882   4.453   0.311   5.820  0.6739  0.9556  0.4589
  443SOL     OW 1883   2.504   6.778   4.528  0.5539  0.4829  0.1000
  443SOL    HW1 1884   2.452   6.795   4.449  1.2875  1.1681 -0.2556
  443SOL    HW2 1885   2.523   6.684   4.524  1.1397  0.6302 -0.8969
  444SOL     OW 1886   2.214   4.257   0.606 -0.6638  0.0607  0.0471
  444SOL    HW1 1887   2.261   4.305   0.673 -2.1270  1.0920  0.3821
  444SOL    HW2 1888   2.218   4.166   0.634 -0.2367  0.3336  0.9042
  445SOL     OW 1889   1.769   5.795   3.774  0.7267 -0.0894 -0.2110
  445SOL    HW1 1890   1.787   5.749   3.692 -1.5063 -1.7710  0.1463
  445SOL    HW2 1891   1.721   5.732   3.827  2.0071  0.9838  2.4079
  446SOL     OW 1892   3.929   2.298   0.517  0.1646  0.0112  0.4308
  446SOL    HW1 1893   3.841   2.260   0.516 -0.0117  0.4205  0.3224
  446SOL    HW2 1894   3.976   2.250   0.585  0.0509 -0.6435  0.0532
  447SOL     OW 1895   5.208   4.171   0.657 -0.2112  0.7511  0.0839
  447SOL    HW1 1896   5.238   4.262   0.658 -0.3266  0.7926  1.4424
  447SOL    HW2 1897   5.270   4.125   0.713 -1.5557  0.4831  1.4323
  448SOL     OW 1898   7.167   1.676   0.908  0.8712 -0.0469  0.4735
  448SOL    HW1 1899   7.185   1.719   0.825 -0.5988  0.9954  0.6583
  448SOL    HW2 1900   7.246   1.693   0.961  1.3889  0.1526 -0.3440
  449SOL     OW 1901   0.818   0.369   4.447 -0.2330  0.3229 -0.3830
  449SOL    HW1 1902   0.771   0.293   4.412 -0.1711 -0.7829  1.7402
  449SOL    HW2 1903   0.850   0.340   4.533  1.8033  2.0158 -0.4843
  450SOL     OW 1904   4.252   5.036   2.267  0.3703  0.6780  0.1970
  450SOL    HW1 1905   4.328   5.083   2.302  0.7013  1.4491 -1.4674
  450SOL    HW2 1906   4.290   4.970   2.209 -0.2186  0.5381 -0.0334
  451SOL     OW 1907   3.402   2.477   1.856  0.5930  0.1214 -0.4463
  451SOL    HW1 1908   3.492   2.468   1.823  0.7603  1.5569 -0.4470
  451SOL    HW2 1909   3.397   2.414   1.929  1.0524 -1.1730 -1.4836
  452SOL     OW 1910   5.104   6.317   5.178 -0.1401  0.4035 -0.3238
  452SOL    HW1 1911   5.159   6.240   5.191 -0.0459  0.2538 -1.5156
  452SOL    HW2 1912   5.162   6.380   5.134 -0.7029  0.5087 -0.9342
  453SOL     OW 1913   4.809   3.364   3.871 -0.0220 -0.0736 -0.1028
  453SOL    HW1 1914   4.746   3.415   3.922 -0.8697 -1.5505  0.3701
  453SOL    HW2 1915   4.876   3.336   3.934 -0.2504 -0.6170 -0.0967
  454SOL     OW 1916   3.280   4.731   5.387 -0.4504 -0.1268 -0.3600
  454SOL    HW1 1917   3.334   4.768   5.457 -0.3806 -4.4574  2.2465
  454SOL    HW2 1918   3.193   4.767   5.401  0.1764  1.3025  0.0459
  455SOL     OW 1919   4.244   4.422   1.051  0.0863 -0.2440 -0.0012
  455SOL    HW1 1920   4.286   4.479   0.987  0.0271 -1.7445 -1.4708
  455SOL    HW2 1921   4.169   4.385   1.005 -0.0005 -1.3347  0.9513
  456SOL     OW 1922   1.049   7.626   4.980 -0.1602  0.4738  0.0709
  456SOL    HW1 1923   1.099   7.551   4.949  0.7967  1.1369 -0.0456
  456SOL    HW2 1924   0.961   7.592   4.994  0.0823 -0.5003 -0.6469
  457SOL     OW 1925   3.897   6.574   0.415 -0.2330 -0.1744  0.1951
  457SOL    HW1 1926   3.856   6.542   0.495 -0.1970 -0.9192 -0.0723
  457SOL    HW2 1927   3.984   6.604   0.443 -0.1374 -0.6317  0.4010
  458SOL     OW 1928   1.634   2.303   7.380  0.0074  0.0878  0.3528
  458SOL    HW1 1929   1.683   2.227   7.411  1.4322  0.8325  0.0217
  458SOL    HW2 1930   1.675   2.378   7.425  0.2613  0.8875 -1.1338
  459SOL     OW 1931   1.788   5.708   6.644  0.5513 -0.3507  0.0183
  459SOL    HW1 1932   1.804   5.621   6.681 -0.3456 -0.1529  0.8973
  459SOL    HW2 1933   1.873   5.753   6.653  0.6921 -0.7269  0.7072
  460SOL     OW 1934   4.836   2.826   6.948 -0.5702 -0.1518  0.4329
  460SOL    HW1 1935   4.865   2.785   7.030  0.0470 -0.6910 -0.0431
  460SOL    HW2 1936   4.754   2.869   6.970 -0.6628 -0.7155  1.2153
  461SOL     OW 1937   3.788   1.251   4.176 -0.3161  0.1769  0.1492
  461SOL    HW1 1938   3.793   1.230   4.269  1.5207 -0.7529 -0.1215
  461SOL    HW2 1939   3.696   1.273   4.162 -0.2658  2.4965  2.6021
  462SOL     OW 1940   3.199   6.979   2.682 -0.3370  0.5086 -0.0026
  462SOL    HW1 1941   3.162   7.048   2.736 -0.4552  0.7410 -0.3782
  462SOL    HW2 1942   3.281   6.955   2.726  0.3977  1.8229 -0.5810
  463SOL     OW 1943   7.423   0.368   1.363  0.3485  0.1008 -0.2851
  463SOL    HW1 1944   7.360   0.296   1.361 -0.5879  0.8658  0.6711
  463SOL    HW2 1945   7.508   0.325   1.360 -0.1484 -0.9383 -2.8634
  464SOL     OW 1946   2.772   5.057   2.717  0.0586 -0.1930 -0.1558
  464SOL    HW1 1947   2.735   5.019   2.637  1.2707 -1.6244 -0.0828
  464SOL    HW2 1948   2.697   5.070   2.775 -0.4268 -2.7083 -0.1104
  465SOL     OW 1949   6.819   5.855   0.014  0.3944  0.1119  0.2650
  465SOL    HW1 1950   6.820   5.895  -0.073 -0.4561  0.5837  0.4560
  465SOL    HW2 1951   6.742   5.894   0.057  0.4604 -0.5613  1.0130
  466SOL     OW 1952   6.200   7.116   5.998 -0.4139 -0.2771  0.4420
  466SOL    HW1 1953   6.262   7.043   5.998  0.5155  0.5034  0.4238
  466SOL    HW2 1954   6.243   7.184   6.050 -1.2651  0.2745  0.4353
  467SOL     OW 1955   4.481   4.326   0.100 -0.1548 -0.0769  0.0890
  467SOL    HW1 1956   4.407   4.267   0.091  0.1809 -0.5361  0.3405
  467SOL    HW2 1957   4.447   4.400   0.149 -0.5967 -0.0179 -0.2959
  468SOL     OW 1958   6.574   0.428   6.987  0.7391 -0.1471 -0.0210
  468SOL    HW1 1959   6.568   0.348   6.935  2.3996 -0.7145  0.5798
  468SOL    HW2 1960   6.556   0.499   6.925 -1.7236 -0.9794 -0.3626
  469SOL     OW 1961   5.230   0.933   4.213 -0.4330  0.3982 -0.1329
  469SOL    HW1 1962   5.278   0.909   4.293 -0.2468  0.7445 -0.1363
  469SOL    HW2 1963   5.289   0.910   4.142  0.0957  1.6132 -0.1071
  470SOL     OW 1964   7.647   6.287   0.848 -0.7333 -0.4126  0.5200
  470SOL    HW1 1965   7.594   6.208   0.837 -0.2115 -0.6219 -0.6243
  470SOL    HW2 1966   7.725   6.258   0.895 -0.9271 -0.4091  0.8450
  471SOL     OW 1967   2.700   1.769   1.393  0.3654  1.1743 -0.3253
  471SOL    HW1 1968   2.631   1.764   1.459 -0.9528  0.5736 -1.6802
  471SOL    HW2 1969   2.761   1.835   1.426  0.3359  0.1348  1.9884
  472SOL     OW 1970   5.214   4.776   1.186 -0.4866  0.1452  0.1857
  472SOL    HW1 1971   5.215   4.818   1.100  1.4757  0.5887  0.3661
  472SOL    HW2 1972   5.288   4.815   1.232 -0.8698 -0.8382  1.7070
  473SOL     OW 1973   2.663   0.605   2.623 -0.2948  0.2513  0.1548
  473SOL    HW1 1974   2.576   0.616   2.584  0.2063  1.3058 -0.7287
  473SOL    HW2 1975   2.674   0.511   2.631 -1.4322  0.0966  0.0673
  474SOL     OW 1976   5.497   4.439   1.974 -0.4774  0.0168 -0.5672
  474SOL    HW1 1977   5.481   4.345   1.980  1.4357 -0.3961 -1.2099
  474SOL    HW2 1978   5.592   4.446   1.963 -0.7753  1.9048 -2.6225
  475SOL     OW 1979   7.353   0.246   7.377 -0.0146 -0.6702  0.5671
  475SOL    HW1 1980   7.341   0.313   7.444  1.1231  0.3113 -0.1753
  475SOL    HW2 1981   7.385   0.170   7.425  0.3949 -0.1147  1.1979
  476SOL     OW 1982   4.354   7.006   5.276 -0.0232 -0.3569  0.0178
  476SOL    HW1 1983   4.358   7.062   5.199  1.8205 -0.5248 -0.0451
  476SOL    HW2 1984   4.263   6.976   5.279 -0.2737  0.1315 -1.7400
  477SOL     OW 1985   6.777   0.808   5.256 -0.0761 -0.0389  0.2354
  477SOL    HW1 1986   6.688   0.793   5.223 -0.4325 -0.4497  1.3296
  477SOL    HW2 1987   6.768   0.882   5.316  0.7192  1.2707 -1.1939
  478SOL     OW 1988   6.333   5.106   1.241  0.1160 -0.2063 -0.2290
  478SOL    HW1 1989   6.245   5.121   1.206  0.2588 -2.7570 -1.9680
  478SOL    HW2 1990   6.319   5.076   1.331 -0.7988 -0.4789 -0.4571
  479SOL     OW 1991   6.687   4.942   1.025 -0.3431  0.1728  0.0411
  479SOL    HW1 1992   6.697   5.019   0.969  1.5225  0.5452  0.7926
  479SOL    HW2 1993   6.777   4.920   1.052 -0.9901 -1.2293  1.2191
  480SOL     OW 1994   2.752   3.285   4.595 -0.2409 -0.4792  0.3655
  480SOL    HW1 1995   2.693   3.321   4.529 -1.8765 -2.6798  0.5263
  480SOL    HW2 1996   2.695   3.246   4.661  1.3299 -2.6059  0.6088
  481SOL     OW 1997   0.213   7.701   6.136 -0.7262  0.2541  0.0867
  481SOL    HW1 1998   0.295   7.715   6.183 -1.1638  1.9819  0.4092
  481SOL    HW2 1999   0.187   7.611   6.158  1.0706 -0.3461 -0.0635
  482SOL     OW 2000   2.938   1.046   2.105  0.7540 -0.4885 -0.0566
  482SOL    HW1 2001   2.882   1.102   2.052  2.2460  2.4125  1.1721
  482SOL    HW2 2002   2.955   0.969   2.051 -0.6964  0.6544 -2.2437
  483SOL     OW 2003   1.074   4.602   5.354 -0.0309  0.3289 -0.2132
  483SOL    HW1 2004   1.023   4.559   5.285  0.0597  1.1653 -0.8236
  483SOL    HW2 2005   1.009   4.646   5.408 -0.0220  0.7069 -0.5051
  484SOL     OW 2006   6.765   1.671   7.184 -0.7712  0.1010 -0.1561
  484SOL    HW1 2007   6.779   1.755   7.139  0.1695 -0.3988 -0.8191
  484SOL    HW2 2008   6.683   1.638   7.147 -1.1250  0.6902  0.0760
  485SOL     OW 2009   5.268   1.360   4.741  0.2776 -0.1737 -0.3373
  485SOL    HW1 2010   5.180   1.337   4.712  0.9070 -2.4304 -0.6835
  485SOL    HW2 2011   5.302   1.416   4.671 -0.5222 -0.1544 -0.7211
  486SOL     OW 2012   3.176   5.985   2.770  0.3369 -0.5510  0.3777
  486SOL    HW1 2013   3.242   6.027   2.824  0.2072 -0.6133  0.5864
  486SOL    HW2 2014   3.208   5.895   2.758  0.1450 -0.6651  0.7232
  487SOL     OW 2015   4.135   4.835   2.416  0.3845 -0.6293  0.3086
  487SOL    HW1 2016   4.064   4.872   2.470 -0.0732 -0.7439 -0.2072
  487SOL    HW2 2017   4.157   4.905   2.355  1.9383  0.0565  1.5799
  488SOL     OW 2018   1.483   3.239   0.932  0.4641 -0.3184  0.3900
  488SOL    HW1 2019   1.501   3.332   0.947  1.7080 -0.5916  0.6964
  488SOL    HW2 2020   1.433   3.238   0.850 -0.8343  0.7116  1.1345
  489SOL     OW 2021   4.569   6.178   1.976  0.5433  0.1204 -0.0236
  489SOL    HW1 2022   4.626   6.176   1.899  1.6939  0.5124  0.7767
  489SOL    HW2 2023   4.568   6.088   2.007 -1.0372 -0.3273 -1.2364
  490SOL     OW 2024   3.285   0.424   4.526 -0.3358 -0.0828 -0.4970
  490SOL    HW1 2025   3.221   0.481   4.483  1.0575  0.7477 -1.5749
  490SOL    HW2 2026   3.235   0.347   4.552 -1.4396 -0.2771 -2.9176
  491SOL     OW 2027   5.404   4.139   0.844  0.0672 -0.3221  0.5922
  491SOL    HW1 2028   5.488   4.185   0.840  0.1530 -0.5469 -1.0067
  491SOL    HW2 2029   5.426   4.051   0.872  0.1560  0.0246  1.6622
  492SOL     OW 2030   6.974   6.000   2.989 -0.5477 -0.0496  0.3162
  492SOL    HW1 2031   7.038   5.938   2.954  0.2977  0.1143  1.5323
  492SOL    HW2 2032   6.976   5.986   3.084 -2.5819 -0.2874  0.3770
  493SOL     OW 2033   1.919   1.391   2.717  0.4612  0.3187 -0.1030
  493SOL    HW1 2034   1.953   1.369   2.804  0.6848  0.3957 -0.1688
  493SOL    HW2 2035   1.987   1.446   2.678 -0.3450  1.6224  0.2888
  494SOL     OW 2036   0.789   3.789   4.843  0.2249 -0.2034 -0.0510
  494SOL    HW1 2037   0.861   3.833   4.797 -0.2442 -0.6053 -1.1943
  494SOL    HW2 2038   0.728   3.764   4.774 -0.9364 -0.0339  0.8810
  495SOL     OW 2039   6.025   1.889   3.125  0.3945  0.0292  0.2761
  495SOL    HW1 2040   6.009   1.861   3.215  0.3977 -0.1527  0.2220
  495SOL    HW2 2041   6.028   1.807   3.075 -1.5294  0.1906 -0.2121
  496SOL     OW 2042   2.186   7.011   1.296 -0.8586  0.1280 -0.3295
  496SOL    HW1 2043   2.205   6.992   1.204 -0.6559 -2.6623  0.2173
  496SOL    HW2 2044   2.093   7.033   1.297 -1.1096 -0.8499 -1.0718
  497SOL     OW 2045   1.967   2.350   0.332 -0.3517 -0.2126 -0.1193
  497SOL    HW1 2046   2.033   2.387   0.273 -0.5716  0.3382 -0.0300
  497SOL    HW2 2047   1.935   2.272   0.287  0.9085 -0.9264  0.1857
  498SOL     OW 2048   3.409   4.062   6.179  0.5449 -0.0860 -0.0074
  498SOL    HW1 2049   3.385   4.141   6.130 -1.4669 -0.0838  0.9218
  498SOL    HW2 2050   3.392   4.085   6.270 -0.3701 -1.7031  0.2444
  499SOL     OW 2051   3.295   4.453   2.019  0.0706  0.3555  0.1261
  499SOL    HW1 2052   3.390   4.448   2.029  0.2369 -1.9592 -1.5540
  499SOL    HW2 2053   3.270   4.367   1.984 -2.6399  0.9304  0.3820
  500SOL     OW 2054   5.228   6.821   0.937 -0.5384 -0.0113  0.4360
  500SOL    HW1 2055   5.146   6.851   0.897  1.7266  1.7848 -3.4528
  500SOL    HW2 2056   5.233   6.728   0.913 -0.9979  0.1156 -0.1882
  501SOL     OW 2057   0.618   4.756   2.218  0.5405  0.0016 -0.0334
  501SOL    HW1 2058   0.610   4.829   2.156 -0.0456 -0.1622 -0.1574
  501SOL    HW2 2059   0.576   4.682   2.173 -1.3701  0.2751  1.1928
  502SOL     OW 2060   6.270   2.287   3.556  0.2265 -0.4202 -0.7277
  502SOL    HW1 2061   6.252   2.378   3.582  0.3978 -1.1492  2.2915
  502SOL    HW2 2062   6.366   2.285   3.546  0.0788  0.1282 -2.8412
  503SOL     OW 2063   4.398   0.223   7.718  0.7017 -0.1887 -0.4533
  503SOL    HW1 2064   4.398   0.315   7.692  1.7166 -0.9160 -3.3313
  503SOL    HW2 2065   4.441   0.223   7.804 -0.3541  2.1020  0.1450
  504SOL     OW 2066   0.960   0.717   1.133 -0.1220  0.4746 -0.4636
  504SOL    HW1 2067   0.906   0.724   1.212  0.0941 -0.2318 -0.2419
  504SOL    HW2 2068   0.960   0.623   1.113 -0.5649  0.7034 -1.5812
  505SOL     OW 2069   2.558   4.448   5.077 -0.5356 -0.0888  0.0214
  505SOL    HW1 2070   2.521   4.401   5.001 -0.3172  0.3320 -0.3468
  505SOL    HW2 2071   2.647   4.415   5.084 -0.9764 -1.1660  0.9605
  506SOL     OW 2072   1.403   6.684   6.085 -0.2689  0.3691  0.2237
  506SOL    HW1 2073   1.314   6.718   6.070 -1.3832 -2.5045 -0.3973
  506SOL    HW2 2074   1.426   6.715   6.172 -1.7678  1.4493  0.2658
  507SOL     OW 2075   0.406   0.691   1.511  0.2435 -0.3106  0.1029
  507SOL    HW1 2076   0.362   0.761   1.463  0.1106 -1.0207 -0.8575
  507SOL    HW2 2077   0.351   0.677   1.589 -1.4862 -1.3990 -1.2290
  508SOL     OW 2078   0.708   2.124   1.207 -0.2448 -0.1227  0.1423
  508SOL    HW1 2079   0.796   2.127   1.170 -0.2104 -0.7980  0.1589
  508SOL    HW2 2080   0.663   2.054   1.159 -0.6678 -0.0106  0.3633
  509SOL     OW 2081   2.357   5.176   6.706  0.5074 -0.5512 -0.3663
  509SOL    HW1 2082   2.327   5.250   6.655  1.6562 -0.1744 -0.5245
  509SOL    HW2 2083   2.308   5.181   6.788 -1.2349 -1.0704 -1.3218
  510SOL     OW 2084   0.798   0.824   6.629 -0.0049  0.2031  0.5450
  510SOL    HW1 2085   0.770   0.735   6.605  0.5137  0.1109  0.2724
  510SOL    HW2 2086   0.735   0.881   6.585  2.0141  0.1349 -2.7536
  511SOL     OW 2087   5.588   1.871   5.222  0.0270  0.3998 -0.6319
  511SOL    HW1 2088   5.518   1.920   5.179 -1.5481 -1.3925 -0.2215
  511SOL    HW2 2089   5.591   1.787   5.176  0.4315 -0.3604  0.7253
  512SOL     OW 2090   1.763   0.368   4.281 -0.7613  0.2889 -0.0054
  512SOL    HW1 2091   1.824   0.375   4.207 -0.5257 -0.8699  0.0595
  512SOL    HW2 2092   1.678   0.354   4.240 -0.7964  0.7099 -0.0764
  513SOL     OW 2093   1.040   3.620   6.610  0.1925 -0.2707  0.1169
  513SOL    HW1 2094   1.060   3.634   6.702 -0.1243  0.8947  0.0215
  513SOL    HW2 2095   0.996   3.700   6.582 -2.8839 -1.8741 -0.1534
  514SOL     OW 2096   2.407   4.018   4.882  0.5023 -0.1953  0.2017
  514SOL    HW1 2097   2.324   4.057   4.854 -0.1110  0.6086  2.8222
  514SOL    HW2 2098   2.381   3.937   4.926  1.2794 -0.7697 -0.3799
  515SOL     OW 2099   1.785   6.442   6.302  0.0494  0.2146 -0.2896
  515SOL    HW1 2100   1.761   6.451   6.394 -0.3671 -1.1417 -0.2400
  515SOL    HW2 2101   1.747   6.519   6.259 -1.0567  0.0850  0.4308
  516SOL     OW 2102   3.361   3.491   0.868 -0.2064 -0.3647 -0.3871
  516SOL    HW1 2103   3.331   3.456   0.784 -1.5679 -0.6105  0.1718
  516SOL    HW2 2104   3.442   3.538   0.847 -0.3010 -0.7716 -1.7583
  517SOL     OW 2105   5.526   0.483   7.375  0.6466 -0.1226 -0.0766
  517SOL    HW1 2106   5.497   0.519   7.291  0.9789 -0.5424 -0.3792
  517SOL    HW2 2107   5.593   0.543   7.406  0.1958  0.2877  0.1214
  518SOL     OW 2108   2.520   1.038   3.797  0.0987  0.3291 -0.2766
  518SOL    HW1 2109   2.506   1.059   3.889  0.3842  0.7441 -0.3264
  518SOL    HW2 2110   2.433   1.018   3.763  0.2976 -3.0496  0.8519
  519SOL     OW 2111   3.107   4.236   1.903 -0.3035  0.0983  0.5034
  519SOL    HW1 2112   3.160   4.208   1.829  0.1381 -0.0054  0.8528
  519SOL    HW2 2113   3.143   4.188   1.978  0.1487  1.2468  1.0362
  520SOL     OW 2114   7.650   2.252   6.006  0.0540 -0.2823 -0.0902
  520SOL    HW1 2115   7.724   2.306   5.980  0.2332 -0.7865 -0.6484
  520SOL    HW2 2116   7.627   2.202   5.928 -2.4636  1.6242 -0.7101
  521SOL     OW 2117   6.700   4.589   6.198  0.5202  0.0720  0.0923
  521SOL    HW1 2118   6.606   4.592   6.183  0.5546 -0.8653 -0.4245
  521SOL    HW2 2119   6.716   4.650   6.270 -0.6793 -0.8525  1.1889
  522SOL     OW 2120   3.730   2.635   7.097 -0.4782  0.7870 -0.6303
  522SOL    HW1 2121   3.749   2.711   7.152 -0.5976  1.3691 -1.3829
  522SOL    HW2 2122   3.638   2.646   7.073 -0.0437  1.3224 -2.1389
  523SOL     OW 2123   0.339   1.623   2.555 -0.1652 -0.2646 -0.1154
  523SOL    HW1 2124   0.250   1.634   2.522 -0.1835 -0.2884 -0.0742
  523SOL    HW2 2125   0.374   1.549   2.505  0.1120  0.2598 -0.7119
  524SOL     OW 2126   7.478   2.746   7.354  0.3552 -0.1388  0.1268
  524SOL    HW1 2127   7.527   2.813   7.403  0.9053 -0.2831 -0.2131
  524SOL    HW2 2128   7.430   2.698   7.421 -2.3444  2.3666  0.1645
  525SOL     OW 2129   5.453   3.277   5.665 -0.5648 -0.1899 -0.0003
  525SOL    HW1 2130   5.512   3.238   5.729 -0.7958 -0.2153  0.2011
  525SOL    HW2 2131   5.370   3.287   5.712 -0.6319  0.1356 -0.1816
  526SOL     OW 2132   2.915   2.274   7.182 -0.2545 -0.0084 -0.1688
  526SOL    HW1 2133   2.849   2.259   7.249  0.2775 -0.1847  0.3255
  526SOL    HW2 2134   2.921   2.369   7.174 -2.8707  0.1045 -2.5405
  527SOL     OW 2135   4.457   6.756   6.668 -0.1320 -0.0254  0.4260
  527SOL    HW1 2136   4.436   6.766   6.575 -1.1411  2.1720  0.8224
  527SOL    HW2 2137   4.380   6.714   6.707 -0.6436  1.0313  0.5956
  528SOL     OW 2138   6.614   0.139   1.606  0.0128  0.0433  0.0837
  528SOL    HW1 2139   6.640   0.051   1.580 -0.0337 -0.1874  0.7828
  528SOL    HW2 2140   6.616   0.136   1.702 -0.2556  0.7225  0.1101
  529SOL     OW 2141   6.606   1.368   0.645  0.4159  0.3523  0.2178
  529SOL    HW1 2142   6.626   1.393   0.554 -0.0612  0.3451  0.1088
  529SOL    HW2 2143   6.677   1.310   0.670  0.3418  0.0377 -0.2903
  530SOL     OW 2144   4.016   3.296   3.062 -0.4083 -0.2544 -0.4497
  530SOL    HW1 2145   4.049   3.346   2.987 -0.1881 -0.6677 -0.6279
  530SOL    HW2 2146   4.094   3.265   3.107 -0.5292  0.6230  0.3873
  531SOL     OW 2147   0.348   0.139   0.159 -0.1985 -0.0774  0.1048
  531SOL    HW1 2148   0.411   0.205   0.190 -0.4673 -0.0142  0.5139
  531SOL    HW2 2149   0.321   0.171   0.073  0.3366 -0.1088 -0.0803
  532SOL     OW 2150   7.417   3.567   2.401 -0.9176  0.2884 -0.5764
  532SOL    HW1 2151   7.375   3.547   2.484  0.3234 -0.4834 -0.1212
  532SOL    HW2 2152   7.505   3.532   2.408 -1.3327 -1.4904 -2.9011
  533SOL     OW 2153   4.688   0.852   4.290  0.1381 -0.2107  0.3127
  533SOL    HW1 2154   4.669   0.788   4.358 -1.5098  1.5119  1.5850
  533SOL    HW2 2155   4.775   0.828   4.259 -0.1751 -2.6898  1.0966
  534SOL     OW 2156   2.358   5.724   7.077 -0.1605 -0.0367 -0.0001
  534SOL    HW1 2157   2.448   5.695   7.059 -0.4782 -2.5100  1.8926
  534SOL    HW2 2158   2.369   5.802   7.132  0.8692 -1.0831  1.3335
  535SOL     OW 2159   5.706   2.383   7.719 -0.1061  0.0021  0.2822
  535SOL    HW1 2160   5.735   2.309   7.665  0.6464  0.3557  0.1831
  535SOL    HW2 2161   5.786   2.414   7.761 -0.4012  0.8022  0.2702
  536SOL     OW 2162   3.594   2.559   5.051  0.0819 -0.7053 -0.3207
  536SOL    HW1 2163   3.524   2.589   5.109  1.8521  2.0659  0.5636
  536SOL    HW2 2164   3.594   2.464   5.062 -4.9758 -1.2674 -2.1803
  537SOL     OW 2165   6.239   2.293   2.121  0.5228  0.3698  0.0491
  537SOL    HW1 2166   6.316   2.330   2.165  0.2562  2.2223 -0.9028
  537SOL    HW2 2167   6.229   2.348   2.043 -0.4347 -1.2899 -1.0404
  538SOL     OW 2168   2.030   7.503   1.656  0.4791 -0.1100 -0.4564
  538SOL    HW1 2169   2.061   7.418   1.687  1.3786  1.0731  2.1269
  538SOL    HW2 2170   2.081   7.519   1.576 -0.1835 -2.2170 -1.3844
  539SOL     OW 2171   2.050   5.546   5.290 -0.4568 -0.0943  1.1741
  539SOL    HW1 2172   2.019   5.629   5.254  0.3662 -0.6715 -1.0409
  539SOL    HW2 2173   1.975   5.511   5.338 -1.1672  1.4035  1.2026
  540SOL     OW 2174   6.308   0.595   2.134  0.4547 -0.3184  0.6873
  540SOL    HW1 2175   6.234   0.637   2.179 -1.2675 -0.2172 -2.0323
  540SOL    HW2 2176   6.307   0.505   2.166 -0.2019 -0.0636  1.4227
  541SOL     OW 2177   1.308   3.542   4.754 -0.3467  0.7597 -0.2584
  541SOL    HW1 2178   1.384   3.514   4.703 -0.5378  0.2565 -0.2752
  541SOL    HW2 2179   1.254   3.463   4.761 -0.7920  1.0754 -0.1164
  542SOL     OW 2180   6.461   0.023   1.233 -0.3125 -0.0825  0.6923
  542SOL    HW1 2181   6.524   0.092   1.255 -1.1626  0.3196  1.9438
  542SOL    HW2 2182   6.422   0.053   1.151 -0.0060  0.4505  0.7327
  543SOL     OW 2183   2.241   7.062   2.170  0.1223  0.5164  0.4121
  543SOL    HW1 2184   2.323   7.111   2.172 -0.3812  1.3668  0.8681
  543SOL    HW2 2185   2.231   7.027   2.258  1.0365 -1.3987 -0.2028
  544SOL     OW 2186   1.888   1.688   0.635  0.4281 -0.2695 -0.7691
  544SOL    HW1 2187   1.918   1.767   0.590  0.5298 -0.8520 -1.7594
  544SOL    HW2 2188   1.920   1.698   0.724  0.2392  0.9105 -0.8168
  545SOL     OW 2189   4.654   3.781   1.842 -0.1367 -0.4675 -0.4407
  545SOL    HW1 2190   4.613   3.862   1.810 -0.5652 -1.1084 -1.5828
  545SOL    HW2 2191   4.597   3.752   1.913 -1.1205 -0.7875 -1.3211
  546SOL     OW 2192   6.951   5.910   2.609 -0.2430 -0.3237  0.4164
  546SOL    HW1 2193   6.860   5.934   2.628 -1.0944 -1.9136 -1.2443
  546SOL    HW2 2194   6.995   5.994   2.593 -1.7387  0.4376  0.0658
  547SOL     OW 2195   4.362   0.813   6.281  0.3841  0.5961 -0.7315
  547SOL    HW1 2196   4.416   0.880   6.323 -0.7837  2.1027 -1.5309
  547SOL    HW2 2197   4.276   0.853   6.273 -0.0083 -0.4836 -2.4760
  548SOL     OW 2198   6.699   3.988   2.530  0.0642  0.1070  0.0939
  548SOL    HW1 2199   6.737   4.070   2.497 -0.4293  0.0616 -0.6262
  548SOL    HW2 2200   6.724   3.923   2.464  0.7401 -0.3891  0.8375
  549SOL     OW 2201   5.085   7.445   4.034 -0.5088 -0.3618 -0.3898
  549SOL    HW1 2202   5.076   7.539   4.050  0.9714 -0.0736 -1.0889
  549SOL    HW2 2203   5.078   7.436   3.939 -0.9361 -0.9991 -0.3010
  550SOL     OW 2204   6.925   7.282   1.395 -0.2590  0.0220 -0.7135
  550SOL    HW1 2205   6.901   7.331   1.474 -0.0146 -2.2803  0.9021
  550SOL    HW2 2206   6.857   7.215   1.386  0.3255 -0.4533 -1.8012
  551SOL     OW 2207   3.567   7.209   4.054 -0.0267  0.0574 -0.5662
  551SOL    HW1 2208   3.623   7.250   3.987  1.8828  0.5781  1.2346
  551SOL    HW2 2209   3.542   7.281   4.111  2.9620 -0.9515  2.3594
  552SOL     OW 2210   4.682   2.840   0.984 -0.2576 -0.4429 -0.2561
  552SOL    HW1 2211   4.704   2.912   0.925  1.6239 -1.0225 -0.3328
  552SOL    HW2 2212   4.654   2.883   1.065  2.0347  0.4508  0.1403
  553SOL     OW 2213   3.578   7.201   0.220  0.7908 -0.2909 -0.0219
  553SOL    HW1 2214   3.517   7.249   0.163  1.8439  0.3492 -0.6315
  553SOL    HW2 2215   3.528   7.124   0.248  0.0284 -0.2962 -1.3113
  554SOL     OW 2216   1.781   7.493   0.614 -0.3599 -0.3572 -0.4734
  554SOL    HW1 2217   1.868   7.457   0.631 -1.1244 -1.5500  1.2867
  554SOL    HW2 2218   1.793   7.588   0.618  1.0540 -0.4419 -1.5541
  555SOL     OW 2219   4.858   4.994   3.305  0.0711 -0.3139  0.3471
  555SOL    HW1 2220   4.889   5.049   3.377 -0.9289 -1.8662  2.0407
  555SOL    HW2 2221   4.762   4.998   3.312 -0.1540  1.0903 -2.2099
  556SOL     OW 2222   6.902   4.932   4.418 -0.0905 -0.1251 -0.5570
  556SOL    HW1 2223   6.824   4.900   4.464 -0.8769  0.8467 -1.1750
  556SOL    HW2 2224   6.887   4.907   4.326 -0.2124  1.0288 -0.8653
  557SOL     OW 2225   0.397   2.624   7.209  1.0149  0.2862 -0.1496
  557SOL    HW1 2226   0.447   2.671   7.143  0.7022  1.4007  0.3800
  557SOL    HW2 2227   0.389   2.535   7.175  0.8324  0.8370 -1.6199
  558SOL     OW 2228   5.788   0.319   1.266 -0.5589  0.0145  0.2670
  558SOL    HW1 2229   5.770   0.266   1.189  0.4903 -0.0660  0.0637
  558SOL    HW2 2230   5.826   0.257   1.329 -0.2632  0.3235  0.3953
  559SOL     OW 2231   6.429   1.907   0.777 -0.1615 -0.2702 -0.5611
  559SOL    HW1 2232   6.341   1.871   0.782 -0.6777  0.6948 -1.9293
  559SOL    HW2 2233   6.419   1.989   0.728  1.1093  1.2557  1.5852
  560SOL     OW 2234   3.177   4.533   6.346 -0.0432 -0.1015  0.4758
  560SOL    HW1 2235   3.261   4.491   6.366 -0.4329 -0.8874  0.4945
  560SOL    HW2 2236   3.134   4.541   6.431  0.3399  1.0424  0.5758
  561SOL     OW 2237   0.024   0.135   0.053  0.4183  0.1562 -0.0718
  561SOL    HW1 2238   0.052   0.136   0.144 -0.1316  0.4689  0.0963
  561SOL    HW2 2239   0.094   0.181   0.006  1.3736 -1.1982 -0.0180
  562SOL     OW 2240   3.283   2.241   1.668  0.1392  0.2483 -0.0933
  562SOL    HW1 2241   3.201   2.288   1.682 -1.9038 -1.6266 -3.9061
  562SOL    HW2 2242   3.330   2.292   1.603  1.7978  0.9385  1.5509
  563SOL     OW 2243   2.984   4.429   0.507  0.0844 -0.1150 -0.0119
  563SOL    HW1 2244   3.047   4.479   0.559  0.6266 -0.3974 -0.3901
  563SOL    HW2 2245   3.031   4.407   0.426  0.7316 -3.2866  1.0812
  564SOL     OW 2246   1.437   2.976   4.241 -0.1351  0.1542  0.4865
  564SOL    HW1 2247   1.507   3.041   4.230 -0.4746  0.5725  0.8303
  564SOL    HW2 2248   1.423   2.971   4.335  2.2305 -2.8902  0.8370
  565SOL     OW 2249   4.620   3.749   2.345 -0.2185  0.6042  0.1640
  565SOL    HW1 2250   4.585   3.687   2.409 -2.8767  2.2853  0.4656
  565SOL    HW2 2251   4.688   3.797   2.393  1.9747 -1.9758 -0.1080
  566SOL     OW 2252   5.327   0.280   6.599 -0.7587  0.3836 -0.6592
  566SOL    HW1 2253   5.277   0.200   6.617  0.0060  0.3312  1.5479
  566SOL    HW2 2254   5.396   0.281   6.665  0.9556  1.4997 -2.3504
  567SOL     OW 2255   2.799   4.373   1.698 -0.3647  0.3750  0.3071
  567SOL    HW1 2256   2.845   4.451   1.668 -0.6177  0.2333 -0.4739
  567SOL    HW2 2257   2.707   4.401   1.707 -0.5191  0.0740 -0.3307
  568SOL     OW 2258   3.813   7.448   6.618 -0.4323 -0.1206 -0.1056
  568SOL    HW1 2259   3.759   7.408   6.686  0.3933  0.7108  1.0767
  568SOL    HW2 2260   3.850   7.526   6.659  1.9085 -0.8045 -0.7534
  569SOL     OW 2261   2.403   0.695   5.576 -0.1606 -0.1655 -0.2106
  569SOL    HW1 2262   2.470   0.744   5.529  0.8356 -1.6865 -0.4364
  569SOL    HW2 2263   2.424   0.603   5.560 -0.0992 -0.7708  2.7053
  570SOL     OW 2264   0.215   2.256   3.513  0.2967 -0.5698  0.5710
  570SOL    HW1 2265   0.267   2.315   3.566  0.1396 -0.5930  0.7527
  570SOL    HW2 2266   0.182   2.310   3.441 -0.6847 -0.1938  1.2928
  571SOL     OW 2267   1.680   0.448   5.605  0.0735  0.2400 -0.3901
  571SOL    HW1 2268   1.731   0.370   5.583 -0.8872 -0.5356 -0.0019
  571SOL    HW2 2269   1.664   0.440   5.699 -0.8740  0.3733 -0.5266
  572SOL     OW 2270   6.318   4.164   5.214  0.4244 -0.0904  0.4790
  572SOL    HW1 2271   6.355   4.220   5.146  2.5986 -0.2000  1.4680
  572SOL    HW2 2272   6.307   4.079   5.171  0.1865  0.2585 -0.1629
  573SOL     OW 2273   1.289   0.134   7.288 -0.4301  0.2911 -0.3709
  573SOL    HW1 2274   1.198   0.149   7.316 -0.7374 -1.4204 -0.3559
  573SOL    HW2 2275   1.281   0.087   7.205  0.3921 -1.1312  0.3129
  574SOL     OW 2276   1.862   6.355   5.693 -0.6801 -0.6993 -0.2465
  574SOL    HW1 2277   1.816   6.272   5.705 -2.8862  0.4806 -0.1640
  574SOL    HW2 2278   1.800   6.411   5.647  0.0052  1.5677  1.4308
  575SOL     OW 2279   1.926   7.222   6.095  0.1369  1.0735 -0.3021
  575SOL    HW1 2280   1.896   7.256   6.011 -0.9578 -0.0046 -0.3778
  575SOL    HW2 2281   1.925   7.127   6.084  0.3257  0.9285  0.8148
  576SOL     OW 2282   2.261   0.545   2.020 -0.2780  0.2459 -0.4024
  576SOL    HW1 2283   2.251   0.464   1.970 -1.0181  0.6595 -0.9405
  576SOL    HW2 2284   2.258   0.516   2.111 -0.4461 -0.3454 -0.5854
  577SOL     OW 2285   0.506   5.965   3.283 -0.7812 -0.0069  0.1326
  577SOL    HW1 2286   0.478   5.911   3.357  1.8822  1.6307  2.5323
  577SOL    HW2 2287   0.444   6.038   3.282  0.4212  1.1272  2.3161
  578SOL     OW 2288   7.449   1.527   6.970 -0.0090  0.0316 -0.0524
  578SOL    HW1 2289   7.525   1.495   6.921  0.7749  0.5960  0.7639
  578SOL    HW2 2290   7.374   1.505   6.914  0.6643 -1.3494 -0.4599
  579SOL     OW 2291   2.343   1.629   2.965  0.0653  0.3888 -0.4482
  579SOL    HW1 2292   2.434   1.656   2.976 -0.8088  2.7927  1.9107
  579SOL    HW2 2293   2.306   1.693   2.904 -0.6633  1.0876  0.6994
  580SOL     OW 2294   7.072   2.291   6.283  0.1630 -0.0241 -0.3959
  580SOL    HW1 2295   7.045   2.249   6.201 -0.7084  0.2413 -0.2506
  580SOL    HW2 2296   7.156   2.250   6.304  0.2743 -0.2853 -1.2843
  581SOL     OW 2297   2.101   1.798   0.336 -0.3736  0.1605 -0.1680
  581SOL    HW1 2298   2.093   1.869   0.272  0.2135  0.5410  0.1694
  581SOL    HW2 2299   2.153   1.732   0.291  0.2696  0.5411 -0.0069
  582SOL     OW 2300   6.547   5.655   0.394 -0.7027  0.1589 -0.5635
  582SOL    HW1 2301   6.589   5.735   0.423 -1.0955  0.1423  0.0561
  582SOL    HW2 2302   6.620   5.594   0.379 -0.4864  0.1889  0.3185
  583SOL     OW 2303   5.359   5.461   3.035 -0.0084  0.0774  0.0447
  583SOL    HW1 2304   5.298   5.456   2.961  0.2091 -0.0593 -0.1274
  583SOL    HW2 2305   5.446   5.456   2.995  0.1051 -0.2669  0.3300
  584SOL     OW 2306   3.147   6.940   1.979  0.7822  0.0758 -0.2643
  584SOL    HW1 2307   3.209   6.877   1.941 -0.3444  0.0763 -2.2964
  584SOL    HW2 2308   3.115   6.898   2.059  0.6033 -1.6534 -1.1880
  585SOL     OW 2309   3.309   6.127   2.968 -0.0826 -0.2062  0.1125
  585SOL    HW1 2310   3.270   6.211   2.944 -1.4548 -1.0586 -0.8590
  585SOL    HW2 2311   3.390   6.149   3.014 -0.9100  1.6421  0.7601
  586SOL     OW 2312   4.167   4.604   2.283 -0.2537  0.1754  0.5252
  586SOL    HW1 2313   4.161   4.683   2.336 -0.5948  0.3323  0.2554
  586SOL    HW2 2314   4.087   4.604   2.230  0.0000 -0.0644  0.1347
  587SOL     OW 2315   3.316   7.188   7.394  0.0438 -0.1334 -0.4117
  587SOL    HW1 2316   3.398   7.152   7.427  0.1067  0.8143  0.5211
  587SOL    HW2 2317   3.293   7.257   7.457 -1.7335 -0.7273 -0.3707
  588SOL     OW 2318   1.673   4.149   5.194  0.3411 -0.2826  0.0387
  588SOL    HW1 2319   1.707   4.222   5.144  0.2803 -0.0656  0.3127
  588SOL    HW2 2320   1.618   4.189   5.262 -1.7899 -0.6694 -1.3591
  589SOL     OW 2321   6.388   6.557   2.005  0.5634 -0.0260  0.2724
  589SOL    HW1 2322   6.444   6.579   2.080  0.8138 -2.5065  0.9233
  589SOL    HW2 2323   6.417   6.469   1.979 -2.0715 -0.8164 -0.2909
  590SOL     OW 2324   6.404   1.618   5.737  0.4417 -0.1215  0.1245
  590SOL    HW1 2325   6.441   1.705   5.718 -1.1339  0.5122 -0.2348
  590SOL    HW2 2326   6.436   1.597   5.824  1.5668  0.4192 -0.1370
  591SOL     OW 2327   2.112   7.306   6.635  0.3435  0.0037  0.2239
  591SOL    HW1 2328   2.060   7.386   6.636  0.6698  0.5067 -3.9279
  591SOL    HW2 2329   2.054   7.239   6.671 -1.3225  1.4464  0.3571
  592SOL     OW 2330   7.535   4.298   1.653 -0.5284  0.2812  0.0910
  592SOL    HW1 2331   7.457   4.251   1.682 -0.5331  0.7263  0.8133
  592SOL    HW2 2332   7.608   4.249   1.690 -0.4751 -0.0017 -0.3895
  593SOL     OW 2333   1.829   1.625   4.242 -0.1651 -0.2444  0.1190
  593SOL    HW1 2334   1.778   1.689   4.191 -2.7411 -2.7424 -0.7132
  593SOL    HW2 2335   1.808   1.644   4.333  1.4904  1.8627  0.1573
  594SOL     OW 2336   2.872   3.144   6.002  0.2751 -0.1293  0.3165
  594SOL    HW1 2337   2.829   3.227   6.022  1.0006  0.6194 -1.0340
  594SOL    HW2 2338   2.964   3.160   6.022  0.5962 -0.2161 -0.9742
  595SOL     OW 2339   3.462   1.143   1.822  0.0908  0.1627 -0.6528
  595SOL    HW1 2340   3.540   1.175   1.868 -0.7126  0.3194  0.6609
  595SOL    HW2 2341   3.478   1.049   1.812 -0.6310 -0.3229  1.9933
  596SOL     OW 2342   4.789   1.498   4.526  0.4416 -0.2163  0.1440
  596SOL    HW1 2343   4.846   1.428   4.560  0.0423 -0.5629  0.1115
  596SOL    HW2 2344   4.746   1.534   4.604  0.2875 -0.3321  0.1138
  597SOL     OW 2345   3.477   1.169   3.739 -0.2223  0.1145 -0.2652
  597SOL    HW1 2346   3.507   1.260   3.748 -0.2316  0.1473 -0.5382
  597SOL    HW2 2347   3.382   1.174   3.749 -0.0520 -0.1525  1.8044
  598SOL     OW 2348   4.643   4.279   7.081  0.3199  0.2347  0.0842
  598SOL    HW1 2349   4.629   4.352   7.022  0.2425 -0.7249 -1.1107
  598SOL    HW2 2350   4.614   4.312   7.166  1.6115  2.0622 -0.1049
  599SOL     OW 2351   6.995   3.943   1.029 -0.0221  0.6688 -0.5480
  599SOL    HW1 2352   7.072   3.925   0.976  0.0464 -1.2484  0.1289
  599SOL    HW2 2353   6.924   3.950   0.966  0.6813  2.5701 -1.1878
  600SOL     OW 2354   2.320   4.360   4.708  0.3788 -0.0877  0.0348
  600SOL    HW1 2355   2.301   4.279   4.660 -2.1628 -0.1755  1.0106
  600SOL    HW2 2356   2.284   4.345   4.795  0.7915  1.7297  0.5589
  601SOL     OW 2357   5.148   6.184   0.175  0.1315  0.4932  0.1835
  601SOL    HW1 2358   5.077   6.247   0.159 -0.3388 -0.0667  0.0461
  601SOL    HW2 2359   5.171   6.152   0.088  1.6227  1.8005  0.0522
  602SOL     OW 2360   1.094   5.554   2.464  0.1619 -0.5176 -0.1903
  602SOL    HW1 2361   1.095   5.641   2.505 -0.6690 -0.7804  0.3972
  602SOL    HW2 2362   1.083   5.572   2.370  0.7361  0.0307 -0.1651
  603SOL     OW 2363   5.609   6.569   2.813 -0.4530 -0.0859 -0.1026
  603SOL    HW1 2364   5.608   6.586   2.907  0.6738  1.5701 -0.3517
  603SOL    HW2 2365   5.521   6.536   2.794 -0.6762 -0.5182  1.5252
  604SOL     OW 2366   5.852   6.203   0.448 -0.5446  1.0890 -0.1108
  604SOL    HW1 2367   5.849   6.107   0.455 -0.2612  0.7852 -3.0209
  604SOL    HW2 2368   5.880   6.220   0.358 -0.3895  3.9383  0.3844
  605SOL     OW 2369   0.548   6.598   7.473 -0.1037  0.6370 -0.3007
  605SOL    HW1 2370   0.567   6.518   7.522  1.8833  2.0775  1.4297
  605SOL    HW2 2371   0.460   6.583   7.438  0.5833 -2.7133 -1.0075
  606SOL     OW 2372   1.277   1.282   4.350  0.3216  0.0231  0.4801
  606SOL    HW1 2373   1.288   1.189   4.332  2.7038 -0.6311  4.1722
  606SOL    HW2 2374   1.210   1.286   4.419 -0.4893  1.1971 -0.3292
  607SOL     OW 2375   3.315   0.818   4.699 -0.5699  0.4327  0.0684
  607SOL    HW1 2376   3.371   0.890   4.671 -0.0002 -0.3399 -0.8342
  607SOL    HW2 2377   3.286   0.776   4.617 -0.4571 -0.6807  0.5725
  608SOL     OW 2378   3.306   4.696   6.816  0.0661  0.3388 -0.6106
  608SOL    HW1 2379   3.223   4.652   6.835  0.7164 -0.5867  0.1580
  608SOL    HW2 2380   3.283   4.789   6.808 -0.7978  0.3118  1.1944
  609SOL     OW 2381   7.754   1.415   0.540  0.1526  0.0933 -0.3379
  609SOL    HW1 2382   7.759   1.405   0.445 -0.8721  1.4144 -0.5538
  609SOL    HW2 2383   7.755   1.509   0.555 -0.7816 -0.0639  0.8813
  610SOL     OW 2384   6.193   7.611   5.655 -0.6723 -0.0215 -0.0771
  610SOL    HW1 2385   6.157   7.691   5.617  1.0504  0.7130 -0.2211
  610SOL    HW2 2386   6.146   7.601   5.738 -1.3847  0.7511 -0.3717
  611SOL     OW 2387   1.512   6.723   4.860 -0.6021  0.2895  0.1917
  611SOL    HW1 2388   1.497   6.790   4.928 -0.0089  1.0454 -0.4039
  611SOL    HW2 2389   1.438   6.662   4.870  0.3656 -0.5876  2.6210
  612SOL     OW 2390   4.645   6.365   1.607 -0.0982  0.0503  0.1408
  612SOL    HW1 2391   4.600   6.420   1.672  1.1958  0.0993  1.0238
  612SOL    HW2 2392   4.725   6.337   1.650  1.3721  0.9957 -1.8117
  613SOL     OW 2393   0.381   7.463   7.439  0.3492 -0.7663  0.1760
  613SOL    HW1 2394   0.288   7.439   7.435 -0.2442  1.0753  1.4329
  613SOL    HW2 2395   0.402   7.490   7.350 -0.4832 -0.7009 -0.0155
  614SOL     OW 2396   1.536   5.013   5.682 -0.2154 -0.0382 -0.3650
  614SOL    HW1 2397   1.470   5.007   5.612  0.0171 -1.5414 -0.4972
  614SOL    HW2 2398   1.485   5.005   5.763 -0.5801  2.5223 -0.2755
  615SOL     OW 2399   5.795   3.717   5.502 -0.1343 -0.1705 -0.0388
  615SOL    HW1 2400   5.861   3.680   5.443  2.1835  2.2443  0.8449
  615SOL    HW2 2401   5.795   3.658   5.577  1.4625  0.0339  0.1680
  616SOL     OW 2402   5.436   0.188   3.643  0.6604 -0.0716 -0.4667
  616SOL    HW1 2403   5.343   0.174   3.661  0.4497 -0.8842 -1.9552
  616SOL    HW2 2404   5.476   0.202   3.728 -0.9328  0.9796  0.1416
  617SOL     OW 2405   5.611   5.824   5.207  0.3324 -0.2884  0.6601
  617SOL    HW1 2406   5.700   5.858   5.198  0.0561  0.4070  0.5149
  617SOL    HW2 2407   5.594   5.824   5.301 -0.3440  1.8050  0.5908
  618SOL     OW 2408   3.578   3.158   0.487 -0.1522  0.3058 -0.1608
  618SOL    HW1 2409   3.642   3.205   0.433  0.2577  0.3876  0.3864
  618SOL    HW2 2410   3.624   3.141   0.569  0.6492 -3.3588 -1.2028
  619SOL     OW 2411   4.339   6.436   2.416 -0.1555  0.1895  0.0674
  619SOL    HW1 2412   4.283   6.374   2.461 -0.1287 -0.4950 -0.8114
  619SOL    HW2 2413   4.394   6.382   2.359 -0.2917  1.0178 -0.8900
  620SOL     OW 2414   5.895   2.238   4.380 -0.3055 -0.7565 -0.3076
  620SOL    HW1 2415   5.854   2.237   4.466 -0.3193  0.6336 -0.2841
  620SOL    HW2 2416   5.926   2.148   4.367 -0.1479 -0.9427  1.2075
  621SOL     OW 2417   1.078   7.097   0.285 -0.2872  0.0715 -0.0657
  621SOL    HW1 2418   1.016   7.037   0.243 -1.0893 -0.3387  1.6252
  621SOL    HW2 2419   1.145   7.113   0.219 -0.7091 -1.7203 -0.9706
  622SOL     OW 2420   2.005   0.483   3.060  0.2977 -0.1222 -0.4604
  622SOL    HW1 2421   2.011   0.409   3.121  0.5627 -1.0210 -1.5524
  622SOL    HW2 2422   2.033   0.448   2.976 -1.6598  0.6532 -1.5059
  623SOL     OW 2423   1.180   2.083   4.980 -0.4211  0.8420  0.0249
  623SOL    HW1 2424   1.222   2.030   5.048 -1.0528 -0.2163 -0.4040
  623SOL    HW2 2425   1.206   2.043   4.898 -2.0317  0.3040 -0.2653
  624SOL     OW 2426   0.617   3.566   4.159 -0.4559 -0.2155  0.2921
  624SOL    HW1 2427   0.567   3.485   4.146 -0.2167 -0.3115 -0.0526
  624SOL    HW2 2428   0.553   3.629   4.193 -0.6714 -0.5132  0.4483
  625SOL     OW 2429   7.582   6.560   6.603 -0.2392 -0.2616 -0.2123
  625SOL    HW1 2430   7.664   6.571   6.555  0.7680  1.5106  1.7101
  625SOL    HW2 2431   7.552   6.650   6.619 -1.1891 -0.8191  1.3114
  626SOL     OW 2432   1.070   7.448   6.811 -0.3703 -0.2743  0.8041
  626SOL    HW1 2433   1.077   7.358   6.843  0.1157 -1.1698 -1.5838
  626SOL    HW2 2434   1.154   7.488   6.833  0.0248 -0.9213  0.4865
  627SOL     OW 2435   0.253   3.814   4.894  0.1045 -0.1205  0.4737
  627SOL    HW1 2436   0.242   3.721   4.917  1.1494 -0.9201 -1.9129
  627SOL    HW2 2437   0.165   3.843   4.873  0.1199 -1.5907 -1.9942
  628SOL     OW 2438   7.541   1.401   3.014 -0.4550  0.0211  0.1232
  628SOL    HW1 2439   7.451   1.386   3.042 -0.0144 -2.7226  0.2848
  628SOL    HW2 2440   7.555   1.339   2.943  1.2397  0.5658 -0.0649
  629SOL     OW 2441   5.966   6.972   5.961  0.3608 -0.4754 -0.2595
  629SOL    HW1 2442   5.902   7.040   5.984  0.2051 -1.2872  1.9380
  629SOL    HW2 2443   6.051   7.013   5.977  0.3332 -0.2275 -0.7186
  630SOL     OW 2444   2.101   2.676   5.303 -0.7507 -0.3548 -0.3147
  630SOL    HW1 2445   2.141   2.762   5.313 -0.9582 -0.2826 -0.0665
  630SOL    HW2 2446   2.137   2.641   5.222 -1.3002  0.3171 -0.8631
  631SOL     OW 2447   2.157   3.259   4.536  0.2224  0.1345  0.5468
  631SOL    HW1 2448   2.110   3.229   4.613 -0.4381  0.5592  0.3151
  631SOL    HW2 2449   2.247   3.226   4.548 -0.1336 -0.6993  0.9695
  632SOL     OW 2450   6.350   3.059   4.793  0.2886 -0.0449 -0.6356
  632SOL    HW1 2451   6.266   3.060   4.840  0.0738 -0.1631 -1.0100
  632SOL    HW2 2452   6.353   3.144   4.748 -0.5254 -0.7861 -2.1574
  633SOL     OW 2453   4.998   7.418   4.598 -0.3079 -0.0242  0.2499
  633SOL    HW1 2454   4.967   7.464   4.677 -0.3982 -1.8485  1.3401
  633SOL    HW2 2455   4.921   7.415   4.541 -1.2803 -1.6146  1.5533
  634SOL     OW 2456   0.553   1.556   5.216  0.4967  0.6866 -0.0640
  634SOL    HW1 2457   0.628   1.591   5.264 -0.6379  1.2907  1.3341
  634SOL    HW2 2458   0.585   1.474   5.178  1.5502  0.3436  1.4780
  635SOL     OW 2459   6.752   7.087   0.313  0.4866 -0.0230 -0.4936
  635SOL    HW1 2460   6.711   7.112   0.230 -0.6157 -1.2545 -0.3522
  635SOL    HW2 2461   6.844   7.072   0.290  1.0246  3.0423 -0.7559
  636SOL     OW 2462   0.828   0.793   4.865 -0.2376 -0.4016 -0.3259
  636SOL    HW1 2463   0.785   0.719   4.821  1.0930  0.6593 -3.7286
  636SOL    HW2 2464   0.772   0.868   4.845  0.3410  0.1083 -0.0426
  637SOL     OW 2465   2.152   0.818   1.243  0.0326  0.0439  0.0324
  637SOL    HW1 2466   2.176   0.821   1.151 -0.1595  0.1223 -0.0134
  637SOL    HW2 2467   2.233   0.839   1.289  0.4524 -1.1955 -0.0781
  638SOL     OW 2468   3.442   5.864   1.922  0.1459  0.1122  0.3546
  638SOL    HW1 2469   3.525   5.832   1.958  0.7399 -0.2809 -1.2658
  638SOL    HW2 2470   3.447   5.842   1.829 -1.8455 -0.0177  0.2483
  639SOL     OW 2471   6.638   2.086   6.809 -0.0283 -0.6128  0.3846
  639SOL    HW1 2472   6.570   2.046   6.755 -0.4969 -2.7557  2.3673
  639SOL    HW2 2473   6.590   2.135   6.876  0.3791 -1.1935  1.1178
  640SOL     OW 2474   0.949   5.172   0.496  0.0411  0.0782 -0.1059
  640SOL    HW1 2475   0.970   5.171   0.589 -0.1776  0.1540 -0.0527
  640SOL    HW2 2476   0.941   5.265   0.474  2.8741  0.2073 -0.8653
  641SOL     OW 2477   3.044   3.973   5.564  0.0727  0.2659  0.5686
  641SOL    HW1 2478   3.089   3.962   5.480  1.0972  1.5438  0.9115
  641SOL    HW2 2479   3.093   4.043   5.608  0.0349 -0.8745  2.5472
  642SOL     OW 2480   3.400   0.867   1.601  0.3465 -0.2426  0.1054
  642SOL    HW1 2481   3.452   0.873   1.682 -0.7128 -0.8132  0.8641
  642SOL    HW2 2482   3.462   0.834   1.536  0.6377 -2.3686  1.3474
  643SOL     OW 2483   3.055   0.740   4.812  0.2113 -0.3218  0.0616
  643SOL    HW1 2484   3.106   0.806   4.765 -0.5266  1.3050  1.4133
  643SOL    HW2 2485   2.969   0.741   4.769 -0.0023  0.1056  0.4804
  644SOL     OW 2486   6.979   0.914   1.178 -0.3724  0.5061 -0.4914
  644SOL    HW1 2487   7.014   0.895   1.091  0.3986  0.1164 -0.1055
  644SOL    HW2 2488   6.899   0.963   1.161 -2.4155 -2.8449 -1.5730
  645SOL     OW 2489   1.537   0.087   5.122 -0.0037 -0.0984 -0.2857
  645SOL    HW1 2490   1.478   0.140   5.068 -0.1675  0.3652  0.3484
  645SOL    HW2 2491   1.488   0.069   5.202  0.9885  0.9484  0.5891
  646SOL     OW 2492   6.468   1.795   2.865 -0.5492 -0.1439  0.1658
  646SOL    HW1 2493   6.416   1.792   2.946 -0.2082 -1.9710  0.3608
  646SOL    HW2 2494   6.441   1.876   2.822  0.5789  1.8825  2.9620
  647SOL     OW 2495   5.828   0.262   0.238 -0.3314 -0.0082 -0.6183
  647SOL    HW1 2496   5.905   0.207   0.224 -0.5326 -0.6112  0.5416
  647SOL    HW2 2497   5.759   0.222   0.186 -1.1399 -2.3537  2.0435
  648SOL     OW 2498   6.365   2.318   6.509  0.2606 -0.1156  0.7346
  648SOL    HW1 2499   6.368   2.300   6.415 -2.1552  0.2956  0.5168
  648SOL    HW2 2500   6.441   2.374   6.525  0.2969  0.4483 -1.1297
  649SOL     OW 2501   2.967   5.760   2.989 -0.6566  0.2300 -0.0196
  649SOL    HW1 2502   3.036   5.695   3.004 -0.0614  0.3596 -1.8726
  649SOL    HW2 2503   2.908   5.719   2.925 -0.7727  1.1511 -0.5326
  650SOL     OW 2504   6.237   2.180   3.972  0.4713 -0.1244 -0.8015
  650SOL    HW1 2505   6.180   2.125   3.917 -0.5944 -0.7659  0.8779
  650SOL    HW2 2506   6.312   2.124   3.991  0.9873  0.2005 -1.7981
  651SOL     OW 2507   3.356   3.277   4.847  0.1234  0.3277  0.2371
  651SOL    HW1 2508   3.411   3.305   4.773 -1.1310  1.3797 -0.3303
  651SOL    HW2 2509   3.277   3.329   4.839 -1.3862 -1.7980  0.4988
  652SOL     OW 2510   1.270   3.150   7.727 -0.7848 -0.1722 -1.0062
  652SOL    HW1 2511   1.177   3.136   7.746 -0.8106 -0.6151 -1.4252
  652SOL    HW2 2512   1.300   3.209   7.796 -1.4922  0.3705 -1.1561
  653SOL     OW 2513   5.448   6.255   0.096 -0.5789 -0.2454 -0.0408
  653SOL    HW1 2514   5.406   6.269   0.181 -0.9163 -1.0560 -0.0708
  653SOL    HW2 2515   5.458   6.160   0.089 -1.7864 -0.3008 -1.4920
  654SOL     OW 2516   5.676   4.155   0.900 -0.1578  0.6486 -0.6997
  654SOL    HW1 2517   5.718   4.176   0.817  0.2092  0.9104 -0.4518
  654SOL    HW2 2518   5.748   4.141   0.961 -0.3814 -1.4113 -0.8584
  655SOL     OW 2519   7.302   2.813   0.357  0.3654 -0.1059  0.0540
  655SOL    HW1 2520   7.206   2.809   0.359  0.2723  1.0027 -0.7900
  655SOL    HW2 2521   7.324   2.808   0.264  1.2303 -1.8228  0.3247
  656SOL     OW 2522   2.944   2.045   3.804 -0.3387  0.6732 -0.4113
  656SOL    HW1 2523   2.900   2.005   3.729 -0.6457  1.1766 -0.5029
  656SOL    HW2 2524   3.004   2.109   3.766 -0.5388  0.9721 -0.2275
  657SOL     OW 2525   1.935   7.516   5.165  0.8473 -0.0196  0.0634
  657SOL    HW1 2526   1.985   7.457   5.109  0.2689 -1.2047  0.7388
  657SOL    HW2 2527   1.860   7.542   5.112  0.4609 -0.8933  0.1682
  658SOL     OW 2528   4.270   2.529   5.756  0.0691 -0.1337  0.3000
  658SOL    HW1 2529   4.281   2.578   5.674 -0.1837 -0.5891 -0.0120
  658SOL    HW2 2530   4.228   2.448   5.729 -1.3720  0.3213  1.0630
  659SOL     OW 2531   0.637   1.648   1.827  0.3123  0.0898 -0.2216
  659SOL    HW1 2532   0.575   1.604   1.886 -1.8148  2.8738 -0.1844
  659SOL    HW2 2533   0.650   1.586   1.756 -4.5009  0.1292 -1.4696
  660SOL     OW 2534   2.619   2.789   3.901  0.0083  0.3291 -0.0567
  660SOL    HW1 2535   2.551   2.838   3.856  0.2194 -0.7443 -1.6405
  660SOL    HW2 2536   2.697   2.802   3.847  0.8018  0.6587  1.1354
  661SOL     OW 2537   1.228   3.176   6.568 -0.4562  0.3601  0.1044
  661SOL    HW1 2538   1.219   3.268   6.544  1.3765  0.1689 -1.5398
  661SOL    HW2 2539   1.291   3.176   6.641  0.3618  0.3445 -0.5951
  662SOL     OW 2540   6.263   0.803   3.284 -0.1818  0.0724 -0.3210
  662SOL    HW1 2541   6.234   0.810   3.375 -0.7450 -0.6715 -0.4345
  662SOL    HW2 2542   6.231   0.717   3.255  0.0101  0.2924 -1.2173
  663SOL     OW 2543   5.882   6.184   5.552  0.4465 -0.1023 -0.7687
  663SOL    HW1 2544   5.977   6.178   5.539  0.2279 -2.0803 -1.8406
  663SOL    HW2 2545   5.869   6.270   5.593  2.6045  0.5787 -1.3547
  664SOL     OW 2546   3.123   4.716   7.643 -0.2615  0.4875 -0.3971
  664SOL    HW1 2547   3.189   4.649   7.660 -1.7032 -0.8332  0.2485
  664SOL    HW2 2548   3.059   4.674   7.585 -0.4016  1.8307 -1.2707
  665SOL     OW 2549   4.312   5.786   0.232  0.0104 -0.4565 -0.2467
  665SOL    HW1 2550   4.358   5.828   0.160  0.6901 -1.1353 -0.2214
  665SOL    HW2 2551   4.339   5.834   0.310  0.8748 -0.9933 -0.2048
  666SOL     OW 2552   5.145   6.437   3.162 -0.1761  0.3178 -0.1191
  666SOL    HW1 2553   5.127   6.530   3.155 -0.1481  0.3221 -0.1370
  666SOL    HW2 2554   5.233   6.432   3.202  0.5353  0.3303 -1.6221
  667SOL     OW 2555   5.854   1.855   5.835  0.1985  0.3488  0.0934
  667SOL    HW1 2556   5.802   1.863   5.754  0.7549 -0.1684 -0.3237
  667SOL    HW2 2557   5.871   1.945   5.861 -2.1088  0.5944  1.0480
  668SOL     OW 2558   4.794   1.400   7.477 -0.7854  0.2033 -0.2154
  668SOL    HW1 2559   4.869   1.372   7.530 -0.1677  0.6442 -0.8441
  668SOL    HW2 2560   4.826   1.399   7.387 -1.5297  0.4264 -0.4926
  669SOL     OW 2561   6.694   5.975   1.481  0.3205 -0.4689  0.2418
  669SOL    HW1 2562   6.717   5.966   1.573 -0.5769 -1.8787  0.3573
  669SOL    HW2 2563   6.606   5.939   1.475 -0.4650  1.4429 -0.8235
  670SOL     OW 2564   6.760   1.823   2.734 -0.1931 -0.5383  0.1883
  670SOL    HW1 2565   6.810   1.844   2.814  0.4712 -1.4528  0.0413
  670SOL    HW2 2566   6.818   1.850   2.663 -0.8286  0.3659  0.0060
  671SOL     OW 2567   7.040   0.292   5.719 -0.2380 -0.3332  0.2972
  671SOL    HW1 2568   7.114   0.317   5.664 -1.1937 -0.9219 -1.3199
  671SOL    HW2 2569   7.027   0.199   5.701 -1.3786 -0.2358  0.5436
  672SOL     OW 2570   1.206   0.807   2.084 -0.2802  0.2377 -0.3940
  672SOL    HW1 2571   1.263   0.885   2.084  0.0553 -0.0061  0.0599
  672SOL    HW2 2572   1.118   0.842   2.071  0.0482  0.5660 -1.9360
  673SOL     OW 2573   3.609   1.785   5.038 -0.0958 -0.2525  0.0703
  673SOL    HW1 2574   3.603   1.763   5.131 -1.4295  3.1044  0.9306
  673SOL    HW2 2575   3.530   1.749   4.999 -0.7165  0.3419  0.7595
  674SOL     OW 2576   6.700   7.095   5.073 -0.3463  0.4838 -0.2012
  674SOL    HW1 2577   6.614   7.108   5.112 -0.9914 -2.0256 -0.6206
  674SOL    HW2 2578   6.689   7.115   4.980 -0.4094  0.3824 -0.2151
  675SOL     OW 2579   6.063   7.496   6.375 -0.1429  0.4760  0.4604
  675SOL    HW1 2580   6.046   7.539   6.292  1.4357  0.2097 -0.0501
  675SOL    HW2 2581   6.159   7.501   6.385 -0.2080 -0.3370  1.7872
  676SOL     OW 2582   7.270   3.842   0.432  0.2340 -0.1123  0.3411
  676SOL    HW1 2583   7.264   3.903   0.359  0.3463 -0.0156  0.4110
  676SOL    HW2 2584   7.350   3.792   0.416 -0.4145 -0.9761 -0.2695
  677SOL     OW 2585   1.771   1.848   6.488  0.1638  0.0288  0.0318
  677SOL    HW1 2586   1.718   1.811   6.417 -0.6618 -0.1709  0.7453
  677SOL    HW2 2587   1.732   1.814   6.568  1.2207  0.0858  0.5861
  678SOL     OW 2588   3.695   0.763   7.471 -0.2940 -0.1907  0.2094
  678SOL    HW1 2589   3.755   0.741   7.399  0.7703  3.7512 -0.3794
  678SOL    HW2 2590   3.749   0.756   7.550  0.1963  0.7372 -0.0284
  679SOL     OW 2591   0.529   4.111   2.308 -0.4118  0.2862  0.3082
  679SOL    HW1 2592   0.589   4.066   2.368  3.4011 -0.3470 -3.4641
  679SOL    HW2 2593   0.577   4.189   2.280 -0.7488 -0.6796 -3.5614
  680SOL     OW 2594   3.578   5.176   7.526 -0.4257 -0.2401  0.2043
  680SOL    HW1 2595   3.649   5.150   7.584 -0.8444 -0.5930  0.5690
  680SOL    HW2 2596   3.503   5.188   7.584 -0.6060  0.3637 -0.1457
  681SOL     OW 2597   1.347   7.062   1.260 -0.6009 -0.3148  0.5084
  681SOL    HW1 2598   1.315   7.119   1.330  0.8385  2.0872 -0.6762
  681SOL    HW2 2599   1.315   7.103   1.180  1.2229 -0.6597 -0.4392
  682SOL     OW 2600   2.844   6.982   3.446  0.2491  0.1739  0.1773
  682SOL    HW1 2601   2.874   7.068   3.416  0.7737  0.6641  1.9820
  682SOL    HW2 2602   2.873   6.977   3.537  0.3744 -1.9992  0.0609
  683SOL     OW 2603   1.827   0.208   4.880  0.1046 -0.3781 -0.1032
  683SOL    HW1 2604   1.888   0.262   4.830  1.1683 -0.6811  0.8364
  683SOL    HW2 2605   1.818   0.253   4.964 -0.2145 -0.8399  0.1155
  684SOL     OW 2606   3.625   0.618   5.975  0.6473  0.0917 -0.1278
  684SOL    HW1 2607   3.551   0.642   5.920  0.8735  0.1650 -0.4030
  684SOL    HW2 2608   3.600   0.535   6.015  0.5696 -0.0697 -0.5094
  685SOL     OW 2609   3.711   5.329   6.878  0.9824  0.2561 -0.2363
  685SOL    HW1 2610   3.652   5.284   6.937  0.6335 -2.2924 -2.3495
  685SOL    HW2 2611   3.694   5.422   6.893 -0.6532 -0.3293  2.0127
  686SOL     OW 2612   7.564   0.545   6.939 -0.3070  0.1659  0.6790
  686SOL    HW1 2613   7.561   0.516   7.030  0.8823  2.5825  1.5791
  686SOL    HW2 2614   7.472   0.553   6.913 -0.7025  0.6918  2.1472
  687SOL     OW 2615   0.022   4.320   3.126  0.4391 -0.0717  0.1462
  687SOL    HW1 2616  -0.026   4.280   3.199  2.3135 -1.2054  0.8306
  687SOL    HW2 2617   0.038   4.247   3.065  3.2107 -0.3542  1.0379
  688SOL     OW 2618   4.915   4.141   7.671  0.4137 -0.5987 -0.3929
  688SOL    HW1 2619   4.935   4.167   7.761  0.9021  1.5170 -1.0438
  688SOL    HW2 2620   4.990   4.087   7.644 -0.8786 -3.3945  1.1852
  689SOL     OW 2621   0.889   1.531   3.565  0.9303 -0.2371  0.2224
  689SOL    HW1 2622   0.856   1.471   3.632  1.2260 -0.4362  0.1920
  689SOL    HW2 2623   0.856   1.617   3.592 -0.2906 -0.5380 -0.2402
  690SOL     OW 2624   4.236   7.552   3.263 -0.1978  0.1196 -0.4298
  690SOL    HW1 2625   4.253   7.632   3.312  1.8028 -0.7289  0.4028
  690SOL    HW2 2626   4.226   7.580   3.172  4.7218  1.1181 -0.9370
  691SOL     OW 2627   2.792   5.838   1.602 -0.3514  0.6130  0.2800
  691SOL    HW1 2628   2.874   5.790   1.593 -1.1596 -0.5648 -1.1266
  691SOL    HW2 2629   2.750   5.800   1.679  0.4208  1.2640  1.0414
  692SOL     OW 2630   6.799   0.925   3.703  0.0173  0.0522  0.1853
  692SOL    HW1 2631   6.824   0.952   3.615  1.9399  1.1378  1.0080
  692SOL    HW2 2632   6.760   0.839   3.692 -0.4257  0.4529 -1.7917
  693SOL     OW 2633   1.814   1.361   4.142  0.0582 -0.3351 -0.4892
  693SOL    HW1 2634   1.811   1.294   4.211 -2.8417  0.7221  0.5702
  693SOL    HW2 2635   1.817   1.444   4.190  2.2462  0.4178 -1.7692
  694SOL     OW 2636   6.955   2.397   6.686 -0.0119  0.3766  0.4126
  694SOL    HW1 2637   6.928   2.380   6.595 -1.8055  0.5583  0.8655
  694SOL    HW2 2638   6.939   2.314   6.731  0.0481  0.5384  0.7319
  695SOL     OW 2639   0.769   6.237   3.097  0.2293  0.4783 -0.3901
  695SOL    HW1 2640   0.787   6.261   3.006 -0.2345 -0.9281 -0.8730
  695SOL    HW2 2641   0.679   6.207   3.097  0.8139 -1.3968  0.1280
  696SOL     OW 2642   4.582   1.624   1.214  0.0884 -0.4146  0.0655
  696SOL    HW1 2643   4.559   1.575   1.135 -1.9582  0.5907 -0.0186
  696SOL    HW2 2644   4.635   1.697   1.181  0.0378 -0.5216 -0.2615
  697SOL     OW 2645   7.160   3.085   6.324  0.1019 -0.2889  0.1664
  697SOL    HW1 2646   7.255   3.075   6.320  0.4332  1.4205  2.1539
  697SOL    HW2 2647   7.130   3.066   6.235  2.1952 -1.6842 -0.2915
  698SOL     OW 2648   0.983   3.339   6.310  0.2862 -0.3878 -1.1041
  698SOL    HW1 2649   1.071   3.347   6.348 -0.0331 -2.7183  0.2750
  698SOL    HW2 2650   0.982   3.253   6.269 -1.2844 -0.2758 -1.3398
  699SOL     OW 2651   5.798   4.402   5.233  0.5727  0.4331  0.0259
  699SOL    HW1 2652   5.883   4.370   5.262  0.8665 -1.7765 -2.7838
  699SOL    HW2 2653   5.815   4.437   5.146 -1.5357 -1.4680 -1.2593
  700SOL     OW 2654   7.178   3.781   5.054 -0.4725  0.0286 -0.3179
  700SOL    HW1 2655   7.271   3.802   5.040 -0.5687 -0.8601 -3.0320
  700SOL    HW2 2656   7.179   3.692   5.089 -0.2825  0.1034 -0.1318
  701SOL     OW 2657   3.622   6.204   5.107  0.3424  0.0713 -0.7059
  701SOL    HW1 2658   3.710   6.239   5.094 -0.6842  3.1403 -0.1269
  701SOL    HW2 2659   3.585   6.200   5.019  0.4955  0.3556 -0.7829
  702SOL     OW 2660   2.206   5.376   2.534 -0.5638  0.3769 -1.3533
  702SOL    HW1 2661   2.301   5.371   2.518 -0.1859 -0.2481  0.7765
  702SOL    HW2 2662   2.188   5.469   2.541  0.2159  0.4614 -0.2038
  703SOL     OW 2663   5.913   6.144   1.335 -0.1516 -0.1871  0.3582
  703SOL    HW1 2664   5.984   6.149   1.398  2.2377  1.6614 -2.2371
  703SOL    HW2 2665   5.915   6.053   1.303  1.3054 -0.1029  0.1315
  704SOL     OW 2666   5.948   7.457   4.552  0.2237 -0.1650 -0.3014
  704SOL    HW1 2667   5.893   7.509   4.611  1.5058  0.3995  0.4683
  704SOL    HW2 2668   5.908   7.467   4.466 -0.6002  0.5983  0.1496
  705SOL     OW 2669   2.567   1.481   4.321 -0.0003  0.2665 -0.1264
  705SOL    HW1 2670   2.606   1.468   4.407  1.3736  1.1000 -0.5995
  705SOL    HW2 2671   2.583   1.399   4.274 -0.5447 -0.1018  0.3261
  706SOL     OW 2672   1.461   7.240   0.926  0.5613 -0.3731  0.1660
  706SOL    HW1 2673   1.481   7.284   0.844  0.3237 -0.9615 -0.2173
  706SOL    HW2 2674   1.428   7.309   0.983 -1.8701 -0.3495 -1.1240
  707SOL     OW 2675   6.852   4.403   5.189 -0.6580  0.2388 -0.2660
  707SOL    HW1 2676   6.925   4.414   5.250 -2.4616  0.4300  2.0429
  707SOL    HW2 2677   6.797   4.479   5.204 -3.2409 -1.7086  1.0199
  708SOL     OW 2678   0.935   3.903   2.834 -0.0727 -0.1761 -0.5272
  708SOL    HW1 2679   0.902   3.978   2.883  0.7430 -0.7275  0.9571
  708SOL    HW2 2680   1.028   3.922   2.821  0.3057 -1.2069  0.4908
  709SOL     OW 2681   0.652   5.393   7.462  0.1497  0.3098 -0.3093
  709SOL    HW1 2682   0.592   5.330   7.501  0.4880 -0.8630 -1.5573
  709SOL    HW2 2683   0.663   5.461   7.528 -2.2141  0.3636  0.1046
  710SOL     OW 2684   2.275   1.847   2.630  0.5795  0.2020  0.0017
  710SOL    HW1 2685   2.357   1.801   2.646  1.4509  1.7777  0.1901
  710SOL    HW2 2686   2.254   1.828   2.538  0.7966 -0.7326  0.1395
  711SOL     OW 2687   1.005   3.006   3.128 -0.1874  0.5550  0.0142
  711SOL    HW1 2688   1.060   2.941   3.086 -1.7343 -1.1042  0.4194
  711SOL    HW2 2689   0.975   2.964   3.209  1.0598  2.8718  1.8204
  712SOL     OW 2690   1.438   5.970   6.066  0.5460 -0.4493  0.6069
  712SOL    HW1 2691   1.343   5.981   6.060  0.4096 -2.2097 -3.3834
  712SOL    HW2 2692   1.473   6.057   6.045 -0.0841  0.3511  2.6429
  713SOL     OW 2693   4.310   2.620   3.441  0.4084 -0.0354  0.2123
  713SOL    HW1 2694   4.340   2.633   3.351 -0.2176 -1.3040 -0.2064
  713SOL    HW2 2695   4.387   2.588   3.488  1.0939  1.8970  0.4841
  714SOL     OW 2696   4.598   6.079   2.527 -0.2885  0.2334  0.3454
  714SOL    HW1 2697   4.586   6.173   2.540  0.4553  0.2462  1.0423
  714SOL    HW2 2698   4.637   6.049   2.609 -0.5220 -0.6842  0.1282
  715SOL     OW 2699   7.541   2.795   2.466 -0.0941  0.0307 -0.2857
  715SOL    HW1 2700   7.527   2.773   2.374  0.1786 -0.5500 -0.1897
  715SOL    HW2 2701   7.477   2.743   2.514 -1.1097  1.2825 -0.2278
  716SOL     OW 2702   6.919   1.759   4.435  0.2631 -0.3804  0.9803
  716SOL    HW1 2703   6.825   1.745   4.446  0.6310 -3.1345  1.4364
  716SOL    HW2 2704   6.943   1.706   4.359  1.5713 -0.5855  1.4921
  717SOL     OW 2705   4.740   4.175   2.414  0.2639  0.2438  0.0028
  717SOL    HW1 2706   4.649   4.146   2.412  0.2497  0.1097  1.6836
  717SOL    HW2 2707   4.783   4.124   2.345 -0.2279 -2.2300  1.4352
  718SOL     OW 2708   1.687   3.803   4.886  0.2804  0.3154  0.2357
  718SOL    HW1 2709   1.710   3.802   4.979  0.3707 -0.2533  0.2089
  718SOL    HW2 2710   1.592   3.792   4.885  0.3334 -0.1774  0.2479
  719SOL     OW 2711   5.742   4.697   1.735  0.7995 -0.2075 -0.2674
  719SOL    HW1 2712   5.717   4.773   1.787  3.2447 -0.0975  0.8984
  719SOL    HW2 2713   5.729   4.622   1.793 -1.2951 -0.6992 -1.3027
  720SOL     OW 2714   3.862   3.747   6.083 -0.5936 -0.2888  0.2507
  720SOL    HW1 2715   3.798   3.812   6.111  0.7713  0.9122  0.7551
  720SOL    HW2 2716   3.862   3.681   6.152 -1.0960 -0.1488  0.3829
  721SOL     OW 2717   2.644   6.573   4.836 -0.2045 -0.4935  0.0682
  721SOL    HW1 2718   2.591   6.643   4.798  1.5481  0.5275 -0.5655
  721SOL    HW2 2719   2.687   6.613   4.911  2.0755 -0.3643 -1.2284
  722SOL     OW 2720   4.386   4.405   2.595  0.0780 -0.0557  0.2404
  722SOL    HW1 2721   4.318   4.355   2.639  0.0367  0.2083  0.4763
  722SOL    HW2 2722   4.349   4.493   2.584 -0.8975 -0.6831 -2.5122
  723SOL     OW 2723   4.592   4.119   6.033  0.7425 -0.1395 -0.1446
  723SOL    HW1 2724   4.588   4.024   6.034  0.2526 -0.1337  1.6079
  723SOL    HW2 2725   4.528   4.146   5.968 -1.2132 -0.9789  1.3227
  724SOL     OW 2726   7.204   5.986   0.787  0.7598  0.3615 -0.7663
  724SOL    HW1 2727   7.223   5.920   0.721  0.8753 -0.0857 -0.2895
  724SOL    HW2 2728   7.109   5.981   0.800  1.0202 -1.3003  0.8978
  725SOL     OW 2729   0.667   4.792   5.135 -0.1712  0.2344  0.0320
  725SOL    HW1 2730   0.581   4.776   5.097  0.2129 -1.1483 -0.3151
  725SOL    HW2 2731   0.703   4.866   5.084 -0.4405 -0.3452 -1.0131
  726SOL     OW 2732   0.553   3.244   3.412 -0.5411 -0.0482 -0.2593
  726SOL    HW1 2733   0.609   3.169   3.434 -1.9444 -1.1212 -0.2194
  726SOL    HW2 2734   0.541   3.291   3.494  1.1868  0.8738 -0.4707
  727SOL     OW 2735   3.375   6.630   2.812  0.2197  0.1407  0.9841
  727SOL    HW1 2736   3.344   6.571   2.743  0.9749  1.9722 -1.0402
  727SOL    HW2 2737   3.306   6.697   2.819  0.3278  0.1791  1.7425
  728SOL     OW 2738   6.782   2.245   0.927  0.7655 -0.2280 -0.2889
  728SOL    HW1 2739   6.693   2.239   0.963  0.0697  0.8107 -1.7743
  728SOL    HW2 2740   6.825   2.310   0.982  0.3721 -0.1634 -0.0481
  729SOL     OW 2741   6.641   3.096   6.063  0.3331  0.2891  0.2716
  729SOL    HW1 2742   6.704   3.137   6.121  0.4350  2.1269 -1.0181
  729SOL    HW2 2743   6.559   3.142   6.081  0.1762  0.2977 -0.4136
  730SOL     OW 2744   3.439   6.953   2.802 -0.2522  0.0709  0.6647
  730SOL    HW1 2745   3.473   7.040   2.827  0.6868 -0.1584  0.2552
  730SOL    HW2 2746   3.510   6.914   2.751 -0.2848 -1.3135  1.6154
  731SOL     OW 2747   1.053   1.009   1.656  0.3837  0.6019 -0.5319
  731SOL    HW1 2748   1.111   0.948   1.610 -1.3469  0.3303 -2.4969
  731SOL    HW2 2749   1.084   1.096   1.629  1.3471  0.5505  0.3566
  732SOL     OW 2750   0.294   2.377   5.446  0.1555 -0.4281 -0.3886
  732SOL    HW1 2751   0.357   2.310   5.473  0.9994  0.5736  0.2199
  732SOL    HW2 2752   0.210   2.333   5.447  0.7148 -1.5306 -0.1974
  733SOL     OW 2753   0.725   2.650   1.961  0.3209 -0.2021 -0.4746
  733SOL    HW1 2754   0.711   2.555   1.961 -0.6704 -0.0842  0.7625
  733SOL    HW2 2755   0.816   2.661   1.988 -0.0627 -0.7841  1.2050
  734SOL     OW 2756   0.232   4.874   1.540  0.0100 -0.0471  0.0501
  734SOL    HW1 2757   0.166   4.804   1.546 -0.7921  0.5949 -1.0836
  734SOL    HW2 2758   0.193   4.939   1.482  0.6816  1.4366  1.2108
  735SOL     OW 2759   0.880   0.800   2.628  0.3307 -0.6244 -0.6364
  735SOL    HW1 2760   0.917   0.811   2.715 -2.3113  1.3022  0.3555
  735SOL    HW2 2761   0.889   0.706   2.610  0.8814 -1.0875  1.7258
  736SOL     OW 2762   4.484   4.278   6.392 -0.1427 -0.2767 -0.2002
  736SOL    HW1 2763   4.468   4.372   6.381  0.5330 -0.1124  0.1560
  736SOL    HW2 2764   4.451   4.238   6.311 -1.3431  0.1459  0.0588
  737SOL     OW 2765   5.037   4.627   1.757  0.3712  0.3712 -0.7200
  737SOL    HW1 2766   4.980   4.555   1.784  0.6960  0.4866  0.2908
  737SOL    HW2 2767   5.125   4.590   1.762  0.4649  0.5060 -1.2964
  738SOL     OW 2768   4.454   4.285   4.918  0.3783  0.2040  0.2046
  738SOL    HW1 2769   4.549   4.281   4.933  0.1601 -3.1383  1.4125
  738SOL    HW2 2770   4.417   4.305   5.004 -0.0772  0.3706 -0.0268
  739SOL     OW 2771   5.053   2.776   6.461  0.1035  0.1138 -0.3838
  739SOL    HW1 2772   5.124   2.740   6.514  1.3554  1.4018 -1.1238
  739SOL    HW2 2773   5.072   2.869   6.455 -0.2118  0.0945 -2.7469
  740SOL     OW 2774   6.036   1.574   6.388  0.3602  0.1169 -0.3068
  740SOL    HW1 2775   5.996   1.595   6.472  1.7727  0.2479  0.3699
  740SOL    HW2 2776   6.084   1.493   6.404 -0.7286 -0.7924 -1.4694
  741SOL     OW 2777   5.259   3.974   6.265  0.4140  0.1129 -0.4374
  741SOL    HW1 2778   5.255   4.050   6.323 -1.2109 -0.7652  0.6793
  741SOL    HW2 2779   5.218   3.903   6.315  1.0879 -1.2871 -1.7857
  742SOL     OW 2780   4.534   4.870   2.424 -0.1855  0.3308  0.4259
  742SOL    HW1 2781   4.558   4.827   2.507 -0.9680 -0.9840  0.0003
  742SOL    HW2 2782   4.456   4.921   2.446 -1.8369 -1.8985  0.0338
  743SOL     OW 2783   1.867   5.580   3.094 -0.1962  0.2384 -0.2495
  743SOL    HW1 2784   1.841   5.517   3.162  0.0411  1.2369  0.7848
  743SOL    HW2 2785   1.901   5.525   3.023 -0.2980 -0.8244  0.4949
  744SOL     OW 2786   0.199   3.020   2.036  0.4121  0.4479 -0.2056
  744SOL    HW1 2787   0.162   3.045   2.120 -0.3844 -0.5315 -0.2452
  744SOL    HW2 2788   0.290   3.049   2.040  0.3861  0.4228  0.9899
  745SOL     OW 2789   2.441   3.805   5.900  0.7184  0.3717  0.0638
  745SOL    HW1 2790   2.388   3.852   5.836  0.5359  1.1623  0.7713
  745SOL    HW2 2791   2.383   3.791   5.975  1.4888  1.3130  0.8755
  746SOL     OW 2792   4.084   0.749   2.681  0.3265 -0.0698  0.2984
  746SOL    HW1 2793   4.093   0.836   2.643  0.5301 -0.1662  0.1188
  746SOL    HW2 2794   4.157   0.743   2.743  0.9702 -0.5077 -0.4750
  747SOL     OW 2795   6.469   7.553   2.465 -0.4056 -0.2717 -0.0778
  747SOL    HW1 2796   6.482   7.461   2.445 -1.6463 -0.1853 -1.4636
  747SOL    HW2 2797   6.531   7.600   2.410  1.1909 -0.2764  1.6120
  748SOL     OW 2798   6.022   5.545   5.472  0.4129 -0.8233 -0.0031
  748SOL    HW1 2799   6.000   5.515   5.384  2.1715 -5.3334  0.8201
  748SOL    HW2 2800   5.953   5.510   5.527  0.2043  0.5628  0.6524
  749SOL     OW 2801   6.137   1.209   5.308 -0.0175 -1.2999  0.3317
  749SOL    HW1 2802   6.107   1.240   5.394  0.0788 -2.5676  0.8500
  749SOL    HW2 2803   6.127   1.285   5.250 -0.2623 -0.4760  1.4184
  750SOL     OW 2804   6.745   6.238   6.309 -0.8292  0.1968 -0.5395
  750SOL    HW1 2805   6.832   6.234   6.270  0.2641 -1.2050  1.7524
  750SOL    HW2 2806   6.725   6.147   6.331 -0.5440  0.9140  3.4921
  751SOL     OW 2807   1.899   5.643   1.353 -0.1723 -0.6636  0.0101
  751SOL    HW1 2808   1.990   5.670   1.342 -0.0997 -0.7637  0.3576
  751SOL    HW2 2809   1.902   5.574   1.420 -0.3844 -1.3748 -0.6928
  752SOL     OW 2810   2.929   2.231   3.472  0.4580  0.2351  0.0335
  752SOL    HW1 2811   2.838   2.203   3.485  0.6074  0.3695  1.6858
  752SOL    HW2 2812   2.927   2.285   3.394 -0.7639 -0.3056 -0.3327
  753SOL     OW 2813   0.695   0.818   1.311  0.8251 -0.2623 -0.3626
  753SOL    HW1 2814   0.678   0.890   1.250  0.7708  0.5178  0.5451
  753SOL    HW2 2815   0.659   0.741   1.268 -0.9494  0.5832 -0.4967
  754SOL     OW 2816   5.797   4.389   4.957  0.0659  0.3382 -0.2001
  754SOL    HW1 2817   5.845   4.313   4.923  2.5611  0.9387  1.6590
  754SOL    HW2 2818   5.847   4.465   4.926  0.3881  0.9846  1.7509
  755SOL     OW 2819   7.096   0.309   1.541  0.1299  0.3357 -0.5308
  755SOL    HW1 2820   7.018   0.258   1.563  0.4060 -0.5770 -1.5621
  755SOL    HW2 2821   7.065   0.399   1.531 -0.7384  0.0276 -0.6743
  756SOL     OW 2822   7.561   4.280   4.288  0.1698 -0.3567 -0.2715
  756SOL    HW1 2823   7.549   4.188   4.311 -1.0744 -0.0091  0.5434
  756SOL    HW2 2824   7.511   4.291   4.207 -0.2231 -0.2560 -0.0183
  757SOL     OW 2825   6.599   3.586   2.645  0.1508  0.2735  0.1359
  757SOL    HW1 2826   6.627   3.545   2.563 -0.3515  2.3238 -1.1371
  757SOL    HW2 2827   6.507   3.607   2.631  0.3165  1.5654  0.8023
  758SOL     OW 2828   6.737   5.080   5.024 -0.0094  0.2173 -0.0116
  758SOL    HW1 2829   6.722   4.990   4.996 -0.7111  0.4273 -0.3409
  758SOL    HW2 2830   6.696   5.086   5.110  0.3716  0.1208  0.1779
  759SOL     OW 2831   2.834   1.993   0.421  0.3806 -0.1350  0.3181
  759SOL    HW1 2832   2.797   1.909   0.397 -0.9067  0.3500  0.5157
  759SOL    HW2 2833   2.849   1.987   0.515  0.1748 -0.0982  0.3528
  760SOL     OW 2834   2.040   5.804   2.096  0.4231  0.6753 -1.0310
  760SOL    HW1 2835   2.037   5.711   2.072  0.2077  1.0664 -2.6158
  760SOL    HW2 2836   1.999   5.808   2.183  2.0856 -0.9470 -0.0969
  761SOL     OW 2837   0.651   6.016   4.494  0.1202 -0.3822 -0.3139
  761SOL    HW1 2838   0.675   6.092   4.441 -0.1169 -1.7705 -2.5485
  761SOL    HW2 2839   0.556   6.018   4.497  0.1456  0.6749  1.7072
  762SOL     OW 2840   1.784   4.062   1.593  0.0724  0.5738  0.1065
  762SOL    HW1 2841   1.700   4.108   1.598 -1.4936 -2.1405  0.5613
  762SOL    HW2 2842   1.834   4.111   1.528 -1.8243  2.2947 -0.1634
  763SOL     OW 2843   5.934   5.081   6.952  0.0777 -0.4514  0.3876
  763SOL    HW1 2844   5.952   5.047   7.040 -1.2663 -1.2598  0.3805
  763SOL    HW2 2845   5.968   5.014   6.893  1.6318  0.4182  0.2318
  764SOL     OW 2846   7.196   0.520   7.647  0.8236 -0.3662  0.0599
  764SOL    HW1 2847   7.277   0.478   7.675  0.5538 -1.8321 -1.2064
  764SOL    HW2 2848   7.127   0.469   7.689  0.5183 -0.0990 -0.1134
  765SOL     OW 2849   7.192   7.040   2.783  0.3298 -0.4255  0.1453
  765SOL    HW1 2850   7.100   7.018   2.776  0.8413 -2.4880 -0.7390
  765SOL    HW2 2851   7.197   7.099   2.859 -1.6729 -0.2870  0.2181
  766SOL     OW 2852   7.416   1.916   5.408  0.0836 -0.4532 -0.3356
  766SOL    HW1 2853   7.404   1.999   5.363  1.7070  0.6689  1.1241
  766SOL    HW2 2854   7.356   1.920   5.483 -0.6679 -1.1272 -0.8876
  767SOL     OW 2855   1.905   7.321   3.343  0.8131 -0.3035  0.2411
  767SOL    HW1 2856   1.887   7.232   3.314  0.2877 -0.1893  0.1977
  767SOL    HW2 2857   1.873   7.323   3.434  1.0387 -0.2272  0.3178
  768SOL     OW 2858   1.589   2.122   5.515 -0.1094  0.5624 -0.3802
  768SOL    HW1 2859   1.680   2.095   5.527 -0.5099 -0.6633  0.1084
  768SOL    HW2 2860   1.562   2.154   5.601 -0.3475  0.2369 -0.3329
  769SOL     OW 2861   6.429   1.567   3.353  0.0679 -0.4207  0.0899
  769SOL    HW1 2862   6.426   1.660   3.332  0.7243 -0.6085 -0.8598
  769SOL    HW2 2863   6.489   1.560   3.428  0.1340 -0.1060  0.0644
  770SOL     OW 2864   0.024   5.121   1.993 -0.6490 -0.2085  0.2339
  770SOL    HW1 2865  -0.053   5.161   2.034 -0.3040  0.5800  0.1347
  770SOL    HW2 2866   0.001   5.029   1.985 -2.7829  0.4206 -2.4055
  771SOL     OW 2867   1.465   5.716   3.697 -0.0350 -0.0959  0.1572
  771SOL    HW1 2868   1.526   5.686   3.765  1.0949 -0.5083 -0.9919
  771SOL    HW2 2869   1.399   5.767   3.744  1.0105  0.0776  1.4847
  772SOL     OW 2870   7.187   3.818   3.197  0.1680 -0.5013 -0.5778
  772SOL    HW1 2871   7.145   3.775   3.271  1.1059  0.5906  0.6205
  772SOL    HW2 2872   7.267   3.767   3.181 -0.2044 -0.9432 -1.0945
  773SOL     OW 2873   4.987   3.733   1.276 -0.2227  0.8725 -0.6650
  773SOL    HW1 2874   4.900   3.766   1.256 -1.6195 -1.2746  1.2974
  773SOL    HW2 2875   4.986   3.642   1.245  0.5346  0.1838  1.1625
  774SOL     OW 2876   6.289   2.347   1.628  0.0641  0.2926 -0.3010
  774SOL    HW1 2877   6.347   2.422   1.643 -0.7620  1.2215 -1.6295
  774SOL    HW2 2878   6.203   2.378   1.655 -0.3867  0.0332 -1.3996
  775SOL     OW 2879   6.202   1.799   0.626 -0.3887 -0.0041  0.2108
  775SOL    HW1 2880   6.265   1.836   0.564 -2.1995  0.4425 -1.4777
  775SOL    HW2 2881   6.121   1.792   0.576 -1.0957 -2.8678  1.5523
  776SOL     OW 2882   4.511   0.561   2.166  0.4517  0.0699 -0.2914
  776SOL    HW1 2883   4.455   0.634   2.192  1.6988  0.4337  1.5266
  776SOL    HW2 2884   4.529   0.578   2.073 -0.6266  1.1511 -0.3368
  777SOL     OW 2885   4.473   5.118   3.581  0.4446  0.2960  0.4146
  777SOL    HW1 2886   4.438   5.082   3.662 -1.4255  2.2592  0.5919
  777SOL    HW2 2887   4.568   5.110   3.590  0.2299 -0.7378  2.2025
  778SOL     OW 2888   6.024   4.307   7.655  0.1063 -0.1786 -0.4310
  778SOL    HW1 2889   5.967   4.263   7.593  0.7247 -1.2691 -0.2530
  778SOL    HW2 2890   5.967   4.332   7.727 -0.0107 -2.2211  0.2509
  779SOL     OW 2891   6.346   5.633   3.575 -0.0669 -0.8888 -0.0648
  779SOL    HW1 2892   6.369   5.541   3.591  0.5359 -0.8991 -0.9389
  779SOL    HW2 2893   6.381   5.652   3.488  1.4301  0.6954  0.8170
  780SOL     OW 2894   7.505   3.750   2.733 -0.6274  0.3207 -0.2291
  780SOL    HW1 2895   7.444   3.683   2.701 -1.9041  2.7599 -3.4724
  780SOL    HW2 2896   7.449   3.816   2.774  0.0715  1.4827 -1.0988
  781SOL     OW 2897   6.513   1.477   3.862  0.0362  0.0989  0.4454
  781SOL    HW1 2898   6.536   1.391   3.897 -0.4319 -0.2756 -0.1395
  781SOL    HW2 2899   6.588   1.533   3.883  0.5568 -0.5715  0.3987
  782SOL     OW 2900   0.888   4.841   4.777 -0.0726  0.9060 -0.2021
  782SOL    HW1 2901   0.964   4.865   4.724  0.2143  1.8612  0.6193
  782SOL    HW2 2902   0.858   4.758   4.739  0.5815  1.1777 -1.3644
  783SOL     OW 2903   2.558   2.624   2.003  0.4120  0.2868 -0.6095
  783SOL    HW1 2904   2.490   2.633   1.937 -0.3530  0.1493  0.1390
  783SOL    HW2 2905   2.640   2.620   1.954 -0.2894 -2.2643 -1.7470
  784SOL     OW 2906   2.664   6.961   0.445  0.5558 -0.4564 -0.5628
  784SOL    HW1 2907   2.680   7.010   0.365 -2.0696 -1.3541 -1.7466
  784SOL    HW2 2908   2.621   7.023   0.504  1.1073 -0.2085 -0.4174
  785SOL     OW 2909   2.590   5.320   1.915  0.3478  0.0802  0.5122
  785SOL    HW1 2910   2.660   5.295   1.975 -0.0123 -0.9139  0.5229
  785SOL    HW2 2911   2.513   5.331   1.970 -0.1096 -1.3408  0.1964
  786SOL     OW 2912   4.163   4.684   6.725  0.1504  0.3276  0.0437
  786SOL    HW1 2913   4.071   4.704   6.709  0.1795 -0.1794 -0.7665
  786SOL    HW2 2914   4.174   4.698   6.820 -0.8716 -0.0995  0.2334
  787SOL     OW 2915   6.754   1.998   4.792 -0.0646  0.2739  0.5361
  787SOL    HW1 2916   6.830   1.945   4.768  0.7276  1.3982  0.5004
  787SOL    HW2 2917   6.710   2.015   4.708  0.5171  0.9200  0.3558
  788SOL     OW 2918   6.773   2.248   1.776 -0.0197  0.2851 -0.0151
  788SOL    HW1 2919   6.711   2.320   1.793  1.6571  1.4256  1.7130
  788SOL    HW2 2920   6.840   2.286   1.719  0.0463 -0.4001 -0.4075
  789SOL     OW 2921   0.560   3.629   2.167  0.0340  0.1778  0.4122
  789SOL    HW1 2922   0.546   3.573   2.244  0.5003 -0.1382  0.2670
  789SOL    HW2 2923   0.490   3.694   2.173 -0.2489 -0.1556  0.8217
  790SOL     OW 2924   0.249   7.702   4.766 -0.0722 -0.6092 -0.2506
  790SOL    HW1 2925   0.268   7.610   4.748 -0.1748 -0.8033  0.5702
  790SOL    HW2 2926   0.164   7.717   4.727 -0.2130 -0.9644 -0.0878
  791SOL     OW 2927   0.238   5.817   7.161 -0.4448 -0.3668  0.4116
  791SOL    HW1 2928   0.187   5.846   7.237  0.6459 -1.0348  1.4456
  791SOL    HW2 2929   0.215   5.878   7.091 -0.5167  1.0703  1.6353
  792SOL     OW 2930   7.332   6.033   3.600  0.2463  0.5013  0.3864
  792SOL    HW1 2931   7.276   6.110   3.586  1.9265  1.7706  0.3943
  792SOL    HW2 2932   7.273   5.969   3.640 -1.1406  1.8733  0.6718
  793SOL     OW 2933   6.963   5.318   7.354 -0.0085 -0.3808 -0.1508
  793SOL    HW1 2934   6.882   5.356   7.387 -1.3951 -1.7971 -1.6698
  793SOL    HW2 2935   7.016   5.302   7.432 -1.0687  0.8144  0.8608
  794SOL     OW 2936   4.626   6.364   2.559 -0.8883 -0.6954 -1.1807
  794SOL    HW1 2937   4.573   6.442   2.575 -2.0032 -1.7858  0.8692
  794SOL    HW2 2938   4.715   6.397   2.551 -1.3194  0.7905 -0.2349
  795SOL     OW 2939   1.663   0.975   3.524  0.1504 -0.6866  0.0263
  795SOL    HW1 2940   1.704   0.932   3.450  0.1371 -0.1033 -0.3328
  795SOL    HW2 2941   1.569   0.968   3.506  0.1627  0.4360 -0.6117
  796SOL     OW 2942   2.905   0.358   4.380 -0.7351 -0.2568  0.7132
  796SOL    HW1 2943   2.833   0.316   4.332 -0.8259  0.2634  0.3912
  796SOL    HW2 2944   2.928   0.434   4.327 -0.8207  0.3136  1.4772
  797SOL     OW 2945   7.013   4.754   5.509 -0.0789  0.7451  0.7270
  797SOL    HW1 2946   7.093   4.703   5.521 -1.0343 -0.5596  1.8485
  797SOL    HW2 2947   6.997   4.752   5.415  0.4273 -0.2391  0.6498
  798SOL     OW 2948   4.981   5.884   0.381  0.5512  0.4871  0.1269
  798SOL    HW1 2949   4.967   5.821   0.452 -0.2677 -0.8520 -1.1743
  798SOL    HW2 2950   5.032   5.954   0.421  1.1051 -0.7875  1.7426
  799SOL     OW 2951   2.584   4.380   2.689  0.0503  0.2518 -0.3205
  799SOL    HW1 2952   2.605   4.296   2.648 -0.7365  0.2476 -0.7397
  799SOL    HW2 2953   2.572   4.359   2.782 -1.2996 -0.3304 -0.6058
  800SOL     OW 2954   6.707   3.230   1.742  0.1166  0.4658  0.1585
  800SOL    HW1 2955   6.678   3.139   1.741 -0.0911  0.5281  0.5573
  800SOL    HW2 2956   6.632   3.279   1.707 -0.0325  0.5581  0.6023
  801SOL     OW 2957   2.409   0.385   4.404 -0.0673  0.5827 -0.0920
  801SOL    HW1 2958   2.422   0.441   4.328 -1.2332  0.9331 -0.0540
  801SOL    HW2 2959   2.487   0.399   4.458 -0.2529  2.0450 -0.1632
  802SOL     OW 2960   2.599   3.055   5.398 -0.2431  0.7729 -0.3991
  802SOL    HW1 2961   2.650   3.059   5.479  0.9580 -1.3399 -0.9651
  802SOL    HW2 2962   2.509   3.075   5.424 -0.1459 -1.2111  1.7352
  803SOL     OW 2963   2.720   7.701   2.142 -0.7484 -0.6055 -0.7160
  803SOL    HW1 2964   2.679   7.781   2.175  0.3592 -0.1790 -0.3057
  803SOL    HW2 2965   2.682   7.631   2.195 -1.7443 -0.3662 -1.0949
  804SOL     OW 2966   1.967   3.973   6.328  0.0704  0.6172 -0.4986
  804SOL    HW1 2967   1.961   4.000   6.237 -0.8301  1.2533 -0.2620
  804SOL    HW2 2968   1.972   4.056   6.377 -0.6377  0.3097  0.1071
  805SOL     OW 2969   0.043   1.441   3.740 -0.1795 -0.3100 -0.1767
  805SOL    HW1 2970   0.049   1.511   3.674  1.0517  0.5407  0.8139
  805SOL    HW2 2971   0.033   1.487   3.823 -0.4486 -1.3544  0.3861
  806SOL     OW 2972   1.870   5.386   6.495  0.2054  0.1246 -0.4169
  806SOL    HW1 2973   1.924   5.456   6.456 -1.8688  3.2715  1.8386
  806SOL    HW2 2974   1.829   5.343   6.420  1.9252  0.9981 -1.9392
  807SOL     OW 2975   6.885   0.038   2.760  0.2808  0.0239  0.3368
  807SOL    HW1 2976   6.871   0.052   2.853  0.2570 -0.2872  0.3812
  807SOL    HW2 2977   6.799   0.045   2.720 -0.1014 -2.1846  0.6455
  808SOL     OW 2978   7.415   6.157   7.614 -0.3231  0.3872 -0.3335
  808SOL    HW1 2979   7.379   6.206   7.688  0.3162  1.0819 -0.4722
  808SOL    HW2 2980   7.499   6.124   7.646 -0.6333 -0.4187 -0.3279
  809SOL     OW 2981   1.451   3.090   7.263 -0.3491  0.2484  0.2631
  809SOL    HW1 2982   1.423   3.052   7.346  1.4161 -0.9770  0.3565
  809SOL    HW2 2983   1.492   3.018   7.216  0.8153  1.4521 -0.6548
  810SOL     OW 2984   5.227   2.926   5.977 -0.2187  0.5367 -0.2539
  810SOL    HW1 2985   5.138   2.958   5.962 -0.3481  0.6442  0.6529
  810SOL    HW2 2986   5.243   2.865   5.906 -2.3289 -2.1309  1.3391
  811SOL     OW 2987   2.424   5.940   2.989  0.0924  0.0953 -0.4817
  811SOL    HW1 2988   2.474   5.981   2.918  1.4569 -1.2713 -0.3626
  811SOL    HW2 2989   2.337   5.926   2.951  0.9389 -1.1138 -2.1350
  812SOL     OW 2990   0.880   1.651   6.785 -0.2984 -0.0815  0.4241
  812SOL    HW1 2991   0.876   1.724   6.723  2.1990 -0.7598 -0.6298
  812SOL    HW2 2992   0.934   1.585   6.741 -1.5612 -2.1447  1.8070
  813SOL     OW 2993   2.373   2.421   2.813  0.0692 -0.0821 -0.2122
  813SOL    HW1 2994   2.407   2.411   2.724  1.3163 -0.5093  0.2950
  813SOL    HW2 2995   2.356   2.332   2.843 -0.8382  0.0832 -0.1839
  814SOL     OW 2996   4.208   1.119   1.344 -0.3303 -0.3683 -0.0183
  814SOL    HW1 2997   4.263   1.143   1.270  0.5355 -0.4917  0.5675
  814SOL    HW2 2998   4.238   1.032   1.369 -1.8520 -1.1051 -0.6555
  815SOL     OW 2999   5.083   1.262   0.795 -0.6492 -0.1871 -0.5401
  815SOL    HW1 3000   5.152   1.204   0.763  0.2926  1.1475 -1.0307
  815SOL    HW2 3001   5.059   1.315   0.719  0.9373  2.3622  0.6016
  816SOL     OW 3002   4.032   5.118   5.089  0.7787 -0.0733  0.3259
  816SOL    HW1 3003   3.966   5.111   5.021  0.2213  0.6616  0.7739
  816SOL    HW2 3004   4.055   5.028   5.111  0.6233 -0.3174 -0.4960
  817SOL     OW 3005   5.905   4.669   4.249 -0.0301 -0.5774 -0.8774
  817SOL    HW1 3006   5.934   4.733   4.184 -1.8286  0.8730 -0.3234
  817SOL    HW2 3007   5.931   4.707   4.333 -2.3434  0.1811 -0.4459
  818SOL     OW 3008   3.752   4.280   6.437 -0.2295  0.3122 -0.0949
  818SOL    HW1 3009   3.711   4.357   6.476 -2.6489 -0.6741 -0.4657
  818SOL    HW2 3010   3.748   4.213   6.505  0.7288  0.1639 -0.1775
  819SOL     OW 3011   0.904   2.819   6.146 -0.6018  0.3411 -0.1197
  819SOL    HW1 3012   0.929   2.868   6.067  1.8271 -0.1751  0.2446
  819SOL    HW2 3013   0.968   2.748   6.151 -1.7601 -0.6472  1.4076
  820SOL     OW 3014   3.065   1.616   5.274  0.8128 -0.2615 -0.1223
  820SOL    HW1 3015   2.981   1.586   5.238 -0.7469 -0.0434  2.9592
  820SOL    HW2 3016   3.117   1.537   5.283  0.4127 -0.6132 -0.8523
  821SOL     OW 3017   5.059   2.389   1.179 -0.1681 -0.4011  0.6550
  821SOL    HW1 3018   5.075   2.473   1.136  2.4551  0.6506  3.3230
  821SOL    HW2 3019   5.089   2.324   1.116  1.7876  0.9487  0.0942
  822SOL     OW 3020   5.450   1.082   2.332  0.6946 -0.6687  0.0954
  822SOL    HW1 3021   5.376   1.073   2.393  1.3144 -0.9014  0.8329
  822SOL    HW2 3022   5.480   0.992   2.319  1.8659 -0.4440  1.0975
  823SOL     OW 3023   6.201   4.119   3.437 -0.0078  0.1635 -0.0683
  823SOL    HW1 3024   6.205   4.110   3.342  0.8824  0.7171 -0.0971
  823SOL    HW2 3025   6.172   4.034   3.468  2.8396 -1.1335 -0.6455
  824SOL     OW 3026   5.277   2.290   0.592  0.0012 -0.0786 -0.0477
  824SOL    HW1 3027   5.371   2.306   0.579  0.3311 -0.1092  1.9862
  824SOL    HW2 3028   5.243   2.372   0.629 -0.0239 -1.1243  2.4459
  825SOL     OW 3029   4.118   7.300   3.898  0.3988 -0.0502 -0.1859
  825SOL    HW1 3030   4.131   7.319   3.805 -1.9845  0.6081 -0.4496
  825SOL    HW2 3031   4.116   7.386   3.940  1.4834 -0.3434  0.5130
  826SOL     OW 3032   3.759   5.509   3.727  0.4218  0.0490 -0.4250
  826SOL    HW1 3033   3.709   5.588   3.747  0.9111 -0.1623  1.9837
  826SOL    HW2 3034   3.711   5.439   3.770  1.6412 -0.4581  0.1629
  827SOL     OW 3035   5.198   5.054   0.298  0.1238  0.2964  0.4295
  827SOL    HW1 3036   5.150   5.136   0.305  0.3230  0.3965  0.6497
  827SOL    HW2 3037   5.231   5.052   0.208  0.6783  0.7706  0.6165
  828SOL     OW 3038   5.046   3.610   5.092 -0.2818 -0.7929 -0.2049
  828SOL    HW1 3039   5.021   3.554   5.166 -1.2943 -0.0663  0.0282
  828SOL    HW2 3040   4.963   3.646   5.061  0.3048  0.2400 -0.6155
  829SOL     OW 3041   2.024   4.719   1.971  0.4861  0.4609  0.2674
  829SOL    HW1 3042   2.013   4.761   1.886  1.0537 -1.0932 -0.6229
  829SOL    HW2 3043   2.104   4.757   2.007  1.5114 -0.4915 -0.9406
  830SOL     OW 3044   7.155   6.569   2.622 -0.2291  0.4194  0.1547
  830SOL    HW1 3045   7.080   6.628   2.618  0.2202  1.1386  1.6685
  830SOL    HW2 3046   7.178   6.553   2.530 -3.5452 -1.5837 -0.4653
  831SOL     OW 3047   6.080   3.172   2.036 -0.0906  0.0296  0.2808
  831SOL    HW1 3048   6.039   3.253   2.066  1.0109  1.1649 -1.1285
  831SOL    HW2 3049   6.095   3.121   2.116 -0.6651  1.2807  1.2114
  832SOL     OW 3050   7.067   2.941   3.742 -0.0773  0.1515 -0.4249
  832SOL    HW1 3051   6.974   2.927   3.759 -0.2989  1.3483 -0.6130
  832SOL    HW2 3052   7.093   3.007   3.806  1.0186 -1.2438  0.6447
  833SOL     OW 3053   4.117   3.622   2.304  0.5719  0.9686 -0.1165
  833SOL    HW1 3054   4.041   3.595   2.253  1.4479  1.2759 -1.6526
  833SOL    HW2 3055   4.088   3.617   2.395 -1.2760  1.0813 -0.6574
  834SOL     OW 3056   6.992   3.435   6.987  0.3019  0.6083 -0.0183
  834SOL    HW1 3057   6.990   3.375   6.912  0.8927 -1.0405  1.2101
  834SOL    HW2 3058   6.976   3.379   7.063 -0.1971  2.2092  1.1204
  835SOL     OW 3059   4.823   1.883   7.040  0.2861  0.6861 -0.3956
  835SOL    HW1 3060   4.850   1.878   6.948  0.5936  0.2282 -0.2802
  835SOL    HW2 3061   4.904   1.901   7.088  0.6270 -1.6973  0.0630
  836SOL     OW 3062   7.151   5.955   5.766  0.0255  0.2712 -0.2833
  836SOL    HW1 3063   7.152   6.050   5.774  2.7983  0.3708 -0.7483
  836SOL    HW2 3064   7.113   5.923   5.848 -1.6123  1.7518 -0.4204
  837SOL     OW 3065   3.807   1.906   1.218  0.0234 -0.4609  0.2354
  837SOL    HW1 3066   3.779   1.947   1.136  0.6846  1.4601  0.9100
  837SOL    HW2 3067   3.903   1.903   1.211  0.0600 -0.6133  0.7788
  838SOL     OW 3068   7.239   1.157   2.424 -0.3595  0.2172 -0.2138
  838SOL    HW1 3069   7.164   1.214   2.438  0.5744  1.7632 -1.1747
  838SOL    HW2 3070   7.304   1.213   2.382  0.3776 -1.7217 -1.8427
  839SOL     OW 3071   1.997   4.113   3.799  0.2635  0.1619 -0.2436
  839SOL    HW1 3072   1.989   4.138   3.892 -0.6193  1.1905 -0.5698
  839SOL    HW2 3073   1.916   4.066   3.781  0.2532  0.3116 -0.5879
  840SOL     OW 3074   2.860   0.375   6.359  0.2744 -0.2196 -0.1951
  840SOL    HW1 3075   2.829   0.285   6.357 -2.0081  0.5195 -0.6995
  840SOL    HW2 3076   2.848   0.406   6.269  0.2733  0.8180  0.1516
  841SOL     OW 3077   7.374   1.540   5.624 -0.3209  0.2573  0.0195
  841SOL    HW1 3078   7.460   1.515   5.590  1.2507 -0.5205  3.9362
  841SOL    HW2 3079   7.320   1.462   5.611  0.0002  0.2257 -1.1954
  842SOL     OW 3080   1.805   1.873   3.110 -0.3888 -0.1754  0.2815
  842SOL    HW1 3081   1.750   1.941   3.071 -1.7094  0.8327  3.5312
  842SOL    HW2 3082   1.748   1.796   3.114 -0.0522 -0.4600 -0.2738
  843SOL     OW 3083   1.747   0.520   6.409 -0.1968 -0.0988  0.4015
  843SOL    HW1 3084   1.679   0.539   6.474 -1.4521 -1.1314 -0.5593
  843SOL    HW2 3085   1.771   0.428   6.425  0.0066 -0.1428 -0.1275
  844SOL     OW 3086   5.994   1.200   2.923  0.2637  0.1321  0.0989
  844SOL    HW1 3087   5.998   1.147   2.843 -0.6919 -0.9062  0.6953
  844SOL    HW2 3088   5.925   1.158   2.975  1.0302  0.6340  1.5737
  845SOL     OW 3089   2.385   0.827   7.639  0.0198 -0.6148  0.0446
  845SOL    HW1 3090   2.467   0.870   7.662 -0.3947 -0.8256  2.0978
  845SOL    HW2 3091   2.396   0.737   7.670 -0.0269 -1.3803 -2.0415
  846SOL     OW 3092   7.306   6.180   4.996  0.5502 -0.0842 -0.5874
  846SOL    HW1 3093   7.272   6.187   5.085  2.1345  1.5611 -0.0454
  846SOL    HW2 3094   7.249   6.237   4.944 -0.0198 -0.5863 -0.5191
  847SOL     OW 3095   7.446   4.635   2.420 -0.0484  0.2216 -0.1477
  847SOL    HW1 3096   7.499   4.650   2.341  1.4627 -1.4975  0.4748
  847SOL    HW2 3097   7.434   4.723   2.457  1.2468  0.8047 -1.0306
  848SOL     OW 3098   4.984   3.039   2.679 -0.2531  0.2206 -0.2999
  848SOL    HW1 3099   5.014   3.028   2.769  0.1164 -0.6401 -0.5173
  848SOL    HW2 3100   5.060   3.016   2.625 -0.6175  0.2444 -0.8344
  849SOL     OW 3101   1.545   3.497   0.254  0.2842 -0.0409  0.3463
  849SOL    HW1 3102   1.631   3.540   0.254 -0.1957  0.9328  0.4086
  849SOL    HW2 3103   1.566   3.403   0.258  1.4012  0.0365 -1.9696
  850SOL     OW 3104   5.131   3.303   1.396  0.0318 -0.7390 -0.0072
  850SOL    HW1 3105   5.072   3.355   1.451  0.3056 -0.3375 -0.0825
  850SOL    HW2 3106   5.101   3.213   1.406 -0.2706 -0.6001  0.3617
  851SOL     OW 3107   4.487   4.182   3.003 -0.8098  0.4007 -0.3834
  851SOL    HW1 3108   4.533   4.182   3.087 -0.6746 -0.2721 -0.4539
  851SOL    HW2 3109   4.513   4.265   2.962 -0.5660  0.5501  0.0670
  852SOL     OW 3110   7.699   7.695   0.413 -0.2302 -0.1014 -0.3370
  852SOL    HW1 3111   7.774   7.752   0.397 -0.5917  0.6469  0.5031
  852SOL    HW2 3112   7.627   7.755   0.430 -0.8561 -0.8131 -0.4270
  853SOL     OW 3113   4.847   3.508   2.323 -0.1301 -0.2075 -0.3898
  853SOL    HW1 3114   4.765   3.514   2.275  0.6724  1.0433 -1.6640
  853SOL    HW2 3115   4.911   3.551   2.267  1.3734 -1.0002  0.6546
  854SOL     OW 3116   4.943   3.477   1.515 -0.1041  0.5414 -0.1912
  854SOL    HW1 3117   4.925   3.570   1.531  0.4754  0.5121  0.7698
  854SOL    HW2 3118   4.896   3.432   1.585 -0.0109  0.1437 -0.3859
  855SOL     OW 3119   0.243   6.761   3.105  0.4041 -0.2588  0.7353
  855SOL    HW1 3120   0.308   6.778   3.036  1.7391 -0.4002  1.9097
  855SOL    HW2 3121   0.219   6.848   3.137 -1.8527 -0.0363 -1.2728
  856SOL     OW 3122   0.411   6.072   2.825  0.3861 -0.5907  0.0210
  856SOL    HW1 3123   0.387   6.017   2.750 -0.1137 -0.4109  0.0414
  856SOL    HW2 3124   0.330   6.078   2.876  0.4873 -0.0013  0.1179
  857SOL     OW 3125   1.099   1.188   0.133 -0.4058 -0.3359 -0.2208
  857SOL    HW1 3126   1.189   1.158   0.152 -1.0924 -2.0158  0.6199
  857SOL    HW2 3127   1.103   1.283   0.141  0.8503 -0.4992  1.9896
  858SOL     OW 3128   6.818   4.678   0.653  0.4467  0.2228  0.0696
  858SOL    HW1 3129   6.747   4.684   0.717  0.7227  0.2737  0.3725
  858SOL    HW2 3130   6.895   4.711   0.699  0.4834  1.0296 -0.5521
  859SOL     OW 3131   4.123   7.351   3.644  0.5553  0.1655  0.1824
  859SOL    HW1 3132   4.101   7.278   3.587  1.0212 -0.3333  0.6396
  859SOL    HW2 3133   4.121   7.428   3.587  0.9423 -0.3212 -0.4840
  860SOL     OW 3134   0.325   0.004   2.679 -0.0031 -0.0582  0.6925
  860SOL    HW1 3135   0.231  -0.012   2.689 -0.1294  0.4565  0.3806
  860SOL    HW2 3136   0.337   0.095   2.707 -0.0542  0.7970 -1.8023
  861SOL     OW 3137   1.705   6.652   0.007 -0.2441 -0.4606 -0.5503
  861SOL    HW1 3138   1.658   6.732   0.030  0.6486 -0.1069  0.1121
  861SOL    HW2 3139   1.758   6.676  -0.069  0.1881 -0.3559 -0.2189
  862SOL     OW 3140   6.806   4.814   4.185 -0.2963 -0.4310  0.2496
  862SOL    HW1 3141   6.793   4.871   4.109 -0.0641 -1.0174 -0.2453
  862SOL    HW2 3142   6.723   4.767   4.195 -0.5600  0.1387  0.7880
  863SOL     OW 3143   2.450   1.711   3.607  0.0204 -0.3152  0.1489
  863SOL    HW1 3144   2.466   1.805   3.616  0.1791 -0.4107  0.8862
  863SOL    HW2 3145   2.409   1.702   3.521  0.9915  0.3033 -0.3967
  864SOL     OW 3146   0.087   6.913   4.937 -0.1965  0.0621 -0.0567
  864SOL    HW1 3147   0.087   6.876   4.849  1.3682  0.0761 -0.0911
  864SOL    HW2 3148   0.054   7.002   4.925 -1.4695 -0.4253 -0.3663
  865SOL     OW 3149   1.004   4.366   5.196  0.5799  0.5687  0.9121
  865SOL    HW1 3150   0.978   4.278   5.169  0.0461  0.5468  1.4873
  865SOL    HW2 3151   1.064   4.395   5.127 -1.8035  1.0476 -1.1251
  866SOL     OW 3152   6.045   5.805   2.488  0.2109  0.2189  0.1650
  866SOL    HW1 3153   6.113   5.786   2.553  0.7853 -0.7791 -0.7037
  866SOL    HW2 3154   6.010   5.719   2.464 -1.5157  0.7230  0.7343
  867SOL     OW 3155   2.888   0.474   6.601 -0.2971 -0.3318 -0.3767
  867SOL    HW1 3156   2.974   0.514   6.588  0.1932 -0.9638  0.7802
  867SOL    HW2 3157   2.866   0.437   6.515  0.3991  0.1863 -0.7871
  868SOL     OW 3158   1.830   7.234   5.290 -0.1779  0.2943 -0.3321
  868SOL    HW1 3159   1.829   7.255   5.196 -1.9804  0.1250 -0.3948
  868SOL    HW2 3160   1.752   7.279   5.324  0.4010  0.2581  1.0711
  869SOL     OW 3161   5.654   4.401   3.397 -0.7386  0.6370 -0.0182
  869SOL    HW1 3162   5.574   4.444   3.367 -0.0664  1.1366 -1.1556
  869SOL    HW2 3163   5.702   4.470   3.444 -1.4673  0.0395  1.6862
  870SOL     OW 3164   4.445   6.201   5.973  0.7011  0.3773  0.4329
  870SOL    HW1 3165   4.447   6.268   5.905  1.6130  0.1682  0.2420
  870SOL    HW2 3166   4.376   6.141   5.947  2.1938 -0.6826 -1.2629
  871SOL     OW 3167   2.239   5.562   0.109  0.8701 -0.3930  0.2231
  871SOL    HW1 3168   2.260   5.544   0.018  0.5553 -1.3372  0.3214
  871SOL    HW2 3169   2.204   5.479   0.142 -0.0577  0.2396  0.8966
  872SOL     OW 3170   1.381   2.552   3.841  0.0644 -0.3041  0.0306
  872SOL    HW1 3171   1.459   2.606   3.832  0.6364 -0.9657  0.9071
  872SOL    HW2 3172   1.392   2.506   3.924 -2.3465  1.3367  1.3795
  873SOL     OW 3173   2.448   2.006   7.589 -0.1942  0.1427  0.2118
  873SOL    HW1 3174   2.531   1.971   7.620  0.1600 -0.6255 -1.4861
  873SOL    HW2 3175   2.441   2.092   7.630  0.4911 -0.5726  1.8952
  874SOL     OW 3176   1.042   5.645   6.746  0.0660  0.3035  0.5703
  874SOL    HW1 3177   1.130   5.607   6.751 -0.6671 -1.8929 -1.4133
  874SOL    HW2 3178   1.044   5.698   6.666 -0.5156 -0.0432  0.3264
  875SOL     OW 3179   1.313   4.419   4.582  0.0515  0.4162 -0.0848
  875SOL    HW1 3180   1.326   4.324   4.582  1.2864  0.5313  1.3117
  875SOL    HW2 3181   1.252   4.434   4.655 -1.3119  0.5990 -1.2328
  876SOL     OW 3182   6.583   7.115   6.555 -1.0588  0.0805  0.2226
  876SOL    HW1 3183   6.622   7.111   6.468 -1.8605 -3.5826 -0.1638
  876SOL    HW2 3184   6.489   7.103   6.541 -1.3365  0.4956  1.5460
  877SOL     OW 3185   5.030   5.690   3.122  0.6207 -0.0008  0.5197
  877SOL    HW1 3186   5.035   5.674   3.028  1.4401  0.2063  0.5212
  877SOL    HW2 3187   4.958   5.634   3.152 -0.1885  0.5380 -0.3498
  878SOL     OW 3188   2.361   0.065   0.277  0.0737 -0.1173  0.0824
  878SOL    HW1 3189   2.284   0.093   0.229  0.5053  0.2402 -0.4137
  878SOL    HW2 3190   2.347  -0.029   0.294 -0.3639 -0.1012 -0.1949
  879SOL     OW 3191   1.296   1.571   5.433 -0.4516  0.1093 -0.0525
  879SOL    HW1 3192   1.367   1.604   5.378  0.1585 -0.1099  0.5824
  879SOL    HW2 3193   1.240   1.647   5.450  0.1170  0.4896  0.1629
  880SOL     OW 3194   1.319   1.964   1.315 -0.1835 -0.5964  0.2086
  880SOL    HW1 3195   1.407   1.979   1.280 -0.4254  0.4056  0.0070
  880SOL    HW2 3196   1.334   1.942   1.407  0.2538 -0.1086  0.2597
  881SOL     OW 3197   1.441   6.554   5.590 -0.0621  0.1490 -0.0505
  881SOL    HW1 3198   1.386   6.554   5.668  1.4250 -0.4497  1.0423
  881SOL    HW2 3199   1.453   6.462   5.568 -0.1329  0.3008 -0.7497
  882SOL     OW 3200   0.648   2.796   4.000 -0.0108 -0.1318  0.2192
  882SOL    HW1 3201   0.687   2.860   4.060  0.6646 -1.9394  1.8103
  882SOL    HW2 3202   0.656   2.712   4.046 -1.3380 -1.3033 -1.5585
  883SOL     OW 3203   2.231   2.423   0.721  0.5892  0.1901 -1.3435
  883SOL    HW1 3204   2.246   2.384   0.807 -0.6373  1.4409 -0.5194
  883SOL    HW2 3205   2.277   2.365   0.660  1.1710 -0.9336  0.1026
  884SOL     OW 3206   5.913   5.988   4.032  0.1475  0.3852  1.0954
  884SOL    HW1 3207   5.943   5.928   3.964  0.6892 -0.0513  1.7096
  884SOL    HW2 3208   5.936   6.075   4.000  0.1779  0.2000  0.6167
  885SOL     OW 3209   4.977   3.301   4.057  0.2664 -0.6055  0.4171
  885SOL    HW1 3210   4.994   3.207   4.060  0.3534 -0.6142 -0.3098
  885SOL    HW2 3211   5.061   3.340   4.034 -0.0342 -0.4380 -0.4165
  886SOL     OW 3212   1.414   4.768   2.313  0.1143  0.1601  0.5311
  886SOL    HW1 3213   1.345   4.750   2.378  0.6932 -1.0180  0.8486
  886SOL    HW2 3214   1.495   4.748   2.359  0.8191  2.8262  0.5994
  887SOL     OW 3215   6.936   2.695   5.547 -0.0322  0.1092  0.3110
  887SOL    HW1 3216   6.847   2.719   5.571 -0.5217 -0.4201 -0.9516
  887SOL    HW2 3217   6.977   2.670   5.631 -1.3168 -0.4874  0.7867
  888SOL     OW 3218   1.274   7.486   3.866 -0.5379  0.6018 -0.0480
  888SOL    HW1 3219   1.237   7.571   3.842 -0.2823  0.6885 -0.1391
  888SOL    HW2 3220   1.225   7.423   3.813 -2.5476  0.4061  1.8813
  889SOL     OW 3221   2.950   5.888   3.568 -0.3463 -0.7992 -0.1185
  889SOL    HW1 3222   2.859   5.883   3.596 -0.3831 -0.7188 -0.2241
  889SOL    HW2 3223   2.952   5.959   3.504 -0.1118 -0.4499  0.2721
  890SOL     OW 3224   7.288   6.885   2.563  0.0667  0.0504 -0.4822
  890SOL    HW1 3225   7.253   6.942   2.632 -3.0054 -2.7783  0.5325
  890SOL    HW2 3226   7.354   6.831   2.606  1.7383  1.5092 -1.0575
  891SOL     OW 3227   5.918   6.780   1.037 -0.0800  0.2996  0.1064
  891SOL    HW1 3228   5.844   6.839   1.054 -1.3815 -1.0828 -0.5369
  891SOL    HW2 3229   5.895   6.737   0.955  0.9890 -0.8830  0.4041
  892SOL     OW 3230   6.115   1.687   0.235  0.3991 -0.0678  0.0754
  892SOL    HW1 3231   6.172   1.753   0.196 -1.3913  1.9681  0.6974
  892SOL    HW2 3232   6.045   1.674   0.171  0.0896 -0.4275  0.4804
  893SOL     OW 3233   3.391   1.239   7.100 -0.5049 -0.1252  0.8445
  893SOL    HW1 3234   3.451   1.298   7.054 -2.1915 -0.3365 -1.8631
  893SOL    HW2 3235   3.428   1.152   7.085 -0.7267 -0.1423  0.3674
  894SOL     OW 3236   2.673   1.534   6.055  0.2717 -0.2977 -0.1929
  894SOL    HW1 3237   2.627   1.454   6.078  0.8150 -0.4220  0.5168
  894SOL    HW2 3238   2.709   1.565   6.138  0.5681  0.3594 -0.5595
  895SOL     OW 3239   2.985   6.652   1.140 -0.5923  0.1112 -0.0804
  895SOL    HW1 3240   3.059   6.633   1.082 -1.0266 -2.2108  0.0478
  895SOL    HW2 3241   2.981   6.748   1.142 -0.3184  0.3138 -3.5677
  896SOL     OW 3242   6.022   0.717   7.519 -0.0965 -0.1610 -0.1432
  896SOL    HW1 3243   6.072   0.668   7.454  0.6759 -0.1969  0.4686
  896SOL    HW2 3244   6.086   0.744   7.584 -0.4668  1.8004 -0.5276
  897SOL     OW 3245   0.454   7.378   6.153  0.6907 -0.4248 -0.1544
  897SOL    HW1 3246   0.439   7.321   6.078  2.5640 -1.7666  0.3958
  897SOL    HW2 3247   0.422   7.327   6.228  0.0873  0.3257  0.1104
  898SOL     OW 3248   4.990   2.914   5.549  0.1332 -0.1944 -0.0985
  898SOL    HW1 3249   4.943   2.991   5.518  0.4047  0.8812  1.9947
  898SOL    HW2 3250   5.083   2.939   5.544  0.1663  0.1693  1.8790
  899SOL     OW 3251   6.208   3.584   0.027  0.1179 -0.2629  0.5063
  899SOL    HW1 3252   6.144   3.653   0.044  2.4097  2.2713 -0.3490
  899SOL    HW2 3253   6.202   3.569  -0.068 -0.4881 -1.3838  0.7174
  900SOL     OW 3254   6.379   4.920   6.050 -0.4503 -0.2227  0.1296
  900SOL    HW1 3255   6.435   4.845   6.031  0.4477  0.2738  0.7243
  900SOL    HW2 3256   6.342   4.944   5.965  0.1110 -0.6657 -0.2484
  901SOL     OW 3257   0.532   3.290   0.793 -0.2254  0.4682 -0.3705
  901SOL    HW1 3258   0.518   3.207   0.838 -1.3994  0.8164 -0.0663
  901SOL    HW2 3259   0.585   3.342   0.854 -0.0407  0.1794 -0.2860
  902SOL     OW 3260   3.697   5.256   6.232  0.3484 -0.4454  0.0105
  902SOL    HW1 3261   3.756   5.274   6.305  0.2852 -0.2742  0.0201
  902SOL    HW2 3262   3.700   5.335   6.179  3.4590 -1.9535 -2.3311
  903SOL     OW 3263   6.151   6.184   1.509 -0.0812  0.0612 -0.2792
  903SOL    HW1 3264   6.163   6.277   1.527 -4.4439  0.4015  2.4198
  903SOL    HW2 3265   6.186   6.139   1.586 -1.2166 -0.1733  0.1168
  904SOL     OW 3266   2.677   0.358   3.089  0.2578  0.3185 -0.5112
  904SOL    HW1 3267   2.609   0.408   3.134 -1.0191  0.1572 -2.1895
  904SOL    HW2 3268   2.705   0.415   3.017 -1.4815 -1.3986 -2.6917
  905SOL     OW 3269   6.817   1.171   2.382  0.1874 -0.1791  0.1936
  905SOL    HW1 3270   6.735   1.143   2.422 -0.5990  0.6455 -0.8047
  905SOL    HW2 3271   6.831   1.108   2.310 -0.0675  0.2389 -0.2258
  906SOL     OW 3272   4.124   5.084   7.174 -0.6200 -0.4458 -0.1238
  906SOL    HW1 3273   4.213   5.050   7.178 -0.6881 -0.5365  1.5794
  906SOL    HW2 3274   4.075   5.018   7.124 -0.5348 -2.4926  2.2724
  907SOL     OW 3275   3.704   6.902   5.846  0.4680 -0.2496 -0.1517
  907SOL    HW1 3276   3.769   6.972   5.849  0.7450 -0.4935  3.2925
  907SOL    HW2 3277   3.622   6.946   5.825  0.8377  0.9825  0.8492
  908SOL     OW 3278   2.844   2.943   3.994 -0.0315  0.5505  0.4069
  908SOL    HW1 3279   2.818   3.032   3.971 -0.9455  0.2813  0.3577
  908SOL    HW2 3280   2.844   2.942   4.090  0.2186  0.6646  0.4100
  909SOL     OW 3281   0.421   4.846   2.940  0.2295  0.0395 -0.4308
  909SOL    HW1 3282   0.499   4.893   2.968  0.5836  0.0622 -1.3928
  909SOL    HW2 3283   0.350   4.882   2.992  0.5636  1.3408 -0.8393
  910SOL     OW 3284   3.863   0.208   0.709 -0.0656 -0.1719 -0.0427
  910SOL    HW1 3285   3.928   0.234   0.775  0.2478 -0.6620 -0.1560
  910SOL    HW2 3286   3.901   0.131   0.667  0.0839  0.5686 -1.3237
  911SOL     OW 3287   5.597   5.923   5.696 -0.3054  0.3128  0.3334
  911SOL    HW1 3288   5.607   6.016   5.713  1.7862 -0.0304  1.2185
  911SOL    HW2 3289   5.608   5.881   5.782  0.2006 -0.8337 -0.2673
  912SOL     OW 3290   6.479   0.386   5.910  0.1364  0.0793 -0.1075
  912SOL    HW1 3291   6.527   0.326   5.968  0.2210 -1.4444 -1.6799
  912SOL    HW2 3292   6.546   0.437   5.866  0.1975 -0.4512 -0.6299
  913SOL     OW 3293   6.072   4.663   3.482 -0.5156  0.3742 -0.0915
  913SOL    HW1 3294   5.989   4.657   3.435 -0.2743  0.7540 -0.5770
  913SOL    HW2 3295   6.130   4.602   3.435 -0.8260 -0.7288  0.9209
  914SOL     OW 3296   7.521   5.510   6.392  0.0049  0.0306  0.2449
  914SOL    HW1 3297   7.519   5.539   6.301  2.6978  0.7693  0.3286
  914SOL    HW2 3298   7.478   5.581   6.440 -1.5097 -0.4039 -0.4328
  915SOL     OW 3299   5.912   4.410   1.318  0.3764  0.0322  0.3946
  915SOL    HW1 3300   5.835   4.424   1.374  0.5987 -0.3923  0.8137
  915SOL    HW2 3301   5.930   4.496   1.281 -0.4115  0.1030  0.1550
  916SOL     OW 3302   7.153   6.020   6.342  0.3018  0.0166  0.9124
  916SOL    HW1 3303   7.189   5.959   6.277 -1.4328  0.0536 -0.1467
  916SOL    HW2 3304   7.167   5.977   6.426 -0.4341 -1.6413  0.2259
  917SOL     OW 3305   4.014   3.961   2.495 -0.0454  0.4194 -0.2479
  917SOL    HW1 3306   4.014   4.054   2.472 -0.3836  0.0416 -1.9115
  917SOL    HW2 3307   3.924   3.933   2.480  0.4352 -0.5524 -1.5407
  918SOL     OW 3308   6.307   6.449   5.230 -0.0550  0.3749  0.3774
  918SOL    HW1 3309   6.326   6.436   5.323  0.0136 -0.0266  0.3093
  918SOL    HW2 3310   6.336   6.368   5.188  1.3987  1.1613 -0.2193
  919SOL     OW 3311   0.804   6.924   6.957  0.1513  0.6231  0.6059
  919SOL    HW1 3312   0.743   6.854   6.982  0.8357 -0.0550  0.4311
  919SOL    HW2 3313   0.850   6.889   6.881 -0.7904  2.0200 -0.6588
  920SOL     OW 3314   2.429   2.650   5.134 -0.2154  0.1771  0.1704
  920SOL    HW1 3315   2.498   2.599   5.092 -0.0420  0.9946 -0.5832
  920SOL    HW2 3316   2.467   2.738   5.142 -0.3989  0.1392  1.6815
  921SOL     OW 3317   6.668   4.365   7.005  0.2068  0.4175  0.1094
  921SOL    HW1 3318   6.620   4.409   6.935 -0.7944  1.2887  1.3010
  921SOL    HW2 3319   6.639   4.408   7.085  1.3396 -0.5339  1.0772
  922SOL     OW 3320   3.875   7.581   3.478 -0.4461 -0.1503 -0.4856
  922SOL    HW1 3321   3.853   7.632   3.401  0.3370 -0.0043 -0.6240
  922SOL    HW2 3322   3.953   7.623   3.514 -0.7374 -0.2739  0.3299
  923SOL     OW 3323   6.511   7.713   2.691 -0.4589  0.2571 -0.3758
  923SOL    HW1 3324   6.520   7.651   2.618 -0.1525 -0.9798  0.6707
  923SOL    HW2 3325   6.477   7.793   2.651 -1.2066 -0.7009 -1.7305
  924SOL     OW 3326   6.491   5.359   5.253 -0.2808 -0.1097 -0.4368
  924SOL    HW1 3327   6.499   5.393   5.342 -1.0817  1.2448 -0.8624
  924SOL    HW2 3328   6.457   5.432   5.201 -0.4657 -1.0633 -1.7289
  925SOL     OW 3329   1.814   1.442   3.444  0.5510  0.0331 -0.0939
  925SOL    HW1 3330   1.892   1.424   3.497  0.2194 -1.6112 -0.1140
  925SOL    HW2 3331   1.751   1.375   3.470 -0.5000  0.6986 -0.8321
  926SOL     OW 3332   4.769   0.794   5.669 -0.6899 -0.5030  0.2006
  926SOL    HW1 3333   4.739   0.715   5.713 -0.7447  0.2621  1.6279
  926SOL    HW2 3334   4.847   0.767   5.621 -0.8306 -1.4659  0.4942
  927SOL     OW 3335   3.711   6.985   0.915 -0.2836  0.2928  0.2839
  927SOL    HW1 3336   3.648   7.031   0.860 -0.5340 -0.8212 -0.3692
  927SOL    HW2 3337   3.683   6.894   0.914 -0.3341  0.2393  2.3192
  928SOL     OW 3338   6.431   3.804   4.453 -0.2475 -0.0124  0.4612
  928SOL    HW1 3339   6.465   3.811   4.364 -1.2611 -0.2551  0.0430
  928SOL    HW2 3340   6.416   3.895   4.480 -2.9355  0.0449 -0.8350
  929SOL     OW 3341   2.363   2.302   1.973 -0.0062  0.1880  0.1388
  929SOL    HW1 3342   2.366   2.221   1.921  0.5038  0.4286 -0.2144
  929SOL    HW2 3343   2.285   2.348   1.941 -0.3633 -0.2114  0.4209
  930SOL     OW 3344   0.406   2.366   5.739  0.6526 -0.4480 -0.4318
  930SOL    HW1 3345   0.423   2.280   5.701  2.6321  0.3815 -1.5807
  930SOL    HW2 3346   0.365   2.416   5.668  0.4254 -0.1387 -0.0875
  931SOL     OW 3347   3.599   3.094   3.510 -0.0816  0.2917 -0.1601
  931SOL    HW1 3348   3.597   3.190   3.500 -1.0554  0.3828  0.8139
  931SOL    HW2 3349   3.663   3.079   3.580 -0.9228  0.3231  0.6225
  932SOL     OW 3350   5.243   5.032   5.258  0.2527  0.6230  0.0506
  932SOL    HW1 3351   5.178   4.995   5.318 -0.7625 -0.9845 -1.8929
  932SOL    HW2 3352   5.327   5.009   5.297 -0.3588  0.2476  1.2074
  933SOL     OW 3353   1.514   6.860   7.754  0.5536  0.5043  0.1445
  933SOL    HW1 3354   1.460   6.849   7.832  0.6788 -2.6914 -0.0605
  933SOL    HW2 3355   1.461   6.825   7.683  2.3837 -1.7748 -0.2264
  934SOL     OW 3356   6.730   2.492   7.109  0.3525 -0.1011  0.2061
  934SOL    HW1 3357   6.761   2.491   7.019  1.8344 -0.6578  0.6923
  934SOL    HW2 3358   6.802   2.530   7.159 -0.0009 -0.8080  1.2968
  935SOL     OW 3359   3.441   7.486   0.614  0.0414  0.2548  0.1320
  935SOL    HW1 3360   3.454   7.557   0.676  1.9434 -1.5536  1.9446
  935SOL    HW2 3361   3.361   7.443   0.643  0.6280 -0.2494  1.0553
  936SOL     OW 3362   0.993   7.721   1.026 -0.3598 -0.5938 -0.4884
  936SOL    HW1 3363   0.923   7.745   0.965  0.8175 -1.8319 -2.4681
  936SOL    HW2 3364   1.028   7.804   1.056  0.4343  0.2113 -3.2837
  937SOL     OW 3365   0.313   4.165   6.719  0.2576  0.0301  0.3419
  937SOL    HW1 3366   0.395   4.136   6.680  0.1415 -0.1383  0.2184
  937SOL    HW2 3367   0.314   4.260   6.710  0.1607 -0.0142 -0.2291
  938SOL     OW 3368   0.421   4.060   4.186  0.1588  0.4905 -0.0811
  938SOL    HW1 3369   0.435   4.115   4.109 -0.5694  1.5946  0.5393
  938SOL    HW2 3370   0.344   4.008   4.165  0.8185 -0.2755 -0.6499
  939SOL     OW 3371   4.278   0.609   5.728  0.3903  0.1114 -0.0057
  939SOL    HW1 3372   4.357   0.588   5.778  0.6403  1.5620  0.2833
  939SOL    HW2 3373   4.223   0.532   5.735  1.4911 -0.6605  0.3936
  940SOL     OW 3374   2.236   3.091   7.651 -0.2793  0.9566  0.6691
  940SOL    HW1 3375   2.272   3.137   7.576  0.3284 -2.0030 -1.0014
  940SOL    HW2 3376   2.300   3.023   7.670 -2.2176 -0.7669  1.3926
  941SOL     OW 3377   2.897   6.147   2.040  0.0482  0.0607  0.2182
  941SOL    HW1 3378   2.897   6.124   1.947  0.2950 -0.1239  0.2624
  941SOL    HW2 3379   2.965   6.091   2.078 -0.1279  0.0559  0.5278
  942SOL     OW 3380   2.444   6.838   2.463  0.6767  0.5557  0.0515
  942SOL    HW1 3381   2.359   6.802   2.441  0.8526  0.5073 -0.5755
  942SOL    HW2 3382   2.432   6.933   2.463  1.1542  0.6631 -2.4261
  943SOL     OW 3383   4.753   6.627   6.795 -0.5863 -0.5346  0.1424
  943SOL    HW1 3384   4.760   6.536   6.764  1.3898 -0.5672  0.5884
  943SOL    HW2 3385   4.669   6.630   6.841 -0.5861 -2.2020  0.3099
  944SOL     OW 3386   2.724   6.928   4.348 -0.6569  0.8084  0.0487
  944SOL    HW1 3387   2.661   6.918   4.276 -0.6393  0.8143  0.0324
  944SOL    HW2 3388   2.809   6.912   4.307 -0.8162 -1.8936  0.6036
  945SOL     OW 3389   7.200   2.020   3.573  0.4227  0.1079 -0.2765
  945SOL    HW1 3390   7.266   2.041   3.639  0.4919 -0.1570 -0.2623
  945SOL    HW2 3391   7.233   2.059   3.492  0.5112  0.1237 -0.2328
  946SOL     OW 3392   3.686   0.662   6.389  0.0602 -0.1082 -0.6220
  946SOL    HW1 3393   3.638   0.664   6.471  0.4819 -0.0562 -0.3743
  946SOL    HW2 3394   3.622   0.631   6.325  0.3534 -2.5861  0.1643
  947SOL     OW 3395   4.104   0.725   3.160 -0.2867 -0.1106 -0.3207
  947SOL    HW1 3396   4.032   0.781   3.188 -0.5276 -0.3448 -0.4579
  947SOL    HW2 3397   4.109   0.657   3.227 -0.7491 -0.5711 -0.7356
  948SOL     OW 3398   2.852   3.550   0.452 -0.5938 -0.3195 -0.0775
  948SOL    HW1 3399   2.758   3.547   0.430 -1.1708  0.5089  1.9884
  948SOL    HW2 3400   2.881   3.636   0.422 -0.3942 -0.7146 -1.0351
  949SOL     OW 3401   5.265   7.392   3.433  0.3400 -0.5044 -0.4056
  949SOL    HW1 3402   5.350   7.347   3.441  1.1586  0.6010 -2.1386
  949SOL    HW2 3403   5.242   7.416   3.522  3.0594  1.2349 -0.0647
  950SOL     OW 3404   5.557   2.775   7.279  0.8216 -0.6347  0.0991
  950SOL    HW1 3405   5.582   2.683   7.291 -0.5452 -0.8370  1.8821
  950SOL    HW2 3406   5.474   2.771   7.232  1.3951 -0.2302 -0.9689
  951SOL     OW 3407   2.844   6.647   6.060 -0.1819 -0.0940 -0.6532
  951SOL    HW1 3408   2.779   6.684   5.999 -0.0171  0.0875 -0.7180
  951SOL    HW2 3409   2.919   6.627   6.005 -0.7520 -1.7955 -0.8689
  952SOL     OW 3410   3.497   4.325   4.123  1.2093 -0.1326 -0.2150
  952SOL    HW1 3411   3.582   4.360   4.152  0.5979  1.3347 -0.0978
  952SOL    HW2 3412   3.510   4.305   4.031  1.8938 -0.6320 -0.0200
  953SOL     OW 3413   6.257   3.996   4.567 -0.3700 -0.3479 -0.4888
  953SOL    HW1 3414   6.322   4.055   4.604 -0.4972 -1.9177  2.4953
  953SOL    HW2 3415   6.173   4.040   4.582 -0.4170 -0.9609  1.1621
  954SOL     OW 3416   6.047   5.183   5.474 -0.1479  0.5420 -0.1828
  954SOL    HW1 3417   6.025   5.241   5.547  2.6074  1.9249 -0.3136
  954SOL    HW2 3418   6.036   5.239   5.396 -0.7481 -0.1927 -0.6415
  955SOL     OW 3419   6.401   7.082   1.817  0.3781  0.2117  0.4943
  955SOL    HW1 3420   6.422   7.070   1.724 -0.0996  1.0415  0.2623
  955SOL    HW2 3421   6.465   7.028   1.863 -0.9213 -2.1867 -0.3748
  956SOL     OW 3422   3.678   3.998   2.714 -0.3703 -0.0326 -0.5072
  956SOL    HW1 3423   3.751   3.938   2.723  0.7714  1.2522 -0.8722
  956SOL    HW2 3424   3.714   4.074   2.669 -2.4113 -0.2077 -2.6755
  957SOL     OW 3425   0.022   6.820   6.502  0.0519 -0.0752  0.4758
  957SOL    HW1 3426  -0.037   6.851   6.572  0.8426  2.5783  0.1049
  957SOL    HW2 3427   0.105   6.863   6.522  1.1698 -1.7616 -0.4138
  958SOL     OW 3428   5.103   2.866   0.849  0.3547  0.1421  0.1152
  958SOL    HW1 3429   5.058   2.935   0.898  0.4470 -0.1470  0.6091
  958SOL    HW2 3430   5.164   2.827   0.913  1.1028  0.3398 -0.4583
  959SOL     OW 3431   2.716   5.458   2.283  0.0487 -0.6783  0.2491
  959SOL    HW1 3432   2.749   5.535   2.330  1.6568 -1.0552 -0.1899
  959SOL    HW2 3433   2.746   5.384   2.336 -2.0304 -1.0432  1.0133
  960SOL     OW 3434   0.492   6.273   7.605 -0.4962 -0.4060 -0.2097
  960SOL    HW1 3435   0.586   6.287   7.602 -0.5394 -0.2687 -0.9888
  960SOL    HW2 3436   0.478   6.187   7.567 -0.8033  0.1844 -1.4891
  961SOL     OW 3437   7.318   0.562   1.171  0.1090  0.2833 -0.1109
  961SOL    HW1 3438   7.317   0.649   1.210 -1.2264  0.2860 -0.0850
  961SOL    HW2 3439   7.366   0.507   1.233  1.7538  1.1724 -0.5597
  962SOL     OW 3440   4.090   3.463   7.490 -0.4181 -0.2992 -0.1732
  962SOL    HW1 3441   4.141   3.386   7.464  1.0801 -0.1652  2.1166
  962SOL    HW2 3442   4.002   3.429   7.508 -0.1352 -1.2157 -0.4989
  963SOL     OW 3443   4.964   0.895   6.779  0.2856 -0.5936  0.2322
  963SOL    HW1 3444   5.020   0.966   6.747  0.7604 -0.6420  0.9398
  963SOL    HW2 3445   5.023   0.819   6.786 -0.2514 -1.1098 -0.6738
  964SOL     OW 3446   7.043   4.297   0.958  0.4633  0.1923 -0.3974
  964SOL    HW1 3447   7.098   4.234   0.911 -1.0753 -0.7206 -1.0475
  964SOL    HW2 3448   7.005   4.246   1.030 -1.5642  0.0567 -1.5019
  965SOL     OW 3449   7.663   5.663   3.085  0.0631 -0.1912 -0.1625
  965SOL    HW1 3450   7.696   5.578   3.059 -0.7747 -1.0783  1.5216
  965SOL    HW2 3451   7.630   5.650   3.174 -0.4757  1.7812 -0.0269
  966SOL     OW 3452   0.471   5.661   2.137 -0.0045  0.0419 -0.0873
  966SOL    HW1 3453   0.423   5.615   2.205 -2.0007  1.2645 -0.6053
  966SOL    HW2 3454   0.423   5.644   2.056 -0.2591  2.1877 -0.4474
  967SOL     OW 3455   4.882   1.368   6.832 -0.1912  0.5881  0.0007
  967SOL    HW1 3456   4.877   1.349   6.925  0.9336  1.5635  0.2838
  967SOL    HW2 3457   4.791   1.369   6.802 -0.5613  0.2879  1.0860
  968SOL     OW 3458   5.673   0.026   2.860 -0.0191 -0.6616  0.0769
  968SOL    HW1 3459   5.674   0.105   2.807  2.0868 -1.6236 -1.4140
  968SOL    HW2 3460   5.627  -0.039   2.806  2.1127 -1.6407 -0.6392
  969SOL     OW 3461   2.580   6.177   0.491  0.0671  0.0275 -0.7483
  969SOL    HW1 3462   2.668   6.204   0.516 -0.1748  0.5522 -0.4453
  969SOL    HW2 3463   2.581   6.081   0.498  0.8101 -0.0225 -1.4104
  970SOL     OW 3464   4.814   0.658   2.928 -0.3507 -0.1208  0.2926
  970SOL    HW1 3465   4.761   0.732   2.898 -1.2291 -1.0288 -0.4694
  970SOL    HW2 3466   4.900   0.674   2.889 -0.6126  0.3456 -0.1172
  971SOL     OW 3467   2.788   3.331   2.135 -0.2701  0.0596  0.7332
  971SOL    HW1 3468   2.747   3.404   2.182 -0.0216  0.8041 -0.1846
  971SOL    HW2 3469   2.879   3.333   2.162 -0.0925  0.5873  0.1102
  972SOL     OW 3470   5.634   0.744   1.187  0.3914  0.7228  0.4588
  972SOL    HW1 3471   5.699   0.739   1.117 -1.6905 -1.8308 -1.5157
  972SOL    HW2 3472   5.651   0.667   1.241 -0.7106  0.2099  0.1081
  973SOL     OW 3473   0.726   5.633   2.283 -0.0940 -0.2325  0.3966
  973SOL    HW1 3474   0.738   5.538   2.280  0.7872 -0.1181 -0.3374
  973SOL    HW2 3475   0.642   5.648   2.242 -0.4088 -0.7174  0.8466
  974SOL     OW 3476   0.069   0.010   1.195 -0.4577 -0.0077  0.2852
  974SOL    HW1 3477   0.043  -0.043   1.120 -1.1505  0.7566 -0.0393
  974SOL    HW2 3478   0.023  -0.029   1.270  1.3306 -1.6313  0.5976
  975SOL     OW 3479   1.348   1.364   4.883  0.4115 -0.0052 -0.0523
  975SOL    HW1 3480   1.372   1.356   4.976  0.7668 -0.3124 -0.1701
  975SOL    HW2 3481   1.417   1.419   4.846 -0.7529  1.7680  0.2595
  976SOL     OW 3482   1.099   5.165   6.332 -0.0153 -0.0461 -0.4016
  976SOL    HW1 3483   1.086   5.083   6.379 -2.9721  1.0629  0.9461
  976SOL    HW2 3484   1.124   5.228   6.399  0.5646  0.5408 -1.1454
  977SOL     OW 3485   1.106   3.538   5.946  0.3009  0.0765  0.4953
  977SOL    HW1 3486   1.146   3.543   5.859 -0.5482  2.2209  0.1563
  977SOL    HW2 3487   1.028   3.484   5.933  0.9021 -0.7569  0.2575
  978SOL     OW 3488   1.211   1.541   0.855  0.2658  0.1709 -0.1582
  978SOL    HW1 3489   1.157   1.544   0.776  0.5718  1.4065 -0.3327
  978SOL    HW2 3490   1.296   1.508   0.824  0.1932  0.0395 -0.2207
  979SOL     OW 3491   3.381   0.523   1.562  0.3790  0.3622  0.4821
  979SOL    HW1 3492   3.463   0.519   1.611  1.2208 -0.3923 -0.9099
  979SOL    HW2 3493   3.408   0.526   1.471 -1.1480  0.3360  0.0019
  980SOL     OW 3494   3.263   4.391   6.928 -0.0928 -0.7161  0.5039
  980SOL    HW1 3495   3.341   4.355   6.886  1.2876  0.2067  2.1780
  980SOL    HW2 3496   3.291   4.417   7.016 -1.3228  2.9644  0.0113
  981SOL     OW 3497   4.227   6.969   6.821 -0.0382  0.0059  0.2469
  981SOL    HW1 3498   4.254   7.056   6.792 -3.1016  1.9386  2.5193
  981SOL    HW2 3499   4.221   6.976   6.916 -2.5110 -1.9731  0.3456
  982SOL     OW 3500   0.931   3.548   5.583 -0.3941  0.0683  0.5023
  982SOL    HW1 3501   0.908   3.611   5.651  1.8870  0.3330  1.1223
  982SOL    HW2 3502   0.883   3.577   5.506 -0.2202  1.9731  1.0563
  983SOL     OW 3503   1.334   6.080   7.587 -0.6576 -0.2002  0.4096
  983SOL    HW1 3504   1.412   6.133   7.569 -1.5872  1.4179  0.9872
  983SOL    HW2 3505   1.354   5.994   7.549  2.0276 -0.3179  1.8482
  984SOL     OW 3506   0.819   3.307   6.702 -0.3653  0.5019 -0.6856
  984SOL    HW1 3507   0.860   3.352   6.776  0.5438 -0.5070 -0.5574
  984SOL    HW2 3508   0.874   3.231   6.686 -1.8506 -0.5808 -0.8920
  985SOL     OW 3509   6.392   6.838   0.123  0.3698 -0.1569  0.3331
  985SOL    HW1 3510   6.449   6.812   0.196 -1.1290 -0.1395  1.5520
  985SOL    HW2 3511   6.306   6.806   0.147 -0.1419 -0.2975 -1.5443
  986SOL     OW 3512   7.658   2.043   7.346 -0.4437  0.2211  0.1882
  986SOL    HW1 3513   7.708   2.106   7.294  0.5930 -0.7170  0.0087
  986SOL    HW2 3514   7.681   2.064   7.437  0.6234 -0.4510  0.0933
  987SOL     OW 3515   0.509   1.588   4.158 -0.7691 -0.2333 -0.0201
  987SOL    HW1 3516   0.426   1.567   4.201 -0.8363 -1.1872 -0.5796
  987SOL    HW2 3517   0.535   1.507   4.115 -1.1706  0.8868 -2.5652
  988SOL     OW 3518   4.930   0.846   3.625  0.0428  0.0968  0.5751
  988SOL    HW1 3519   4.848   0.869   3.669  0.3177  0.5118  0.8805
  988SOL    HW2 3520   4.993   0.836   3.696 -0.1331 -1.9623  0.4923
  989SOL     OW 3521   5.314   3.775   0.645 -0.0823  0.3297  0.4514
  989SOL    HW1 3522   5.379   3.794   0.712 -2.5881  2.1715  2.5558
  989SOL    HW2 3523   5.241   3.735   0.693 -1.7849  1.2906 -1.1993
  990SOL     OW 3524   1.000   0.564   1.990  0.1289  0.0188 -0.3473
  990SOL    HW1 3525   0.993   0.587   2.083  0.8912  0.6481 -0.4285
  990SOL    HW2 3526   1.023   0.647   1.947  1.6165 -0.6112 -0.8388
  991SOL     OW 3527   2.158   4.339   2.921 -0.2796 -0.0788 -0.5704
  991SOL    HW1 3528   2.198   4.268   2.972 -0.7849 -1.0528 -1.4929
  991SOL    HW2 3529   2.169   4.311   2.830 -0.7212  0.9085 -0.9330
  992SOL     OW 3530   0.179   5.112   2.561 -0.5876  0.1134 -0.3787
  992SOL    HW1 3531   0.159   5.019   2.549 -0.6317  0.4451 -3.4197
  992SOL    HW2 3532   0.098   5.158   2.539 -0.9573  0.9168  2.2977
  993SOL     OW 3533   3.570   4.521   0.761 -0.3701  0.2715 -0.4535
  993SOL    HW1 3534   3.492   4.465   0.764 -0.1854  0.0561  0.9224
  993SOL    HW2 3535   3.614   4.496   0.680 -1.5027  0.0923 -1.0381
  994SOL     OW 3536   4.173   2.182   0.287  0.1886 -0.6677 -0.0507
  994SOL    HW1 3537   4.254   2.142   0.317 -0.2172 -1.5367 -0.0871
  994SOL    HW2 3538   4.151   2.247   0.354  1.7758  0.7743 -0.8534
  995SOL     OW 3539   6.381   3.294   4.598  0.8166 -0.2163  0.2061
  995SOL    HW1 3540   6.394   3.337   4.683  0.3338 -1.4928  0.9472
  995SOL    HW2 3541   6.372   3.366   4.536  0.4080  0.7455  1.3488
  996SOL     OW 3542   7.658   1.322   3.550  0.4588 -0.7469  0.4056
  996SOL    HW1 3543   7.667   1.388   3.482 -1.7369 -1.5810 -0.7989
  996SOL    HW2 3544   7.693   1.364   3.629  1.1171  1.0262 -0.7666
  997SOL     OW 3545   4.591   5.384   3.063  0.6734  0.5348 -0.1693
  997SOL    HW1 3546   4.557   5.324   2.998  1.5115  1.7501 -1.7971
  997SOL    HW2 3547   4.574   5.471   3.027  0.0195  1.2995  1.8351
  998SOL     OW 3548   3.018   4.021   1.332 -0.1501  0.2483  0.5873
  998SOL    HW1 3549   2.977   4.090   1.384 -0.2010  0.4364  0.2993
  998SOL    HW2 3550   2.949   3.992   1.273  0.4386  1.3410 -0.6729
  999SOL     OW 3551   0.758   1.686   3.175 -0.1189 -0.4265 -0.1545
  999SOL    HW1 3552   0.742   1.779   3.194  1.2466 -0.0262 -0.8397
  999SOL    HW2 3553   0.707   1.639   3.241 -0.9586  0.8021  0.1044
 1000SOL     OW 3554   0.583   3.613   3.027  0.0955 -0.0794 -0.0899
 1000SOL    HW1 3555   0.508   3.567   3.064 -1.4938  1.8206 -0.8189
 1000SOL    HW2 3556   0.573   3.604   2.932 -0.5511  2.0860 -0.2873
 1001SOL     OW 3557   2.790   5.649   6.574  0.2171 -0.6556  0.2542
 1001SOL    HW1 3558   2.814   5.694   6.655 -1.6005 -0.1640  0.5528
 1001SOL    HW2 3559   2.763   5.562   6.603  0.5795 -0.8403  0.0429
 1002SOL     OW 3560   1.854   6.036   5.235  0.3966 -0.1745  0.2322
 1002SOL    HW1 3561   1.836   5.943   5.220 -0.8673  0.2818 -1.3472
 1002SOL    HW2 3562   1.920   6.059   5.169 -2.4922  0.9881 -2.5098
 1003SOL     OW 3563   1.724   1.068   7.372  0.2826 -0.0562  0.3747
 1003SOL    HW1 3564   1.657   1.002   7.388  0.2030 -0.0510  0.0676
 1003SOL    HW2 3565   1.759   1.088   7.459 -1.5381  1.4581  0.8177
 1004SOL     OW 3566   4.104   5.835   7.195  0.1445 -0.8710 -0.0714
 1004SOL    HW1 3567   4.124   5.771   7.127 -0.1088  0.3709 -1.3612
 1004SOL    HW2 3568   4.068   5.910   7.148  2.2820  1.0437  1.1350
 1005SOL     OW 3569   2.459   1.596   5.411 -0.8374  0.0942  0.7417
 1005SOL    HW1 3570   2.508   1.559   5.338 -1.4747  0.0694  0.3133
 1005SOL    HW2 3571   2.422   1.678   5.376 -1.1478  0.0835  1.0346
 1006SOL     OW 3572   6.187   2.865   0.650  0.7364  0.4464 -0.1891
 1006SOL    HW1 3573   6.175   2.875   0.555  0.7689  0.9839 -0.1397
 1006SOL    HW2 3574   6.100   2.843   0.683  0.6050  0.8491 -0.2688
 1007SOL     OW 3575   4.053   7.141   1.069 -0.2003 -0.1536  0.0472
 1007SOL    HW1 3576   4.055   7.045   1.063 -1.2528 -0.1233 -1.4376
 1007SOL    HW2 3577   3.997   7.168   0.996 -0.2168  1.5844  0.6606
 1008SOL     OW 3578   0.178   3.411   3.209  0.1497  0.1775  0.8009
 1008SOL    HW1 3579   0.096   3.367   3.232 -0.6315  1.5752  0.7430
 1008SOL    HW2 3580   0.196   3.381   3.120 -1.2751  1.2503  0.1157
 1009SOL     OW 3581   0.562   3.063   5.272  0.1524  0.0718 -0.7088
 1009SOL    HW1 3582   0.491   3.005   5.299 -0.8562  1.3543 -0.5314
 1009SOL    HW2 3583   0.612   3.080   5.352 -0.2811  0.4393 -0.5185
 1010SOL     OW 3584   0.640   5.789   4.735  0.1293  0.0208 -1.1352
 1010SOL    HW1 3585   0.585   5.740   4.796  1.1122 -0.5224 -0.6651
 1010SOL    HW2 3586   0.638   5.879   4.766  1.0272 -0.3382  0.0205
 1011SOL     OW 3587   1.548   3.125   4.482  0.7677 -0.1411 -0.1727
 1011SOL    HW1 3588   1.508   3.211   4.467  2.0138  0.8048  1.5795
 1011SOL    HW2 3589   1.473   3.067   4.501 -0.0893  0.4893 -1.4505
 1012SOL     OW 3590   0.067   1.445   1.820 -0.2060 -0.2982  0.5967
 1012SOL    HW1 3591   0.087   1.354   1.798 -2.3070 -0.7383  0.3095
 1012SOL    HW2 3592  -0.006   1.439   1.882 -1.9652  1.2031 -1.2122
 1013SOL     OW 3593   1.959   3.006   1.188  0.1648 -0.1241  0.1867
 1013SOL    HW1 3594   1.924   3.012   1.099 -0.0634  0.0336  0.2852
 1013SOL    HW2 3595   1.912   3.074   1.236 -0.5958 -1.0021  0.7158
 1014SOL     OW 3596   1.975   5.046   2.134 -0.1679  0.0898  0.4527
 1014SOL    HW1 3597   2.040   5.111   2.160  0.6105 -0.1990 -0.7280
 1014SOL    HW2 3598   1.968   4.988   2.210 -0.2671  1.0612  1.2063
 1015SOL     OW 3599   3.158   0.373   1.483  0.1780 -0.3396  0.6823
 1015SOL    HW1 3600   3.097   0.365   1.557 -0.3364  1.2246  0.4618
 1015SOL    HW2 3601   3.241   0.397   1.523  0.1633 -0.5121  0.8205
 1016SOL     OW 3602   2.199   1.237   1.185 -0.2380 -0.1160 -0.5988
 1016SOL    HW1 3603   2.292   1.242   1.162 -0.1101 -1.7759 -0.5753
 1016SOL    HW2 3604   2.198   1.207   1.276 -0.7869  0.1168 -0.5264
 1017SOL     OW 3605   2.647   0.484   3.849  0.0913  0.3345 -0.3112
 1017SOL    HW1 3606   2.592   0.409   3.874  0.3467 -0.4757 -2.0569
 1017SOL    HW2 3607   2.589   0.538   3.796  0.0480  1.1614  0.5621
 1018SOL     OW 3608   7.617   3.283   6.196 -0.0680 -0.0640  0.2881
 1018SOL    HW1 3609   7.611   3.378   6.212  1.9485  0.2206 -0.3961
 1018SOL    HW2 3610   7.652   3.276   6.108  0.6637 -1.4467  0.6624
 1019SOL     OW 3611   6.910   5.230   0.732 -0.3499 -0.5713 -0.3295
 1019SOL    HW1 3612   6.981   5.195   0.678 -0.9611 -1.9958 -0.2512
 1019SOL    HW2 3613   6.951   5.251   0.816  0.3919  0.6723 -0.9728
 1020SOL     OW 3614   6.329   2.911   3.274 -0.1514  0.0874 -0.1673
 1020SOL    HW1 3615   6.347   2.910   3.180  4.6192 -2.1275  0.4521
 1020SOL    HW2 3616   6.381   2.983   3.309 -1.5766  0.6637  0.8697
 1021SOL     OW 3617   7.459   0.843   0.394  0.0770 -0.7875 -0.6617
 1021SOL    HW1 3618   7.481   0.775   0.458  1.1801  0.9612  0.9217
 1021SOL    HW2 3619   7.536   0.899   0.391 -1.4386  1.4388 -0.5104
 1022SOL     OW 3620   3.021   4.955   3.196 -0.0934  0.2734 -0.2933
 1022SOL    HW1 3621   2.951   4.986   3.253  0.7588 -0.6075  1.2944
 1022SOL    HW2 3622   2.984   4.878   3.151 -0.2239 -0.0667  0.3862
 1023SOL     OW 3623   7.228   5.914   0.300  0.1389  0.2553  0.2581
 1023SOL    HW1 3624   7.307   5.964   0.321 -0.1272  0.3431  1.1020
 1023SOL    HW2 3625   7.155   5.973   0.322 -0.1656  0.3276 -0.9076
 1024SOL     OW 3626   0.696   6.390   2.858  0.9257  0.2544 -0.2853
 1024SOL    HW1 3627   0.683   6.475   2.815  0.9290  0.3547 -0.0882
 1024SOL    HW2 3628   0.617   6.378   2.911  0.1147 -0.6526 -1.6190
 1025SOL     OW 3629   3.315   7.277   7.130  0.1379 -0.1342  0.2612
 1025SOL    HW1 3630   3.262   7.214   7.081  0.1776 -1.4225  1.8242
 1025SOL    HW2 3631   3.295   7.260   7.222 -1.1941  3.2943  0.7709
 1026SOL     OW 3632   3.443   5.121   6.076  0.0665  0.0089  0.0980
 1026SOL    HW1 3633   3.363   5.070   6.089 -0.7637  1.4863  0.9875
 1026SOL    HW2 3634   3.512   5.065   6.112 -0.7702 -0.6186  0.7890
 1027SOL     OW 3635   4.337   4.139   6.204  0.7357  0.6601 -0.1333
 1027SOL    HW1 3636   4.246   4.132   6.174  0.3743  0.7614  0.9004
 1027SOL    HW2 3637   4.378   4.057   6.176 -0.3810 -0.5872  1.6692
 1028SOL     OW 3638   3.303   2.710   1.731 -0.6120 -0.5960  0.6761
 1028SOL    HW1 3639   3.308   2.779   1.796  2.1578  0.6236 -0.6592
 1028SOL    HW2 3640   3.351   2.637   1.769  1.3432  0.2508 -0.0464
 1029SOL     OW 3641   6.208   2.479   0.957 -0.4938 -0.6433 -0.2024
 1029SOL    HW1 3642   6.221   2.390   0.992 -0.9470 -0.4752  0.4052
 1029SOL    HW2 3643   6.114   2.495   0.966 -0.3649  0.0225 -0.0042
 1030SOL     OW 3644   3.490   6.865   7.674 -0.2670  0.3442 -0.2597
 1030SOL    HW1 3645   3.402   6.833   7.656 -1.1150  0.9666  2.3945
 1030SOL    HW2 3646   3.491   6.954   7.638 -0.0117 -0.3303 -2.0171
 1031SOL     OW 3647   3.135   0.888   2.443 -0.4501  0.2409  0.3351
 1031SOL    HW1 3648   3.226   0.866   2.462 -0.5491  0.4817  1.1270
 1031SOL    HW2 3649   3.084   0.825   2.494 -0.7256  1.3569  1.4706
 1032SOL     OW 3650   6.936   2.840   1.770 -0.2755 -0.3536  0.0379
 1032SOL    HW1 3651   6.988   2.910   1.809 -1.2835  1.4287 -1.6802
 1032SOL    HW2 3652   6.984   2.760   1.792  2.6529  1.1049 -0.6054
 1033SOL     OW 3653   4.972   0.847   4.185  0.3608 -0.1658  0.2072
 1033SOL    HW1 3654   5.067   0.855   4.175  0.4202 -1.5846 -0.6580
 1033SOL    HW2 3655   4.936   0.909   4.122  0.6500  1.8138  1.8732
 1034SOL     OW 3656   7.677   6.812   2.539 -0.1882  0.0023  0.3253
 1034SOL    HW1 3657   7.683   6.904   2.514  0.8926 -0.1282  0.0765
 1034SOL    HW2 3658   7.605   6.809   2.602  0.2183  1.1290  0.8569
 1035SOL     OW 3659   0.025   1.598   5.793  0.2801 -0.0674 -0.5651
 1035SOL    HW1 3660   0.004   1.523   5.738  0.6686 -0.2738 -0.4314
 1035SOL    HW2 3661   0.100   1.639   5.750  0.8488 -0.4740  0.0478
 1036SOL     OW 3662   1.026   4.682   6.001 -0.5108  0.6458 -0.2526
 1036SOL    HW1 3663   0.957   4.744   5.976  2.0116  3.5713 -0.5509
 1036SOL    HW2 3664   1.015   4.672   6.096 -1.3768  0.9984 -0.3049
 1037SOL     OW 3665   2.816   1.694   6.954  0.0609 -0.4696 -0.2425
 1037SOL    HW1 3666   2.866   1.769   6.920  0.1598 -0.2749  0.3147
 1037SOL    HW2 3667   2.877   1.651   7.014 -0.1000 -0.8236 -0.3350
 1038SOL     OW 3668   0.383   4.173   0.069 -0.2276  0.1508  0.0340
 1038SOL    HW1 3669   0.377   4.178  -0.026 -0.2900 -0.5759 -0.0050
 1038SOL    HW2 3670   0.345   4.255   0.100  0.8540  0.9123 -0.6024
 1039SOL     OW 3671   4.490   7.077   3.507  0.3922  0.0106 -0.2194
 1039SOL    HW1 3672   4.536   7.157   3.534 -0.2965 -0.1629  1.6015
 1039SOL    HW2 3673   4.406   7.108   3.474  1.0697  0.1899 -1.8745
 1040SOL     OW 3674   0.949   4.577   3.175  0.1632 -0.7313  0.5852
 1040SOL    HW1 3675   1.026   4.527   3.148  0.8379  0.8410 -0.5575
 1040SOL    HW2 3676   0.909   4.605   3.092 -1.1170 -0.7493  1.1828
 1041SOL     OW 3677   5.869   5.585   3.180 -0.0042  0.2657  0.3669
 1041SOL    HW1 3678   5.909   5.596   3.094  0.7325 -0.9209  0.5354
 1041SOL    HW2 3679   5.937   5.611   3.242 -0.4691  0.9410  0.5987
 1042SOL     OW 3680   0.850   6.607   0.703 -0.1232 -0.4041 -0.4815
 1042SOL    HW1 3681   0.805   6.577   0.782 -1.0948 -0.7932 -1.1639
 1042SOL    HW2 3682   0.920   6.542   0.689 -0.0215 -0.3977 -0.0183
 1043SOL     OW 3683   7.075   5.286   7.577  0.0840 -0.0485  0.1026
 1043SOL    HW1 3684   7.066   5.373   7.617  1.0420  0.0005  0.2268
 1043SOL    HW2 3685   7.109   5.231   7.648 -0.1459 -0.4363 -0.0889
 1044SOL     OW 3686   1.070   5.360   0.819  1.0360  0.3421  0.1366
 1044SOL    HW1 3687   1.045   5.271   0.794  0.3133  0.5861 -0.0348
 1044SOL    HW2 3688   1.080   5.356   0.915 -0.2531  0.3550  0.2969
 1045SOL     OW 3689   6.340   6.159   4.713 -0.4921  0.2597  0.4318
 1045SOL    HW1 3690   6.349   6.088   4.776 -2.1590 -0.3567  0.0270
 1045SOL    HW2 3691   6.256   6.201   4.735 -0.7870  0.4488 -0.9467
 1046SOL     OW 3692   6.805   4.015   2.195  0.2903 -0.5534  0.0912
 1046SOL    HW1 3693   6.711   4.011   2.214  0.5390 -1.1301  1.2969
 1046SOL    HW2 3694   6.838   3.929   2.219  1.1472 -0.3224 -0.2294
 1047SOL     OW 3695   2.072   7.618   1.906  0.0526 -0.6111  0.6406
 1047SOL    HW1 3696   1.988   7.621   1.952  0.0310 -2.5040  0.7930
 1047SOL    HW2 3697   2.053   7.576   1.823  0.3945  1.3763 -0.5177
 1048SOL     OW 3698   6.084   3.902   5.358  0.0855 -0.1727  0.6660
 1048SOL    HW1 3699   6.144   3.891   5.285 -1.9136 -3.5430 -0.7082
 1048SOL    HW2 3700   6.141   3.914   5.434  2.4776 -1.7898 -0.7196
 1049SOL     OW 3701   0.234   7.316   0.255  0.5401  0.3286  0.1324
 1049SOL    HW1 3702   0.197   7.278   0.335  0.3783  2.1888  0.9820
 1049SOL    HW2 3703   0.259   7.405   0.280  0.0883  1.1041 -2.0086
 1050SOL     OW 3704   3.832   3.900   7.105 -0.3708  1.0019  0.0616
 1050SOL    HW1 3705   3.867   3.811   7.116  2.2473  1.9517  0.0362
 1050SOL    HW2 3706   3.843   3.919   7.012  0.6635  1.9192  0.3473
 1051SOL     OW 3707   5.843   0.267   7.432 -0.2070  0.1136  0.2150
 1051SOL    HW1 3708   5.873   0.317   7.357  2.3236 -0.6709  0.5939
 1051SOL    HW2 3709   5.837   0.331   7.503  1.6173  0.1757  0.3518
 1052SOL     OW 3710   4.573   7.752   6.275 -0.1426 -0.0884 -0.1148
 1052SOL    HW1 3711   4.557   7.713   6.361 -0.3686 -1.7257 -0.8549
 1052SOL    HW2 3712   4.540   7.686   6.213  1.6180  0.2762 -1.5024
 1053SOL     OW 3713   6.122   6.011   4.917 -0.2059  0.0966 -0.2089
 1053SOL    HW1 3714   6.207   6.041   4.951  0.6159 -0.1030 -1.9619
 1053SOL    HW2 3715   6.115   5.921   4.948 -0.1292  0.3484  0.5618
 1054SOL     OW 3716   2.812   6.543   0.749 -0.4713 -0.4885 -0.4545
 1054SOL    HW1 3717   2.845   6.573   0.664  0.7604 -0.6494 -0.0421
 1054SOL    HW2 3718   2.870   6.472   0.774 -0.4752 -0.0796  0.7856
 1055SOL     OW 3719   3.755   4.448   0.946  0.0330 -0.1234 -0.1988
 1055SOL    HW1 3720   3.781   4.535   0.974  1.2755 -1.0065  1.6001
 1055SOL    HW2 3721   3.685   4.463   0.882 -0.1325  2.1498  0.4348
 1056SOL     OW 3722   4.457   5.119   6.897 -0.0941  0.5148  0.1397
 1056SOL    HW1 3723   4.384   5.161   6.852  0.5728  1.6566  0.0709
 1056SOL    HW2 3724   4.419   5.043   6.941 -0.6113 -1.1980 -3.0217
 1057SOL     OW 3725   5.774   4.822   3.880 -0.5551 -0.4401  0.3003
 1057SOL    HW1 3726   5.864   4.839   3.851 -0.4753 -0.3176  0.6148
 1057SOL    HW2 3727   5.756   4.733   3.849  0.0849 -0.9115  1.2100
 1058SOL     OW 3728   2.584   4.211   7.549  0.1622 -0.3236 -0.1108
 1058SOL    HW1 3729   2.527   4.286   7.538  0.5513  0.3609  2.1505
 1058SOL    HW2 3730   2.638   4.210   7.469 -0.7381  0.9772 -0.7650
 1059SOL     OW 3731   0.492   4.044   3.274  0.1277 -0.1776 -0.5964
 1059SOL    HW1 3732   0.514   4.032   3.182 -0.6843 -0.9616 -0.7068
 1059SOL    HW2 3733   0.562   4.099   3.309  2.3545 -2.6243 -0.8691
 1060SOL     OW 3734   4.697   7.429   6.090  0.4426 -0.3745  0.9777
 1060SOL    HW1 3735   4.707   7.458   6.181 -1.0872 -1.2116  1.4476
 1060SOL    HW2 3736   4.621   7.477   6.058  1.7900  0.9747 -0.3586
 1061SOL     OW 3737   0.602   3.546   3.784 -0.0925 -0.2830  0.0795
 1061SOL    HW1 3738   0.671   3.603   3.818 -1.7643  1.4014  0.8151
 1061SOL    HW2 3739   0.524   3.569   3.835 -2.0760  0.3795 -2.9485
 1062SOL     OW 3740   4.288   4.365   3.582  0.1934 -0.2190  0.6327
 1062SOL    HW1 3741   4.303   4.443   3.529  0.6022  0.5413  1.8177
 1062SOL    HW2 3742   4.231   4.310   3.529  1.7332 -0.1549 -1.2026
 1063SOL     OW 3743   6.997   4.881   1.147 -0.0286 -0.1666  0.2017
 1063SOL    HW1 3744   7.027   4.932   1.222 -0.2366 -0.2928  0.3725
 1063SOL    HW2 3745   7.076   4.841   1.113  0.5653  2.1709 -1.4152
 1064SOL     OW 3746   7.369   2.034   1.565 -0.2178 -0.5789 -0.2747
 1064SOL    HW1 3747   7.319   1.980   1.625 -0.5415  1.7646  1.7323
 1064SOL    HW2 3748   7.309   2.050   1.492 -1.2438 -0.4382  0.5715
 1065SOL     OW 3749   1.712   3.997   6.604  0.3782  0.3072 -0.2319
 1065SOL    HW1 3750   1.749   4.053   6.672  1.8627  0.5760 -1.2369
 1065SOL    HW2 3751   1.683   4.057   6.536 -1.5950  0.0730  0.3355
 1066SOL     OW 3752   0.025   2.687   2.085 -0.2823 -0.5496 -0.0841
 1066SOL    HW1 3753   0.038   2.757   2.021 -2.0930  0.0687  0.1632
 1066SOL    HW2 3754  -0.059   2.648   2.061  1.0320 -3.2681 -0.7274
 1067SOL     OW 3755   0.528   6.592   1.137 -0.2284 -0.3362 -0.2131
 1067SOL    HW1 3756   0.479   6.520   1.179 -0.5077  0.4459  0.8456
 1067SOL    HW2 3757   0.510   6.582   1.044 -0.4591 -1.4990 -0.0575
 1068SOL     OW 3758   5.010   0.700   4.425 -0.3103  0.4118  0.2435
 1068SOL    HW1 3759   4.985   0.766   4.360 -2.6441  0.9309  1.5468
 1068SOL    HW2 3760   4.978   0.735   4.508  0.1702 -1.4634  1.2708
 1069SOL     OW 3761   5.808   2.224   5.503  0.2441 -0.1632 -0.1483
 1069SOL    HW1 3762   5.883   2.243   5.559  0.6199 -2.1785  0.1150
 1069SOL    HW2 3763   5.733   2.223   5.563  0.6351 -2.2441  0.3917
 1070SOL     OW 3764   1.726   1.280   3.254  0.3040 -0.1836 -0.1895
 1070SOL    HW1 3765   1.790   1.317   3.314  1.5939 -2.0762 -0.3279
 1070SOL    HW2 3766   1.777   1.226   3.194 -1.3138 -0.9222 -0.9734
 1071SOL     OW 3767   4.064   1.656   3.735  0.3237  0.0319  0.2072
 1071SOL    HW1 3768   3.971   1.648   3.711 -0.1135  3.3492  0.3000
 1071SOL    HW2 3769   4.062   1.693   3.824  1.7999 -1.0384  0.7165
 1072SOL     OW 3770   3.430   6.470   1.645  0.1824  0.4289  0.1198
 1072SOL    HW1 3771   3.488   6.438   1.714  0.2216 -1.4141 -0.7139
 1072SOL    HW2 3772   3.484   6.531   1.596  1.0978 -0.4276  0.0180
 1073SOL     OW 3773   7.514   2.947   5.427  0.1928  0.3551 -0.2673
 1073SOL    HW1 3774   7.469   3.032   5.423 -1.2142 -0.3704 -0.5725
 1073SOL    HW2 3775   7.546   2.941   5.517 -2.5454 -0.1300  0.7911
 1074SOL     OW 3776   0.201   1.580   3.277  0.0074  0.0086  0.1775
 1074SOL    HW1 3777   0.292   1.602   3.296 -0.1211 -1.0453  2.3285
 1074SOL    HW2 3778   0.166   1.658   3.233  1.6209  0.8972  0.3942
 1075SOL     OW 3779   0.426   7.149   0.896 -0.0189 -0.0901  0.0207
 1075SOL    HW1 3780   0.415   7.166   0.990 -0.5690  0.3311 -0.1156
 1075SOL    HW2 3781   0.337   7.145   0.862  0.1620  1.8771 -0.8507
 1076SOL     OW 3782   6.470   4.691   5.906 -0.0489 -0.3239 -0.5376
 1076SOL    HW1 3783   6.448   4.728   5.820  0.1340  0.9862 -0.0423
 1076SOL    HW2 3784   6.564   4.710   5.916 -0.8128  3.1667  1.5926
 1077SOL     OW 3785   7.557   1.069   2.183 -0.1959  0.0999 -0.1833
 1077SOL    HW1 3786   7.492   1.118   2.133 -0.7175 -0.2841  0.1051
 1077SOL    HW2 3787   7.508   0.997   2.223  0.5246 -0.5494 -0.4443
 1078SOL     OW 3788   1.351   2.242   7.334 -0.6470  0.0215 -0.5605
 1078SOL    HW1 3789   1.383   2.156   7.362 -1.4492 -0.4236 -0.9909
 1078SOL    HW2 3790   1.431   2.293   7.319 -0.1214 -1.1101 -1.7561
 1079SOL     OW 3791   2.566   5.252   3.413 -0.0665  0.8728  0.3224
 1079SOL    HW1 3792   2.539   5.332   3.369 -0.4119  0.7564  0.3260
 1079SOL    HW2 3793   2.537   5.262   3.503 -0.6952  0.4620  0.1711
 1080SOL     OW 3794   1.445   4.953   0.948  0.4879 -0.3800  0.3863
 1080SOL    HW1 3795   1.474   4.911   0.867  0.7247 -0.1654  0.3588
 1080SOL    HW2 3796   1.457   5.047   0.931  2.3037 -0.3962  1.3366
 1081SOL     OW 3797   1.229   1.121   6.858 -0.3153 -0.1872 -0.2664
 1081SOL    HW1 3798   1.190   1.060   6.796 -1.2917  0.1990 -0.0553
 1081SOL    HW2 3799   1.287   1.068   6.912  3.1820 -0.0895 -3.4837
 1082SOL     OW 3800   6.819   4.244   2.472 -0.8547 -0.2788  0.5287
 1082SOL    HW1 3801   6.880   4.291   2.415  0.0321 -0.4507  1.3230
 1082SOL    HW2 3802   6.746   4.304   2.483 -0.3427  0.3694  0.4357
 1083SOL     OW 3803   6.181   6.158   0.728  0.4559  0.2630  0.3179
 1083SOL    HW1 3804   6.272   6.150   0.758 -0.2000 -3.8412  1.8111
 1083SOL    HW2 3805   6.134   6.194   0.802  0.5399  0.4964  0.2588
 1084SOL     OW 3806   6.230   2.467   3.872 -0.4038  0.5402 -0.0863
 1084SOL    HW1 3807   6.243   2.375   3.893  0.7400  0.5255 -0.8023
 1084SOL    HW2 3808   6.194   2.505   3.953 -0.3371 -0.4124  0.3991
 1085SOL     OW 3809   6.683   5.829   2.069 -0.0406  0.4327 -0.6203
 1085SOL    HW1 3810   6.711   5.844   2.159  2.1527  0.6547 -1.2691
 1085SOL    HW2 3811   6.618   5.759   2.075 -1.0156  1.4082  1.2405
 1086SOL     OW 3812   6.317   3.075   4.233 -0.0402  0.3385  0.3883
 1086SOL    HW1 3813   6.405   3.073   4.269  0.2513  1.0100 -0.2481
 1086SOL    HW2 3814   6.295   3.168   4.230 -0.3438  0.2446 -0.4720
 1087SOL     OW 3815   7.467   5.562   1.861  0.8053  0.1893  0.6981
 1087SOL    HW1 3816   7.412   5.504   1.914 -0.0669 -1.1596 -1.5211
 1087SOL    HW2 3817   7.408   5.633   1.836  0.3080 -0.6944 -0.7841
 1088SOL     OW 3818   7.315   3.565   1.208 -0.2432  0.4697 -0.1410
 1088SOL    HW1 3819   7.281   3.654   1.215 -0.7686  0.2437  0.2528
 1088SOL    HW2 3820   7.314   3.546   1.114 -0.2913  0.8134 -0.2116
 1089SOL     OW 3821   6.267   2.757   3.869  0.1130 -0.0337 -0.1901
 1089SOL    HW1 3822   6.255   2.847   3.900  2.1209 -1.1857  4.9202
 1089SOL    HW2 3823   6.191   2.710   3.903 -1.2534 -0.3324 -3.3645
 1090SOL     OW 3824   4.581   6.482   6.423  0.1607  0.4001 -0.2987
 1090SOL    HW1 3825   4.627   6.459   6.504  1.8954  3.2389 -0.3441
 1090SOL    HW2 3826   4.613   6.418   6.359 -1.0024 -1.6903  1.0796
 1091SOL     OW 3827   0.039   6.360   0.500  0.0043  0.2664 -0.1499
 1091SOL    HW1 3828  -0.000   6.398   0.422  0.2528  0.8020 -0.0170
 1091SOL    HW2 3829   0.000   6.409   0.573 -0.7809 -0.7153  0.1135
 1092SOL     OW 3830   0.040   6.332   4.668  0.0311  0.0662  0.0401
 1092SOL    HW1 3831  -0.033   6.277   4.696 -0.6377  1.4029  1.0329
 1092SOL    HW2 3832   0.046   6.317   4.573 -0.5215 -1.2117  0.1863
 1093SOL     OW 3833   4.197   6.256   4.076 -0.8135  0.0267 -0.2244
 1093SOL    HW1 3834   4.193   6.339   4.124  2.0327  0.6793 -0.9411
 1093SOL    HW2 3835   4.199   6.282   3.984  0.0833 -0.8335 -0.4647
 1094SOL     OW 3836   2.217   4.873   6.147  0.2774  0.7589  0.2185
 1094SOL    HW1 3837   2.154   4.822   6.096  1.4980  1.1435 -1.8068
 1094SOL    HW2 3838   2.258   4.810   6.206 -0.5761  0.1195  0.1517
 1095SOL     OW 3839   4.386   4.883   6.735  0.4541 -0.3104 -0.2258
 1095SOL    HW1 3840   4.323   4.818   6.704 -0.5744  0.7799 -0.5079
 1095SOL    HW2 3841   4.411   4.932   6.656 -0.2477  0.8464  0.2435
 1096SOL     OW 3842   7.710   5.630   1.390 -0.1078  0.4056  0.0669
 1096SOL    HW1 3843   7.705   5.702   1.328 -0.6277  0.0366 -0.3318
 1096SOL    HW2 3844   7.738   5.670   1.472 -0.7614  1.1231 -0.0524
 1097SOL     OW 3845   6.279   0.231   5.226 -0.1344 -0.2599 -0.1770
 1097SOL    HW1 3846   6.310   0.154   5.274 -0.2526 -1.1564 -1.4780
 1097SOL    HW2 3847   6.334   0.233   5.147  0.6058  1.6367  0.3321
 1098SOL     OW 3848   4.709   4.384   2.091 -0.2029 -0.6943 -0.5542
 1098SOL    HW1 3849   4.627   4.365   2.044 -0.1991  0.5872 -1.1264
 1098SOL    HW2 3850   4.719   4.312   2.152 -1.1757 -1.4629 -1.2704
 1099SOL     OW 3851   0.200   0.242   0.726 -0.1249  0.3687  0.1508
 1099SOL    HW1 3852   0.127   0.271   0.671 -0.9673  1.3742  1.7247
 1099SOL    HW2 3853   0.159   0.218   0.809  1.0477 -1.5788  0.2425
 1100SOL     OW 3854   5.466   6.847   0.848 -0.2155  0.4306 -0.3051
 1100SOL    HW1 3855   5.526   6.888   0.911  1.1404 -1.8127 -0.0428
 1100SOL    HW2 3856   5.383   6.843   0.894  0.3442  0.3299  0.7267
 1101SOL     OW 3857   0.538   4.392   7.227  0.0505  0.1379 -0.2944
 1101SOL    HW1 3858   0.599   4.446   7.176  0.9315 -0.5593 -0.0157
 1101SOL    HW2 3859   0.528   4.312   7.176 -1.1091  0.4690 -0.6163
 1102SOL     OW 3860   2.422   3.109   2.486 -0.3751  0.1526  0.1980
 1102SOL    HW1 3861   2.466   3.179   2.439  1.1459  1.3252  3.1250
 1102SOL    HW2 3862   2.358   3.074   2.424  0.0580  2.9222 -1.9625
 1103SOL     OW 3863   5.021   3.502   0.334 -0.0853  0.0018 -0.0180
 1103SOL    HW1 3864   5.002   3.596   0.338  1.9180  0.5663 -1.9763
 1103SOL    HW2 3865   5.083   3.487   0.405 -0.8366  0.0054  0.6564
 1104SOL     OW 3866   2.316   7.335   1.132  0.1928 -0.1305  0.2374
 1104SOL    HW1 3867   2.229   7.354   1.096 -0.1893  2.3625  2.2016
 1104SOL    HW2 3868   2.308   7.248   1.170 -0.9014 -0.6427 -1.0903
 1105SOL     OW 3869   5.433   4.554   2.207  0.0909 -0.7267 -0.4193
 1105SOL    HW1 3870   5.438   4.492   2.279  2.7373  0.4766  0.5705
 1105SOL    HW2 3871   5.441   4.499   2.128 -1.7241 -1.9441  0.1800
 1106SOL     OW 3872   1.655   1.699   1.257  0.0723  0.4850  0.2613
 1106SOL    HW1 3873   1.746   1.696   1.225 -0.4229  2.8922 -1.6060
 1106SOL    HW2 3874   1.664   1.716   1.351  1.5308 -0.5119  0.3439
 1107SOL     OW 3875   5.231   5.572   4.852 -0.3634 -0.1533  0.2528
 1107SOL    HW1 3876   5.140   5.583   4.825 -0.5411 -0.6005  0.6669
 1107SOL    HW2 3877   5.252   5.651   4.901  0.5336  1.5988 -2.6742
 1108SOL     OW 3878   7.263   2.310   6.990 -0.3124 -0.0866 -0.1987
 1108SOL    HW1 3879   7.298   2.331   6.904 -0.8068 -1.6944 -0.8333
 1108SOL    HW2 3880   7.332   2.260   7.032 -0.0492  0.7442  0.3844
 1109SOL     OW 3881   6.229   0.065   3.845  0.1722  0.2528  0.7147
 1109SOL    HW1 3882   6.143   0.030   3.822  0.4093 -1.4669  2.2241
 1109SOL    HW2 3883   6.291   0.007   3.800  0.5489 -0.2270  1.8188
 1110SOL     OW 3884   6.924   7.393   5.727  0.2757  0.6531 -0.1053
 1110SOL    HW1 3885   7.005   7.444   5.737  0.7285  0.0415 -0.5970
 1110SOL    HW2 3886   6.903   7.399   5.634 -0.2604  0.8246  0.0261
 1111SOL     OW 3887   6.248   2.537   2.668  0.0059 -0.1581  0.1629
 1111SOL    HW1 3888   6.211   2.454   2.695  0.0758 -0.2017  0.1260
 1111SOL    HW2 3889   6.258   2.587   2.749  2.8640 -1.3358  0.6763
 1112SOL     OW 3890   5.172   4.069   4.272 -0.0195  0.1708  0.5334
 1112SOL    HW1 3891   5.138   4.033   4.353 -0.4680  1.6182  1.0173
 1112SOL    HW2 3892   5.265   4.085   4.289 -0.5375  2.4653  1.5519
 1113SOL     OW 3893   3.257   1.454   1.068  0.1862  0.4706  0.5649
 1113SOL    HW1 3894   3.258   1.380   1.129  0.7306  0.4111  0.4855
 1113SOL    HW2 3895   3.285   1.529   1.120  0.1152  0.5276  0.5218
 1114SOL     OW 3896   7.507   0.878   4.383 -0.0134  0.1041 -0.0943
 1114SOL    HW1 3897   7.492   0.951   4.443  2.3507 -0.3990  1.2201
 1114SOL    HW2 3898   7.459   0.902   4.304 -0.3061  2.5018  0.7297
 1115SOL     OW 3899   7.486   6.353   3.350 -1.0256  0.4281 -0.3814
 1115SOL    HW1 3900   7.398   6.321   3.331 -0.9620 -0.0789  0.1641
 1115SOL    HW2 3901   7.537   6.275   3.369 -0.1504  0.6028 -1.8595
 1116SOL     OW 3902   2.224   5.817   3.892  0.0688 -0.2174  0.4090
 1116SOL    HW1 3903   2.303   5.819   3.839 -1.2241  3.4316 -1.7273
 1116SOL    HW2 3904   2.162   5.764   3.842  0.0119  0.0498  0.1966
 1117SOL     OW 3905   0.409   4.593   2.129 -0.2907  0.1701 -0.1480
 1117SOL    HW1 3906   0.391   4.559   2.217 -0.1699 -0.4960 -0.3787
 1117SOL    HW2 3907   0.384   4.522   2.070 -1.9693  1.2065 -0.7557
 1118SOL     OW 3908   3.741   1.521   1.598 -0.0769  0.0692  0.2881
 1118SOL    HW1 3909   3.675   1.574   1.642  0.0553 -0.1327  0.7343
 1118SOL    HW2 3910   3.812   1.514   1.662  1.0840  1.6306 -0.7325
 1119SOL     OW 3911   5.787   3.042   5.113 -0.7457 -0.5025 -0.0948
 1119SOL    HW1 3912   5.847   2.968   5.102  0.4024  0.5687 -1.3181
 1119SOL    HW2 3913   5.813   3.105   5.046 -1.7934  0.9569  0.8039
 1120SOL     OW 3914   6.040   0.021   4.796  0.0853 -0.0646  0.0852
 1120SOL    HW1 3915   6.074   0.104   4.762 -0.4338 -0.1508 -0.6638
 1120SOL    HW2 3916   5.949   0.019   4.770 -0.0971 -0.5590  0.7157
 1121SOL     OW 3917   7.311   0.908   0.851 -0.1164 -0.0195 -0.3531
 1121SOL    HW1 3918   7.303   0.814   0.868 -0.6678  0.1506  0.3827
 1121SOL    HW2 3919   7.398   0.919   0.813  0.5202 -0.6473  0.8672
 1122SOL     OW 3920   1.022   6.502   3.736 -0.2564 -0.7190  0.1207
 1122SOL    HW1 3921   1.028   6.431   3.672 -1.6189 -0.0332 -0.8194
 1122SOL    HW2 3922   1.058   6.465   3.816  1.9258 -1.4700 -1.1220
 1123SOL     OW 3923   0.165   5.391   4.489 -0.1244 -0.0925 -0.1540
 1123SOL    HW1 3924   0.196   5.314   4.537 -1.0652  0.5834  1.6379
 1123SOL    HW2 3925   0.073   5.371   4.468 -0.8311  1.0334  1.5917
 1124SOL     OW 3926   4.054   2.090   7.559  0.4940 -0.8886 -0.2023
 1124SOL    HW1 3927   4.059   1.999   7.527 -1.3752 -1.8753  1.9891
 1124SOL    HW2 3928   4.059   2.082   7.655  2.4705  1.5864  0.0143
 1125SOL     OW 3929   1.172   7.089   5.810  0.0257  0.3001  0.1958
 1125SOL    HW1 3930   1.147   7.046   5.892 -2.4752  0.1796 -0.5383
 1125SOL    HW2 3931   1.222   7.023   5.762  0.9059  0.1372  1.3127
 1126SOL     OW 3932   3.252   7.097   3.785 -0.3367 -0.1263 -0.7350
 1126SOL    HW1 3933   3.165   7.121   3.817  0.4159 -0.3369  1.6220
 1126SOL    HW2 3934   3.306   7.093   3.863  1.6043 -0.9113 -2.0509
 1127SOL     OW 3935   3.323   2.968   1.875  0.6376  0.0508 -0.4222
 1127SOL    HW1 3936   3.291   2.962   1.965 -3.7693  1.4250 -1.6496
 1127SOL    HW2 3937   3.353   3.058   1.866 -0.7626  0.4954 -0.7930
 1128SOL     OW 3938   2.080   0.521   2.513 -0.1306 -0.2301 -0.0823
 1128SOL    HW1 3939   2.107   0.612   2.499 -0.2340 -0.0770  0.7044
 1128SOL    HW2 3940   1.997   0.514   2.466 -0.9964  0.5803  1.2628
 1129SOL     OW 3941   4.812   0.726   3.981  0.1639  0.0041  0.8213
 1129SOL    HW1 3942   4.828   0.819   3.962  2.4692 -0.5970 -0.7191
 1129SOL    HW2 3943   4.872   0.706   4.054  0.9712 -0.6128  0.0149
 1130SOL     OW 3944   6.776   3.678   1.581  0.2200  0.4282 -0.0336
 1130SOL    HW1 3945   6.688   3.676   1.544 -0.6145  1.8438  1.7155
 1130SOL    HW2 3946   6.822   3.605   1.539 -1.6498 -0.0828 -1.2912
 1131SOL     OW 3947   6.514   3.842   4.183  0.5613 -0.1242 -0.0531
 1131SOL    HW1 3948   6.464   3.761   4.178  0.7077 -0.3959  2.0285
 1131SOL    HW2 3949   6.450   3.911   4.165 -0.0132 -0.5928  0.1671
 1132SOL     OW 3950   2.034   6.444   6.164  0.0620 -0.0250  0.4290
 1132SOL    HW1 3951   1.940   6.443   6.183 -0.0397  1.4735  0.1245
 1132SOL    HW2 3952   2.064   6.529   6.195  1.2737 -0.3658  0.2556
 1133SOL     OW 3953   2.774   5.939   3.142  0.2171 -0.0497 -0.0161
 1133SOL    HW1 3954   2.815   5.879   3.080 -0.4362 -0.9665  0.4322
 1133SOL    HW2 3955   2.844   5.961   3.204  0.9221  0.9939 -1.1189
 1134SOL     OW 3956   1.399   3.140   4.763  0.2164 -0.3702 -0.3948
 1134SOL    HW1 3957   1.424   3.066   4.819  2.1726 -0.3146 -1.1367
 1134SOL    HW2 3958   1.481   3.186   4.747 -0.4564  0.1548 -2.5446
 1135SOL     OW 3959   0.208   0.940   3.153  0.2746  0.7490 -0.4890
 1135SOL    HW1 3960   0.278   0.931   3.089  1.2267 -0.3713  0.6379
 1135SOL    HW2 3961   0.149   0.866   3.136 -0.4949  1.5318 -1.2597
 1136SOL     OW 3962   7.482   6.422   2.412  0.4323  0.3540  1.0638
 1136SOL    HW1 3963   7.411   6.470   2.370 -0.4615  0.8330  3.0088
 1136SOL    HW2 3964   7.561   6.470   2.386  0.0557  0.0571 -0.7896
 1137SOL     OW 3965   3.859   2.421   0.803  0.3332 -0.0640  0.2444
 1137SOL    HW1 3966   3.936   2.395   0.752 -1.2865 -2.7492 -1.0542
 1137SOL    HW2 3967   3.840   2.346   0.859 -2.2605 -0.2366 -0.7215
 1138SOL     OW 3968   1.377   5.052   5.397 -0.5268  0.2820 -0.3655
 1138SOL    HW1 3969   1.373   4.964   5.435  0.0187  0.1779 -0.5466
 1138SOL    HW2 3970   1.288   5.066   5.363 -0.1554 -0.9692 -2.0098
 1139SOL     OW 3971   1.500   2.076   2.604 -0.0903  0.3834 -0.4839
 1139SOL    HW1 3972   1.504   2.166   2.637  1.3308  0.3878 -0.6335
 1139SOL    HW2 3973   1.579   2.066   2.551  1.2208 -1.7900  1.6876
 1140SOL     OW 3974   4.290   4.526   1.471 -0.0779 -0.6031  0.0165
 1140SOL    HW1 3975   4.355   4.467   1.431  1.1754  0.5957  0.2079
 1140SOL    HW2 3976   4.342   4.594   1.512 -1.4666 -0.0137  0.8593
 1141SOL     OW 3977   1.729   7.127   2.355 -0.2547 -0.2107 -0.4167
 1141SOL    HW1 3978   1.696   7.194   2.414  0.4778 -0.1642 -0.0491
 1141SOL    HW2 3979   1.821   7.150   2.341 -0.4234 -0.1876 -1.6177
 1142SOL     OW 3980   5.962   6.773   6.734  0.1428 -0.0414  0.0200
 1142SOL    HW1 3981   5.894   6.832   6.700 -0.2467 -0.2300  0.4619
 1142SOL    HW2 3982   5.953   6.779   6.829  1.4253  0.7195  0.1138
 1143SOL     OW 3983   5.069   4.897   0.704 -0.1448 -0.2081 -0.0691
 1143SOL    HW1 3984   5.063   4.881   0.610 -0.6865  0.3996 -0.1394
 1143SOL    HW2 3985   4.984   4.872   0.739  0.4514 -1.5961  0.4466
 1144SOL     OW 3986   4.119   4.158   0.321  0.0877 -0.1522 -0.2304
 1144SOL    HW1 3987   4.031   4.122   0.323 -0.0354  0.1827  1.1926
 1144SOL    HW2 3988   4.107   4.252   0.336  0.6156  0.0491 -1.0300
 1145SOL     OW 3989   2.657   4.149   2.129  0.1929 -0.2735 -0.3869
 1145SOL    HW1 3990   2.681   4.166   2.038 -0.8659 -0.8345 -0.7813
 1145SOL    HW2 3991   2.681   4.230   2.175 -1.3200  0.8936 -1.5695
 1146SOL     OW 3992   0.473   2.123   6.881 -0.4541  0.3187 -0.6216
 1146SOL    HW1 3993   0.542   2.168   6.930 -0.2392  0.3510 -0.9565
 1146SOL    HW2 3994   0.497   2.031   6.886 -0.0482  0.3847 -1.2644
 1147SOL     OW 3995   3.147   5.009   3.813  0.9910  0.4982  0.0122
 1147SOL    HW1 3996   3.192   4.960   3.745  0.9896  0.5975 -0.0600
 1147SOL    HW2 3997   3.078   4.950   3.844  1.8752 -0.1113  0.9154
 1148SOL     OW 3998   6.147   2.306   2.789 -0.1381  0.0397 -0.2524
 1148SOL    HW1 3999   6.158   2.295   2.883 -1.5530 -1.4963 -0.2184
 1148SOL    HW2 4000   6.093   2.231   2.762 -1.5187  1.5528 -1.9358
 1149SOL     OW 4001   4.017   1.456   1.136 -0.4514 -0.1918  0.3558
 1149SOL    HW1 4002   4.002   1.495   1.222 -1.2990  0.1608  0.0536
 1149SOL    HW2 4003   4.034   1.531   1.078 -1.9220 -0.2520 -0.1940
 1150SOL     OW 4004   3.509   0.017   0.362 -0.7121 -1.0595 -0.2277
 1150SOL    HW1 4005   3.565  -0.052   0.397  2.6684  1.0137 -1.1008
 1150SOL    HW2 4006   3.511   0.086   0.428  0.6963  0.4242 -1.7536
 1151SOL     OW 4007   3.586   4.081   6.600 -0.2188 -0.2316 -0.7955
 1151SOL    HW1 4008   3.581   4.029   6.520 -1.3424 -2.5747  0.6801
 1151SOL    HW2 4009   3.636   4.026   6.661  1.1919  1.7725 -0.0485
 1152SOL     OW 4010   4.795   5.946   5.993  0.1834 -0.1873  0.2921
 1152SOL    HW1 4011   4.719   5.888   5.990 -0.9654  1.2089  0.7851
 1152SOL    HW2 4012   4.865   5.897   5.950 -0.4069 -2.3345  1.6442
 1153SOL     OW 4013   6.889   3.385   3.950 -0.0664  0.4546 -0.5048
 1153SOL    HW1 4014   6.931   3.415   4.030 -1.4605  1.4213 -0.0827
 1153SOL    HW2 4015   6.835   3.460   3.922  0.4800  0.1999 -2.4243
 1154SOL     OW 4016   6.273   4.376   7.607  0.0857  0.0773 -0.5675
 1154SOL    HW1 4017   6.305   4.437   7.674  0.1880  0.8961 -1.3473
 1154SOL    HW2 4018   6.180   4.365   7.628 -0.1976  1.3810 -1.0642
 1155SOL     OW 4019   1.106   6.683   0.186 -0.1588 -0.7790  0.3265
 1155SOL    HW1 4020   1.051   6.658   0.261 -1.3520  0.0370 -0.2468
 1155SOL    HW2 4021   1.043   6.702   0.117  0.9310 -1.4224 -0.8670
 1156SOL     OW 4022   7.281   6.464   2.116  0.5223 -0.0007  0.0985
 1156SOL    HW1 4023   7.324   6.389   2.076  0.5611 -0.2992  0.6951
 1156SOL    HW2 4024   7.327   6.540   2.079 -0.0079 -0.2213 -1.0869
 1157SOL     OW 4025   4.425   6.772   4.881  0.6086  0.4362 -0.1398
 1157SOL    HW1 4026   4.491   6.813   4.825  0.8489  0.6149  0.2721
 1157SOL    HW2 4027   4.455   6.789   4.970  2.3427 -3.0943  0.1297
 1158SOL     OW 4028   0.614   7.589   3.126 -0.2368  0.2124 -0.0635
 1158SOL    HW1 4029   0.583   7.664   3.074 -0.0646 -0.1110 -0.6408
 1158SOL    HW2 4030   0.542   7.525   3.121 -0.3133  0.2698  0.2888
 1159SOL     OW 4031   5.502   1.773   3.428 -0.0042 -0.4612 -0.7025
 1159SOL    HW1 4032   5.530   1.786   3.518  1.4599  1.8970 -1.3995
 1159SOL    HW2 4033   5.577   1.732   3.385  0.4114  0.9625 -1.4032
 1160SOL     OW 4034   5.098   3.867   2.853 -0.1118 -0.3291  0.1795
 1160SOL    HW1 4035   5.088   3.846   2.946 -1.3813 -1.6214 -0.2030
 1160SOL    HW2 4036   5.038   3.941   2.839  1.1930  0.8753  0.6516
 1161SOL     OW 4037   7.400   3.658   1.462 -0.3018  0.1712  0.0394
 1161SOL    HW1 4038   7.376   3.616   1.379 -0.0444 -1.1519  0.6200
 1161SOL    HW2 4039   7.417   3.586   1.522  0.8005  1.1066  0.8946
 1162SOL     OW 4040   7.559   6.892   7.626 -0.4963  0.5341 -0.2247
 1162SOL    HW1 4041   7.514   6.853   7.551  1.0380 -1.9150  0.0455
 1162SOL    HW2 4042   7.652   6.873   7.611 -0.1980 -0.5016  2.5347
 1163SOL     OW 4043   0.074   6.223   7.551  0.2087  1.1075 -0.3253
 1163SOL    HW1 4044   0.055   6.194   7.462  1.2815  0.8688 -0.4863
 1163SOL    HW2 4045   0.167   6.203   7.564  0.1275  1.3664  0.7594
 1164SOL     OW 4046   1.464   3.055   6.151 -0.3414  0.3743 -0.2042
 1164SOL    HW1 4047   1.389   3.063   6.211  0.5677  0.2061  0.9842
 1164SOL    HW2 4048   1.515   3.135   6.165 -1.0551  1.2303 -2.1387
 1165SOL     OW 4049   7.199   5.024   7.604 -0.0250  0.3948 -0.2771
 1165SOL    HW1 4050   7.118   5.045   7.557 -0.7467 -1.9473 -0.2451
 1165SOL    HW2 4051   7.266   5.022   7.536 -0.2945  0.9006 -0.5597
 1166SOL     OW 4052   7.532   4.204   3.579  0.0776  0.4710 -0.7642
 1166SOL    HW1 4053   7.520   4.286   3.532 -0.9849  0.0357 -1.2794
 1166SOL    HW2 4054   7.514   4.226   3.670 -2.0038  0.4537 -1.1364
 1167SOL     OW 4055   4.424   4.591   2.181 -0.6536 -0.1185  0.2817
 1167SOL    HW1 4056   4.474   4.525   2.230  0.9576  0.0612 -0.9931
 1167SOL    HW2 4057   4.335   4.585   2.215 -0.2977 -2.1638  1.0003
 1168SOL     OW 4058   3.165   1.990   0.441  0.0122  0.4154  0.4164
 1168SOL    HW1 4059   3.096   2.021   0.500 -0.3220  0.3158  0.0816
 1168SOL    HW2 4060   3.246   2.000   0.492 -0.2247  0.7122  0.7436
 1169SOL     OW 4061   0.846   5.561   1.096  0.4278 -0.7798  0.1652
 1169SOL    HW1 4062   0.923   5.505   1.098  0.0479 -1.4310 -1.6897
 1169SOL    HW2 4063   0.782   5.516   1.151 -0.1033 -2.5902 -1.8100
 1170SOL     OW 4064   7.240   0.241   6.067 -0.3774 -0.0107 -0.4337
 1170SOL    HW1 4065   7.260   0.175   6.133 -0.3058  0.4721  0.0392
 1170SOL    HW2 4066   7.278   0.207   5.986  0.1099 -0.3085 -0.0856
 1171SOL     OW 4067   3.184   1.796   5.098 -0.0278  0.4084  0.6795
 1171SOL    HW1 4068   3.153   1.742   5.171 -1.0252 -1.7521 -1.2434
 1171SOL    HW2 4069   3.105   1.831   5.058  0.4466  0.6287 -0.0852
 1172SOL     OW 4070   1.114   6.356   1.817  0.1468 -0.0075 -0.5588
 1172SOL    HW1 4071   1.037   6.411   1.806  1.4310  2.5993  2.1327
 1172SOL    HW2 4072   1.080   6.272   1.849 -1.6102  1.4699  1.7810
 1173SOL     OW 4073   3.255   2.914   3.020 -0.7826  0.5773 -0.0694
 1173SOL    HW1 4074   3.238   2.987   3.080 -0.2229  0.1487  0.6152
 1173SOL    HW2 4075   3.170   2.897   2.979 -0.9026  1.6770 -0.3268
 1174SOL     OW 4076   7.192   3.946   5.425 -0.7457  0.2841 -0.2991
 1174SOL    HW1 4077   7.145   4.029   5.418  1.5504  1.9043  1.6639
 1174SOL    HW2 4078   7.225   3.929   5.336  1.3074  3.2014 -0.2319
 1175SOL     OW 4079   3.589   5.442   1.548  0.1472 -1.0393  0.6623
 1175SOL    HW1 4080   3.546   5.369   1.503 -0.0956 -0.9165  0.6947
 1175SOL    HW2 4081   3.521   5.508   1.558  0.3050 -0.9026  0.8492
 1176SOL     OW 4082   1.932   5.618   4.128 -0.5791  0.2260  0.3612
 1176SOL    HW1 4083   1.923   5.581   4.040 -0.0628  1.2102 -0.1217
 1176SOL    HW2 4084   2.026   5.638   4.135 -0.7304  0.7612  0.8814
 1177SOL     OW 4085   6.839   7.303   1.753 -0.3574 -0.5192 -0.4078
 1177SOL    HW1 4086   6.853   7.210   1.768  0.0640 -0.5162 -0.7748
 1177SOL    HW2 4087   6.758   7.323   1.800 -0.8703 -1.2315 -0.9874
 1178SOL     OW 4088   1.027   2.003   3.103 -0.4863 -0.1333  0.2371
 1178SOL    HW1 4089   0.987   1.938   3.046  1.8426 -1.7108  0.2579
 1178SOL    HW2 4090   1.011   1.971   3.192  0.0969 -0.3303  0.2738
 1179SOL     OW 4091   2.203   6.639   0.712 -0.2708  0.0061  0.4619
 1179SOL    HW1 4092   2.185   6.652   0.619 -1.4058 -1.1361  0.4903
 1179SOL    HW2 4093   2.299   6.635   0.718 -0.0151  3.0747 -0.1890
 1180SOL     OW 4094   1.579   2.121   6.089  0.3557  0.2332  0.0594
 1180SOL    HW1 4095   1.607   2.138   6.180 -1.5046  0.7670  0.5772
 1180SOL    HW2 4096   1.505   2.062   6.098 -1.9974  2.8242 -0.7973
 1181SOL     OW 4097   3.650   0.004   0.123 -0.0926  0.2540  0.7319
 1181SOL    HW1 4098   3.601   0.000   0.205  0.4148  1.3013  1.0965
 1181SOL    HW2 4099   3.691   0.090   0.123 -1.2727  0.8851 -1.3164
 1182SOL     OW 4100   5.114   3.502   2.863 -0.1967  0.1271  0.3398
 1182SOL    HW1 4101   5.133   3.513   2.956  1.4472  0.9264 -0.0543
 1182SOL    HW2 4102   5.193   3.462   2.827 -1.0913 -0.8725 -0.6083
 1183SOL     OW 4103   6.108   5.483   2.510 -0.1082  0.4499  0.0046
 1183SOL    HW1 4104   6.155   5.404   2.485  0.3972  0.7833 -0.1200
 1183SOL    HW2 4105   6.090   5.473   2.604 -0.0169  0.2049 -0.0055
 1184SOL     OW 4106   7.568   3.717   3.916 -1.0271 -0.6061  0.4533
 1184SOL    HW1 4107   7.543   3.735   4.007 -1.1396  1.8606 -0.0196
 1184SOL    HW2 4108   7.624   3.639   3.922 -1.0884 -0.5507  2.6105
 1185SOL     OW 4109   6.917   6.403   3.422  0.2035  0.3277 -0.2628
 1185SOL    HW1 4110   6.916   6.323   3.370 -0.0332  1.0652 -1.4148
 1185SOL    HW2 4111   7.009   6.418   3.442  0.1534 -0.9602  1.1580
 1186SOL     OW 4112   6.685   6.562   0.734 -0.5054 -0.5290 -0.1094
 1186SOL    HW1 4113   6.662   6.550   0.642 -1.6973  1.7115 -0.1743
 1186SOL    HW2 4114   6.735   6.644   0.735 -1.2933 -0.0379  1.3381
 1187SOL     OW 4115   6.655   5.230   1.210  0.3383  0.0287  0.9112
 1187SOL    HW1 4116   6.635   5.303   1.151 -0.7132 -1.1070 -0.1974
 1187SOL    HW2 4117   6.569   5.201   1.242  0.8009 -0.2481  1.9311
 1188SOL     OW 4118   3.493   7.704   0.854  0.1610  0.3859 -0.3411
 1188SOL    HW1 4119   3.522   7.768   0.919 -0.4597  0.1531  0.1733
 1188SOL    HW2 4120   3.550   7.628   0.869  1.7354  1.2229 -1.7652
 1189SOL     OW 4121   4.072   3.840   5.379 -0.4124  0.1255  0.0384
 1189SOL    HW1 4122   3.983   3.806   5.386 -1.4458  2.4909 -0.5542
 1189SOL    HW2 4123   4.076   3.877   5.290  0.9415  0.6540  0.2951
 1190SOL     OW 4124   1.360   4.389   7.141 -0.5602  0.4273  0.4348
 1190SOL    HW1 4125   1.374   4.295   7.134  1.4357  0.6648  0.5279
 1190SOL    HW2 4126   1.423   4.427   7.080 -1.6862  1.7073  0.0135
 1191SOL     OW 4127   4.302   7.173   1.258 -0.1780 -0.3081  0.4449
 1191SOL    HW1 4128   4.302   7.205   1.168  1.5269 -0.0566  0.5061
 1191SOL    HW2 4129   4.273   7.082   1.252  0.9133 -0.6094 -0.4924
 1192SOL     OW 4130   7.423   4.101   5.810 -0.1741 -0.4500  0.0955
 1192SOL    HW1 4131   7.406   4.105   5.904  0.1735  0.0270  0.1446
 1192SOL    HW2 4132   7.340   4.124   5.770  0.1001  1.0799  0.3205
 1193SOL     OW 4133   3.048   2.943   7.268 -0.0252  0.3436 -0.4662
 1193SOL    HW1 4134   3.005   2.943   7.183 -1.0020 -0.5916  0.0152
 1193SOL    HW2 4135   3.127   2.996   7.255 -0.9003  1.4304 -1.5702
 1194SOL     OW 4136   2.710   2.210   2.332 -0.4390 -0.6127 -0.0041
 1194SOL    HW1 4137   2.802   2.207   2.359 -0.4492  1.2470  0.3897
 1194SOL    HW2 4138   2.693   2.303   2.315 -2.0953 -0.9905 -0.6509
 1195SOL     OW 4139   3.183   0.618   1.727 -0.1633 -0.3188 -0.5687
 1195SOL    HW1 4140   3.249   0.638   1.794  0.8032 -0.0233 -1.5814
 1195SOL    HW2 4141   3.233   0.612   1.646 -1.3572 -0.4157 -1.3101
 1196SOL     OW 4142   0.751   1.873   1.717  0.1200 -0.1917  0.6914
 1196SOL    HW1 4143   0.833   1.891   1.763  0.4285 -0.4357  0.2490
 1196SOL    HW2 4144   0.715   1.796   1.762 -0.6832  0.8652  1.9168
 1197SOL     OW 4145   6.087   7.642   5.276 -0.3509 -0.2418 -0.6479
 1197SOL    HW1 4146   6.033   7.645   5.197  0.5627  0.8450 -1.2723
 1197SOL    HW2 4147   6.056   7.716   5.328 -0.1468 -0.2263 -0.5487
 1198SOL     OW 4148   7.096   2.578   4.863 -0.1945 -0.2826 -0.9262
 1198SOL    HW1 4149   7.004   2.602   4.873 -0.3274 -0.6879 -1.1859
 1198SOL    HW2 4150   7.118   2.534   4.945  0.7344  2.8231  0.6541
 1199SOL     OW 4151   5.325   3.245   1.030  0.1614 -0.0450 -0.0550
 1199SOL    HW1 4152   5.260   3.179   1.056  0.7423 -0.3849  0.5791
 1199SOL    HW2 4153   5.344   3.226   0.938 -0.3610 -0.1791 -0.1355
 1200SOL     OW 4154   4.951   5.286   0.630 -0.5598  0.3474 -0.3806
 1200SOL    HW1 4155   4.976   5.377   0.620  1.7488 -0.3738 -2.1178
 1200SOL    HW2 4156   5.029   5.244   0.668 -1.1328 -1.0931 -0.7394
 1201SOL     OW 4157   3.562   3.819   0.494  0.2938 -0.0543  0.0952
 1201SOL    HW1 4158   3.500   3.778   0.433  0.2507  1.1716 -0.7059
 1201SOL    HW2 4159   3.647   3.782   0.469  0.2383  0.2254 -0.5253
 1202SOL     OW 4160   5.797   2.938   5.654 -0.0686 -0.1546 -0.4738
 1202SOL    HW1 4161   5.706   2.909   5.651 -1.0464  2.6091 -0.9195
 1202SOL    HW2 4162   5.810   2.985   5.571  1.1625  1.0129  0.3288
 1203SOL     OW 4163   0.005   0.409   6.799 -0.1635 -0.0924 -0.0877
 1203SOL    HW1 4164  -0.012   0.388   6.707  0.1407 -1.7917  0.2088
 1203SOL    HW2 4165  -0.075   0.452   6.829 -0.6566 -0.4215 -0.8942
 1204SOL     OW 4166   0.142   5.304   1.438 -0.4793 -0.1310  0.3372
 1204SOL    HW1 4167   0.096   5.255   1.506  0.8187 -1.2560  0.4413
 1204SOL    HW2 4168   0.202   5.360   1.487 -1.3477  0.9827  0.1822
 1205SOL     OW 4169   3.369   5.596   1.572 -0.3253  0.0323 -0.1746
 1205SOL    HW1 4170   3.334   5.685   1.569  1.1023  0.5832 -1.9199
 1205SOL    HW2 4171   3.292   5.540   1.579 -1.3078  1.3475 -0.0946
 1206SOL     OW 4172   2.129   7.075   6.333 -0.1879 -0.0943  0.1030
 1206SOL    HW1 4173   2.148   7.039   6.420 -1.2647  0.3485  0.5385
 1206SOL    HW2 4174   2.157   7.006   6.272  1.5526  0.0057  0.7252
 1207SOL     OW 4175   2.759   3.226   6.713 -0.0456 -0.3366 -0.3823
 1207SOL    HW1 4176   2.741   3.193   6.801  1.6378 -0.0922  0.0901
 1207SOL    HW2 4177   2.766   3.148   6.659 -0.3720 -0.5241 -0.1577
 1208SOL     OW 4178   0.758   2.307   2.510  0.1557  0.3944  0.3281
 1208SOL    HW1 4179   0.715   2.356   2.440 -0.0206  0.7885  0.7095
 1208SOL    HW2 4180   0.849   2.337   2.508  0.0943  0.5869  0.4285
 1209SOL     OW 4181   5.029   1.124   2.116  0.3626  0.4330  0.1854
 1209SOL    HW1 4182   5.003   1.047   2.166 -0.9980 -0.3592 -1.6336
 1209SOL    HW2 4183   5.120   1.107   2.091  0.7442  0.4016  1.5227
 1210SOL     OW 4184   3.869   4.380   0.611  0.1654 -0.4522  0.4303
 1210SOL    HW1 4185   3.903   4.303   0.657 -0.7497 -1.6616 -0.8215
 1210SOL    HW2 4186   3.784   4.352   0.578  0.6411  0.4383 -1.6956
 1211SOL     OW 4187   1.338   0.228   4.969  0.3053 -0.5471 -0.1113
 1211SOL    HW1 4188   1.374   0.194   4.887 -0.0318 -0.0562 -0.4667
 1211SOL    HW2 4189   1.349   0.323   4.962  1.0279 -0.5476  0.7736
 1212SOL     OW 4190   5.985   2.592   6.924  0.6296 -0.2815  0.3578
 1212SOL    HW1 4191   5.912   2.533   6.907  0.3912  0.3629 -0.9952
 1212SOL    HW2 4192   6.057   2.559   6.871  0.7027  0.2271  0.1280
 1213SOL     OW 4193   6.512   5.080   1.945  0.3730 -0.3452  0.0477
 1213SOL    HW1 4194   6.502   5.173   1.923  2.1246  0.1905  1.2215
 1213SOL    HW2 4195   6.504   5.034   1.862  1.0570  1.0206 -0.8174
 1214SOL     OW 4196   2.749   3.401   2.648 -0.1765 -0.1122  0.9368
 1214SOL    HW1 4197   2.703   3.317   2.636  1.9273 -1.4620  1.7963
 1214SOL    HW2 4198   2.723   3.430   2.736 -2.7295  1.4293 -0.2021
 1215SOL     OW 4199   2.698   4.915   3.582 -0.1986  0.2532 -0.1437
 1215SOL    HW1 4200   2.747   4.842   3.620  0.2352  1.4396  1.7208
 1215SOL    HW2 4201   2.659   4.960   3.658 -1.4232  1.2866 -1.3264
 1216SOL     OW 4202   1.357   1.722   1.707 -0.2494  0.2006 -0.1924
 1216SOL    HW1 4203   1.425   1.659   1.684  0.9441  1.1577  0.5608
 1216SOL    HW2 4204   1.375   1.798   1.651 -2.2101 -0.4115 -1.7296
 1217SOL     OW 4205   0.218   6.022   4.984  0.0438 -1.0517  0.4846
 1217SOL    HW1 4206   0.129   6.012   5.018  0.0988 -0.3631  0.8608
 1217SOL    HW2 4207   0.226   5.955   4.916 -1.0741 -0.5147 -0.2054
 1218SOL     OW 4208   0.420   0.536   3.367 -0.1362  0.1743  0.3205
 1218SOL    HW1 4209   0.507   0.567   3.344 -0.2425  0.6367  0.5350
 1218SOL    HW2 4210   0.374   0.614   3.398 -0.4345 -0.1768  0.7781
 1219SOL     OW 4211   1.466   7.262   2.295  0.0964  0.0366 -0.6416
 1219SOL    HW1 4212   1.498   7.183   2.339  0.4612 -0.0365 -1.0307
 1219SOL    HW2 4213   1.397   7.294   2.352  0.9046  0.2358  0.2570
 1220SOL     OW 4214   1.826   5.306   6.201 -0.7150 -0.9670 -0.1715
 1220SOL    HW1 4215   1.905   5.341   6.160 -0.8332  0.8962  1.0949
 1220SOL    HW2 4216   1.827   5.212   6.179 -0.0123 -0.3651 -3.0696
 1221SOL     OW 4217   2.450   6.569   6.681  0.1472  0.1745  0.2601
 1221SOL    HW1 4218   2.453   6.649   6.733  0.8506 -0.8779  1.9370
 1221SOL    HW2 4219   2.489   6.593   6.597  1.7470  1.2706  1.2520
 1222SOL     OW 4220   4.537   7.699   7.283 -0.2177  0.0762 -0.1970
 1222SOL    HW1 4221   4.532   7.607   7.311  0.7386  0.0285 -0.1219
 1222SOL    HW2 4222   4.487   7.747   7.349 -1.2101 -0.4402 -0.5531
 1223SOL     OW 4223   4.225   5.430   1.560 -0.3661 -0.2128  0.0029
 1223SOL    HW1 4224   4.140   5.392   1.584 -0.6814  0.3027 -0.2759
 1223SOL    HW2 4225   4.223   5.518   1.597 -0.3498  0.1416 -0.8210
 1224SOL     OW 4226   0.726   3.688   0.027 -0.5218 -0.0111  0.1202
 1224SOL    HW1 4227   0.818   3.682   0.051 -0.8516  0.1942  1.5535
 1224SOL    HW2 4228   0.692   3.599   0.043 -0.4400 -0.2719 -1.0693
 1225SOL     OW 4229   4.950   4.058   0.855  0.4262 -0.4416  0.1414
 1225SOL    HW1 4230   5.028   4.034   0.805 -0.1589 -0.2058 -0.8973
 1225SOL    HW2 4231   4.974   4.142   0.896  0.3186  0.2175 -1.1123
 1226SOL     OW 4232   4.389   0.443   6.546  0.2455  0.3294  0.0645
 1226SOL    HW1 4233   4.360   0.492   6.623  0.8336  0.1951  0.3828
 1226SOL    HW2 4234   4.355   0.355   6.559  0.2183  0.3448  0.0978
 1227SOL     OW 4235   4.211   6.047   5.924  0.2124  0.5093  0.7499
 1227SOL    HW1 4236   4.116   6.048   5.907  0.4179 -1.2849 -0.8104
 1227SOL    HW2 4237   4.223   5.973   5.984  0.7598 -0.1662 -0.1733
 1228SOL     OW 4238   5.690   6.138   3.742  0.2041 -0.1589  0.2804
 1228SOL    HW1 4239   5.782   6.115   3.755  0.1057 -0.2138  0.9108
 1228SOL    HW2 4240   5.650   6.059   3.706  0.5941  0.1647 -0.8901
 1229SOL     OW 4241   4.049   7.431   0.381 -0.3637  0.1554  0.3067
 1229SOL    HW1 4242   4.046   7.336   0.396 -0.5726  0.1113  0.0157
 1229SOL    HW2 4243   3.957   7.458   0.382 -0.5219 -0.0700 -2.1253
 1230SOL     OW 4244   7.133   7.125   0.659 -0.3095  0.3864  0.1232
 1230SOL    HW1 4245   7.092   7.116   0.745  0.1472 -2.3854  0.1580
 1230SOL    HW2 4246   7.159   7.036   0.636  0.7564  1.2452 -2.3302
 1231SOL     OW 4247   6.449   1.850   3.832 -0.3696  0.5678  0.5391
 1231SOL    HW1 4248   6.540   1.822   3.844 -1.0662 -2.8860 -0.9281
 1231SOL    HW2 4249   6.453   1.917   3.764  0.9971 -1.0079 -1.0220
 1232SOL     OW 4250   0.328   0.148   1.527  0.2771 -0.9013 -0.0756
 1232SOL    HW1 4251   0.298   0.225   1.575 -1.0992  0.2338 -2.5887
 1232SOL    HW2 4252   0.265   0.079   1.549  1.1267 -1.1706  1.6533
 1233SOL     OW 4253   7.511   7.358   0.779  0.2427 -0.3730  0.0980
 1233SOL    HW1 4254   7.425   7.399   0.787  0.0800 -0.2458 -1.8574
 1233SOL    HW2 4255   7.534   7.368   0.687  1.5595 -1.9985  0.2043
 1234SOL     OW 4256   7.718   4.002   3.581 -0.2229 -0.2521 -0.3396
 1234SOL    HW1 4257   7.663   4.080   3.589  0.4644  0.1953  0.2069
 1234SOL    HW2 4258   7.747   3.984   3.671 -2.3593 -2.6442 -0.0343
 1235SOL     OW 4259   7.600   1.128   6.736 -0.5225 -0.6653 -0.0430
 1235SOL    HW1 4260   7.530   1.157   6.794 -0.8529  1.5661 -1.4503
 1235SOL    HW2 4261   7.667   1.196   6.743  1.0977 -2.2159  0.4555
 1236SOL     OW 4262   3.495   1.034   4.651  0.2876  0.2052 -0.1133
 1236SOL    HW1 4263   3.534   1.036   4.564  0.2721  0.6437 -0.1118
 1236SOL    HW2 4264   3.569   1.034   4.711  0.3211 -0.9804 -0.1270
 1237SOL     OW 4265   4.000   5.511   3.832 -0.0572  0.3158  0.3011
 1237SOL    HW1 4266   3.914   5.509   3.791 -0.3699 -2.1855  0.9226
 1237SOL    HW2 4267   3.994   5.581   3.898 -1.7689 -0.1191  0.6550
 1238SOL     OW 4268   3.074   5.002   1.228 -0.1482 -0.0155 -0.0724
 1238SOL    HW1 4269   2.986   4.987   1.193  0.1846  0.0051 -0.9567
 1238SOL    HW2 4270   3.123   4.923   1.202  0.3973  0.4964 -0.6453
 1239SOL     OW 4271   5.536   7.084   4.136 -0.2961 -0.3013  0.1532
 1239SOL    HW1 4272   5.454   7.076   4.086  0.7507 -1.5916 -1.4727
 1239SOL    HW2 4273   5.584   7.004   4.116  1.3404  0.3898  1.1228
 1240SOL     OW 4274   0.862   0.684   2.240  0.4005  0.0475  0.1973
 1240SOL    HW1 4275   0.836   0.673   2.331 -2.2177  3.3652  0.0469
 1240SOL    HW2 4276   0.919   0.761   2.240  1.0834 -0.4266 -0.9071
 1241SOL     OW 4277   3.473   2.868   6.931  0.3517  0.7498 -0.1782
 1241SOL    HW1 4278   3.418   2.922   6.987 -1.3000 -0.5892 -0.4270
 1241SOL    HW2 4279   3.425   2.861   6.849 -0.0068 -1.8125  0.1570
 1242SOL     OW 4280   3.060   6.205   1.131  0.0711  0.1843  0.2763
 1242SOL    HW1 4281   3.081   6.281   1.185  1.3351 -1.3140  2.0679
 1242SOL    HW2 4282   2.978   6.171   1.168 -0.0219  0.1774  0.0658
 1243SOL     OW 4283   3.844   3.611   5.814 -0.0535 -0.3273  0.4064
 1243SOL    HW1 4284   3.773   3.563   5.855  0.3977 -0.6992  0.7521
 1243SOL    HW2 4285   3.916   3.606   5.876  0.0628  0.6268  0.3597
 1244SOL     OW 4286   4.950   2.659   5.481  0.4225 -0.0973  0.1073
 1244SOL    HW1 4287   4.941   2.747   5.517  0.4306  0.3375 -0.8977
 1244SOL    HW2 4288   4.860   2.625   5.479  0.1514  0.6160 -1.1978
 1245SOL     OW 4289   2.665   0.564   6.928  0.0258  0.1056 -0.1651
 1245SOL    HW1 4290   2.635   0.599   6.844  1.3797  1.3334 -0.1722
 1245SOL    HW2 4291   2.710   0.483   6.906 -2.8505 -1.6202 -0.1866
 1246SOL     OW 4292   3.295   1.718   1.176 -1.0760 -0.7647 -0.2913
 1246SOL    HW1 4293   3.205   1.746   1.192 -1.1561 -2.2428  2.3789
 1246SOL    HW2 4294   3.337   1.793   1.134 -2.6101  1.3251  1.7045
 1247SOL     OW 4295   4.718   4.523   0.046  0.5202  0.4545 -0.2014
 1247SOL    HW1 4296   4.731   4.602   0.099  0.0046  0.4700 -0.0983
 1247SOL    HW2 4297   4.805   4.483   0.042  0.4456  0.0960  1.2047
 1248SOL     OW 4298   2.689   2.195   3.639  0.8307  0.2358 -0.0233
 1248SOL    HW1 4299   2.679   2.174   3.732 -1.6754 -0.8234 -0.4528
 1248SOL    HW2 4300   2.631   2.134   3.594  0.3543  2.0904 -2.1079
 1249SOL     OW 4301   7.521   2.172   6.820  0.5075 -0.3056  0.0535
 1249SOL    HW1 4302   7.520   2.193   6.914  1.9774 -0.8625  0.2176
 1249SOL    HW2 4303   7.481   2.248   6.779  0.5196  0.2818  1.0768
 1250SOL     OW 4304   4.937   1.360   7.222  0.0572  0.1060  0.0168
 1250SOL    HW1 4305   4.913   1.277   7.180  2.4833 -0.8529  0.3547
 1250SOL    HW2 4306   4.906   1.427   7.161 -0.0985 -1.1212 -1.3108
 1251SOL     OW 4307   7.688   1.609   2.923  0.1479  0.1376 -0.2121
 1251SOL    HW1 4308   7.639   1.634   2.844 -1.7732 -0.8107  0.6092
 1251SOL    HW2 4309   7.638   1.536   2.960  1.5916 -0.1322  1.3297
 1252SOL     OW 4310   6.983   4.630   4.267 -0.2478 -0.5760  0.1523
 1252SOL    HW1 4311   6.931   4.698   4.225  1.1833  0.1967 -0.4115
 1252SOL    HW2 4312   6.998   4.662   4.356 -3.2908 -2.2185  1.4190
 1253SOL     OW 4313   2.271   2.587   1.109 -0.1628  0.1093  0.3461
 1253SOL    HW1 4314   2.266   2.638   1.190  0.9547 -0.1258  0.5710
 1253SOL    HW2 4315   2.266   2.496   1.138  0.4030  0.0196  0.1658
 1254SOL     OW 4316   7.515   0.800   6.654 -0.1056 -0.1488  0.4148
 1254SOL    HW1 4317   7.590   0.801   6.713  0.7123 -1.5983 -0.5513
 1254SOL    HW2 4318   7.545   0.848   6.577  0.4709 -2.1388 -0.6636
 1255SOL     OW 4319   3.406   1.231   2.111  0.1255  0.0441  0.0580
 1255SOL    HW1 4320   3.344   1.161   2.094 -1.0543  0.8448  0.8676
 1255SOL    HW2 4321   3.487   1.186   2.135 -0.9716 -1.0938  1.9054
 1256SOL     OW 4322   0.428   2.273   2.827  0.7759  0.4387  0.0529
 1256SOL    HW1 4323   0.523   2.288   2.828  0.8223  0.8029  3.7357
 1256SOL    HW2 4324   0.400   2.294   2.916 -2.7067 -0.2502 -0.7562
 1257SOL     OW 4325   1.323   5.481   6.188  0.0013 -0.8677 -0.1028
 1257SOL    HW1 4326   1.314   5.522   6.274 -0.9930  0.8547 -0.9787
 1257SOL    HW2 4327   1.352   5.551   6.130 -0.5976 -1.6792 -1.4364
 1258SOL     OW 4328   3.452   4.619   1.037  0.1544  0.2337 -0.3724
 1258SOL    HW1 4329   3.467   4.528   1.063  3.0881  0.2869 -1.5297
 1258SOL    HW2 4330   3.437   4.614   0.943 -0.7947  0.8799 -0.2627
 1259SOL     OW 4331   5.324   4.469   2.652 -0.3878  0.3956  0.2778
 1259SOL    HW1 4332   5.254   4.464   2.587  1.4909 -0.6089 -1.7755
 1259SOL    HW2 4333   5.303   4.400   2.715 -1.5004  0.4909  0.0454
 1260SOL     OW 4334   4.548   4.130   5.737 -0.0474 -0.0133  0.3169
 1260SOL    HW1 4335   4.461   4.092   5.724  0.0993 -0.2629  0.0559
 1260SOL    HW2 4336   4.546   4.212   5.687  0.4264 -0.8452 -1.1180
 1261SOL     OW 4337   2.882   6.370   2.585 -0.2147  1.0297  0.1969
 1261SOL    HW1 4338   2.844   6.290   2.550  0.2882  0.4174  1.0089
 1261SOL    HW2 4339   2.974   6.366   2.559  0.2703  0.3608  1.8491
 1262SOL     OW 4340   3.067   5.844   0.069 -0.1289 -0.0826  0.0054
 1262SOL    HW1 4341   3.103   5.931   0.088 -3.8482  1.5388  0.4423
 1262SOL    HW2 4342   3.045   5.848  -0.025  1.3781 -1.3319 -0.4461
 1263SOL     OW 4343   1.631   1.671   3.062  0.3837 -0.6112 -0.2095
 1263SOL    HW1 4344   1.555   1.651   3.117  1.1989 -1.8234  0.5333
 1263SOL    HW2 4345   1.596   1.727   2.992 -0.8841  0.1236  0.9490
 1264SOL     OW 4346   4.576   3.354   1.228  0.6904 -0.1190  0.4287
 1264SOL    HW1 4347   4.579   3.372   1.134  0.4359 -1.6772  0.0873
 1264SOL    HW2 4348   4.664   3.374   1.259  0.7530  0.4939 -0.1284
 1265SOL     OW 4349   2.331   6.420   4.488 -0.1213 -0.0204 -0.3481
 1265SOL    HW1 4350   2.248   6.372   4.491 -0.6149  0.8208 -0.2232
 1265SOL    HW2 4351   2.357   6.417   4.396 -0.6051  0.2214 -0.4985
 1266SOL     OW 4352   4.782   7.619   4.102  0.6077 -0.4250  0.1411
 1266SOL    HW1 4353   4.823   7.684   4.044 -0.4131  0.7527  0.6893
 1266SOL    HW2 4354   4.823   7.633   4.187  1.5557 -1.6343 -0.0985
 1267SOL     OW 4355   0.738   5.546   3.837  0.6169 -0.0221  0.0314
 1267SOL    HW1 4356   0.761   5.456   3.857  0.1454  0.0529  0.9902
 1267SOL    HW2 4357   0.788   5.568   3.758  1.8993 -0.6270  0.6610
 1268SOL     OW 4358   7.227   1.660   2.567 -0.1205 -0.3499  0.1532
 1268SOL    HW1 4359   7.216   1.749   2.599 -1.1025  0.2585 -1.7169
 1268SOL    HW2 4360   7.199   1.605   2.640  1.0668  0.8146  1.5503
 1269SOL     OW 4361   1.179   6.899   7.224  0.4390  0.3198 -0.1958
 1269SOL    HW1 4362   1.204   6.864   7.309 -1.2179  0.0247  0.2041
 1269SOL    HW2 4363   1.154   6.989   7.242  0.1830  0.2874 -0.3875
 1270SOL     OW 4364   1.544   7.414   3.722 -0.3121  0.3571  0.2463
 1270SOL    HW1 4365   1.468   7.430   3.777 -1.9623 -1.7124 -1.2510
 1270SOL    HW2 4366   1.606   7.367   3.778 -1.5353 -0.8140  0.6784
 1271SOL     OW 4367   6.636   5.560   3.480 -0.4803 -0.0247 -0.4086
 1271SOL    HW1 4368   6.689   5.554   3.560  1.4239 -0.8837 -1.6700
 1271SOL    HW2 4369   6.682   5.625   3.426 -0.7558 -0.7151 -1.4993
 1272SOL     OW 4370   7.385   5.458   6.654 -0.1723 -0.6131  0.0706
 1272SOL    HW1 4371   7.426   5.401   6.589  0.7880  0.5037 -0.3375
 1272SOL    HW2 4372   7.450   5.465   6.725 -0.1694  0.1591  0.0013
 1273SOL     OW 4373   1.541   4.594   4.511 -0.3961 -0.0036 -0.0203
 1273SOL    HW1 4374   1.500   4.659   4.454 -1.1431 -0.9514 -0.5876
 1273SOL    HW2 4375   1.470   4.532   4.531  0.7497 -1.7369 -1.0954
 1274SOL     OW 4376   1.349   0.408   7.153  0.6573 -0.7287  0.0114
 1274SOL    HW1 4377   1.342   0.500   7.180 -0.6599 -0.3993 -1.3302
 1274SOL    HW2 4378   1.320   0.359   7.231 -1.8355  0.1565 -0.2492
 1275SOL     OW 4379   6.159   3.298   2.635 -0.4931 -0.4798  0.2964
 1275SOL    HW1 4380   6.220   3.275   2.564  0.3090 -0.2311  0.8920
 1275SOL    HW2 4381   6.082   3.333   2.590  0.0281 -0.2643 -0.4466
 1276SOL     OW 4382   0.784   6.875   1.489 -0.1030 -0.2562  0.3362
 1276SOL    HW1 4383   0.785   6.818   1.412  0.1190 -0.4170  0.4544
 1276SOL    HW2 4384   0.785   6.964   1.454  0.3694 -0.3313  0.1590
 1277SOL     OW 4385   6.566   0.242   0.736  0.6151 -0.7157  0.0057
 1277SOL    HW1 4386   6.601   0.331   0.724  2.0591 -1.2916 -0.1920
 1277SOL    HW2 4387   6.637   0.184   0.709 -0.1914 -1.9523  0.4577
 1278SOL     OW 4388   5.708   6.676   2.165  0.3825  0.0751 -0.1240
 1278SOL    HW1 4389   5.756   6.643   2.241  1.8137  0.8712 -0.6485
 1278SOL    HW2 4390   5.701   6.770   2.180  1.0233  0.2961 -1.1487
 1279SOL     OW 4391   4.380   0.724   2.418 -0.2956  0.1042 -0.1748
 1279SOL    HW1 4392   4.451   0.775   2.455 -0.4556  0.7583 -0.7496
 1279SOL    HW2 4393   4.316   0.717   2.489 -0.7564  1.6402 -0.3965
 1280SOL     OW 4394   2.651   1.564   3.233  0.6739 -0.0900 -0.5812
 1280SOL    HW1 4395   2.695   1.487   3.271 -0.4204 -0.1561  0.6156
 1280SOL    HW2 4396   2.560   1.538   3.224  0.4055  0.8661 -0.7319
 1281SOL     OW 4397   5.265   0.331   5.668  0.3678  0.2790  0.3138
 1281SOL    HW1 4398   5.349   0.370   5.645 -0.5034  1.7250 -0.5578
 1281SOL    HW2 4399   5.268   0.243   5.629  0.5143  1.2192 -1.9907
 1282SOL     OW 4400   3.154   4.465   5.342 -0.2260  0.4560  0.2889
 1282SOL    HW1 4401   3.238   4.509   5.350 -0.1666  0.3899  0.0422
 1282SOL    HW2 4402   3.092   4.535   5.321 -0.4411  0.6818  1.5872
 1283SOL     OW 4403   2.081   0.216   4.084 -0.0409 -0.5656  0.6111
 1283SOL    HW1 4404   2.108   0.209   4.175  0.4631 -1.0671  0.4331
 1283SOL    HW2 4405   2.129   0.145   4.039  1.8089  1.2694 -0.5055
 1284SOL     OW 4406   4.432   6.291   6.917  0.2561  0.2154 -0.1917
 1284SOL    HW1 4407   4.365   6.266   6.980 -0.1349  1.0813 -0.2430
 1284SOL    HW2 4408   4.505   6.323   6.971 -0.3105  1.5228 -0.1693
 1285SOL     OW 4409   6.546   6.214   5.617  0.0405 -0.4070  0.5301
 1285SOL    HW1 4410   6.629   6.184   5.580 -0.6129 -0.0165 -1.3743
 1285SOL    HW2 4411   6.490   6.136   5.615 -0.4541 -0.0398 -0.7601
 1286SOL     OW 4412   7.715   5.727   7.558  0.6420 -0.3418 -0.1828
 1286SOL    HW1 4413   7.648   5.725   7.626  1.6793  0.8332  0.9305
 1286SOL    HW2 4414   7.783   5.667   7.590  1.1692  0.2723 -0.1445
 1287SOL     OW 4415   7.290   3.215   2.277 -0.0613 -0.1853  0.5093
 1287SOL    HW1 4416   7.206   3.243   2.313  0.9847  1.2512  1.9234
 1287SOL    HW2 4417   7.313   3.136   2.326  0.7213  1.0165  2.1541
 1288SOL     OW 4418   6.280   1.338   5.910 -0.1657  0.1979  0.0037
 1288SOL    HW1 4419   6.189   1.367   5.909 -0.0882  0.4369 -0.4237
 1288SOL    HW2 4420   6.328   1.409   5.952 -0.2995 -0.3335  1.1014
 1289SOL     OW 4421   5.490   7.663   5.392  0.3381 -0.1331 -0.1032
 1289SOL    HW1 4422   5.543   7.705   5.324 -0.3367 -1.2936 -1.3732
 1289SOL    HW2 4423   5.522   7.573   5.395 -0.6088 -0.4690  0.1000
 1290SOL     OW 4424   7.290   1.295   7.347  0.2495 -0.5576 -0.1723
 1290SOL    HW1 4425   7.319   1.217   7.396  1.6232  1.6023  2.7329
 1290SOL    HW2 4426   7.371   1.338   7.321 -0.4823  0.4814 -0.7770
 1291SOL     OW 4427   3.504   6.409   6.024  0.0679  0.3044 -0.0893
 1291SOL    HW1 4428   3.427   6.425   6.078  0.6028  0.9894  0.4772
 1291SOL    HW2 4429   3.572   6.383   6.085  0.6864  1.1077 -0.4220
 1292SOL     OW 4430   0.366   2.947   3.805 -0.3797  0.1620 -0.7281
 1292SOL    HW1 4431   0.412   2.863   3.802  1.2770  1.0353 -0.7815
 1292SOL    HW2 4432   0.372   2.975   3.896 -0.2922  0.5476 -0.8481
 1293SOL     OW 4433   6.195   0.629   6.948 -0.4314 -0.4855 -0.1053
 1293SOL    HW1 4434   6.250   0.696   6.909  0.4030 -0.7324  0.6185
 1293SOL    HW2 4435   6.210   0.551   6.895 -1.8160  0.0003 -1.2850
 1294SOL     OW 4436   6.583   3.482   1.119  0.0176 -0.3912 -0.4449
 1294SOL    HW1 4437   6.492   3.513   1.119  0.3916  0.7771 -1.9857
 1294SOL    HW2 4438   6.598   3.452   1.029  0.7935 -1.7367  0.1085
 1295SOL     OW 4439   5.619   3.939   7.342 -0.2996 -0.1783  0.2349
 1295SOL    HW1 4440   5.641   3.982   7.259  0.3804 -0.7400  0.1173
 1295SOL    HW2 4441   5.695   3.885   7.362 -0.8155 -0.7138  0.7871
 1296SOL     OW 4442   5.138   4.379   4.373 -0.6240  0.0990  0.1779
 1296SOL    HW1 4443   5.142   4.288   4.400 -0.1885  0.3875  1.0954
 1296SOL    HW2 4444   5.226   4.413   4.386 -0.4676  0.3363 -1.3259
 1297SOL     OW 4445   2.002   1.633   6.878 -0.2843 -0.2209 -0.4042
 1297SOL    HW1 4446   2.084   1.632   6.929  0.1797 -0.2056 -1.1359
 1297SOL    HW2 4447   1.988   1.726   6.858 -0.0744 -0.2968 -0.9148
 1298SOL     OW 4448   1.716   6.982   6.197 -0.5592  0.2595 -0.2036
 1298SOL    HW1 4449   1.643   7.017   6.145  0.9892  1.3033 -1.7982
 1298SOL    HW2 4450   1.788   6.974   6.134  0.5610 -1.2652  1.2003
 1299SOL     OW 4451   4.217   6.498   5.034  0.0182  0.1936  0.1441
 1299SOL    HW1 4452   4.140   6.466   5.080  0.2179 -0.2479  0.1812
 1299SOL    HW2 4453   4.291   6.463   5.084  0.2569  1.3838  0.6546
 1300SOL     OW 4454   1.540   5.134   0.086 -0.0376  0.3967 -0.0576
 1300SOL    HW1 4455   1.572   5.219   0.118 -1.1087  0.8034 -0.0058
 1300SOL    HW2 4456   1.585   5.069   0.140  0.5181  0.9458  0.1541
 1301SOL     OW 4457   6.093   1.228   2.412  0.6167  0.5627  0.0530
 1301SOL    HW1 4458   6.037   1.286   2.360 -0.2952  0.4743  0.8935
 1301SOL    HW2 4459   6.072   1.140   2.381  0.1232  0.5147  0.5169
 1302SOL     OW 4460   0.320   1.040   6.636 -0.1001 -0.0089  0.0609
 1302SOL    HW1 4461   0.328   1.057   6.730  1.6981  1.9093 -0.3542
 1302SOL    HW2 4462   0.333   1.126   6.595 -0.9394 -0.7907 -1.9416
 1303SOL     OW 4463   6.544   7.639   5.101 -0.4932  0.4307 -0.1813
 1303SOL    HW1 4464   6.585   7.558   5.132 -0.5284  0.5705  0.2462
 1303SOL    HW2 4465   6.501   7.675   5.179 -1.4544  0.2715 -0.6211
 1304SOL     OW 4466   1.987   1.383   1.082 -0.1567  0.2323 -0.2850
 1304SOL    HW1 4467   1.927   1.314   1.108 -0.1852  0.9025  1.6455
 1304SOL    HW2 4468   2.072   1.355   1.118 -0.0970  1.0114  0.2019
 1305SOL     OW 4469   7.019   5.119   3.640 -0.6151  0.2734 -0.2460
 1305SOL    HW1 4470   6.999   5.042   3.693 -0.5413  0.9320  0.7544
 1305SOL    HW2 4471   6.938   5.170   3.642  0.3170  1.8042  1.8496
 1306SOL     OW 4472   0.995   1.890   1.921  0.4198 -0.4634  0.1107
 1306SOL    HW1 4473   1.051   1.856   1.851  2.6017  0.3257  1.3885
 1306SOL    HW2 4474   1.022   1.982   1.931 -0.6312 -0.2519  1.2399
 1307SOL     OW 4475   7.725   0.414   6.047 -0.2808 -0.8063  0.0113
 1307SOL    HW1 4476   7.759   0.325   6.049 -0.2852 -0.8011  1.0319
 1307SOL    HW2 4477   7.654   0.412   5.983  1.0331 -1.0339 -1.4694
 1308SOL     OW 4478   3.401   4.033   4.864  0.0049 -0.5408 -0.3428
 1308SOL    HW1 4479   3.459   4.074   4.800  0.3650  1.4437  1.1297
 1308SOL    HW2 4480   3.391   3.943   4.834 -0.8286  0.5508 -3.8037
 1309SOL     OW 4481   3.680   1.640   3.680  0.0724  0.6416 -0.2771
 1309SOL    HW1 4482   3.665   1.728   3.714  0.0369  0.5512 -0.0618
 1309SOL    HW2 4483   3.709   1.654   3.590 -1.5766  0.8154 -0.8096
 1310SOL     OW 4484   0.298   7.049   2.937 -0.0488 -0.0899  0.0688
 1310SOL    HW1 4485   0.203   7.038   2.944 -0.1179  0.1670 -0.3678
 1310SOL    HW2 4486   0.311   7.080   2.847  0.1112  3.1122  1.0517
 1311SOL     OW 4487   5.436   1.308   2.183  0.1866 -0.1457  0.0473
 1311SOL    HW1 4488   5.367   1.298   2.118  1.7168 -2.5918 -1.3642
 1311SOL    HW2 4489   5.441   1.223   2.227  2.3945 -0.1699 -0.1003
 1312SOL     OW 4490   4.774   6.900   5.683  0.1407  0.3469 -0.5088
 1312SOL    HW1 4491   4.868   6.885   5.693  0.4342  0.7643 -2.3296
 1312SOL    HW2 4492   4.756   6.882   5.591 -1.3886  1.2093 -0.4118
 1313SOL     OW 4493   6.854   7.284   5.470 -0.3762  0.4331 -0.5979
 1313SOL    HW1 4494   6.785   7.245   5.524 -0.9192  0.6144 -1.1484
 1313SOL    HW2 4495   6.888   7.211   5.419 -0.7612  0.5084 -0.9617
 1314SOL     OW 4496   1.222   5.843   4.226  0.9847 -0.3233  0.5066
 1314SOL    HW1 4497   1.178   5.913   4.179  0.2270 -0.7378  0.5950
 1314SOL    HW2 4498   1.201   5.764   4.177  1.9495 -0.4859  0.3253
 1315SOL     OW 4499   5.099   0.287   6.900 -0.2063 -0.7699  0.4412
 1315SOL    HW1 4500   5.003   0.290   6.900 -0.2221  0.1865 -1.6297
 1315SOL    HW2 4501   5.121   0.220   6.836  0.4916 -0.4806  0.3661
 1316SOL     OW 4502   5.093   3.781   4.168 -0.4081  0.4736  0.5791
 1316SOL    HW1 4503   5.072   3.772   4.075  0.2766 -0.3258  0.4889
 1316SOL    HW2 4504   5.050   3.862   4.194 -0.9128  0.5261 -0.3469
 1317SOL     OW 4505   7.459   2.484   5.041 -0.8383  0.0960  0.3052
 1317SOL    HW1 4506   7.384   2.440   5.003 -0.8849 -1.2038  1.7885
 1317SOL    HW2 4507   7.423   2.561   5.085 -1.4849 -0.9884  1.7594
 1318SOL     OW 4508   5.196   6.502   0.254 -0.4319 -0.2066 -0.1543
 1318SOL    HW1 4509   5.101   6.489   0.257 -0.4762  0.2492  1.8468
 1318SOL    HW2 4510   5.220   6.524   0.344  1.5577 -0.1243 -0.6594
 1319SOL     OW 4511   7.602   6.166   1.214  0.5452  0.7092 -0.1265
 1319SOL    HW1 4512   7.526   6.179   1.158 -0.5870  1.5641  1.5145
 1319SOL    HW2 4513   7.613   6.249   1.260 -0.5536 -0.8024  3.2067
 1320SOL     OW 4514   5.328   1.937   0.738 -0.3227 -0.4073 -0.2592
 1320SOL    HW1 4515   5.389   1.946   0.665 -1.1330  1.9103 -0.7214
 1320SOL    HW2 4516   5.314   1.843   0.746  3.0444 -1.0535 -0.3088
 1321SOL     OW 4517   1.129   1.438   5.236 -0.2688  0.2106  0.1580
 1321SOL    HW1 4518   1.199   1.494   5.268 -0.2202  1.8247 -2.5015
 1321SOL    HW2 4519   1.050   1.492   5.240 -1.0673 -0.9804  1.4169
 1322SOL     OW 4520   0.742   7.140   2.601  0.1208  0.4440  0.2799
 1322SOL    HW1 4521   0.804   7.079   2.642 -0.6540 -0.0688  0.7101
 1322SOL    HW2 4522   0.666   7.139   2.659  0.4089  2.4834  0.7588
 1323SOL     OW 4523   7.053   0.646   2.001 -0.1360 -0.0996  0.0333
 1323SOL    HW1 4524   6.989   0.638   2.071  0.0159 -0.8209  0.0960
 1323SOL    HW2 4525   7.001   0.645   1.920 -0.1711 -1.3396  0.0547
 1324SOL     OW 4526   1.436   4.000   3.610 -0.6317 -0.3804 -0.3476
 1324SOL    HW1 4527   1.483   3.963   3.685  0.3080  0.1831 -0.6433
 1324SOL    HW2 4528   1.418   3.924   3.554  0.4402 -0.5298 -0.5030
 1325SOL     OW 4529   2.003   4.188   1.391 -0.5334 -0.1844  0.1212
 1325SOL    HW1 4530   2.056   4.255   1.434 -0.5980 -0.6789  0.9996
 1325SOL    HW2 4531   2.065   4.136   1.340  0.1447 -1.7140  2.3462
 1326SOL     OW 4532   7.025   6.869   6.294  0.0826 -0.3182  0.1368
 1326SOL    HW1 4533   7.063   6.916   6.369 -0.9828  0.0631  0.4550
 1326SOL    HW2 4534   6.985   6.791   6.333 -0.7854  0.0624  0.0211
 1327SOL     OW 4535   1.764   0.755   0.373 -0.2630  0.5232  0.0796
 1327SOL    HW1 4536   1.721   0.818   0.315 -0.5804 -0.4027 -0.7058
 1327SOL    HW2 4537   1.694   0.720   0.428 -0.9012 -2.0567 -2.1669
 1328SOL     OW 4538   4.795   2.012   1.359  0.0914  0.3041  0.4625
 1328SOL    HW1 4539   4.829   2.079   1.300  0.3949  0.8592  1.2459
 1328SOL    HW2 4540   4.734   2.059   1.416 -1.5708 -0.5471 -0.5135
 1329SOL     OW 4541   1.857   5.688   6.224 -1.1161 -0.0347  0.0805
 1329SOL    HW1 4542   1.812   5.641   6.154 -0.2674 -1.8383  0.7037
 1329SOL    HW2 4543   1.790   5.700   6.291 -1.6534  0.7702 -0.5734
 1330SOL     OW 4544   7.615   3.714   1.955  0.5600  0.5753 -0.1040
 1330SOL    HW1 4545   7.703   3.749   1.968  0.6838  0.3170 -0.2310
 1330SOL    HW2 4546   7.594   3.736   1.864  0.9270 -0.2973 -0.4125
 1331SOL     OW 4547   0.477   1.084   5.512  0.6072 -0.1630  0.5349
 1331SOL    HW1 4548   0.440   1.082   5.600  0.4030  0.9722  0.4928
 1331SOL    HW2 4549   0.404   1.108   5.455  1.1289  0.9835  0.3061
 1332SOL     OW 4550   2.516   1.705   0.642 -0.9819  0.0562  0.3488
 1332SOL    HW1 4551   2.551   1.627   0.598  0.3046  1.0673 -0.5003
 1332SOL    HW2 4552   2.469   1.671   0.718  2.7020 -1.4307  2.1893
 1333SOL     OW 4553   4.993   5.681   4.817 -0.1122  0.3282  0.0674
 1333SOL    HW1 4554   4.963   5.687   4.908 -0.4376  1.3956 -0.0946
 1333SOL    HW2 4555   4.969   5.765   4.778  0.1389 -0.0638 -0.9769
 1334SOL     OW 4556   5.555   2.504   7.131 -0.2870 -0.0887 -0.2429
 1334SOL    HW1 4557   5.619   2.553   7.079 -1.9221  1.2314 -1.1154
 1334SOL    HW2 4558   5.472   2.549   7.116 -1.1588 -0.7138  2.1842
 1335SOL     OW 4559   4.030   7.063   2.861  0.0120 -0.4044 -0.1394
 1335SOL    HW1 4560   4.067   6.976   2.878 -0.0469 -0.7175 -1.4659
 1335SOL    HW2 4561   4.018   7.102   2.947 -1.4983 -2.3545  0.5981
 1336SOL     OW 4562   6.791   6.265   1.453 -0.3552 -0.1107  0.3901
 1336SOL    HW1 4563   6.776   6.310   1.371 -2.1351 -0.9054  0.2169
 1336SOL    HW2 4564   6.840   6.186   1.429  1.8145  1.1257  0.5531
 1337SOL     OW 4565   4.234   4.732   7.001 -0.6781 -0.6206 -0.7582
 1337SOL    HW1 4566   4.148   4.774   7.008 -1.0796 -1.4140 -0.7231
 1337SOL    HW2 4567   4.297   4.803   7.009 -1.3451  0.0552 -1.3827
 1338SOL     OW 4568   6.974   7.318   0.583 -0.1192  0.0497  0.4917
 1338SOL    HW1 4569   6.906   7.270   0.536 -0.5874  1.6653 -0.5660
 1338SOL    HW2 4570   7.042   7.253   0.599 -0.8579 -1.0489 -0.5991
 1339SOL     OW 4571   7.737   5.168   4.124  0.6037  0.1173 -0.1078
 1339SOL    HW1 4572   7.824   5.148   4.161  1.1365 -0.4830 -1.6044
 1339SOL    HW2 4573   7.697   5.082   4.112 -0.6374  0.4307  1.5021
 1340SOL     OW 4574   3.013   5.247   6.462 -0.1444 -0.2390  0.7413
 1340SOL    HW1 4575   3.009   5.343   6.457  0.4868 -0.1774  1.2848
 1340SOL    HW2 4576   3.074   5.222   6.393  0.1797 -0.1979  1.0096
 1341SOL     OW 4577   4.334   4.619   5.280  0.3857  0.0563 -0.3371
 1341SOL    HW1 4578   4.331   4.665   5.196  2.0722  1.1889  0.1677
 1341SOL    HW2 4579   4.279   4.542   5.267  0.2670  0.4195 -2.3328
 1342SOL     OW 4580   4.295   6.754   4.182 -0.6027  0.5386  0.3545
 1342SOL    HW1 4581   4.304   6.848   4.195 -1.2947  0.5000  1.1893
 1342SOL    HW2 4582   4.343   6.715   4.255 -0.2151  0.2329 -0.0526
 1343SOL     OW 4583   1.737   3.143   6.884  0.0731 -0.1386 -0.4348
 1343SOL    HW1 4584   1.723   3.234   6.911  0.8905 -0.7144  2.2012
 1343SOL    HW2 4585   1.690   3.136   6.801  0.4209  2.8209 -1.0182
 1344SOL     OW 4586   2.550   7.002   3.204 -0.1653 -0.0663 -0.1135
 1344SOL    HW1 4587   2.545   6.979   3.297  0.7415  1.2490  0.2820
 1344SOL    HW2 4588   2.631   7.052   3.195 -1.0153  1.1911 -1.2996
 1345SOL     OW 4589   4.336   0.958   3.290  0.7248 -0.4503 -0.1933
 1345SOL    HW1 4590   4.331   0.905   3.210  2.9200 -0.7499 -0.1980
 1345SOL    HW2 4591   4.327   1.048   3.260 -1.1393 -0.6577 -0.4091
 1346SOL     OW 4592   2.427   4.896   3.531  0.8649  0.6832 -0.0283
 1346SOL    HW1 4593   2.390   4.834   3.594  1.2836  1.0274  0.5698
 1346SOL    HW2 4594   2.520   4.874   3.528  1.0264  1.2970  0.2253
 1347SOL     OW 4595   2.181   0.421   0.688 -0.8464 -0.3979  0.4609
 1347SOL    HW1 4596   2.272   0.397   0.672 -1.4627 -1.5868 -1.6579
 1347SOL    HW2 4597   2.177   0.437   0.782  1.6351  0.1590  0.5467
 1348SOL     OW 4598   4.603   3.064   5.024 -0.7119  0.2898  0.4169
 1348SOL    HW1 4599   4.606   3.135   4.959 -1.0762 -2.6168 -3.1118
 1348SOL    HW2 4600   4.694   3.052   5.050 -0.6402  1.9728  1.0639
 1349SOL     OW 4601   1.129   0.668   0.128  0.2103  0.1728 -0.3531
 1349SOL    HW1 4602   1.086   0.601   0.182 -1.3061  0.7810 -0.7524
 1349SOL    HW2 4603   1.063   0.737   0.118  0.7252  0.4437 -2.3110
 1350SOL     OW 4604   5.260   5.939   5.633  0.1316  0.4385 -1.0324
 1350SOL    HW1 4605   5.321   6.003   5.671  0.0264  0.4664 -0.9095
 1350SOL    HW2 4606   5.299   5.854   5.654  0.1761  0.4578 -1.0356
 1351SOL     OW 4607   2.602   3.554   2.475  0.7417  0.1866 -0.2306
 1351SOL    HW1 4608   2.655   3.510   2.542 -2.4863 -0.2662  2.2496
 1351SOL    HW2 4609   2.593   3.644   2.506 -1.0244 -0.0986  0.1884
 1352SOL     OW 4610   6.124   0.969   4.785 -0.2982 -0.2731 -0.3448
 1352SOL    HW1 4611   6.065   0.998   4.855  1.5770 -1.1156  1.7231
 1352SOL    HW2 4612   6.187   1.040   4.775 -1.9326  0.9193 -3.0170
 1353SOL     OW 4613   4.255   0.743   4.090 -0.2100 -0.0649  0.4291
 1353SOL    HW1 4614   4.192   0.806   4.055  1.9750  3.7121  2.5487
 1353SOL    HW2 4615   4.330   0.750   4.031  1.2183  1.8522  2.3181
 1354SOL     OW 4616   4.299   6.209   7.132  0.4104  0.3322 -0.8462
 1354SOL    HW1 4617   4.347   6.165   7.202 -0.9006 -1.2462 -0.8768
 1354SOL    HW2 4618   4.252   6.280   7.176  1.7091  1.0878 -0.6155
 1355SOL     OW 4619   5.403   0.628   5.511  0.1072  0.2279  0.0493
 1355SOL    HW1 4620   5.354   0.634   5.593 -1.6958 -0.7955 -0.8897
 1355SOL    HW2 4621   5.405   0.534   5.492  0.5123  0.4517 -1.0884
 1356SOL     OW 4622   3.021   6.417   5.157 -0.0152  0.3691 -0.0787
 1356SOL    HW1 4623   2.954   6.349   5.146  0.3818 -0.0801  0.2783
 1356SOL    HW2 4624   3.095   6.388   5.104  0.1013  0.5995 -0.0469
 1357SOL     OW 4625   3.520   0.046   6.103  0.0790 -0.0707  0.6159
 1357SOL    HW1 4626   3.428   0.070   6.106 -0.3735 -1.4694 -0.6726
 1357SOL    HW2 4627   3.524  -0.040   6.144  0.4630 -0.8715 -1.0042
 1358SOL     OW 4628   2.159   5.981   1.048  0.2980  0.5604 -0.7362
 1358SOL    HW1 4629   2.077   5.959   1.092 -0.2831  1.4034 -1.3641
 1358SOL    HW2 4630   2.163   5.921   0.973  1.7261 -1.4934  0.8719
 1359SOL     OW 4631   4.695   2.926   2.869 -0.4427 -0.2601  0.2075
 1359SOL    HW1 4632   4.770   2.960   2.917 -0.5502  0.8713 -0.3759
 1359SOL    HW2 4633   4.726   2.845   2.828  0.0964 -0.4214  0.9231
 1360SOL     OW 4634   5.475   0.341   6.858  0.1439 -0.2011 -0.5275
 1360SOL    HW1 4635   5.566   0.359   6.882  0.3145 -0.3240 -1.0848
 1360SOL    HW2 4636   5.428   0.340   6.942  0.6666 -0.2017 -0.2336
 1361SOL     OW 4637   1.131   1.940   3.711 -0.6105 -0.2256  0.2611
 1361SOL    HW1 4638   1.214   1.893   3.705 -0.2183  0.5539 -0.7755
 1361SOL    HW2 4639   1.147   2.022   3.665 -1.4924  0.6191  1.4100
 1362SOL     OW 4640   7.115   3.860   6.976 -0.4587 -0.4000 -0.1061
 1362SOL    HW1 4641   7.142   3.870   6.884  1.6022 -1.5186  0.3037
 1362SOL    HW2 4642   7.049   3.928   6.989  1.2484  1.7098 -1.6397
 1363SOL     OW 4643   2.552   7.570   7.125  0.3385  0.3247 -0.5207
 1363SOL    HW1 4644   2.484   7.537   7.184  1.0706  0.2700  0.3194
 1363SOL    HW2 4645   2.546   7.515   7.048  0.4406 -0.6797  0.1754
 1364SOL     OW 4646   1.907   6.474   6.561 -0.3570 -0.8108  0.2662
 1364SOL    HW1 4647   1.894   6.496   6.653 -1.4109 -1.5073  0.3061
 1364SOL    HW2 4648   2.002   6.473   6.549 -0.2272  0.2720  1.0942
 1365SOL     OW 4649   6.043   5.013   3.536  0.2182  0.5193  0.1108
 1365SOL    HW1 4650   6.046   4.978   3.625  1.6402 -0.1606 -0.1826
 1365SOL    HW2 4651   6.062   4.938   3.480  1.8596  1.4364 -0.6276
 1366SOL     OW 4652   0.629   1.341   0.402 -0.6488  0.2019 -0.0640
 1366SOL    HW1 4653   0.661   1.387   0.325 -0.1660 -0.0667 -0.0229
 1366SOL    HW2 4654   0.579   1.408   0.450 -0.6585  0.4590 -0.4298
 1367SOL     OW 4655   6.020   5.741   7.481  0.2273 -0.1290  0.3802
 1367SOL    HW1 4656   6.041   5.716   7.571  1.5301  0.4962  0.2755
 1367SOL    HW2 4657   6.101   5.780   7.447 -0.3530 -0.0092 -0.9425
 1368SOL     OW 4658   4.678   0.167   3.931 -0.4343  0.5300  0.0803
 1368SOL    HW1 4659   4.694   0.205   4.018 -1.3948  0.3053  0.3770
 1368SOL    HW2 4660   4.735   0.216   3.872  0.3724  0.5553  0.8701
 1369SOL     OW 4661   7.403   1.569   0.776  0.0160  0.2474 -0.5119
 1369SOL    HW1 4662   7.350   1.499   0.814  1.0151 -0.6094 -0.6173
 1369SOL    HW2 4663   7.381   1.568   0.683  0.0927  0.0030 -0.5285
 1370SOL     OW 4664   4.422   0.275   4.161  0.4138  0.5147  0.0295
 1370SOL    HW1 4665   4.398   0.188   4.193  0.4747  0.4989  0.0328
 1370SOL    HW2 4666   4.517   0.276   4.164  0.3861  1.1814  1.6270
 1371SOL     OW 4667   6.917   0.411   3.759 -0.3465 -0.0224  0.0659
 1371SOL    HW1 4668   6.989   0.356   3.727 -0.3486 -0.4204  0.7194
 1371SOL    HW2 4669   6.842   0.384   3.707 -0.2755 -0.4258  0.1650
 1372SOL     OW 4670   4.265   2.857   2.446 -0.3559 -0.2210 -0.1094
 1372SOL    HW1 4671   4.177   2.841   2.478  0.1104 -1.1737  0.7443
 1372SOL    HW2 4672   4.317   2.874   2.525  0.7209 -2.1533 -0.3356
 1373SOL     OW 4673   7.459   6.529   7.567 -0.2770  0.3771 -0.5878
 1373SOL    HW1 4674   7.427   6.574   7.489 -1.4827 -1.6500 -1.3579
 1373SOL    HW2 4675   7.536   6.480   7.537 -0.1951  0.3187 -0.2875
 1374SOL     OW 4676   1.126   7.067   3.812  0.3185 -0.5994  0.1198
 1374SOL    HW1 4677   1.146   7.000   3.878 -0.7877 -0.1947  0.9019
 1374SOL    HW2 4678   1.119   7.148   3.863  1.6922  0.1416 -0.8194
 1375SOL     OW 4679   1.635   0.573   2.089  0.1236 -0.1663  0.9509
 1375SOL    HW1 4680   1.651   0.640   2.022 -0.0950 -0.4388  0.6227
 1375SOL    HW2 4681   1.577   0.615   2.152  1.4384  0.5653  1.7215
 1376SOL     OW 4682   4.752   1.144   7.167 -0.1559  0.7384  0.2254
 1376SOL    HW1 4683   4.733   1.052   7.188 -0.8185  0.6796 -0.5603
 1376SOL    HW2 4684   4.696   1.163   7.092 -0.9106  2.1346  1.0963
 1377SOL     OW 4685   6.626   6.487   5.202  0.4697  0.3988 -0.6497
 1377SOL    HW1 4686   6.556   6.425   5.225 -0.2831  1.1627 -0.8381
 1377SOL    HW2 4687   6.582   6.571   5.192  1.5790  1.1305  0.3013
 1378SOL     OW 4688   2.153   6.434   7.220 -0.2111  0.4280 -0.1613
 1378SOL    HW1 4689   2.086   6.400   7.279  0.5133 -1.1995 -0.2028
 1378SOL    HW2 4690   2.233   6.388   7.247  0.4497  0.7918 -1.4194
 1379SOL     OW 4691   7.223   5.216   6.450  0.1958 -0.2961 -0.1836
 1379SOL    HW1 4692   7.162   5.187   6.517  0.7876 -0.6540  0.2077
 1379SOL    HW2 4693   7.306   5.176   6.474  1.2580  2.2455  0.7736
 1380SOL     OW 4694   0.022   7.724   3.560 -0.1210 -0.0047  0.6523
 1380SOL    HW1 4695   0.094   7.780   3.587  0.0831 -0.8584  2.0079
 1380SOL    HW2 4696  -0.057   7.774   3.581  0.0563  0.7521 -0.4254
 1381SOL     OW 4697   4.365   5.185   1.546 -0.6910 -0.2836 -0.0513
 1381SOL    HW1 4698   4.312   5.263   1.559  1.3940  1.3766 -0.8935
 1381SOL    HW2 4699   4.448   5.218   1.513  1.4287 -2.5919  2.4942
 1382SOL     OW 4700   0.797   3.281   3.753 -0.5071  0.3502  0.4190
 1382SOL    HW1 4701   0.747   3.225   3.812 -0.4364 -0.0949  0.0594
 1382SOL    HW2 4702   0.751   3.365   3.754 -0.7850  0.1936  0.7261
 1383SOL     OW 4703   3.152   5.460   2.560  0.1857  0.1864 -0.2740
 1383SOL    HW1 4704   3.226   5.521   2.563  0.6279 -0.0790 -3.2710
 1383SOL    HW2 4705   3.184   5.383   2.608  0.7748  1.1016  0.8704
 1384SOL     OW 4706   0.484   1.438   1.494 -0.3419  0.1521  0.0377
 1384SOL    HW1 4707   0.468   1.345   1.486 -1.9095  0.1730  2.2406
 1384SOL    HW2 4708   0.536   1.447   1.574 -0.4014  1.1750 -0.0245
 1385SOL     OW 4709   5.875   4.997   5.291  0.1525  0.0804  0.4447
 1385SOL    HW1 4710   5.927   5.038   5.361 -0.9462 -0.1482  1.4084
 1385SOL    HW2 4711   5.817   4.936   5.335 -0.1022 -0.5728 -0.7396
 1386SOL     OW 4712   6.640   7.585   1.322 -0.0463 -0.5690  0.3546
 1386SOL    HW1 4713   6.591   7.649   1.269  1.0971 -0.1914 -0.2715
 1386SOL    HW2 4714   6.588   7.505   1.318 -0.3251 -0.3422 -0.7774
 1387SOL     OW 4715   3.638   2.577   4.154  0.1142 -0.3112  0.1080
 1387SOL    HW1 4716   3.729   2.588   4.126 -0.0648  0.5898 -0.1542
 1387SOL    HW2 4717   3.630   2.633   4.232 -0.1141 -0.6942  0.3632
 1388SOL     OW 4718   3.685   5.249   3.284 -0.5857  0.4839 -0.0300
 1388SOL    HW1 4719   3.743   5.236   3.360  0.0022  0.0897 -0.5369
 1388SOL    HW2 4720   3.598   5.262   3.323 -1.0133 -3.2680  0.7118
 1389SOL     OW 4721   7.465   1.961   3.169 -0.2293 -0.2216  0.1404
 1389SOL    HW1 4722   7.463   1.958   3.074 -1.2448 -0.4739  0.1655
 1389SOL    HW2 4723   7.530   2.030   3.189  1.5135 -1.5432 -0.6859
 1390SOL     OW 4724   2.141   2.024   1.160  0.2695 -0.4052  0.5719
 1390SOL    HW1 4725   2.088   2.020   1.080 -2.3939 -1.4598  2.2703
 1390SOL    HW2 4726   2.210   1.959   1.146  0.0604 -0.3329 -0.9665
 1391SOL     OW 4727   6.598   4.547   7.738  0.4011 -0.0388 -0.0248
 1391SOL    HW1 4728   6.623   4.606   7.809 -1.8393  0.2666  0.5837
 1391SOL    HW2 4729   6.582   4.463   7.782 -1.3160  0.2346 -0.0591
 1392SOL     OW 4730   6.002   4.279   6.833  0.3253  0.0346 -0.0271
 1392SOL    HW1 4731   6.086   4.234   6.837 -0.4316 -1.5482 -1.0488
 1392SOL    HW2 4732   5.963   4.252   6.750 -1.2435  0.6315  0.4668
 1393SOL     OW 4733   6.881   3.083   5.107  0.4736  0.5366  0.0765
 1393SOL    HW1 4734   6.908   3.154   5.166  0.6642  0.0170  0.6226
 1393SOL    HW2 4735   6.828   3.025   5.162 -0.3967  0.6941 -0.5813
 1394SOL     OW 4736   4.412   2.817   0.797 -0.1884  0.4639 -0.1396
 1394SOL    HW1 4737   4.317   2.815   0.808 -0.1905  1.8028  0.2905
 1394SOL    HW2 4738   4.443   2.868   0.872  0.9361 -0.5003  0.0806
 1395SOL     OW 4739   4.737   1.851   2.130 -0.7290 -0.4383 -0.3345
 1395SOL    HW1 4740   4.810   1.896   2.088 -0.3646 -0.4495  0.2720
 1395SOL    HW2 4741   4.761   1.847   2.222 -1.8818  0.3009  0.0248
 1396SOL     OW 4742   0.953   7.120   7.739  0.1890 -0.0418 -0.2286
 1396SOL    HW1 4743   0.935   7.067   7.817  0.1410 -0.0635 -0.2542
 1396SOL    HW2 4744   1.014   7.067   7.688  0.7554  0.2695  0.1172
 1397SOL     OW 4745   3.465   2.445   6.981  0.0811  0.3445  0.3388
 1397SOL    HW1 4746   3.463   2.485   7.068 -1.3661  1.2098 -0.0488
 1397SOL    HW2 4747   3.407   2.501   6.928  1.1653  0.0189 -1.2619
 1398SOL     OW 4748   3.581   1.713   5.298  0.0736 -0.1245 -0.1108
 1398SOL    HW1 4749   3.623   1.668   5.372 -2.7351 -0.6683  1.2638
 1398SOL    HW2 4750   3.557   1.799   5.332 -1.7350 -0.5757 -0.1571
 1399SOL     OW 4751   3.556   5.251   5.346  0.0773  0.4720 -0.0429
 1399SOL    HW1 4752   3.537   5.259   5.253 -0.7444  2.6299  0.2676
 1399SOL    HW2 4753   3.646   5.218   5.350 -0.1323 -0.3528 -1.5673
 1400SOL     OW 4754   5.241   5.592   3.272 -0.4685  0.2049  0.2690
 1400SOL    HW1 4755   5.264   5.541   3.195  0.2331  1.4924 -0.3991
 1400SOL    HW2 4756   5.171   5.650   3.242  0.0969  1.0086  0.4679
 1401SOL     OW 4757   5.677   2.168   4.991 -0.4710 -0.5716  0.0778
 1401SOL    HW1 4758   5.751   2.113   4.965 -0.7459 -0.7724 -0.2889
 1401SOL    HW2 4759   5.599   2.118   4.966 -0.7313  0.1908 -0.7324
 1402SOL     OW 4760   6.077   7.604   7.418 -0.0222 -0.3412  0.7492
 1402SOL    HW1 4761   6.143   7.639   7.358  0.0125 -0.8334  0.5014
 1402SOL    HW2 4762   6.107   7.517   7.440 -0.7998 -0.7426  0.2935
 1403SOL     OW 4763   1.245   7.236   6.556  0.3187 -0.1840 -0.1708
 1403SOL    HW1 4764   1.168   7.285   6.527  1.3512  0.9399 -1.0845
 1403SOL    HW2 4765   1.222   7.207   6.645 -1.9070 -1.5579 -1.0865
 1404SOL     OW 4766   3.162   5.369   1.226  0.4567 -0.6033 -0.1855
 1404SOL    HW1 4767   3.172   5.437   1.159 -0.2232 -1.2706 -1.0042
 1404SOL    HW2 4768   3.247   5.325   1.228  0.9072  0.2634  0.3661
 1405SOL     OW 4769   1.522   7.716   3.418 -0.1347 -0.1179 -0.0716
 1405SOL    HW1 4770   1.519   7.622   3.399  2.7585 -0.7117  1.7779
 1405SOL    HW2 4771   1.476   7.756   3.344 -1.7054 -2.9537 -0.7994
 1406SOL     OW 4772   7.663   1.523   1.631 -0.2169  0.4978  0.8646
 1406SOL    HW1 4773   7.743   1.506   1.681  1.5302 -3.5332 -2.5766
 1406SOL    HW2 4774   7.693   1.527   1.540 -3.7153  1.6923 -0.3983
 1407SOL     OW 4775   5.500   2.265   6.873 -0.1826 -0.7153 -0.2052
 1407SOL    HW1 4776   5.427   2.238   6.929 -0.9305  2.9958  0.8947
 1407SOL    HW2 4777   5.459   2.289   6.790 -0.6161  2.4505  0.7667
 1408SOL     OW 4778   7.066   6.290   5.531 -0.0192 -0.3757 -0.7297
 1408SOL    HW1 4779   7.014   6.251   5.601  1.4504  0.3483  0.8507
 1408SOL    HW2 4780   7.153   6.302   5.570  1.5170 -1.9475 -3.3741
 1409SOL     OW 4781   3.938   5.286   6.462 -0.0779 -0.0048  0.1135
 1409SOL    HW1 4782   3.992   5.248   6.392 -0.9903  1.1028 -1.2518
 1409SOL    HW2 4783   3.966   5.377   6.467 -0.7162  0.1794  0.4978
 1410SOL     OW 4784   0.454   5.793   1.745  0.5660 -0.3319  0.4191
 1410SOL    HW1 4785   0.359   5.785   1.755  0.6195 -1.0080  0.4299
 1410SOL    HW2 4786   0.466   5.878   1.702 -0.1788 -1.1311 -1.5109
 1411SOL     OW 4787   1.578   6.167   7.551  0.1216 -0.3388 -0.4813
 1411SOL    HW1 4788   1.631   6.243   7.526  3.4996 -1.7029  1.7493
 1411SOL    HW2 4789   1.589   6.105   7.479 -0.8473  0.4354 -1.3144
 1412SOL     OW 4790   5.985   0.311   3.235  0.2979  0.5837  0.6224
 1412SOL    HW1 4791   6.046   0.285   3.304 -0.0034  1.8754  1.3981
 1412SOL    HW2 4792   5.979   0.234   3.179  1.9793  0.1408  0.9981
 1413SOL     OW 4793   6.709   1.998   7.424 -0.1347 -0.8011 -0.1569
 1413SOL    HW1 4794   6.733   2.042   7.342 -0.9858  0.1334  0.0684
 1413SOL    HW2 4795   6.766   2.039   7.489 -0.5296 -0.4165 -0.0427
 1414SOL     OW 4796   4.995   2.076   3.072 -0.0347  0.1771 -0.0999
 1414SOL    HW1 4797   4.924   2.044   3.127 -0.0990 -0.7689 -0.7077
 1414SOL    HW2 4798   5.060   2.005   3.073  2.2993  2.0728  2.7658
 1415SOL     OW 4799   3.428   6.011   6.220 -0.3519  0.4407  0.0992
 1415SOL    HW1 4800   3.456   5.932   6.266 -1.4466 -0.4749 -0.7300
 1415SOL    HW2 4801   3.404   6.072   6.290  1.2965  0.3718  0.7670
 1416SOL     OW 4802   5.339   5.232   4.080  0.0273  0.5254 -0.0272
 1416SOL    HW1 4803   5.304   5.144   4.068  1.1953 -0.0218  0.4171
 1416SOL    HW2 4804   5.370   5.258   3.993 -0.6084  0.6433 -0.2266
 1417SOL     OW 4805   3.355   4.531   4.581  0.1684  0.1137  0.0166
 1417SOL    HW1 4806   3.346   4.472   4.506  1.7805 -2.7729  1.9227
 1417SOL    HW2 4807   3.266   4.560   4.600 -0.5835 -1.0842 -1.4955
 1418SOL     OW 4808   3.929   7.219   1.807 -0.1061 -0.8043  0.4475
 1418SOL    HW1 4809   4.007   7.188   1.853 -0.2490 -1.2805  0.3712
 1418SOL    HW2 4810   3.885   7.140   1.776 -0.5349 -0.5335  0.3446
 1419SOL     OW 4811   5.454   0.539   6.433 -0.0261 -1.0109  0.2125
 1419SOL    HW1 4812   5.400   0.459   6.438  1.4412 -2.1036 -0.6310
 1419SOL    HW2 4813   5.539   0.512   6.468  0.7467 -0.0351 -0.8765
 1420SOL     OW 4814   4.383   4.099   2.733 -0.1917 -0.1534  0.0151
 1420SOL    HW1 4815   4.298   4.138   2.755 -0.3357 -0.8748  0.7901
 1420SOL    HW2 4816   4.442   4.132   2.801  0.1643  0.3677 -0.5367
 1421SOL     OW 4817   1.483   7.587   4.317 -0.1610 -0.1201  0.3393
 1421SOL    HW1 4818   1.568   7.625   4.294  0.3519 -0.4628  1.5659
 1421SOL    HW2 4819   1.424   7.662   4.322  0.5913  0.4295  1.6402
 1422SOL     OW 4820   2.984   0.161   2.551 -0.3777 -0.1292  0.2753
 1422SOL    HW1 4821   2.988   0.142   2.457  1.5390 -2.1295  0.6877
 1422SOL    HW2 4822   2.893   0.142   2.575 -0.6029 -0.7228 -0.9747
 1423SOL     OW 4823   4.992   0.467   5.615  0.0256 -0.0265 -0.5061
 1423SOL    HW1 4824   5.081   0.439   5.591 -0.4254 -2.1175  0.1092
 1423SOL    HW2 4825   4.947   0.387   5.641 -2.5620  0.7112 -2.2851
 1424SOL     OW 4826   4.439   5.837   7.568 -0.0685 -0.0539 -0.4420
 1424SOL    HW1 4827   4.450   5.829   7.473 -1.9356 -1.2789 -0.6111
 1424SOL    HW2 4828   4.410   5.750   7.596  2.1484 -0.2597  1.5616
 1425SOL     OW 4829   7.557   3.917   6.483  0.0397  0.3595  0.2775
 1425SOL    HW1 4830   7.620   3.850   6.510  0.6635  0.7168 -0.2613
 1425SOL    HW2 4831   7.531   3.960   6.565 -0.5109 -0.6497  0.6494
 1426SOL     OW 4832   0.215   2.430   4.357 -1.0086 -0.0565 -0.2406
 1426SOL    HW1 4833   0.191   2.431   4.265  2.8161  2.8768 -1.4701
 1426SOL    HW2 4834   0.173   2.508   4.394 -0.8852 -0.1066  0.0119
 1427SOL     OW 4835   4.307   4.756   0.136 -0.0664 -0.4900  1.1003
 1427SOL    HW1 4836   4.384   4.812   0.127  0.5969 -1.4621  0.5923
 1427SOL    HW2 4837   4.234   4.818   0.143  0.4366  0.4648 -1.2204
 1428SOL     OW 4838   7.461   1.411   4.743  0.1179 -0.5195  0.0772
 1428SOL    HW1 4839   7.420   1.433   4.659 -0.9396  0.6410  0.8707
 1428SOL    HW2 4840   7.394   1.364   4.791  0.4605 -0.5177  0.5602
 1429SOL     OW 4841   7.437   7.745   4.350  0.4017 -0.1167 -0.2720
 1429SOL    HW1 4842   7.437   7.649   4.349  0.6557 -0.1283  0.3332
 1429SOL    HW2 4843   7.362   7.770   4.296 -0.2745 -0.6756  0.3928
 1430SOL     OW 4844   2.467   0.252   6.863  0.0107  0.5980  0.3698
 1430SOL    HW1 4845   2.526   0.180   6.886 -1.9761 -0.5837  2.1257
 1430SOL    HW2 4846   2.470   0.255   6.767  2.2605  0.0716  0.3659
 1431SOL     OW 4847   2.059   3.792   4.767 -0.0515 -0.2513 -0.0578
 1431SOL    HW1 4848   2.024   3.843   4.694  0.1785  0.4237  0.2886
 1431SOL    HW2 4849   2.095   3.858   4.827  1.4528 -0.8826 -0.2099
 1432SOL     OW 4850   4.202   3.569   0.874 -0.4627 -0.1902 -0.4751
 1432SOL    HW1 4851   4.133   3.533   0.818 -1.0744  0.9147 -0.4606
 1432SOL    HW2 4852   4.173   3.552   0.963 -1.2388  1.1485 -0.4454
 1433SOL     OW 4853   0.743   1.789   5.182 -0.1473  0.0702 -0.0129
 1433SOL    HW1 4854   0.668   1.842   5.207  0.3448  0.9217 -0.3012
 1433SOL    HW2 4855   0.813   1.852   5.164  1.2148 -0.7419  2.0437
 1434SOL     OW 4856   5.319   0.159   4.146 -0.1502  1.0849  0.4210
 1434SOL    HW1 4857   5.347   0.086   4.091 -0.5150  1.9254 -0.9374
 1434SOL    HW2 4858   5.237   0.189   4.106 -0.8934  1.1963  1.9475
 1435SOL     OW 4859   4.096   6.282   2.075 -0.0120 -0.1572  0.1678
 1435SOL    HW1 4860   4.041   6.310   2.149 -0.7204  0.6349 -0.6318
 1435SOL    HW2 4861   4.039   6.290   1.998  0.4285 -1.8232 -0.3814
 1436SOL     OW 4862   1.912   7.056   1.277 -0.6147 -0.1678 -0.1407
 1436SOL    HW1 4863   1.908   7.115   1.352 -0.8963  0.5402 -0.6959
 1436SOL    HW2 4864   1.821   7.049   1.247 -0.3882  0.3561 -1.0051
 1437SOL     OW 4865   5.121   4.280   1.648 -0.0210 -0.0865  0.1891
 1437SOL    HW1 4866   5.070   4.303   1.570 -0.8862  1.1725  1.1060
 1437SOL    HW2 4867   5.212   4.290   1.620 -0.3163  0.4210 -0.6424
 1438SOL     OW 4868   4.674   0.543   5.723 -0.6282 -0.0773 -0.0190
 1438SOL    HW1 4869   4.620   0.467   5.745 -1.6123  0.5984 -0.0144
 1438SOL    HW2 4870   4.671   0.547   5.627  0.3699 -0.6965 -0.0899
 1439SOL     OW 4871   2.097   2.798   3.080  0.3263  0.0350  0.7886
 1439SOL    HW1 4872   2.010   2.762   3.095 -0.5617  1.1785 -1.1736
 1439SOL    HW2 4873   2.132   2.745   3.007 -0.1479  1.6698 -0.6962
 1440SOL     OW 4874   3.303   3.634   7.222 -0.1645 -0.2325  0.4869
 1440SOL    HW1 4875   3.323   3.547   7.189  2.7952  1.1514 -1.8443
 1440SOL    HW2 4876   3.330   3.633   7.313 -0.7342 -1.8822  0.6568
 1441SOL     OW 4877   4.460   5.491   2.190  0.1571  0.0860  0.8424
 1441SOL    HW1 4878   4.472   5.422   2.126 -0.1638  1.1714 -0.4390
 1441SOL    HW2 4879   4.546   5.501   2.231  1.0946  1.0256 -1.1934
 1442SOL     OW 4880   6.088   2.459   5.061 -0.1545 -0.2392  0.2233
 1442SOL    HW1 4881   6.075   2.516   4.985  0.6882 -0.3414  0.0021
 1442SOL    HW2 4882   6.155   2.503   5.113 -1.7626  0.6264  1.7044
 1443SOL     OW 4883   7.168   7.091   5.472 -0.4868  0.0606 -0.0388
 1443SOL    HW1 4884   7.212   7.160   5.422 -1.1603 -0.1876 -1.0114
 1443SOL    HW2 4885   7.136   7.030   5.405 -0.6388 -0.7587  0.7572
 1444SOL     OW 4886   4.198   7.639   3.018  0.0337  0.4880 -0.1449
 1444SOL    HW1 4887   4.244   7.678   2.943 -0.8321  1.0624 -0.3939
 1444SOL    HW2 4888   4.135   7.579   2.979 -0.6107  0.9962  0.0968
 1445SOL     OW 4889   6.495   0.436   6.452  0.4090 -0.1147  0.4080
 1445SOL    HW1 4890   6.446   0.509   6.413  0.8594  0.4052  0.8027
 1445SOL    HW2 4891   6.532   0.390   6.376  0.4125  0.2717  0.1716
 1446SOL     OW 4892   6.573   1.507   7.446  0.3878 -0.3609 -0.1703
 1446SOL    HW1 4893   6.603   1.591   7.481 -1.3074 -0.1020  0.7637
 1446SOL    HW2 4894   6.610   1.503   7.357  1.9881  0.5128  0.4270
 1447SOL     OW 4895   6.076   3.567   3.224 -0.3024  0.1148  0.2204
 1447SOL    HW1 4896   6.024   3.594   3.148 -1.4841  0.9105  1.2649
 1447SOL    HW2 4897   6.146   3.632   3.229  1.2976 -1.3195 -1.5710
 1448SOL     OW 4898   5.327   2.717   0.389  0.7266  0.3369  0.0407
 1448SOL    HW1 4899   5.412   2.723   0.432 -0.2710  0.3109  2.0930
 1448SOL    HW2 4900   5.276   2.789   0.425 -0.7797 -0.8594  0.4211
 1449SOL     OW 4901   7.049   3.408   6.144  0.1229 -0.1564  0.0079
 1449SOL    HW1 4902   7.102   3.431   6.221 -1.5206  1.1781  0.7957
 1449SOL    HW2 4903   7.105   3.348   6.095  1.5222 -0.4923  1.8643
 1450SOL     OW 4904   2.984   4.098   0.271 -0.3688 -0.0232 -0.1565
 1450SOL    HW1 4905   2.941   4.177   0.241 -0.2149 -0.5523 -1.8769
 1450SOL    HW2 4906   3.072   4.126   0.296 -0.4615  0.4060 -0.3087
 1451SOL     OW 4907   1.749   0.776   3.353 -0.0136 -0.3715  0.5701
 1451SOL    HW1 4908   1.716   0.733   3.431 -0.3621 -3.8676 -1.3129
 1451SOL    HW2 4909   1.844   0.762   3.357 -0.0010 -0.3072  0.4956
 1452SOL     OW 4910   1.009   3.260   0.759 -0.1181  0.3351 -0.1769
 1452SOL    HW1 4911   0.944   3.257   0.688  0.2501  1.7123 -0.6121
 1452SOL    HW2 4912   0.964   3.308   0.829 -0.6713 -1.4855  0.7660
 1453SOL     OW 4913   1.045   4.243   4.509  0.5100 -0.1687  0.4456
 1453SOL    HW1 4914   0.951   4.225   4.518  0.2695  0.4396 -0.6521
 1453SOL    HW2 4915   1.078   4.171   4.455  0.0258  1.2369 -1.8518
 1454SOL     OW 4916   2.409   2.700   4.221 -0.2774  0.0039 -0.2777
 1454SOL    HW1 4917   2.473   2.771   4.212  0.7258 -0.8600 -0.2067
 1454SOL    HW2 4918   2.449   2.640   4.284 -1.8988  0.2134  1.0301
 1455SOL     OW 4919   6.035   6.074   4.517 -0.4825 -0.3062  0.8770
 1455SOL    HW1 4920   5.975   6.125   4.462 -0.2614 -0.9281  0.0290
 1455SOL    HW2 4921   6.119   6.080   4.472  0.0933  0.4946  2.0178
 1456SOL     OW 4922   2.600   1.251   7.013 -0.4704  0.0738 -0.2194
 1456SOL    HW1 4923   2.629   1.163   7.038 -2.5912 -0.3441  1.0069
 1456SOL    HW2 4924   2.652   1.310   7.069  1.2960 -0.3226 -1.3813
 1457SOL     OW 4925   7.500   6.788   6.145  0.7621  0.3145 -0.2082
 1457SOL    HW1 4926   7.523   6.880   6.158 -0.2828  0.6273 -0.5021
 1457SOL    HW2 4927   7.410   6.790   6.112  1.0904 -0.7621 -1.2261
 1458SOL     OW 4928   0.348   4.943   2.696  0.0826  0.2347  0.6655
 1458SOL    HW1 4929   0.295   5.021   2.710  2.9001  2.4270  0.0969
 1458SOL    HW2 4930   0.379   4.919   2.784 -0.3189  0.1248  0.7767
 1459SOL     OW 4931   6.844   2.893   6.970  0.5348 -0.1252 -0.0372
 1459SOL    HW1 4932   6.877   2.901   7.060  1.9280 -0.4479 -0.4874
 1459SOL    HW2 4933   6.833   2.984   6.941 -1.0828 -0.0074  0.8305
 1460SOL     OW 4934   5.555   7.069   1.736 -0.5065  0.6571 -0.0151
 1460SOL    HW1 4935   5.626   7.032   1.683 -0.2234  0.6427  0.3704
 1460SOL    HW2 4936   5.561   7.022   1.819  1.0043  2.7847  1.1584
 1461SOL     OW 4937   2.218   3.719   6.076 -0.3417  0.0305  0.5728
 1461SOL    HW1 4938   2.172   3.769   6.144 -0.9295 -1.7709  1.5669
 1461SOL    HW2 4939   2.261   3.648   6.124 -0.0645 -0.7926 -0.8496
 1462SOL     OW 4940   3.303   5.446   6.984  0.2562 -0.0101 -0.0500
 1462SOL    HW1 4941   3.219   5.403   7.004 -0.6312  1.1099 -1.1737
 1462SOL    HW2 4942   3.313   5.433   6.889  1.2343  0.0923  0.0362
 1463SOL     OW 4943   3.147   0.423   5.261  0.2633 -0.4001 -0.2032
 1463SOL    HW1 4944   3.077   0.479   5.295  1.1222  0.3678  0.3570
 1463SOL    HW2 4945   3.107   0.337   5.251 -0.1331 -0.5854  2.4385
 1464SOL     OW 4946   0.428   4.920   6.987 -0.1501  0.2014 -0.2519
 1464SOL    HW1 4947   0.348   4.969   7.005  1.2424  1.5583  3.1971
 1464SOL    HW2 4948   0.498   4.975   7.022  1.6785 -3.4985  2.6945
 1465SOL     OW 4949   4.300   7.740   0.397  0.1418 -0.3374  0.3663
 1465SOL    HW1 4950   4.227   7.782   0.351 -1.5150 -0.7239  2.4988
 1465SOL    HW2 4951   4.312   7.656   0.351 -4.0909 -2.5289  2.7133
 1466SOL     OW 4952   0.460   6.019   1.588  0.9121  0.0412  0.0217
 1466SOL    HW1 4953   0.432   5.990   1.502  0.6228  0.0723  0.1067
 1466SOL    HW2 4954   0.521   6.091   1.570 -1.0697  1.7659 -0.1116
 1467SOL     OW 4955   7.531   4.790   5.060  0.4198  0.2222 -0.1358
 1467SOL    HW1 4956   7.562   4.855   4.997 -0.5130  0.9926  0.1874
 1467SOL    HW2 4957   7.587   4.802   5.137  0.4079  0.4742 -0.1676
 1468SOL     OW 4958   1.085   6.758   1.929 -0.0582  0.0847  0.3651
 1468SOL    HW1 4959   1.071   6.836   1.876 -1.1355 -1.2089 -1.3586
 1468SOL    HW2 4960   0.998   6.718   1.937  0.4910 -1.0206  1.0621
 1469SOL     OW 4961   5.055   0.967   3.424  0.5556 -0.1155 -0.0185
 1469SOL    HW1 4962   5.022   0.898   3.482  0.1185  0.6842  0.7077
 1469SOL    HW2 4963   5.010   1.046   3.453 -0.1920  0.1955 -1.9067
 1470SOL     OW 4964   4.429   0.897   4.651 -0.2168 -0.3505  0.3425
 1470SOL    HW1 4965   4.393   0.959   4.587  0.6564 -1.0342 -0.8447
 1470SOL    HW2 4966   4.373   0.908   4.728  0.7258  2.8803  0.7090
 1471SOL     OW 4967   6.997   0.436   2.275  0.2890 -0.0994  0.3569
 1471SOL    HW1 4968   7.001   0.350   2.315 -1.1496  0.7876  2.6168
 1471SOL    HW2 4969   6.920   0.433   2.217  0.1163 -0.2776  0.5971
 1472SOL     OW 4970   4.408   3.918   7.010 -0.3875 -0.0974  0.2137
 1472SOL    HW1 4971   4.434   3.997   7.057 -0.8432  1.5198 -2.0836
 1472SOL    HW2 4972   4.490   3.874   6.989  0.0349  0.9187 -0.3357
 1473SOL     OW 4973   7.701   7.193   3.650  0.7714 -0.0372 -0.1637
 1473SOL    HW1 4974   7.647   7.241   3.588  0.5153 -2.5460 -2.0441
 1473SOL    HW2 4975   7.781   7.172   3.602  1.4461 -0.3163  1.0327
 1474SOL     OW 4976   0.141   5.768   3.080  0.8653  0.1477  0.5589
 1474SOL    HW1 4977   0.163   5.772   2.987  2.9821  0.0201  1.0117
 1474SOL    HW2 4978   0.051   5.736   3.082  1.5766 -2.2453 -1.3884
 1475SOL     OW 4979   6.554   2.248   3.582 -0.5374 -0.1674  0.1173
 1475SOL    HW1 4980   6.602   2.241   3.500 -0.5884 -0.4203  0.1068
 1475SOL    HW2 4981   6.555   2.160   3.618  2.9629  0.6216  2.4023
 1476SOL     OW 4982   6.699   2.911   1.113  0.7024 -0.4326 -0.4349
 1476SOL    HW1 4983   6.613   2.894   1.073  1.1215 -0.5933 -1.2872
 1476SOL    HW2 4984   6.754   2.939   1.040  1.2364  0.2107  0.2002
 1477SOL     OW 4985   0.321   1.013   2.900  0.3663 -0.6932  0.4071
 1477SOL    HW1 4986   0.285   0.925   2.912 -0.0686 -0.5605  0.1311
 1477SOL    HW2 4987   0.261   1.054   2.838  0.8324 -0.3579  0.1756
 1478SOL     OW 4988   7.416   5.732   6.689 -0.2311 -0.3748  0.1246
 1478SOL    HW1 4989   7.390   5.759   6.600 -4.3355 -1.4099  0.8041
 1478SOL    HW2 4990   7.421   5.636   6.684 -0.9493 -0.4736  1.0839
 1479SOL     OW 4991   7.716   7.677   7.616  0.7468 -0.2827 -0.3134
 1479SOL    HW1 4992   7.776   7.672   7.691  1.3031 -1.6601 -0.8265
 1479SOL    HW2 4993   7.752   7.748   7.562  2.0309 -1.1780 -0.6872
 1480SOL     OW 4994   2.028   2.039   2.746 -0.1024 -0.6989  0.4075
 1480SOL    HW1 4995   2.053   1.978   2.816 -0.2370 -1.6185 -0.3261
 1480SOL    HW2 4996   2.085   2.017   2.673 -1.4755 -1.2966 -0.5346
 1481SOL     OW 4997   5.220   4.896   0.944 -0.2967  0.0205  0.0521
 1481SOL    HW1 4998   5.168   4.972   0.971 -1.9136 -0.9232 -0.2725
 1481SOL    HW2 4999   5.193   4.880   0.854 -1.6524 -2.2430  0.7908
 1482SOL     OW 5000   2.941   1.406   5.770 -0.5877  0.4045 -0.7140
 1482SOL    HW1 5001   2.995   1.456   5.710 -0.8935  0.9567 -0.5405
 1482SOL    HW2 5002   2.858   1.454   5.774 -0.5063  0.4898  0.2911
 1483SOL     OW 5003   1.352   1.590   0.559  0.7557 -0.3501  0.2448
 1483SOL    HW1 5004   1.385   1.561   0.474  0.4517 -1.4419  0.4835
 1483SOL    HW2 5005   1.284   1.654   0.538  1.0872 -0.1816 -0.3193
 1484SOL     OW 5006   1.498   0.456   5.163  0.2866  0.0595 -0.0709
 1484SOL    HW1 5007   1.444   0.532   5.185  0.8824  1.2263 -2.2931
 1484SOL    HW2 5008   1.484   0.395   5.235 -2.5117  1.0585  0.3524
 1485SOL     OW 5009   2.731   3.132   7.184  0.8505 -0.0278 -0.3917
 1485SOL    HW1 5010   2.668   3.069   7.219  0.8531  0.8362  1.2646
 1485SOL    HW2 5011   2.706   3.142   7.092 -0.6192 -0.6828 -0.0946
 1486SOL     OW 5012   7.140   4.462   0.247  0.7795  0.3775  0.2190
 1486SOL    HW1 5013   7.207   4.518   0.285  1.5105  0.7808 -1.5777
 1486SOL    HW2 5014   7.126   4.497   0.159 -0.4487 -0.8345 -0.1080
 1487SOL     OW 5015   2.259   3.574   7.287  0.5543  0.2651 -0.1480
 1487SOL    HW1 5016   2.280   3.552   7.377 -0.1759 -2.8700 -0.6220
 1487SOL    HW2 5017   2.306   3.509   7.234 -2.4906 -0.9117 -1.6926
 1488SOL     OW 5018   1.463   2.200   0.131  0.0169 -0.2749  0.2899
 1488SOL    HW1 5019   1.424   2.117   0.158  0.5430 -0.2607  1.1362
 1488SOL    HW2 5020   1.393   2.246   0.085 -0.0076 -1.5651 -1.0088
 1489SOL     OW 5021   1.873   2.701   7.347 -0.6922 -0.4288  0.3404
 1489SOL    HW1 5022   1.812   2.711   7.275 -0.4464  1.1165  0.3123
 1489SOL    HW2 5023   1.868   2.784   7.395  1.1122 -0.3900  0.5317
 1490SOL     OW 5024   1.097   5.560   2.176  0.1440 -0.9076 -0.2024
 1490SOL    HW1 5025   1.055   5.635   2.133  3.3157  1.7853  0.8759
 1490SOL    HW2 5026   1.123   5.503   2.104 -1.8930 -0.7484 -1.1256
 1491SOL     OW 5027   1.301   4.671   1.957 -0.8428  0.1171 -0.2203
 1491SOL    HW1 5028   1.327   4.613   1.886 -1.7131 -0.8393  0.2184
 1491SOL    HW2 5029   1.382   4.714   1.984 -0.4412  0.1991 -1.5220
 1492SOL     OW 5030   5.941   3.204   7.431  0.6799 -0.4391  0.2542
 1492SOL    HW1 5031   5.863   3.240   7.473  0.3968  1.4117 -1.6829
 1492SOL    HW2 5032   6.013   3.259   7.462  0.6947 -0.0173 -0.5160
 1493SOL     OW 5033   0.374   0.182   1.248  0.0464  0.2050 -0.1099
 1493SOL    HW1 5034   0.356   0.165   1.341  1.3715 -1.9368 -0.1791
 1493SOL    HW2 5035   0.337   0.269   1.232  0.4139  0.9484  2.5990
 1494SOL     OW 5036   0.190   3.143   4.212  0.7633 -0.0761 -0.4956
 1494SOL    HW1 5037   0.122   3.208   4.227 -0.7532 -1.7976  0.5927
 1494SOL    HW2 5038   0.271   3.186   4.239 -0.1165  1.4816 -0.2246
 1495SOL     OW 5039   4.545   1.217   6.973 -0.4319 -0.3484 -0.0332
 1495SOL    HW1 5040   4.531   1.289   7.034 -0.7384 -1.1082  0.8177
 1495SOL    HW2 5041   4.583   1.258   6.895 -1.0320  0.7862  0.2583
 1496SOL     OW 5042   7.506   0.703   3.545  0.1764 -0.1919  0.2167
 1496SOL    HW1 5043   7.427   0.752   3.524  0.9700  0.9828 -0.1272
 1496SOL    HW2 5044   7.573   0.770   3.561  1.2847 -1.1562 -0.2065
 1497SOL     OW 5045   3.656   0.704   6.900 -0.0529  0.0459 -0.5178
 1497SOL    HW1 5046   3.601   0.741   6.832  0.0135  2.2002  0.5324
 1497SOL    HW2 5047   3.730   0.765   6.908 -1.5200  1.6508  3.4449
 1498SOL     OW 5048   3.470   0.901   0.255  0.2059 -0.0796 -0.3294
 1498SOL    HW1 5049   3.400   0.878   0.316  0.8524 -2.4639 -0.3811
 1498SOL    HW2 5050   3.491   0.992   0.277  0.0354 -0.6388  2.6529
 1499SOL     OW 5051   4.514   3.995   1.776  0.1700  0.0102  0.1357
 1499SOL    HW1 5052   4.597   4.042   1.789  0.0176  0.6015 -0.8500
 1499SOL    HW2 5053   4.450   4.065   1.761 -0.4059 -0.4611  0.3841
 1500SOL     OW 5054   7.015   2.737   3.087  0.6859 -0.5430  1.1697
 1500SOL    HW1 5055   6.920   2.736   3.101  0.5502  0.4827  0.4945
 1500SOL    HW2 5056   7.025   2.717   2.994  1.0685  0.1416  1.0557
 1501SOL     OW 5057   0.088   3.797   4.545  0.3958 -0.5612 -0.1681
 1501SOL    HW1 5058  -0.002   3.773   4.567  0.5250  1.0568  2.5431
 1501SOL    HW2 5059   0.084   3.891   4.528  1.7479 -0.2122  1.2918
 1502SOL     OW 5060   5.622   5.472   6.295 -0.1304  0.2753 -0.0290
 1502SOL    HW1 5061   5.576   5.403   6.247 -2.1207  2.6374 -1.7384
 1502SOL    HW2 5062   5.678   5.515   6.230  0.8633  0.5174  0.9374
 1503SOL     OW 5063   2.461   5.065   1.265  0.4673 -0.3262 -0.1367
 1503SOL    HW1 5064   2.388   5.127   1.256 -0.6872 -1.0475  2.8379
 1503SOL    HW2 5065   2.439   5.015   1.344  3.6040 -1.4473  0.1428
 1504SOL     OW 5066   4.527   3.867   4.852 -0.0363 -0.3960 -0.2698
 1504SOL    HW1 5067   4.554   3.843   4.941  1.3924  0.0081 -0.5732
 1504SOL    HW2 5068   4.491   3.786   4.816  1.4701 -1.2014 -0.0760
 1505SOL     OW 5069   0.539   1.978   5.239 -0.8033  0.0799 -0.5436
 1505SOL    HW1 5070   0.487   2.054   5.212  0.1371  0.9071 -0.1090
 1505SOL    HW2 5071   0.613   2.016   5.286 -1.3871 -1.2187  1.5232
 1506SOL     OW 5072   2.111   0.461   0.942 -0.0667  0.3301 -0.3195
 1506SOL    HW1 5073   2.095   0.386   0.999 -0.9390  0.6044 -0.1859
 1506SOL    HW2 5074   2.149   0.528   1.000 -2.9325  1.3975  0.5171
 1507SOL     OW 5075   6.176   5.870   2.952 -0.0106  0.4152 -0.2933
 1507SOL    HW1 5076   6.113   5.931   2.915 -1.0132 -0.9228 -0.8560
 1507SOL    HW2 5077   6.203   5.911   3.034 -1.2492  1.2442 -0.2694
 1508SOL     OW 5078   0.195   4.995   1.792  0.0414  0.1452 -0.5773
 1508SOL    HW1 5079   0.229   4.957   1.873 -1.6255  0.1436  0.1659
 1508SOL    HW2 5080   0.227   4.937   1.723  1.3490  0.0504  0.0655
 1509SOL     OW 5081   6.033   3.484   7.042 -0.4585  0.4426  0.5300
 1509SOL    HW1 5082   5.967   3.529   6.990 -0.3413  1.8335  1.5225
 1509SOL    HW2 5083   5.984   3.421   7.095 -0.7532  0.1196 -0.1242
 1510SOL     OW 5084   0.170   4.840   0.592 -0.3165 -0.5146 -0.3733
 1510SOL    HW1 5085   0.131   4.910   0.645 -0.0213  0.7897 -1.8018
 1510SOL    HW2 5086   0.258   4.830   0.628 -0.9081 -1.3810  0.9308
 1511SOL     OW 5087   5.258   4.803   7.109  0.4236  0.8973 -0.2680
 1511SOL    HW1 5088   5.290   4.882   7.066  0.8593  0.4275 -0.8235
 1511SOL    HW2 5089   5.335   4.766   7.152 -0.3755  2.5025  2.8488
 1512SOL     OW 5090   6.049   0.656   4.339 -0.0255 -0.5080  0.2469
 1512SOL    HW1 5091   6.069   0.737   4.386  0.1370 -1.2089  1.4312
 1512SOL    HW2 5092   6.134   0.612   4.332 -0.2222 -0.8771  0.1848
 1513SOL     OW 5093   4.241   5.290   0.092  0.3882 -0.1563  0.7706
 1513SOL    HW1 5094   4.170   5.272   0.154 -0.3683 -0.6536 -0.2275
 1513SOL    HW2 5095   4.236   5.220   0.028  0.3937  0.9896 -0.5368
 1514SOL     OW 5096   2.619   0.919   3.412  0.5101  0.0097 -0.0241
 1514SOL    HW1 5097   2.675   0.918   3.334  0.3514  2.2831 -0.2435
 1514SOL    HW2 5098   2.649   0.845   3.464  1.0681 -1.1658 -1.9262
 1515SOL     OW 5099   4.283   0.130   1.712 -0.4417 -0.1424  0.2720
 1515SOL    HW1 5100   4.247   0.211   1.676  0.3243 -0.1848 -0.6239
 1515SOL    HW2 5101   4.302   0.152   1.803 -0.1464  0.7219  0.0168
 1516SOL     OW 5102   7.628   7.442   0.532  0.1277 -0.1338 -0.3924
 1516SOL    HW1 5103   7.549   7.414   0.485  0.1658 -0.0144 -0.5313
 1516SOL    HW2 5104   7.648   7.528   0.495  0.4318 -0.2448 -0.4929
 1517SOL     OW 5105   2.271   1.178   7.630  0.1774  0.0310  0.1004
 1517SOL    HW1 5106   2.293   1.270   7.616  0.2475  0.2676  1.6453
 1517SOL    HW2 5107   2.342   1.130   7.586 -0.1838  0.6653 -1.2473
 1518SOL     OW 5108   1.239   4.744   2.514  0.9538  0.4669  0.0796
 1518SOL    HW1 5109   1.209   4.677   2.576  0.0021  0.9807  0.2005
 1518SOL    HW2 5110   1.183   4.819   2.532  2.1315  1.3759  0.0745
 1519SOL     OW 5111   4.866   0.913   5.904 -0.5484  0.0856  0.6676
 1519SOL    HW1 5112   4.859   0.873   5.818  0.4136 -0.4227  0.8100
 1519SOL    HW2 5113   4.856   0.840   5.965  1.2298 -0.0023  0.9320
 1520SOL     OW 5114   6.842   4.038   0.712  0.1846 -0.2486  0.6028
 1520SOL    HW1 5115   6.782   4.099   0.670  0.0121 -0.3019  0.7675
 1520SOL    HW2 5116   6.928   4.064   0.681 -0.0275 -1.0316 -0.7117
 1521SOL     OW 5117   5.325   7.037   1.044  0.1085  0.2524 -0.3403
 1521SOL    HW1 5118   5.288   6.960   1.001  1.1819 -0.0663 -0.7114
 1521SOL    HW2 5119   5.386   7.002   1.109 -0.1605  0.7742  0.2037
 1522SOL     OW 5120   0.510   6.861   1.193 -0.0915 -0.1104  0.1001
 1522SOL    HW1 5121   0.505   6.770   1.164  0.0355  0.1549 -0.7945
 1522SOL    HW2 5122   0.541   6.909   1.115 -1.5103  0.8982  0.1277
 1523SOL     OW 5123   2.205   0.720   0.739 -0.1850  0.3595 -0.3169
 1523SOL    HW1 5124   2.200   0.630   0.706  0.5411  0.0259  0.4381
 1523SOL    HW2 5125   2.178   0.775   0.665  1.3752 -0.3569 -1.4567
 1524SOL     OW 5126   7.637   0.486   3.451  0.4333  0.3930 -0.2590
 1524SOL    HW1 5127   7.582   0.560   3.478 -1.1361 -0.8300  0.0564
 1524SOL    HW2 5128   7.590   0.449   3.376  0.8626 -0.6603 -0.0145
 1525SOL     OW 5129   4.731   7.475   3.728  0.3350 -0.0877 -0.1221
 1525SOL    HW1 5130   4.748   7.509   3.640  0.8725  1.1703  0.4587
 1525SOL    HW2 5131   4.679   7.543   3.771  1.1398 -0.1255  0.9428
 1526SOL     OW 5132   1.380   3.536   1.031 -0.0697 -0.0445 -0.4185
 1526SOL    HW1 5133   1.378   3.569   0.942  1.4350  0.8427 -0.1662
 1526SOL    HW2 5134   1.322   3.593   1.080  0.6570  0.7510 -0.4593
 1527SOL     OW 5135   0.466   7.230   7.167  0.0848 -0.0264 -0.1419
 1527SOL    HW1 5136   0.457   7.175   7.245 -0.2156  1.9320  1.2909
 1527SOL    HW2 5137   0.540   7.193   7.119  1.2798 -0.4036  1.8844
 1528SOL     OW 5138   7.559   5.530   6.111 -0.0897 -1.3182  1.0054
 1528SOL    HW1 5139   7.477   5.577   6.098  1.3585  1.5748  1.6764
 1528SOL    HW2 5140   7.547   5.448   6.062 -2.9153 -0.5148  0.1583
 1529SOL     OW 5141   6.030   1.681   4.266  0.1972  0.2896 -0.1086
 1529SOL    HW1 5142   6.117   1.658   4.300 -0.1190  0.3544  0.7729
 1529SOL    HW2 5143   5.969   1.651   4.333 -0.4226  0.7860 -0.4367
 1530SOL     OW 5144   4.182   7.152   3.105  0.0011 -0.1845  0.0276
 1530SOL    HW1 5145   4.222   7.152   3.018  0.3608  0.3305  0.1880
 1530SOL    HW2 5146   4.191   7.061   3.135  0.9354 -0.1139  0.0055
 1531SOL     OW 5147   6.352   4.462   7.362 -0.6178  0.4558 -0.2541
 1531SOL    HW1 5148   6.328   4.413   7.441  1.2265 -0.7266 -0.3855
 1531SOL    HW2 5149   6.271   4.463   7.310 -1.6147  0.4747  1.2177
 1532SOL     OW 5150   6.196   7.641   0.472  0.1284 -0.2488  0.3113
 1532SOL    HW1 5151   6.221   7.714   0.529 -1.0018  0.0350  0.4643
 1532SOL    HW2 5152   6.107   7.619   0.499  0.6953 -2.1590  0.7441
 1533SOL     OW 5153   3.033   7.046   5.498  0.4808 -0.3458 -0.4184
 1533SOL    HW1 5154   3.071   6.959   5.486 -2.7391 -1.7113 -1.8223
 1533SOL    HW2 5155   2.983   7.062   5.418 -0.4586  2.0602  0.5471
 1534SOL     OW 5156   6.109   7.503   1.684  0.3342 -0.0887  0.3775
 1534SOL    HW1 5157   6.086   7.527   1.774  1.0175 -1.4741  0.9562
 1534SOL    HW2 5158   6.172   7.570   1.657 -1.4775  1.6059  0.0888
 1535SOL     OW 5159   6.009   5.749   6.038  0.6208 -0.2339 -0.6904
 1535SOL    HW1 5160   6.079   5.713   5.984  0.9590 -1.2020  0.3511
 1535SOL    HW2 5161   6.050   5.764   6.123 -0.8424 -2.6344  0.5304
 1536SOL     OW 5162   2.789   0.981   2.396 -0.1885  0.0345 -0.1171
 1536SOL    HW1 5163   2.829   1.004   2.480  0.7174 -0.3457 -0.4317
 1536SOL    HW2 5164   2.835   1.035   2.332 -2.9385  2.6851 -0.1125
 1537SOL     OW 5165   6.910   4.845   0.127  0.3778  0.2654  0.0968
 1537SOL    HW1 5166   6.853   4.781   0.170  0.6048 -0.0342 -0.0399
 1537SOL    HW2 5167   6.869   4.859   0.042  0.6345 -0.1327 -0.0958
 1538SOL     OW 5168   3.008   6.362   6.269  0.5204  0.7428 -0.7042
 1538SOL    HW1 5169   2.978   6.343   6.180 -0.7947 -1.6550  0.1438
 1538SOL    HW2 5170   2.931   6.349   6.324  1.4375  1.6042  0.8628
 1539SOL     OW 5171   6.015   2.615   6.022 -0.4873  0.0113  0.1718
 1539SOL    HW1 5172   5.968   2.638   6.102  0.8292  1.5565  0.5485
 1539SOL    HW2 5173   6.096   2.666   6.026 -0.4787  0.3052 -2.2437
 1540SOL     OW 5174   3.908   1.621   2.684 -0.8038  0.2880 -0.2644
 1540SOL    HW1 5175   3.955   1.572   2.752 -0.2824  0.2329 -0.6563
 1540SOL    HW2 5176   3.967   1.619   2.608 -0.2198  2.5675  0.0684
 1541SOL     OW 5177   5.642   2.868   0.749 -0.7934  0.0884 -0.5122
 1541SOL    HW1 5178   5.567   2.927   0.758 -1.4476 -0.9209  1.0423
 1541SOL    HW2 5179   5.639   2.814   0.828  1.5451 -0.0248 -0.4501
 1542SOL     OW 5180   7.724   3.798   1.485  0.1892 -0.6406  1.0271
 1542SOL    HW1 5181   7.733   3.749   1.403  1.7179  3.1248 -1.3384
 1542SOL    HW2 5182   7.805   3.849   1.492 -2.3419  3.9129  1.3112
 1543SOL     OW 5183   0.941   6.788   5.844  0.2396  0.1969  0.5693
 1543SOL    HW1 5184   1.007   6.804   5.912  0.6663  0.0555  0.1949
 1543SOL    HW2 5185   0.877   6.859   5.856  1.5008  1.5633 -0.3267
 1544SOL     OW 5186   0.600   4.838   6.090 -0.3298 -0.4170 -0.3549
 1544SOL    HW1 5187   0.683   4.823   6.045  0.0346  1.1118 -0.2557
 1544SOL    HW2 5188   0.566   4.750   6.107  1.1336 -1.0754 -0.6253
 1545SOL     OW 5189   7.248   0.843   3.482  0.4911 -0.2066 -0.1430
 1545SOL    HW1 5190   7.191   0.835   3.559 -0.0895  0.2803 -0.5189
 1545SOL    HW2 5191   7.215   0.778   3.420  0.8330 -0.4584 -0.0656
 1546SOL     OW 5192   0.351   2.153   5.080 -0.5871  0.1521 -0.5128
 1546SOL    HW1 5193   0.361   2.226   5.018 -2.8164  0.2380 -0.8627
 1546SOL    HW2 5194   0.266   2.116   5.059  0.2353 -2.2163  0.0787
 1547SOL     OW 5195   1.788   6.758   4.231  0.6114 -0.4768  0.0178
 1547SOL    HW1 5196   1.803   6.720   4.318 -0.9732 -0.9755  0.1174
 1547SOL    HW2 5197   1.747   6.843   4.249 -1.0962 -1.2115 -0.2045
 1548SOL     OW 5198   1.947   0.645   6.809  0.1068 -0.1905 -0.0263
 1548SOL    HW1 5199   1.986   0.598   6.883 -0.4099  0.0547  0.4074
 1548SOL    HW2 5200   2.006   0.719   6.794  0.4406 -0.4744 -0.1364
 1549SOL     OW 5201   4.163   2.096   4.472  0.2323  0.0197 -0.0539
 1549SOL    HW1 5202   4.105   2.162   4.509 -0.0598 -0.7715  0.9442
 1549SOL    HW2 5203   4.238   2.093   4.533  0.2220 -0.5879 -0.0596
 1550SOL     OW 5204   3.596   5.590   2.365 -0.5650  0.5236  0.3907
 1550SOL    HW1 5205   3.672   5.636   2.400 -1.6397  2.5283  0.2322
 1550SOL    HW2 5206   3.561   5.649   2.297 -2.3738 -0.2227  0.6205
 1551SOL     OW 5207   4.022   1.854   3.226 -0.0461  0.1644 -0.7312
 1551SOL    HW1 5208   3.969   1.933   3.231 -0.5783 -0.0259 -2.6388
 1551SOL    HW2 5209   4.044   1.834   3.317 -3.7839 -0.1284  0.2775
 1552SOL     OW 5210   4.132   3.564   6.472  0.8930 -0.1638 -0.2663
 1552SOL    HW1 5211   4.063   3.619   6.434 -0.3139 -0.4189  1.4491
 1552SOL    HW2 5212   4.175   3.620   6.536 -1.0675 -1.4022  2.3046
 1553SOL     OW 5213   1.283   1.685   2.168  0.4685  0.6804 -0.1955
 1553SOL    HW1 5214   1.274   1.665   2.261  0.2343  0.8442 -0.1800
 1553SOL    HW2 5215   1.287   1.781   2.165  1.5985  0.6401 -0.2646
 1554SOL     OW 5216   3.731   5.617   6.930 -0.2423 -0.4418 -0.0100
 1554SOL    HW1 5217   3.654   5.637   6.984  0.4252 -1.5009  1.4103
 1554SOL    HW2 5218   3.795   5.582   6.992  0.7095 -1.3674 -1.4591
 1555SOL     OW 5219   7.109   0.166   7.739  0.5028 -0.2506  0.0629
 1555SOL    HW1 5220   7.077   0.079   7.763 -0.4377 -0.5125 -1.8955
 1555SOL    HW2 5221   7.035   0.206   7.692  1.7407  0.6446 -1.2030
 1556SOL     OW 5222   1.098   4.961   6.096  0.5131  0.2354 -0.1281
 1556SOL    HW1 5223   1.177   5.009   6.121 -1.0253  2.0157  1.6482
 1556SOL    HW2 5224   1.077   4.907   6.172 -0.9205  1.1849  0.2181
 1557SOL     OW 5225   0.697   1.494   4.372  0.1746  0.0122 -0.0880
 1557SOL    HW1 5226   0.665   1.557   4.307 -1.1327 -0.8025 -0.2774
 1557SOL    HW2 5227   0.663   1.525   4.455  1.1976  0.6234  0.1246
 1558SOL     OW 5228   0.623   7.286   1.269 -0.6721  0.1246  0.1170
 1558SOL    HW1 5229   0.659   7.363   1.226 -2.3023  0.7032 -0.2715
 1558SOL    HW2 5230   0.562   7.249   1.206 -0.2650 -1.2326  0.4801
 1559SOL     OW 5231   2.869   3.610   4.008 -0.3583  0.0431  0.4665
 1559SOL    HW1 5232   2.836   3.694   4.040 -0.4494  0.5578 -0.9297
 1559SOL    HW2 5233   2.807   3.545   4.041  0.3052  0.3520  2.4988
 1560SOL     OW 5234   7.448   1.178   3.639 -0.4998  0.6264 -0.1343
 1560SOL    HW1 5235   7.525   1.233   3.623  0.8545 -0.8217  1.1344
 1560SOL    HW2 5236   7.469   1.129   3.718 -2.2331 -0.7337 -0.4510
 1561SOL     OW 5237   1.359   3.649   0.776 -0.3468 -0.1828  0.1240
 1561SOL    HW1 5238   1.270   3.627   0.748 -1.0471  2.9736 -0.4391
 1561SOL    HW2 5239   1.413   3.637   0.698 -0.7859  0.5595 -0.2975
 1562SOL     OW 5240   6.991   5.228   6.987 -0.3279 -0.3915  0.1576
 1562SOL    HW1 5241   6.988   5.172   6.910 -0.3456 -0.2846  0.0803
 1562SOL    HW2 5242   7.080   5.262   6.990 -0.2811 -0.5242  0.2763
 1563SOL     OW 5243   7.072   4.297   2.898  0.0247  0.0153  0.1869
 1563SOL    HW1 5244   7.012   4.367   2.923 -0.8651 -0.2150 -1.1792
 1563SOL    HW2 5245   7.114   4.328   2.818 -0.0937 -0.8271 -0.2233
 1564SOL     OW 5246   3.126   3.761   1.257 -0.7074  0.0145  1.0892
 1564SOL    HW1 5247   3.114   3.850   1.291  2.3234 -0.0260  2.5650
 1564SOL    HW2 5248   3.203   3.766   1.201 -0.5228 -1.6528  1.1469
 1565SOL     OW 5249   5.765   6.187   7.096 -0.3978 -0.2058  0.0438
 1565SOL    HW1 5250   5.692   6.143   7.140 -0.0997 -2.2718 -1.3609
 1565SOL    HW2 5251   5.739   6.188   7.004 -0.1528  2.2423 -0.0558
 1566SOL     OW 5252   4.695   6.510   2.270 -0.2941  0.5012 -0.4119
 1566SOL    HW1 5253   4.622   6.524   2.210 -0.5128  2.0880  0.1534
 1566SOL    HW2 5254   4.670   6.432   2.320 -0.9539  0.2204 -1.1583
 1567SOL     OW 5255   5.828   5.329   1.555  0.4219  0.6071  0.0493
 1567SOL    HW1 5256   5.833   5.235   1.567 -1.4213  0.3464 -0.9663
 1567SOL    HW2 5257   5.866   5.365   1.636  0.9320 -0.9724  0.5537
 1568SOL     OW 5258   2.919   3.556   6.460 -0.0455  0.0733  0.1234
 1568SOL    HW1 5259   2.869   3.535   6.382 -0.8805 -0.3752  0.7641
 1568SOL    HW2 5260   2.986   3.618   6.430 -0.7030  0.3377 -0.8318
 1569SOL     OW 5261   0.048   2.945   3.103 -0.1402  0.2856 -0.5667
 1569SOL    HW1 5262   0.086   3.020   3.057  2.2109 -0.3814  0.1635
 1569SOL    HW2 5263   0.099   2.937   3.183 -2.9081  0.2529  1.3411
 1570SOL     OW 5264   0.262   0.869   5.854 -0.6101 -0.0439  0.4121
 1570SOL    HW1 5265   0.250   0.877   5.949 -1.2507 -1.6440  0.4948
 1570SOL    HW2 5266   0.235   0.780   5.834  1.3169 -0.3738 -1.0214
 1571SOL     OW 5267   4.063   5.676   0.472  0.1023  0.2747 -0.3095
 1571SOL    HW1 5268   4.133   5.721   0.520  0.0786 -0.8091  0.7767
 1571SOL    HW2 5269   4.106   5.645   0.392  1.6336 -2.5322  1.4248
 1572SOL     OW 5270   4.955   1.183   1.865 -0.0133 -0.0186  0.1866
 1572SOL    HW1 5271   4.943   1.165   1.959  2.3393  0.9442  0.7534
 1572SOL    HW2 5272   5.028   1.127   1.839 -2.8331 -3.0166 -2.1049
 1573SOL     OW 5273   5.355   5.019   6.596  1.0773  0.2904 -0.0481
 1573SOL    HW1 5274   5.446   5.017   6.624  1.4553  1.5276 -1.1163
 1573SOL    HW2 5275   5.347   5.098   6.543 -0.0869 -0.8937 -1.7490
 1574SOL     OW 5276   3.476   2.916   7.252  0.4082  0.1961  0.4230
 1574SOL    HW1 5277   3.405   2.945   7.196  0.0889  2.0716  1.7304
 1574SOL    HW2 5278   3.455   2.950   7.339  2.8452  0.7397  0.8749
 1575SOL     OW 5279   1.279   4.296   5.647 -0.3821 -0.0906  0.2187
 1575SOL    HW1 5280   1.265   4.208   5.611  1.2847 -1.1238  1.9345
 1575SOL    HW2 5281   1.195   4.319   5.686 -0.7670 -1.0255 -0.0137
 1576SOL     OW 5282   7.535   5.137   7.602 -0.3545 -0.1429  0.1591
 1576SOL    HW1 5283   7.448   5.169   7.582 -0.1105  0.6866  0.3712
 1576SOL    HW2 5284   7.591   5.174   7.534  0.3280  1.9644  1.7712
 1577SOL     OW 5285   6.491   4.349   0.197 -0.2175  0.5532  0.9394
 1577SOL    HW1 5286   6.435   4.271   0.192 -1.3452  1.3446  1.0115
 1577SOL    HW2 5287   6.579   4.313   0.212 -0.5713 -0.7404  0.1252
 1578SOL     OW 5288   3.311   1.104   5.894  0.2525  0.0706  0.6875
 1578SOL    HW1 5289   3.223   1.140   5.883  0.7250  1.3107  0.7043
 1578SOL    HW2 5290   3.336   1.074   5.806 -1.2216 -2.9599  1.1813
 1579SOL     OW 5291   1.433   3.195   2.884 -0.1301 -0.0182  0.0498
 1579SOL    HW1 5292   1.465   3.277   2.923  1.9404 -1.5290  1.7289
 1579SOL    HW2 5293   1.480   3.126   2.930 -0.5847 -2.1432 -2.4401
 1580SOL     OW 5294   1.328   2.865   4.024 -0.0228 -0.1027  0.0510
 1580SOL    HW1 5295   1.353   2.897   4.110  0.0674  0.6658 -0.2557
 1580SOL    HW2 5296   1.232   2.869   4.024 -0.0194 -0.0269  0.0809
 1581SOL     OW 5297   1.775   5.590   7.290 -0.2656 -0.1646 -0.6653
 1581SOL    HW1 5298   1.764   5.636   7.373  0.0097 -0.7335 -0.3101
 1581SOL    HW2 5299   1.744   5.502   7.307  0.3689 -0.4585 -0.9880
 1582SOL     OW 5300   4.639   3.971   4.498  0.4785  0.0777  0.2295
 1582SOL    HW1 5301   4.682   3.900   4.450 -0.4629 -1.0011  0.9441
 1582SOL    HW2 5302   4.615   4.034   4.430 -0.3363 -1.1634 -0.6774
 1583SOL     OW 5303   7.114   3.364   4.849  0.1216 -0.1068  0.0244
 1583SOL    HW1 5304   7.073   3.424   4.911 -2.5059 -0.5444 -1.1654
 1583SOL    HW2 5305   7.176   3.418   4.800 -0.0739  0.9329  0.8763
 1584SOL     OW 5306   1.991   2.861   7.727 -0.2361  0.0722  0.3188
 1584SOL    HW1 5307   1.950   2.926   7.783  1.6201  0.4983  1.2740
 1584SOL    HW2 5308   1.918   2.813   7.688 -1.6222  1.6969  0.7921
 1585SOL     OW 5309   2.938   5.451   1.875 -0.2591 -0.4047  0.1078
 1585SOL    HW1 5310   2.894   5.379   1.831  0.1707 -0.1804 -0.7405
 1585SOL    HW2 5311   2.905   5.530   1.831  2.0922 -0.2940 -1.7133
 1586SOL     OW 5312   1.176   2.935   5.346 -0.2390 -0.4787 -0.4182
 1586SOL    HW1 5313   1.132   2.978   5.273  1.4262  0.4552 -0.9326
 1586SOL    HW2 5314   1.206   2.851   5.309 -0.7950 -0.7201 -0.3266
 1587SOL     OW 5315   5.352   1.475   6.950 -0.3036  0.0264 -0.5162
 1587SOL    HW1 5316   5.302   1.502   6.873 -0.5110 -0.2413 -0.4772
 1587SOL    HW2 5317   5.439   1.514   6.937 -0.0091 -0.8911 -1.4089
 1588SOL     OW 5318   5.539   4.398   2.498  0.0264 -0.6744  0.3410
 1588SOL    HW1 5319   5.479   4.423   2.568  0.7239  0.5242  0.5353
 1588SOL    HW2 5320   5.490   4.335   2.445 -0.6062 -1.4072  1.7434
 1589SOL     OW 5321   3.573   3.320   1.367  0.0255  0.5695 -0.1654
 1589SOL    HW1 5322   3.537   3.347   1.451 -1.8129  2.7875 -1.5292
 1589SOL    HW2 5323   3.665   3.301   1.385 -0.7339 -1.1025  2.6815
 1590SOL     OW 5324   1.975   7.002   2.127  0.0480  0.1304 -0.1244
 1590SOL    HW1 5325   1.986   7.092   2.156 -0.2037  0.0080  0.3713
 1590SOL    HW2 5326   1.896   7.004   2.073 -0.5674  0.0276  0.7414
 1591SOL     OW 5327   6.933   0.005   1.874  0.3589  0.2736 -0.4354
 1591SOL    HW1 5328   6.904  -0.075   1.831  0.5930  0.4413 -0.9198
 1591SOL    HW2 5329   6.882   0.075   1.831  0.0442  0.3713  0.0875
 1592SOL     OW 5330   5.584   5.127   2.610  0.6454  0.0772  0.0811
 1592SOL    HW1 5331   5.623   5.076   2.681 -0.7719  0.0976  0.9090
 1592SOL    HW2 5332   5.659   5.166   2.565  1.5816  0.2417  1.7092
 1593SOL     OW 5333   2.116   4.057   4.916  0.4701  0.2327 -0.0037
 1593SOL    HW1 5334   2.118   4.001   4.994  0.4697 -0.9068 -0.7900
 1593SOL    HW2 5335   2.114   4.146   4.950 -1.1121 -0.2586  1.3127
 1594SOL     OW 5336   2.538   3.613   3.233 -0.0133  0.1528 -0.1276
 1594SOL    HW1 5337   2.463   3.595   3.177  0.0035  0.5585 -0.2803
 1594SOL    HW2 5338   2.503   3.663   3.307  0.2754  1.3343 -0.7602
 1595SOL     OW 5339   3.963   5.093   0.776  0.0570  0.4213 -0.1138
 1595SOL    HW1 5340   3.898   5.126   0.714  1.2918 -0.1393 -1.7899
 1595SOL    HW2 5341   3.936   5.002   0.791 -0.4015  0.6384  0.4190
 1596SOL     OW 5342   7.011   5.541   3.952  0.1054  0.5491 -0.7509
 1596SOL    HW1 5343   7.065   5.512   4.027 -2.3173 -0.3418  0.7800
 1596SOL    HW2 5344   7.068   5.529   3.876  1.3643 -2.5290  0.5002
 1597SOL     OW 5345   5.256   3.077   2.084 -0.3408  0.2653 -0.6053
 1597SOL    HW1 5346   5.193   3.016   2.046  1.9449 -1.1709 -2.3416
 1597SOL    HW2 5347   5.293   3.030   2.159  1.4355 -0.6350 -1.9552
 1598SOL     OW 5348   2.895   0.623   3.167 -0.4783 -0.0130 -0.4691
 1598SOL    HW1 5349   2.913   0.536   3.130  0.6705 -1.0935  2.3281
 1598SOL    HW2 5350   2.979   0.668   3.164 -0.9297  0.7882 -1.3333
 1599SOL     OW 5351   2.031   4.058   6.071  0.0762  0.7216  0.2390
 1599SOL    HW1 5352   1.980   4.125   6.025  1.9583  1.4907 -0.8070
 1599SOL    HW2 5353   2.121   4.072   6.043  0.9991 -0.1841  2.5218
 1600SOL     OW 5354   0.887   1.774   6.474 -0.4173  0.1434  0.5599
 1600SOL    HW1 5355   0.874   1.745   6.383  0.4326  0.6442  0.2711
 1600SOL    HW2 5356   0.802   1.809   6.500 -0.1045  2.1734 -0.8670
 1601SOL     OW 5357   5.457   3.321   2.138 -0.2440  0.1996 -0.2281
 1601SOL    HW1 5358   5.515   3.323   2.062  1.5366 -1.4683  0.9822
 1601SOL    HW2 5359   5.406   3.240   2.128 -1.0685  0.7238 -0.3616
 1602SOL     OW 5360   7.493   5.315   5.656  0.0341  0.5774  0.4834
 1602SOL    HW1 5361   7.535   5.229   5.650  0.3893  0.6735  1.4452
 1602SOL    HW2 5362   7.401   5.298   5.636  0.4532  0.3311 -1.4716
 1603SOL     OW 5363   2.048   3.676   0.670  0.2631 -0.4089 -0.0598
 1603SOL    HW1 5364   2.131   3.692   0.625  0.2919  1.5501  0.6041
 1603SOL    HW2 5365   1.982   3.688   0.601  0.4933 -2.1438 -0.6293
 1604SOL     OW 5366   5.833   0.034   5.915  0.5098 -0.3533  0.1542
 1604SOL    HW1 5367   5.765   0.056   5.979  0.7272 -1.6681  0.8821
 1604SOL    HW2 5368   5.791  -0.031   5.858 -0.3481  2.2012 -2.3570
 1605SOL     OW 5369   2.687   4.395   3.710 -0.0592  0.0850  0.7428
 1605SOL    HW1 5370   2.752   4.376   3.643  1.5152  0.0481  2.2093
 1605SOL    HW2 5371   2.613   4.337   3.689  1.0167 -1.0514 -0.0491
 1606SOL     OW 5372   2.317   1.993   0.688  0.2804 -0.4016  0.4102
 1606SOL    HW1 5373   2.381   1.938   0.732  1.2363  0.2005 -0.2000
 1606SOL    HW2 5374   2.283   2.050   0.757 -0.3852 -1.4259  0.9516
 1607SOL     OW 5375   6.921   2.350   3.731  0.3720 -0.3971  0.1366
 1607SOL    HW1 5376   6.914   2.441   3.757  1.0943  1.3665 -4.8015
 1607SOL    HW2 5377   7.012   2.326   3.751 -0.3893 -1.0330  3.5398
 1608SOL     OW 5378   5.818   6.978   3.080 -0.0793 -0.0333 -0.3518
 1608SOL    HW1 5379   5.896   7.020   3.118  0.4745 -0.7860 -0.6330
 1608SOL    HW2 5380   5.744   7.024   3.121  0.5052 -0.1092  0.8322
 1609SOL     OW 5381   5.698   2.111   1.577 -0.6202  0.3488 -0.4306
 1609SOL    HW1 5382   5.792   2.117   1.560 -0.8090  0.5107 -1.4832
 1609SOL    HW2 5383   5.687   2.150   1.664  0.5375 -1.5853  0.6411
 1610SOL     OW 5384   3.837   6.631   4.248 -0.5208 -0.2536 -0.0891
 1610SOL    HW1 5385   3.819   6.537   4.237 -0.9541 -0.1968  0.0902
 1610SOL    HW2 5386   3.904   6.650   4.183 -1.4985 -0.3816 -1.1678
 1611SOL     OW 5387   2.032   5.829   6.655  0.2394 -0.0951  0.6365
 1611SOL    HW1 5388   2.085   5.780   6.592 -0.1186 -0.4743  0.6290
 1611SOL    HW2 5389   2.082   5.825   6.737  0.3168 -0.2824  0.5794
 1612SOL     OW 5390   0.715   0.547   5.124  0.8246  0.2888 -0.5015
 1612SOL    HW1 5391   0.725   0.603   5.047  1.8662  0.8635  0.0390
 1612SOL    HW2 5392   0.781   0.578   5.185  0.3116 -0.4606  0.4571
 1613SOL     OW 5393   5.293   5.390   1.488  0.0595  0.1958 -0.1118
 1613SOL    HW1 5394   5.240   5.373   1.411  0.3629  0.4000 -0.3711
 1613SOL    HW2 5395   5.268   5.479   1.515 -0.4814 -0.1032  0.3839
 1614SOL     OW 5396   6.414   0.317   4.141  0.4815 -0.2725 -0.4778
 1614SOL    HW1 5397   6.383   0.367   4.216  1.0807 -0.2086 -0.2682
 1614SOL    HW2 5398   6.337   0.309   4.084  0.2439  0.4134 -0.2593
 1615SOL     OW 5399   0.257   2.871   1.482 -0.5550 -0.2712 -0.5092
 1615SOL    HW1 5400   0.231   2.796   1.429  1.7430  0.1351 -2.3841
 1615SOL    HW2 5401   0.327   2.837   1.538  0.5679  0.4208 -1.4362
 1616SOL     OW 5402   2.328   5.468   7.247  0.1313  0.0253  0.7484
 1616SOL    HW1 5403   2.342   5.549   7.197  0.8001 -1.7725 -2.1961
 1616SOL    HW2 5404   2.414   5.447   7.283  0.8002 -1.1104 -1.3936
 1617SOL     OW 5405   4.439   2.813   7.231 -0.6642 -0.1756 -0.1492
 1617SOL    HW1 5406   4.389   2.844   7.306 -2.4606 -1.5931 -0.6894
 1617SOL    HW2 5407   4.523   2.785   7.268 -0.6909  1.1599  0.9672
 1618SOL     OW 5408   3.102   6.399   1.340  0.3560 -0.7933 -0.0090
 1618SOL    HW1 5409   3.125   6.438   1.424 -0.7036 -3.1212  1.4529
 1618SOL    HW2 5410   3.069   6.472   1.287  0.2654  0.5839  1.8699
 1619SOL     OW 5411   0.244   0.781   0.807 -0.1871 -0.5922  0.7019
 1619SOL    HW1 5412   0.218   0.700   0.762  0.0371 -0.7515  0.8597
 1619SOL    HW2 5413   0.197   0.778   0.890 -1.4174  0.1929  0.0797
 1620SOL     OW 5414   2.342   6.438   6.116 -0.1223 -0.0026  0.1823
 1620SOL    HW1 5415   2.298   6.353   6.110  0.0104 -0.0117 -0.8078
 1620SOL    HW2 5416   2.270   6.501   6.126 -0.2162 -0.2237  1.0043
 1621SOL     OW 5417   4.988   1.706   0.834  0.6401 -0.3082  0.1543
 1621SOL    HW1 5418   4.926   1.634   0.837 -1.8688  1.4802 -2.5380
 1621SOL    HW2 5419   5.073   1.665   0.817 -0.2214 -2.6905  1.1840
 1622SOL     OW 5420   4.348   0.382   7.329 -0.2664 -0.1759 -0.2127
 1622SOL    HW1 5421   4.276   0.434   7.293  0.8916  1.4807 -0.2495
 1622SOL    HW2 5422   4.305   0.308   7.372 -1.8530 -0.5611 -2.2987
 1623SOL     OW 5423   3.979   2.711   3.225  0.1064 -0.3201 -0.3634
 1623SOL    HW1 5424   3.969   2.632   3.278 -1.0006 -0.1325 -0.2738
 1623SOL    HW2 5425   4.006   2.679   3.139  3.8876 -0.5335  0.7272
 1624SOL     OW 5426   1.838   6.496   2.592  0.3258  0.1526 -0.2070
 1624SOL    HW1 5427   1.886   6.453   2.662 -0.0130 -1.7006 -1.0641
 1624SOL    HW2 5428   1.839   6.433   2.520 -2.1590  0.6388 -0.7375
 1625SOL     OW 5429   0.570   4.194   5.100 -0.3901  0.1223 -0.2886
 1625SOL    HW1 5430   0.614   4.276   5.124 -0.9819  0.4511 -0.3199
 1625SOL    HW2 5431   0.486   4.197   5.145  0.2443 -1.2482  1.1001
 1626SOL     OW 5432   0.395   4.974   4.542  0.2167 -0.6117 -0.2317
 1626SOL    HW1 5433   0.379   4.908   4.610 -0.7769  0.1645  0.3149
 1626SOL    HW2 5434   0.490   4.980   4.536  0.3872  0.7070  2.5058
 1627SOL     OW 5435   4.376   3.978   1.427 -0.1768  0.1744  0.3772
 1627SOL    HW1 5436   4.466   3.971   1.460 -0.4783  0.8117  1.3938
 1627SOL    HW2 5437   4.384   4.020   1.342  0.5305 -0.3578  0.1706
 1628SOL     OW 5438   4.488   2.511   7.738  0.2135  0.1994  0.0658
 1628SOL    HW1 5439   4.519   2.566   7.810  0.7693 -0.0837  0.0465
 1628SOL    HW2 5440   4.423   2.453   7.778 -1.2383  1.6221 -0.1400
 1629SOL     OW 5441   2.872   3.767   0.906 -0.7239  0.2755  0.3802
 1629SOL    HW1 5442   2.786   3.782   0.946 -1.2711 -0.5925 -0.4177
 1629SOL    HW2 5443   2.858   3.782   0.813 -0.5213 -1.7200 -0.0331
 1630SOL     OW 5444   4.997   2.121   1.055  0.6343  0.2526 -0.5515
 1630SOL    HW1 5445   4.909   2.144   1.025  0.2751 -0.2966  0.0481
 1630SOL    HW2 5446   5.048   2.108   0.975  0.3490  1.2126 -0.9069
 1631SOL     OW 5447   3.530   3.147   2.482  0.5919  0.0335  0.0449
 1631SOL    HW1 5448   3.552   3.226   2.432 -1.6379 -0.7431 -2.3784
 1631SOL    HW2 5449   3.586   3.079   2.445  0.8052 -0.0121  0.4506
 1632SOL     OW 5450   6.545   0.248   6.232 -0.1219  0.3680 -0.0493
 1632SOL    HW1 5451   6.586   0.166   6.259  0.0373  0.2681 -0.5803
 1632SOL    HW2 5452   6.469   0.220   6.180 -0.9471  0.5463  1.0197
 1633SOL     OW 5453   1.799   0.054   0.319  0.0666 -0.0166 -0.4412
 1633SOL    HW1 5454   1.797  -0.038   0.293  0.7953  0.1491 -1.1048
 1633SOL    HW2 5455   1.754   0.100   0.248 -0.2423  0.1463 -0.1407
 1634SOL     OW 5456   3.108   4.007   7.060  0.2515  0.4306  0.4732
 1634SOL    HW1 5457   3.059   4.080   7.022  1.1285 -0.2004 -2.1435
 1634SOL    HW2 5458   3.055   3.978   7.134 -1.0028  2.5622  0.5055
 1635SOL     OW 5459   3.022   6.377   0.234 -0.5351  0.2391  0.0084
 1635SOL    HW1 5460   3.089   6.420   0.182 -0.7911 -0.4494 -0.9274
 1635SOL    HW2 5461   2.990   6.445   0.294  1.3717  0.4137  0.8767
 1636SOL     OW 5462   5.056   5.733   4.498  0.5783 -0.3153 -0.7943
 1636SOL    HW1 5463   5.108   5.665   4.455  0.6263 -1.5199  1.0595
 1636SOL    HW2 5464   5.025   5.692   4.579 -0.3277  1.5269 -0.1562
 1637SOL     OW 5465   1.526   6.246   2.818 -0.1246  0.2855 -0.0341
 1637SOL    HW1 5466   1.604   6.251   2.873  0.1415  0.2097 -0.4060
 1637SOL    HW2 5467   1.467   6.189   2.867 -0.4721  1.3850  0.8813
 1638SOL     OW 5468   3.688   2.920   2.387 -0.1766 -0.3115 -0.3731
 1638SOL    HW1 5469   3.645   2.836   2.375  1.2462 -1.0723 -0.3261
 1638SOL    HW2 5470   3.725   2.941   2.302 -1.4196  0.8136 -0.6692
 1639SOL     OW 5471   2.810   0.740   4.712 -0.1334 -0.3445 -0.5961
 1639SOL    HW1 5472   2.745   0.809   4.720  3.0284  2.6961  3.1465
 1639SOL    HW2 5473   2.791   0.680   4.785  1.0595  0.5941  0.5581
 1640SOL     OW 5474   0.182   0.824   1.048 -0.7442 -0.1561 -0.7722
 1640SOL    HW1 5475   0.113   0.888   1.062 -1.0430 -0.4376 -0.9449
 1640SOL    HW2 5476   0.171   0.761   1.120 -0.4484 -0.0099 -0.5989
 1641SOL     OW 5477   6.781   4.564   5.582 -0.6204 -0.5614 -0.3532
 1641SOL    HW1 5478   6.755   4.646   5.624 -0.0068 -0.6917  0.2891
 1641SOL    HW2 5479   6.851   4.588   5.522 -2.3417 -0.1582 -2.3227
 1642SOL     OW 5480   3.659   3.086   4.362  0.3971  0.1864 -0.1027
 1642SOL    HW1 5481   3.566   3.068   4.344  0.5478 -0.4479 -0.2530
 1642SOL    HW2 5482   3.675   3.046   4.447  0.6826 -0.2215 -0.3474
 1643SOL     OW 5483   1.961   4.356   5.768  0.0715 -0.4168 -0.0970
 1643SOL    HW1 5484   1.994   4.443   5.788  1.5502 -1.3229  1.8064
 1643SOL    HW2 5485   1.902   4.368   5.694  1.2561  1.9817 -0.7433
 1644SOL     OW 5486   0.007   3.996   6.838 -0.3034  0.4771 -0.3548
 1644SOL    HW1 5487  -0.025   3.922   6.889 -2.1511  2.1636  1.0627
 1644SOL    HW2 5488   0.052   3.956   6.763  0.1111 -2.0505  1.1381
 1645SOL     OW 5489   2.826   1.886   3.616 -0.3468 -0.0667 -0.3127
 1645SOL    HW1 5490   2.820   1.819   3.547 -3.5678  1.3272 -1.6138
 1645SOL    HW2 5491   2.736   1.920   3.623  0.4163  1.6137  2.8512
 1646SOL     OW 5492   0.020   7.066   5.831  0.4514 -0.1887  0.2297
 1646SOL    HW1 5493  -0.021   7.127   5.769 -2.9983  0.4212  2.7742
 1646SOL    HW2 5494  -0.036   6.988   5.827  3.0373 -2.1202 -0.8003
 1647SOL     OW 5495   6.391   6.610   7.061  1.0762  0.2021  0.3431
 1647SOL    HW1 5496   6.391   6.686   7.120  2.5251  0.6130 -0.1491
 1647SOL    HW2 5497   6.454   6.633   6.993 -1.6839  0.4334 -2.3398
 1648SOL     OW 5498   7.359   5.223   2.585  0.1159  0.2016  0.8779
 1648SOL    HW1 5499   7.334   5.253   2.672 -0.0419 -0.7358  1.1613
 1648SOL    HW2 5500   7.294   5.157   2.562  0.7660 -0.3192  0.4884
 1649SOL     OW 5501   3.935   2.411   4.868  0.3484 -0.0077  0.5238
 1649SOL    HW1 5502   3.877   2.408   4.944 -1.1429  2.0404 -0.4265
 1649SOL    HW2 5503   3.987   2.491   4.881  0.6784 -0.1002 -0.1984
 1650SOL     OW 5504   5.324   7.241   1.944 -0.1548 -0.0971 -0.2982
 1650SOL    HW1 5505   5.325   7.221   2.038  1.3440  0.5126 -0.1516
 1650SOL    HW2 5506   5.240   7.207   1.913 -1.6584  1.6062  1.6649
 1651SOL     OW 5507   5.642   1.086   5.237 -0.4168  0.0630  0.2606
 1651SOL    HW1 5508   5.640   1.100   5.332  0.2949  1.3819  0.1149
 1651SOL    HW2 5509   5.697   1.009   5.225  1.0651  0.9721  0.8641
 1652SOL     OW 5510   0.440   2.522   4.010  0.3787 -0.1087 -0.7478
 1652SOL    HW1 5511   0.349   2.511   4.037  0.3114 -3.3645 -1.8934
 1652SOL    HW2 5512   0.437   2.586   3.939 -0.9184  0.2131 -0.4226
 1653SOL     OW 5513   2.983   0.254   4.975  0.1362  0.3452  0.1581
 1653SOL    HW1 5514   3.013   0.163   4.978  1.3464  0.7543  0.6842
 1653SOL    HW2 5515   2.905   0.251   4.919 -1.4462 -1.4573  2.2775
 1654SOL     OW 5516   7.722   0.879   5.803  0.0941  0.1984  0.7494
 1654SOL    HW1 5517   7.807   0.856   5.841  0.5576  1.5112  0.5269
 1654SOL    HW2 5518   7.701   0.964   5.841 -0.0051  0.9851 -0.9981
 1655SOL     OW 5519   6.594   0.825   6.393 -0.0942  0.1353  0.1283
 1655SOL    HW1 5520   6.596   0.795   6.302 -1.3689  0.1574  0.0715
 1655SOL    HW2 5521   6.686   0.840   6.416  0.2942 -0.4945 -0.9426
 1656SOL     OW 5522   2.134   1.806   1.664  0.1628 -0.4162 -0.0538
 1656SOL    HW1 5523   2.132   1.839   1.574 -2.5283 -0.4852 -0.0822
 1656SOL    HW2 5524   2.172   1.719   1.656  0.5974 -0.1562 -1.0094
 1657SOL     OW 5525   5.599   6.274   5.521 -0.0407 -0.4288  0.1437
 1657SOL    HW1 5526   5.584   6.309   5.434  0.3636  0.2964  0.3595
 1657SOL    HW2 5527   5.678   6.221   5.513 -0.8109 -1.5646 -0.2469
 1658SOL     OW 5528   6.839   5.769   7.257  0.3798  0.3851 -0.1044
 1658SOL    HW1 5529   6.901   5.697   7.268  0.7791  0.8296  0.5789
 1658SOL    HW2 5530   6.836   5.783   7.162 -1.2019 -1.8116 -0.4620
 1659SOL     OW 5531   4.001   4.313   0.898 -0.5806  0.2198  0.4814
 1659SOL    HW1 5532   3.996   4.219   0.884 -2.8022  0.4382 -0.6340
 1659SOL    HW2 5533   3.911   4.340   0.915 -0.1518  2.2740 -0.1671
 1660SOL     OW 5534   0.678   0.979   2.580 -0.4738  0.2377 -0.2378
 1660SOL    HW1 5535   0.610   0.913   2.597  1.8995 -2.6918 -1.2168
 1660SOL    HW2 5536   0.760   0.930   2.584  1.7104  3.6772  1.3811
 1661SOL     OW 5537   5.013   2.962   3.288  0.6708  0.0993  0.5581
 1661SOL    HW1 5538   4.995   2.961   3.194  0.2528 -0.3570  0.6406
 1661SOL    HW2 5539   4.970   3.042   3.319  0.3494 -0.0306  0.4498
 1662SOL     OW 5540   2.528   6.561   5.178 -0.3079  0.0030  0.5621
 1662SOL    HW1 5541   2.596   6.550   5.112  1.5721  2.8374  1.8392
 1662SOL    HW2 5542   2.573   6.551   5.262 -1.8869  0.0273  1.4608
 1663SOL     OW 5543   5.623   2.430   0.920 -0.5187 -0.1888 -0.3493
 1663SOL    HW1 5544   5.618   2.345   0.963 -0.9014 -0.4515 -0.8906
 1663SOL    HW2 5545   5.706   2.428   0.872 -1.6189 -1.2489 -2.3329
 1664SOL     OW 5546   1.729   2.915   4.395  0.0173  0.2631 -0.1857
 1664SOL    HW1 5547   1.674   2.991   4.414  0.5129  1.0344 -1.6970
 1664SOL    HW2 5548   1.817   2.950   4.386  0.4762 -0.6937  0.3450
 1665SOL     OW 5549   2.415   7.648   4.692 -0.4344 -0.0081  0.4525
 1665SOL    HW1 5550   2.398   7.556   4.676  0.9719 -0.1932 -0.1283
 1665SOL    HW2 5551   2.496   7.649   4.744 -0.9680  0.8694  1.3099
 1666SOL     OW 5552   0.882   3.196   2.316  0.3126  0.0650 -0.4615
 1666SOL    HW1 5553   0.873   3.103   2.339  0.4971 -0.0071 -0.6780
 1666SOL    HW2 5554   0.955   3.227   2.370  1.3456 -0.3262 -1.5813
 1667SOL     OW 5555   6.990   0.452   4.010  0.0673 -0.5206 -0.0228
 1667SOL    HW1 5556   6.918   0.423   4.066 -0.0871  0.7666  0.4868
 1667SOL    HW2 5557   6.955   0.444   3.921 -0.5180 -0.4241  0.1907
 1668SOL     OW 5558   6.608   2.782   6.287 -0.2633  0.3704  0.5011
 1668SOL    HW1 5559   6.554   2.856   6.314 -1.4908  0.1126 -1.1072
 1668SOL    HW2 5560   6.623   2.795   6.193 -0.2246 -1.2305  0.2534
 1669SOL     OW 5561   2.616   0.560   2.875 -0.7358 -0.1054 -0.6180
 1669SOL    HW1 5562   2.644   0.618   2.805  0.0758  0.5591  0.2228
 1669SOL    HW2 5563   2.574   0.617   2.939 -0.1238 -0.4560  0.1224
 1670SOL     OW 5564   1.399   5.316   5.334  0.0920 -0.1103  0.2507
 1670SOL    HW1 5565   1.418   5.225   5.357  1.9998  0.4450  1.1165
 1670SOL    HW2 5566   1.315   5.313   5.289 -0.3942 -2.1589  1.1912
 1671SOL     OW 5567   2.912   1.990   2.582 -0.6188 -0.0287  0.0105
 1671SOL    HW1 5568   2.900   1.907   2.536 -1.8539  0.5969 -0.8633
 1671SOL    HW2 5569   2.835   1.998   2.638  0.3851 -0.3121  1.5009
 1672SOL     OW 5570   0.992   5.517   5.359  0.1159 -0.2289 -0.3312
 1672SOL    HW1 5571   0.995   5.443   5.420 -0.7826 -1.3679 -1.6113
 1672SOL    HW2 5572   0.899   5.542   5.357  0.0259 -0.5899 -1.6384
 1673SOL     OW 5573   1.422   1.567   5.188 -0.3529 -0.0164  0.0275
 1673SOL    HW1 5574   1.386   1.618   5.115  0.7205  0.4081 -0.2259
 1673SOL    HW2 5575   1.474   1.498   5.146  0.0421  0.0576  0.3835
 1674SOL     OW 5576   0.781   2.035   7.575  0.0768 -0.1423  0.2703
 1674SOL    HW1 5577   0.725   2.097   7.622  0.2263 -0.1823  0.5026
 1674SOL    HW2 5578   0.770   1.952   7.622 -1.8264 -0.8565 -1.3398
 1675SOL     OW 5579   0.807   0.235   1.786  0.0988  0.5202  0.3671
 1675SOL    HW1 5580   0.898   0.260   1.802  0.7464 -1.1716 -0.4835
 1675SOL    HW2 5581   0.798   0.234   1.691 -0.7933  0.6105  0.4429
 1676SOL     OW 5582   3.830   5.498   6.653  0.3646 -0.6378 -0.4057
 1676SOL    HW1 5583   3.808   5.559   6.723  1.7136  1.2217 -1.4964
 1676SOL    HW2 5584   3.869   5.553   6.585  1.3593 -2.6903 -1.5974
 1677SOL     OW 5585   6.520   2.164   3.197  0.3024  0.1433  0.1973
 1677SOL    HW1 5586   6.607   2.181   3.162 -0.0614  0.3340 -0.6382
 1677SOL    HW2 5587   6.487   2.251   3.221  0.1676  0.1281  0.0706
 1678SOL     OW 5588   7.442   3.003   3.443 -0.1417 -0.6449  0.0714
 1678SOL    HW1 5589   7.365   3.038   3.487 -0.9370  1.0053 -2.4253
 1678SOL    HW2 5590   7.516   3.042   3.490 -0.8849 -0.2867  0.9658
 1679SOL     OW 5591   4.213   0.843   1.014  1.1952 -0.0667 -0.4473
 1679SOL    HW1 5592   4.228   0.748   1.016 -0.4359 -0.3592  2.0171
 1679SOL    HW2 5593   4.139   0.854   0.954 -2.4556 -1.1999  3.3495
 1680SOL     OW 5594   4.380   4.356   1.286  0.4896  0.3617  0.0631
 1680SOL    HW1 5595   4.429   4.276   1.267 -0.8215 -0.5662  0.4846
 1680SOL    HW2 5596   4.320   4.366   1.212 -0.1393  0.3110  0.5569
 1681SOL     OW 5597   3.707   1.116   7.072 -0.7001  0.1920 -0.4748
 1681SOL    HW1 5598   3.718   1.210   7.057 -0.4582  0.4632  1.2328
 1681SOL    HW2 5599   3.617   1.098   7.042 -0.5437  0.8182 -1.3823
 1682SOL     OW 5600   1.300   5.269   1.701  0.0094 -0.0124 -0.2010
 1682SOL    HW1 5601   1.293   5.195   1.641 -0.0493 -0.0987 -0.0884
 1682SOL    HW2 5602   1.261   5.342   1.653  0.4362  0.0431 -0.4701
 1683SOL     OW 5603   4.910   1.048   0.166  0.8406 -0.4180 -0.0915
 1683SOL    HW1 5604   4.970   1.092   0.106 -1.8719  0.6990 -2.1707
 1683SOL    HW2 5605   4.924   0.955   0.150  1.6620 -0.1780 -0.8631
 1684SOL     OW 5606   4.039   4.246   7.604  0.3141  0.6940 -0.2409
 1684SOL    HW1 5607   4.087   4.256   7.522  0.8618 -0.9022 -0.1536
 1684SOL    HW2 5608   3.994   4.162   7.596 -0.8484  1.2047  0.5068
 1685SOL     OW 5609   6.888   7.439   7.705 -0.4500 -0.2232 -0.0188
 1685SOL    HW1 5610   6.909   7.435   7.611 -0.4818 -1.1210  0.0044
 1685SOL    HW2 5611   6.958   7.492   7.743  0.5463 -1.3239 -0.2865
 1686SOL     OW 5612   3.899   0.665   7.655 -0.2272  0.3715  0.0310
 1686SOL    HW1 5613   3.878   0.726   7.726 -0.1068  1.9469 -1.2290
 1686SOL    HW2 5614   3.956   0.600   7.695 -1.1777  0.5016  1.6602
 1687SOL     OW 5615   5.748   4.900   0.052 -0.4094  0.6041 -0.3544
 1687SOL    HW1 5616   5.660   4.873   0.078 -1.2164  2.2303 -1.2226
 1687SOL    HW2 5617   5.793   4.819   0.029 -1.6706 -0.2609  0.1427
 1688SOL     OW 5618   3.750   6.668   0.195 -0.0610 -0.1960 -0.2096
 1688SOL    HW1 5619   3.785   6.654   0.283  0.2744 -0.6263 -0.4088
 1688SOL    HW2 5620   3.713   6.756   0.197 -0.2981 -0.3087  0.4450
 1689SOL     OW 5621   2.539   2.490   0.476  0.2561 -0.1094  0.2388
 1689SOL    HW1 5622   2.528   2.429   0.550 -0.6159  0.3502  0.5011
 1689SOL    HW2 5623   2.629   2.475   0.446  1.2291  0.8376  2.4171
 1690SOL     OW 5624   6.686   7.151   6.843 -0.3732 -0.3569  0.4134
 1690SOL    HW1 5625   6.711   7.243   6.853 -0.1699 -0.6483  3.0429
 1690SOL    HW2 5626   6.651   7.146   6.753  0.2020  2.1153 -0.0181
 1691SOL     OW 5627   1.898   2.959   6.745 -0.5995 -0.3674 -0.1731
 1691SOL    HW1 5628   1.963   2.943   6.814 -0.6912  0.4346  0.0990
 1691SOL    HW2 5629   1.837   3.021   6.783 -0.6095  0.1434 -1.0014
 1692SOL     OW 5630   6.052   5.287   6.626  0.6957 -0.0612 -0.5221
 1692SOL    HW1 5631   6.081   5.204   6.665  1.9246  0.3493 -0.5170
 1692SOL    HW2 5632   5.971   5.265   6.580 -0.1263 -0.8326  1.1941
 1693SOL     OW 5633   3.401   5.527   7.311 -0.0782 -0.3035  0.5944
 1693SOL    HW1 5634   3.463   5.455   7.320  1.1562  0.7602  0.9023
 1693SOL    HW2 5635   3.412   5.578   7.391  0.0512  0.9610 -0.2048
 1694SOL     OW 5636   2.435   4.767   2.544 -0.4283 -0.1357  0.0453
 1694SOL    HW1 5637   2.348   4.801   2.523 -0.5263 -1.2077 -1.4756
 1694SOL    HW2 5638   2.435   4.679   2.507  0.8532 -0.6577  1.2184
 1695SOL     OW 5639   1.817   7.010   3.994 -0.2378  0.2288 -0.4714
 1695SOL    HW1 5640   1.765   6.960   3.931 -1.4067  2.0973 -1.0541
 1695SOL    HW2 5641   1.766   7.007   4.075 -0.3949  0.6001 -0.5548
 1696SOL     OW 5642   3.606   3.484   7.422 -0.2400  0.3254 -0.1726
 1696SOL    HW1 5643   3.645   3.479   7.335 -0.7586 -1.4558 -0.3400
 1696SOL    HW2 5644   3.512   3.476   7.406 -0.3378 -0.0091  0.5572
 1697SOL     OW 5645   0.444   3.042   0.339  0.0336 -0.4687 -0.1577
 1697SOL    HW1 5646   0.479   3.017   0.424 -2.6681 -0.2641  1.1175
 1697SOL    HW2 5647   0.404   2.962   0.305  1.4280 -0.6450 -1.4635
 1698SOL     OW 5648   0.066   7.314   5.089  0.3801  0.3040 -0.2094
 1698SOL    HW1 5649   0.112   7.397   5.083  1.0997 -0.1533 -1.5274
 1698SOL    HW2 5650   0.129   7.254   5.130  0.1021  0.2408  0.1315
 1699SOL     OW 5651   7.520   3.816   1.719  0.1222 -0.2777  0.4205
 1699SOL    HW1 5652   7.575   3.767   1.658  0.9324 -0.2786  1.1338
 1699SOL    HW2 5653   7.430   3.792   1.696  0.4921 -1.8218  0.5269
 1700SOL     OW 5654   4.014   1.592   4.909 -0.3688 -0.5204  0.1773
 1700SOL    HW1 5655   3.972   1.669   4.949  0.8664  0.1269  0.2695
 1700SOL    HW2 5656   3.957   1.519   4.932 -2.3328  0.5277 -1.0694
 1701SOL     OW 5657   6.660   1.501   0.348  1.0043  0.1904  0.0302
 1701SOL    HW1 5658   6.742   1.498   0.398  0.5704 -0.6429  0.7162
 1701SOL    HW2 5659   6.687   1.498   0.257  1.7601  0.4753  0.2382
 1702SOL     OW 5660   2.914   7.115   4.065  0.5355  0.3211 -0.1517
 1702SOL    HW1 5661   2.911   7.175   4.139 -1.4609 -1.0935  0.9961
 1702SOL    HW2 5662   2.822   7.099   4.043  0.9829 -2.1932 -0.4634
 1703SOL     OW 5663   5.109   4.201   2.318 -0.3658  0.0999  0.1609
 1703SOL    HW1 5664   5.112   4.246   2.234  0.5730  0.6287  0.4587
 1703SOL    HW2 5665   5.039   4.246   2.366  0.1053  0.7964  0.2038
 1704SOL     OW 5666   3.349   7.709   3.959  0.5169  0.2694  0.4157
 1704SOL    HW1 5667   3.368   7.634   3.902  1.9111 -0.6911  2.0560
 1704SOL    HW2 5668   3.260   7.693   3.990  0.1986  0.1663 -0.5041
 1705SOL     OW 5669   4.408   5.827   3.142  0.0741 -0.2045  0.4680
 1705SOL    HW1 5670   4.322   5.815   3.103  0.7092 -2.3296 -0.4106
 1705SOL    HW2 5671   4.389   5.859   3.231 -1.5273  0.7197 -0.1515
 1706SOL     OW 5672   5.916   4.023   5.818 -0.0750  0.1341  0.1705
 1706SOL    HW1 5673   5.908   4.098   5.760  1.0550  0.8067  0.8479
 1706SOL    HW2 5674   6.005   3.991   5.803  0.8970  1.3634  2.6784
 1707SOL     OW 5675   6.464   3.509   0.714  0.0677  0.5311 -0.4084
 1707SOL    HW1 5676   6.533   3.524   0.650  0.7555  0.1757  0.2307
 1707SOL    HW2 5677   6.452   3.593   0.757  2.0391 -0.0000  1.3392
 1708SOL     OW 5678   3.428   7.330   4.735  0.5311 -0.0284 -0.2034
 1708SOL    HW1 5679   3.407   7.239   4.758  0.3001 -0.2230 -1.1764
 1708SOL    HW2 5680   3.346   7.367   4.703  0.8115  0.2874 -0.5677
 1709SOL     OW 5681   4.327   3.900   4.182 -0.2515 -0.0369 -0.2034
 1709SOL    HW1 5682   4.408   3.850   4.193 -1.6334 -2.0383  1.7720
 1709SOL    HW2 5683   4.273   3.844   4.126 -1.2556 -0.0719  0.7754
 1710SOL     OW 5684   0.460   2.015   2.760 -0.8082 -0.4600  0.4415
 1710SOL    HW1 5685   0.436   1.972   2.679 -0.6519  0.6337 -0.2016
 1710SOL    HW2 5686   0.432   2.106   2.749  1.4437  0.3112  0.5951
 1711SOL     OW 5687   1.641   0.853   3.076  0.5625 -0.6303  0.2229
 1711SOL    HW1 5688   1.697   0.787   3.035 -1.8876 -3.0377  0.5018
 1711SOL    HW2 5689   1.674   0.859   3.166  2.0237  0.0459 -0.3189
 1712SOL     OW 5690   1.373   2.111   1.853 -0.1126  0.0541  0.4517
 1712SOL    HW1 5691   1.401   2.065   1.932  1.7124  0.6994  0.2406
 1712SOL    HW2 5692   1.415   2.197   1.859 -0.9629  0.5752 -0.6247
 1713SOL     OW 5693   6.413   7.216   2.145  0.4572 -0.0214 -0.1200
 1713SOL    HW1 5694   6.401   7.302   2.106 -2.3156  0.0811  0.7499
 1713SOL    HW2 5695   6.391   7.227   2.237  0.4956 -1.5723  0.1099
 1714SOL     OW 5696   6.721   6.208   6.030  0.1609 -0.8429 -0.0740
 1714SOL    HW1 5697   6.739   6.299   6.009 -2.1157 -0.4083 -0.4610
 1714SOL    HW2 5698   6.725   6.204   6.126  1.7399 -0.7121 -0.1206
 1715SOL     OW 5699   7.111   4.540   2.680  0.5148 -0.2697 -0.0370
 1715SOL    HW1 5700   7.109   4.459   2.627 -0.1667 -0.9016  0.9254
 1715SOL    HW2 5701   7.114   4.610   2.615  1.4125 -1.0570 -0.9009
 1716SOL     OW 5702   0.647   2.666   7.049  0.3189 -0.0493 -0.0838
 1716SOL    HW1 5703   0.667   2.711   7.132 -0.2130  0.0900 -0.0270
 1716SOL    HW2 5704   0.718   2.692   6.990 -0.5881  1.8572 -0.4179
 1717SOL     OW 5705   1.574   7.199   6.804 -0.3497 -0.4395 -0.2186
 1717SOL    HW1 5706   1.577   7.225   6.896 -0.5270  1.2286 -0.6578
 1717SOL    HW2 5707   1.484   7.171   6.790  0.2491 -3.2309  0.7034
 1718SOL     OW 5708   4.895   6.393   2.585 -0.6214 -0.2360  0.0935
 1718SOL    HW1 5709   4.951   6.434   2.652 -0.9484  2.8016 -1.3304
 1718SOL    HW2 5710   4.947   6.320   2.553  0.7678 -0.0060  1.6614
 1719SOL     OW 5711   5.791   3.165   2.585  0.7382  0.2783 -0.2530
 1719SOL    HW1 5712   5.805   3.243   2.531 -0.7048  0.3944 -0.4872
 1719SOL    HW2 5713   5.764   3.200   2.670 -0.6335  0.0509 -0.5707
 1720SOL     OW 5714   6.232   5.306   4.009  0.4978 -0.1745  0.0803
 1720SOL    HW1 5715   6.150   5.337   3.971  0.6466 -1.5747 -1.4577
 1720SOL    HW2 5716   6.300   5.343   3.952  0.8600 -0.3609  0.3860
 1721SOL     OW 5717   0.741   4.196   6.359  0.0554 -0.5539  0.1599
 1721SOL    HW1 5718   0.712   4.161   6.443 -0.6003 -2.0467 -0.6479
 1721SOL    HW2 5719   0.739   4.121   6.299  0.9517  0.3670 -1.0837
 1722SOL     OW 5720   4.322   5.002   4.479  0.7362  0.4242  0.8440
 1722SOL    HW1 5721   4.415   5.006   4.500  0.3177  0.7288  2.8077
 1722SOL    HW2 5722   4.303   5.085   4.436  1.4914  0.0511 -0.2616
 1723SOL     OW 5723   6.262   0.181   1.401 -0.1216 -0.5618 -0.6868
 1723SOL    HW1 5724   6.209   0.226   1.335 -0.3306  0.3368  0.0711
 1723SOL    HW2 5725   6.272   0.092   1.367 -2.4431 -0.8948 -0.7076
 1724SOL     OW 5726   3.108   7.482   2.883  0.1295 -0.3919  0.4822
 1724SOL    HW1 5727   3.062   7.566   2.871 -0.2437 -0.7623 -0.8187
 1724SOL    HW2 5728   3.057   7.419   2.832  2.2353 -0.7657 -1.3176
 1725SOL     OW 5729   0.820   3.124   1.912 -0.1772 -0.1948  0.7952
 1725SOL    HW1 5730   0.855   3.052   1.964 -1.7985 -2.5381 -1.1086
 1725SOL    HW2 5731   0.726   3.106   1.906 -0.5905  1.9185 -0.0316
 1726SOL     OW 5732   5.691   0.638   3.076  0.1629 -0.6544  0.3203
 1726SOL    HW1 5733   5.643   0.568   3.031  1.0781 -0.9400 -0.2368
 1726SOL    HW2 5734   5.750   0.674   3.010  1.9846 -1.5003  1.4008
 1727SOL     OW 5735   6.444   6.299   2.215  0.9384 -0.0776  0.6763
 1727SOL    HW1 5736   6.481   6.281   2.302  0.3403 -2.7554  0.4670
 1727SOL    HW2 5737   6.373   6.361   2.232  0.8012 -0.5881  2.1323
 1728SOL     OW 5738   7.214   7.520   3.648 -0.1756 -0.2992  0.1435
 1728SOL    HW1 5739   7.217   7.615   3.661 -0.9266 -0.2422 -0.0259
 1728SOL    HW2 5740   7.132   7.493   3.690 -0.7122 -0.6466 -1.0593
 1729SOL     OW 5741   2.026   6.679   7.666  0.0246 -0.1317 -0.0434
 1729SOL    HW1 5742   2.026   6.743   7.736 -4.1214  0.1296 -0.0629
 1729SOL    HW2 5743   2.036   6.731   7.586  2.4594 -0.2162  0.1284
 1730SOL     OW 5744   4.780   6.154   4.448  0.3412 -0.1552  0.1161
 1730SOL    HW1 5745   4.828   6.072   4.433 -0.2430 -0.3391 -0.8690
 1730SOL    HW2 5746   4.720   6.160   4.373 -1.3516 -0.0700  1.4346
 1731SOL     OW 5747   5.244   4.989   4.995 -0.1682  0.8132 -0.8127
 1731SOL    HW1 5748   5.235   5.000   5.090 -1.2160  0.2127 -0.8182
 1731SOL    HW2 5749   5.215   5.072   4.958 -0.0550  0.9399 -0.6202
 1732SOL     OW 5750   0.578   1.362   4.019  0.2477  0.2222  0.0732
 1732SOL    HW1 5751   0.665   1.399   4.003  0.8820 -1.7306 -1.4195
 1732SOL    HW2 5752   0.595   1.278   4.062 -0.9400  0.0061  0.1633
 1733SOL     OW 5753   1.937   7.306   4.639  0.1826  0.7243  0.2492
 1733SOL    HW1 5754   1.909   7.252   4.713  0.8100 -0.2675 -0.2234
 1733SOL    HW2 5755   1.859   7.357   4.616 -0.2120  0.5431  1.1532
 1734SOL     OW 5756   5.724   5.351   1.220  0.3149 -0.0838 -0.1867
 1734SOL    HW1 5757   5.741   5.262   1.189  1.4821 -0.0110  0.2099
 1734SOL    HW2 5758   5.784   5.406   1.171  1.0715  0.2243  1.0368
 1735SOL     OW 5759   1.877   1.515   7.128 -0.3736 -0.4854 -0.3434
 1735SOL    HW1 5760   1.925   1.545   7.051 -1.7050  1.4279 -0.4987
 1735SOL    HW2 5761   1.813   1.452   7.093 -0.2584 -0.4359 -0.6513
 1736SOL     OW 5762   2.328   1.066   7.205 -0.3907  0.6409 -0.6597
 1736SOL    HW1 5763   2.239   1.034   7.189 -0.9434  1.6252  0.2949
 1736SOL    HW2 5764   2.344   1.046   7.297  1.1618 -1.2977 -1.2962
 1737SOL     OW 5765   5.001   1.093   5.460 -0.7452 -0.0158  0.1977
 1737SOL    HW1 5766   5.089   1.058   5.476 -0.8951 -0.4121  0.1783
 1737SOL    HW2 5767   4.945   1.015   5.455 -0.7142  0.0326 -2.2796
 1738SOL     OW 5768   4.163   0.362   1.133  0.1093  0.6014  0.3333
 1738SOL    HW1 5769   4.241   0.365   1.189 -1.3677 -1.5490  2.7213
 1738SOL    HW2 5770   4.099   0.416   1.180 -0.1042  1.8662 -1.3102
 1739SOL     OW 5771   0.881   1.138   6.709 -0.1747 -0.3978 -0.4805
 1739SOL    HW1 5772   0.786   1.140   6.720 -0.0950 -0.4594  0.2262
 1739SOL    HW2 5773   0.893   1.133   6.614 -0.9145 -2.3543 -0.5317
 1740SOL     OW 5774   1.401   4.812   3.661  0.5372  0.6475 -0.1764
 1740SOL    HW1 5775   1.338   4.843   3.596  0.1972  1.2571  0.4281
 1740SOL    HW2 5776   1.349   4.755   3.718  1.1983 -1.2812 -1.4054
 1741SOL     OW 5777   3.796   2.752   0.070 -0.0903 -0.0467  0.7101
 1741SOL    HW1 5778   3.770   2.694  -0.002 -1.8859  3.5268 -1.8209
 1741SOL    HW2 5779   3.725   2.744   0.133  0.0487 -1.0763  0.7598
 1742SOL     OW 5780   2.059   3.575   2.964  0.7036  0.0130 -0.2721
 1742SOL    HW1 5781   1.998   3.649   2.970  0.7104  0.0004 -0.0090
 1742SOL    HW2 5782   2.016   3.505   3.013  1.0206  0.0696  0.0967
 1743SOL     OW 5783   3.709   1.338   5.598  0.1002 -0.0344  0.2630
 1743SOL    HW1 5784   3.798   1.367   5.578 -0.3645  1.0039 -0.3989
 1743SOL    HW2 5785   3.668   1.325   5.512 -0.6990  0.5079  0.5536
 1744SOL     OW 5786   0.654   5.096   5.428  0.6103  0.2389  0.5175
 1744SOL    HW1 5787   0.607   5.155   5.487 -1.9160 -0.5951 -0.5369
 1744SOL    HW2 5788   0.637   5.008   5.462  3.5771 -0.0700  1.5346
 1745SOL     OW 5789   1.911   5.584   2.579  0.5652  0.5020 -0.1003
 1745SOL    HW1 5790   1.868   5.506   2.544 -1.1350  1.7939 -0.9971
 1745SOL    HW2 5791   1.879   5.590   2.669  1.9612 -0.6662  0.5352
 1746SOL     OW 5792   3.813   5.156   5.342 -0.0552 -0.6392 -0.4522
 1746SOL    HW1 5793   3.888   5.213   5.359 -0.6706 -0.0305  0.2894
 1746SOL    HW2 5794   3.848   5.067   5.346  1.0796 -0.3241 -2.3900
 1747SOL     OW 5795   6.134   4.302   3.638 -1.1098  0.1453  0.3223
 1747SOL    HW1 5796   6.173   4.242   3.575  0.6608  0.2433  1.2667
 1747SOL    HW2 5797   6.044   4.272   3.647 -0.2489 -2.4929  0.8913
 1748SOL     OW 5798   5.390   7.187   5.174 -0.3355 -0.2272  0.3423
 1748SOL    HW1 5799   5.428   7.136   5.102  2.5547  0.4049  1.2542
 1748SOL    HW2 5800   5.397   7.130   5.251 -3.0588 -0.7592  0.2943
 1749SOL     OW 5801   4.244   3.973   1.156  0.1545  0.4572  0.1209
 1749SOL    HW1 5802   4.288   4.057   1.170  2.6847 -0.7610  0.1001
 1749SOL    HW2 5803   4.313   3.916   1.122 -1.1096 -2.0358  1.5042
 1750SOL     OW 5804   0.906   7.236   0.619 -0.0825  0.4073 -0.1554
 1750SOL    HW1 5805   0.904   7.219   0.524  0.6142 -3.5381  0.3684
 1750SOL    HW2 5806   0.818   7.214   0.649 -0.2015  1.3300  0.2272
 1751SOL     OW 5807   3.987   3.127   3.924  0.2051  0.0469  0.2123
 1751SOL    HW1 5808   4.001   3.032   3.920  0.9547  0.0825  1.4020
 1751SOL    HW2 5809   4.052   3.158   3.987 -0.3673  1.2911  0.2231
 1752SOL     OW 5810   1.185   3.147   3.886 -0.2436  0.3753 -0.0569
 1752SOL    HW1 5811   1.185   3.243   3.891 -0.6636  0.3327  1.1360
 1752SOL    HW2 5812   1.275   3.122   3.909  0.2878  0.5147 -1.8479
 1753SOL     OW 5813   5.603   0.700   6.284  0.4914  0.5451  0.3123
 1753SOL    HW1 5814   5.540   0.662   6.345  0.1968  1.1453  0.3889
 1753SOL    HW2 5815   5.658   0.756   6.338  1.3389 -0.2547  0.3098
 1754SOL     OW 5816   0.978   2.181   6.156 -0.3950  0.3026  0.3633
 1754SOL    HW1 5817   1.035   2.257   6.167  0.9969 -0.8828  1.7923
 1754SOL    HW2 5818   0.923   2.180   6.235 -0.6981  0.0597  0.1523
 1755SOL     OW 5819   1.959   7.542   2.493 -0.3943  0.5690  0.0150
 1755SOL    HW1 5820   2.017   7.548   2.417 -0.4611  2.8185  0.0906
 1755SOL    HW2 5821   1.872   7.561   2.459 -0.9950 -1.7728  0.0941
 1756SOL     OW 5822   5.991   2.012   1.112 -0.2387 -0.3844 -0.1802
 1756SOL    HW1 5823   5.939   2.000   1.191  0.1099  1.5314  0.4069
 1756SOL    HW2 5824   5.972   1.936   1.057  0.0960 -2.1589  2.0485
 1757SOL     OW 5825   6.538   1.951   1.022 -0.1014  0.0309 -0.0464
 1757SOL    HW1 5826   6.497   1.908   0.947 -1.0375  0.7391  0.0510
 1757SOL    HW2 5827   6.632   1.946   1.004 -0.0610 -2.9962  0.4551
 1758SOL     OW 5828   0.959   3.907   6.600 -0.5508 -0.2588  0.2881
 1758SOL    HW1 5829   0.937   3.913   6.507 -0.7877 -1.3132  0.2600
 1758SOL    HW2 5830   1.024   3.975   6.614 -0.3227 -0.2595 -0.7104
 1759SOL     OW 5831   3.017   0.087   3.284  0.2356 -0.2969 -0.6615
 1759SOL    HW1 5832   3.025   0.031   3.361 -0.4833  1.1395  0.5030
 1759SOL    HW2 5833   3.080   0.157   3.299 -1.2852  1.0723 -0.3719
 1760SOL     OW 5834   1.160   4.790   5.116  0.1189  0.3729 -0.6897
 1760SOL    HW1 5835   1.169   4.723   5.184  0.4502 -0.5437 -1.6014
 1760SOL    HW2 5836   1.105   4.749   5.050  0.6292  0.8662 -1.4366
 1761SOL     OW 5837   3.985   7.406   2.367 -0.2142 -0.2222  0.1406
 1761SOL    HW1 5838   3.974   7.360   2.450 -0.2234 -0.2665  0.1154
 1761SOL    HW2 5839   4.003   7.496   2.391 -1.2985 -0.0014  0.1747
 1762SOL     OW 5840   1.527   5.463   1.654 -0.1865 -0.0018  0.1488
 1762SOL    HW1 5841   1.540   5.415   1.572 -1.1237 -2.1561  1.1642
 1762SOL    HW2 5842   1.480   5.401   1.710 -1.8396  2.2899  1.4664
 1763SOL     OW 5843   0.964   4.586   3.792  0.2311  0.0232  0.1168
 1763SOL    HW1 5844   0.931   4.667   3.831  0.9242  1.0009 -1.2547
 1763SOL    HW2 5845   0.895   4.522   3.809 -0.6107  1.0496  0.6815
 1764SOL     OW 5846   6.976   4.626   1.504 -0.3022  0.2434  0.1428
 1764SOL    HW1 5847   6.904   4.573   1.539  0.5908 -0.2703  1.2717
 1764SOL    HW2 5848   6.964   4.623   1.409 -0.4196 -1.8016  0.1787
 1765SOL     OW 5849   4.318   4.584   0.822  0.5903  0.0017 -0.0406
 1765SOL    HW1 5850   4.263   4.538   0.758  0.1852  0.6592 -0.1803
 1765SOL    HW2 5851   4.318   4.675   0.792 -0.1736  0.4580  1.2607
 1766SOL     OW 5852   0.009   6.492   0.219 -0.2985  0.0156 -0.0017
 1766SOL    HW1 5853   0.009   6.586   0.204 -0.1114  0.0071 -0.0616
 1766SOL    HW2 5854  -0.046   6.456   0.149  1.5541 -0.1415 -1.4986
 1767SOL     OW 5855   6.862   5.190   3.047 -0.1289  0.0896  0.0824
 1767SOL    HW1 5856   6.953   5.186   3.017  0.2448 -0.1978  1.2296
 1767SOL    HW2 5857   6.812   5.208   2.967  0.9688  0.7126 -0.4980
 1768SOL     OW 5858   5.982   4.202   1.615  0.0775  0.4105 -0.1178
 1768SOL    HW1 5859   5.923   4.179   1.544 -0.4027  1.6528 -0.1395
 1768SOL    HW2 5860   5.930   4.257   1.673  0.6790  0.0279  0.8209
 1769SOL     OW 5861   5.711   3.898   4.732 -0.4332 -0.1537 -0.1611
 1769SOL    HW1 5862   5.620   3.878   4.753 -0.1629 -1.1599  0.0925
 1769SOL    HW2 5863   5.710   3.914   4.637 -0.7384 -1.0026 -0.3115
 1770SOL     OW 5864   4.108   5.856   6.817 -0.4644 -0.0793  0.0849
 1770SOL    HW1 5865   4.148   5.776   6.783 -1.2536 -0.8624  0.9341
 1770SOL    HW2 5866   4.064   5.896   6.742 -2.5944 -2.0214  0.1909
 1771SOL     OW 5867   6.050   4.391   1.929  0.2121  0.1335 -0.2687
 1771SOL    HW1 5868   6.122   4.449   1.956  0.8163 -0.5974 -0.2907
 1771SOL    HW2 5869   6.064   4.377   1.836 -0.2441  0.3664 -0.3775
 1772SOL     OW 5870   5.970   1.723   1.331 -0.3860  0.0643 -0.1823
 1772SOL    HW1 5871   6.060   1.743   1.353  0.2630 -1.9029 -0.8118
 1772SOL    HW2 5872   5.930   1.808   1.311  1.7278  0.8368 -1.4117
 1773SOL     OW 5873   4.736   0.733   7.593 -0.7391  0.2929  0.2700
 1773SOL    HW1 5874   4.714   0.676   7.667 -1.7229 -0.6107 -0.6842
 1773SOL    HW2 5875   4.816   0.696   7.557  1.0595  2.0489  2.1643
 1774SOL     OW 5876   4.128   3.138   1.377  0.4259 -0.0630  0.0076
 1774SOL    HW1 5877   4.217   3.136   1.414  1.2887 -0.2399 -1.9366
 1774SOL    HW2 5878   4.073   3.171   1.448  1.6512 -2.0600  2.0245
 1775SOL     OW 5879   6.915   2.575   7.321  0.6718  0.0467  0.2795
 1775SOL    HW1 5880   6.852   2.641   7.350  0.9627  0.5092 -0.1295
 1775SOL    HW2 5881   6.929   2.520   7.398  0.2753  0.3437  0.5655
 1776SOL     OW 5882   0.926   6.015   5.884 -0.4617 -0.2874  0.3431
 1776SOL    HW1 5883   0.908   6.062   5.802  1.8964  1.1155  0.5439
 1776SOL    HW2 5884   0.855   6.042   5.942 -2.0264 -1.0825 -1.0806
 1777SOL     OW 5885   3.225   4.515   3.655  0.1633 -0.1471  0.6608
 1777SOL    HW1 5886   3.214   4.570   3.733  0.6435 -1.5552  1.7722
 1777SOL    HW2 5887   3.202   4.426   3.685 -0.3497 -0.6176 -1.0067
 1778SOL     OW 5888   0.988   1.191   6.453 -0.0161  0.3454  0.2419
 1778SOL    HW1 5889   1.072   1.148   6.468 -0.7133 -1.4369 -0.6389
 1778SOL    HW2 5890   0.982   1.198   6.357 -0.3203  1.6729  0.3325
 1779SOL     OW 5891   4.553   4.407   4.430 -0.7351  0.8874  0.1374
 1779SOL    HW1 5892   4.570   4.314   4.414 -1.7365  0.9198 -1.2949
 1779SOL    HW2 5893   4.631   4.438   4.478 -0.1611 -0.5554  0.1778
 1780SOL     OW 5894   3.041   5.111   2.973  0.1651  0.2276 -0.4016
 1780SOL    HW1 5895   3.002   5.028   2.943 -1.4051  1.2128 -1.2059
 1780SOL    HW2 5896   3.032   5.108   3.068  0.2669 -0.5971 -0.4066
 1781SOL     OW 5897   7.193   6.895   5.276  0.2596  0.7338  0.6202
 1781SOL    HW1 5898   7.278   6.865   5.244  1.8750  3.1561  2.3260
 1781SOL    HW2 5899   7.158   6.947   5.203  0.7477  0.6337  0.3076
 1782SOL     OW 5900   4.656   2.818   2.337  0.1201  0.3374  0.9724
 1782SOL    HW1 5901   4.678   2.887   2.399  1.4599 -1.2249  2.3215
 1782SOL    HW2 5902   4.737   2.769   2.326  0.0070  0.6503 -2.2423
 1783SOL     OW 5903   6.564   0.551   5.643 -0.4527  0.5642 -0.5249
 1783SOL    HW1 5904   6.570   0.496   5.564 -0.1950 -1.0018  0.5443
 1783SOL    HW2 5905   6.654   0.577   5.661 -0.4732  0.6745 -0.5844
 1784SOL     OW 5906   3.596   2.541   7.413  0.2030  0.1514  0.3037
 1784SOL    HW1 5907   3.575   2.585   7.331 -0.4124  0.5679  0.6835
 1784SOL    HW2 5908   3.573   2.449   7.397 -0.1391  0.2729  0.0897
 1785SOL     OW 5909   7.471   6.552   4.157 -0.2141 -0.1509  0.3884
 1785SOL    HW1 5910   7.503   6.467   4.190 -1.9068 -1.2307 -0.5983
 1785SOL    HW2 5911   7.481   6.546   4.062 -0.5073  0.7089  0.2989
 1786SOL     OW 5912   0.695   1.796   0.470 -0.1320  0.0488 -0.8499
 1786SOL    HW1 5913   0.698   1.843   0.387 -0.8395  0.4273 -0.6706
 1786SOL    HW2 5914   0.647   1.854   0.529 -1.3427 -1.0528 -0.7191
 1787SOL     OW 5915   1.514   2.329   1.961  0.5815  0.4673 -0.1825
 1787SOL    HW1 5916   1.502   2.409   1.909  0.9955  0.5611 -0.1365
 1787SOL    HW2 5917   1.528   2.361   2.050 -1.1325  0.2786  0.1955
 1788SOL     OW 5918   6.762   6.448   2.131  0.2249  0.4374  0.2377
 1788SOL    HW1 5919   6.841   6.473   2.082 -0.1502 -0.3110 -0.7799
 1788SOL    HW2 5920   6.746   6.357   2.105 -0.7267  0.4432  0.7753
 1789SOL     OW 5921   5.353   2.203   7.326  0.0691 -0.6053 -0.5628
 1789SOL    HW1 5922   5.262   2.209   7.357 -0.0506  1.4358 -1.1955
 1789SOL    HW2 5923   5.367   2.109   7.314 -1.7469 -1.0195  0.1663
 1790SOL     OW 5924   4.854   2.460   6.606  0.0607  0.3777 -0.2860
 1790SOL    HW1 5925   4.855   2.551   6.637  1.3939 -0.4310  2.4098
 1790SOL    HW2 5926   4.941   2.447   6.568  0.2144  0.0139  0.1772
 1791SOL     OW 5927   6.803   1.009   2.164 -0.1559 -0.2211  0.2011
 1791SOL    HW1 5928   6.870   0.976   2.104 -1.6233 -0.7072 -1.2480
 1791SOL    HW2 5929   6.722   1.005   2.113 -1.1779  1.0186  1.6577
 1792SOL     OW 5930   6.884   5.135   4.158 -0.4259  0.9274  0.4588
 1792SOL    HW1 5931   6.972   5.144   4.120  0.1830 -0.4025  1.4676
 1792SOL    HW2 5932   6.878   5.207   4.220  0.1234  0.8030  0.6685
 1793SOL     OW 5933   2.227   6.530   2.256  0.6176 -0.4802 -0.5476
 1793SOL    HW1 5934   2.245   6.568   2.342 -3.2794 -0.8307  0.6097
 1793SOL    HW2 5935   2.214   6.605   2.198  0.3951 -0.1677 -0.0988
 1794SOL     OW 5936   4.215   7.565   0.670 -0.5253  0.5169 -0.3516
 1794SOL    HW1 5937   4.280   7.572   0.601  0.8094  1.1556  0.9176
 1794SOL    HW2 5938   4.131   7.580   0.626  0.2342  0.3924 -1.8947
 1795SOL     OW 5939   3.390   6.729   3.317  0.0898 -0.5139 -0.1893
 1795SOL    HW1 5940   3.391   6.823   3.299  0.8885 -0.2983  0.9289
 1795SOL    HW2 5941   3.437   6.690   3.243 -0.7437 -0.1093 -0.9572
 1796SOL     OW 5942   6.416   6.263   1.275 -0.5279 -0.1349  0.2925
 1796SOL    HW1 5943   6.472   6.234   1.347 -0.2096 -1.6738 -0.5197
 1796SOL    HW2 5944   6.363   6.333   1.312 -0.9243 -1.3998  2.2354
 1797SOL     OW 5945   2.271   2.912   0.621 -0.0188 -0.0807 -0.3354
 1797SOL    HW1 5946   2.212   2.937   0.551  0.9412  1.0395 -0.7999
 1797SOL    HW2 5947   2.256   2.819   0.635 -0.8396 -0.1237 -1.4256
 1798SOL     OW 5948   4.367   4.821   3.252 -0.0266  0.4389  0.2122
 1798SOL    HW1 5949   4.351   4.912   3.279 -1.3196  0.0178  0.9539
 1798SOL    HW2 5950   4.311   4.809   3.175 -0.2529  0.1210  0.4263
 1799SOL     OW 5951   3.693   3.067   4.650 -0.8488 -0.0033  0.7312
 1799SOL    HW1 5952   3.724   3.058   4.740  0.9698  1.1945  0.2778
 1799SOL    HW2 5953   3.672   3.160   4.640  0.5643  0.2317 -0.5144
 1800SOL     OW 5954   7.107   1.075   0.845 -0.5692  0.0794  0.2337
 1800SOL    HW1 5955   7.164   1.007   0.881  0.3257  1.2531  1.1001
 1800SOL    HW2 5956   7.104   1.142   0.913  0.0031  1.7077 -1.2615
 1801SOL     OW 5957   0.342   2.617   7.474 -0.3185 -0.3421  0.1771
 1801SOL    HW1 5958   0.275   2.684   7.484  1.2154  1.4509 -0.9472
 1801SOL    HW2 5959   0.382   2.635   7.389  2.9736  0.0615  1.6386
 1802SOL     OW 5960   1.803   5.682   5.802 -0.0148 -0.3551  0.1759
 1802SOL    HW1 5961   1.812   5.774   5.826  0.5125 -0.3524 -0.0143
 1802SOL    HW2 5962   1.729   5.680   5.741  0.7467  0.1398 -0.8053
 1803SOL     OW 5963   0.135   5.922   2.335  1.5497  0.0937 -0.3270
 1803SOL    HW1 5964   0.071   5.990   2.357  1.8057  0.4033 -0.5486
 1803SOL    HW2 5965   0.214   5.969   2.309  1.6766 -0.2823 -0.6445
 1804SOL     OW 5966   4.326   4.495   7.035  0.1210 -0.7205  0.0977
 1804SOL    HW1 5967   4.417   4.522   7.045  0.1002 -0.8296  0.5923
 1804SOL    HW2 5968   4.280   4.574   7.009  0.2739 -0.5586  0.3193
 1805SOL     OW 5969   7.390   4.468   1.500  0.0674  0.0141 -0.5072
 1805SOL    HW1 5970   7.434   4.402   1.553  0.0891 -0.7354 -1.4375
 1805SOL    HW2 5971   7.312   4.492   1.550  0.4481 -0.1701  0.1786
 1806SOL     OW 5972   3.234   5.444   6.127  0.5571 -0.2601  0.2429
 1806SOL    HW1 5973   3.264   5.379   6.190 -1.0789  0.1871  1.5673
 1806SOL    HW2 5974   3.204   5.518   6.181  0.8900  0.9424 -1.1468
 1807SOL     OW 5975   1.174   3.126   1.828 -0.0562  0.2031  0.2346
 1807SOL    HW1 5976   1.242   3.113   1.894  0.0775  2.1245  0.5178
 1807SOL    HW2 5977   1.215   3.182   1.762  0.0032 -2.1034 -1.8431
 1808SOL     OW 5978   3.794   6.975   6.820  0.2872 -0.0656 -0.1925
 1808SOL    HW1 5979   3.824   6.960   6.910 -3.0173  1.7024  1.4157
 1808SOL    HW2 5980   3.874   6.992   6.770  2.3743 -2.3749  2.0509
 1809SOL     OW 5981   5.696   5.255   6.830 -0.1060  0.0131  0.2395
 1809SOL    HW1 5982   5.746   5.191   6.881 -0.7084  0.0548  0.8970
 1809SOL    HW2 5983   5.747   5.267   6.750  0.0862 -1.1962  0.1656
 1810SOL     OW 5984   3.592   0.575   1.731 -0.8025 -0.3551  0.5601
 1810SOL    HW1 5985   3.615   0.511   1.798 -2.1696 -1.9567 -0.4302
 1810SOL    HW2 5986   3.654   0.559   1.660  0.3898  1.0773  1.2123
 1811SOL     OW 5987   1.359   1.716   4.271 -0.0643 -0.0651 -0.0446
 1811SOL    HW1 5988   1.436   1.714   4.328 -0.1920 -0.7301  0.1188
 1811SOL    HW2 5989   1.323   1.804   4.281 -0.1914 -0.2325  1.0525
 1812SOL     OW 5990   0.095   2.473   5.018  0.3639  0.0137 -0.6411
 1812SOL    HW1 5991   0.175   2.438   4.979  2.0706 -0.3108  2.7768
 1812SOL    HW2 5992   0.028   2.408   4.997  1.5930 -1.0896 -1.3037
 1813SOL     OW 5993   4.833   5.843   1.093  0.4547  0.0022 -0.5226
 1813SOL    HW1 5994   4.902   5.797   1.046  0.4702  0.1405 -0.6348
 1813SOL    HW2 5995   4.878   5.910   1.144  0.4458 -0.1960 -0.2508
 1814SOL     OW 5996   4.509   6.806   3.863 -0.0454  0.3734  0.1938
 1814SOL    HW1 5997   4.591   6.756   3.863 -0.0369  0.3737 -1.1736
 1814SOL    HW2 5998   4.535   6.894   3.891  0.2040  0.0575  1.0032
 1815SOL     OW 5999   1.734   3.757   7.745  0.3193 -0.0009 -0.4147
 1815SOL    HW1 6000   1.660   3.727   7.692 -1.1476  2.6902 -0.0513
 1815SOL    HW2 6001   1.791   3.802   7.682  0.7895 -0.5598 -0.3973
 1816SOL     OW 6002   1.596   2.726   3.996 -0.3828  0.0444 -0.2707
 1816SOL    HW1 6003   1.620   2.786   3.925 -0.0465  1.2575  0.8316
 1816SOL    HW2 6004   1.503   2.742   4.010 -1.2283 -2.3644 -2.3944
 1817SOL     OW 6005   1.720   7.467   7.515  0.6305 -0.1254  0.1726
 1817SOL    HW1 6006   1.682   7.505   7.594  1.7057 -0.0986  0.6821
 1817SOL    HW2 6007   1.680   7.516   7.443  0.8026  0.8884  0.7569
 1818SOL     OW 6008   6.808   2.355   0.014 -0.6051  0.2338  0.6163
 1818SOL    HW1 6009   6.726   2.369   0.062  0.1331  1.2501  1.6327
 1818SOL    HW2 6010   6.877   2.376   0.077  0.4132  1.0267 -0.7016
 1819SOL     OW 6011   3.136   1.133   3.697  0.1754  0.9430  0.2120
 1819SOL    HW1 6012   3.081   1.159   3.771 -2.9666  0.1823 -1.6559
 1819SOL    HW2 6013   3.092   1.170   3.621  0.4316 -2.3182 -1.7059
 1820SOL     OW 6014   5.776   4.648   7.696  0.2900 -0.5623 -0.2440
 1820SOL    HW1 6015   5.832   4.571   7.707  0.3323 -0.4594  0.2667
 1820SOL    HW2 6016   5.705   4.635   7.758  0.6603  0.1390  0.3396
 1821SOL     OW 6017   6.736   1.927   0.418 -0.0411  0.2728 -0.3529
 1821SOL    HW1 6018   6.772   1.857   0.472  0.7972  0.5060 -0.5939
 1821SOL    HW2 6019   6.643   1.931   0.442  0.1241 -0.2373  0.3914
 1822SOL     OW 6020   1.999   2.575   3.928 -0.0046  0.5425  0.4638
 1822SOL    HW1 6021   1.973   2.666   3.919 -1.4482  0.1008 -0.1021
 1822SOL    HW2 6022   2.090   2.579   3.960 -0.4858  2.1549  1.7890
 1823SOL     OW 6023   2.825   6.273   0.551  0.1755 -0.0832  0.0810
 1823SOL    HW1 6024   2.874   6.356   0.556 -2.4048  1.4649  1.8320
 1823SOL    HW2 6025   2.826   6.240   0.641 -3.1515  0.8290  0.5672
 1824SOL     OW 6026   7.391   0.882   7.259  0.0435 -0.8597  0.3451
 1824SOL    HW1 6027   7.328   0.820   7.295 -1.4061  1.6610  2.5150
 1824SOL    HW2 6028   7.346   0.922   7.185  0.1762 -0.9050  0.2379
 1825SOL     OW 6029   7.046   0.240   6.954 -0.8650 -0.0523  0.0617
 1825SOL    HW1 6030   7.120   0.236   6.895 -0.6124 -1.1002  0.4191
 1825SOL    HW2 6031   6.971   0.260   6.898 -0.6384 -1.0645 -0.6220
 1826SOL     OW 6032   2.908   6.095   6.553  0.2737 -0.5505 -0.3449
 1826SOL    HW1 6033   2.888   6.173   6.501  0.2211 -0.3843 -0.0805
 1826SOL    HW2 6034   2.961   6.129   6.625 -1.4504 -0.4124  0.9250
 1827SOL     OW 6035   5.492   4.078   0.025  0.0296 -0.3679 -0.0512
 1827SOL    HW1 6036   5.440   4.086   0.105  1.0114 -1.5626  0.7543
 1827SOL    HW2 6037   5.577   4.046   0.055  1.0869  1.0675 -1.3821
 1828SOL     OW 6038   4.597   6.900   4.665 -0.6688 -0.2062  0.3673
 1828SOL    HW1 6039   4.614   6.907   4.571 -0.8788  2.4781  0.4498
 1828SOL    HW2 6040   4.677   6.863   4.701  0.2868  0.7633 -0.6522
 1829SOL     OW 6041   6.727   4.125   1.905 -0.5096  0.4812  0.4841
 1829SOL    HW1 6042   6.801   4.075   1.940 -0.3788  0.4313  0.1488
 1829SOL    HW2 6043   6.680   4.062   1.851 -3.2062 -0.7112  3.8830
 1830SOL     OW 6044   2.497   7.154   0.564  0.1439 -0.3734  0.0492
 1830SOL    HW1 6045   2.564   7.220   0.583  0.5767 -0.9250  0.4713
 1830SOL    HW2 6046   2.435   7.161   0.636  0.1272 -0.3408  0.0316
 1831SOL     OW 6047   4.912   2.666   6.180  0.7505  0.2011  0.1920
 1831SOL    HW1 6048   4.965   2.650   6.259 -0.1000  0.1943  0.7793
 1831SOL    HW2 6049   4.966   2.635   6.108  1.1151 -0.7992  0.8716
 1832SOL     OW 6050   0.274   1.320   2.138 -0.0568 -0.4841  0.2287
 1832SOL    HW1 6051   0.243   1.410   2.148  0.3693 -0.1983 -0.8965
 1832SOL    HW2 6052   0.194   1.269   2.123 -0.1829 -0.0794 -0.5207
 1833SOL     OW 6053   5.252   7.515   0.937  0.4501  0.4582  0.1232
 1833SOL    HW1 6054   5.281   7.580   0.872  1.1543  2.8878  2.6626
 1833SOL    HW2 6055   5.327   7.457   0.948  0.4507  0.2345 -0.9263
 1834SOL     OW 6056   6.606   6.653   7.272  0.6557 -0.0689  0.0395
 1834SOL    HW1 6057   6.520   6.630   7.306  1.0868 -0.6847  0.7172
 1834SOL    HW2 6058   6.649   6.701   7.343  1.0142 -0.0993 -0.1513
 1835SOL     OW 6059   6.838   3.507   3.359  0.0424  0.2016  0.0439
 1835SOL    HW1 6060   6.785   3.543   3.431 -0.0012  0.7390 -0.2462
 1835SOL    HW2 6061   6.887   3.435   3.398 -1.0903 -0.4662  0.2590
 1836SOL     OW 6062   0.208   3.880   4.131 -0.3723 -0.0258  0.2729
 1836SOL    HW1 6063   0.139   3.946   4.122 -0.6531 -0.4051 -0.3433
 1836SOL    HW2 6064   0.163   3.797   4.119  0.4327 -0.2290 -1.6895
 1837SOL     OW 6065   5.513   1.307   7.320 -0.3818  0.5815 -0.2648
 1837SOL    HW1 6066   5.479   1.392   7.348 -0.7867  1.3238 -2.7243
 1837SOL    HW2 6067   5.456   1.282   7.246  0.6477 -1.1229 -0.5373
 1838SOL     OW 6068   0.291   1.854   7.418  0.2242 -0.6789 -0.3821
 1838SOL    HW1 6069   0.296   1.920   7.487  0.9777  0.1031 -1.1580
 1838SOL    HW2 6070   0.218   1.797   7.444  0.0946 -0.0346  0.7242
 1839SOL     OW 6071   2.971   7.198   3.338  0.5992  0.2685 -0.1757
 1839SOL    HW1 6072   3.009   7.263   3.279 -0.4296 -0.1415 -1.3342
 1839SOL    HW2 6073   3.046   7.153   3.377  1.3116  0.0871 -1.7044
 1840SOL     OW 6074   1.493   5.545   2.466 -0.3926  0.3796  0.9361
 1840SOL    HW1 6075   1.585   5.523   2.475 -0.1553  1.2151  0.6607
 1840SOL    HW2 6076   1.450   5.461   2.446  0.4310  0.1230  0.1874
 1841SOL     OW 6077   6.751   3.833   6.772  0.2528  0.0678  0.2031
 1841SOL    HW1 6078   6.789   3.777   6.839 -1.2842 -1.7700 -0.3981
 1841SOL    HW2 6079   6.754   3.781   6.692  0.8801  1.7406 -0.9154
 1842SOL     OW 6080   0.097   2.093   5.013  0.3281  0.0363  0.3314
 1842SOL    HW1 6081   0.036   2.026   5.042  0.1813  0.6454  1.5166
 1842SOL    HW2 6082   0.046   2.174   5.014 -0.1660 -0.0803 -3.3243
 1843SOL     OW 6083   2.524   7.431   6.203 -0.2816  0.0934 -0.5002
 1843SOL    HW1 6084   2.602   7.393   6.243 -0.2576  1.7271  1.1912
 1843SOL    HW2 6085   2.462   7.358   6.195  0.3451 -0.6401  1.0000
 1844SOL     OW 6086   0.523   2.619   3.226  0.1845 -0.0928 -0.0166
 1844SOL    HW1 6087   0.520   2.637   3.132  0.4798  0.0475 -0.0014
 1844SOL    HW2 6088   0.465   2.544   3.238  1.7945 -1.5157 -0.6358
 1845SOL     OW 6089   6.832   5.961   3.889 -0.0115  0.2198 -0.0313
 1845SOL    HW1 6090   6.923   5.946   3.911  0.1112  1.5815  0.5145
 1845SOL    HW2 6091   6.802   6.025   3.954 -0.8800  1.0248 -1.1808
 1846SOL     OW 6092   0.348   4.388   1.911 -0.3017 -0.4722 -0.4731
 1846SOL    HW1 6093   0.283   4.328   1.874  0.6418 -1.1337 -1.0804
 1846SOL    HW2 6094   0.432   4.347   1.894  0.3129  0.5341  0.0164
 1847SOL     OW 6095   0.374   0.890   5.137 -0.2048 -0.2538 -0.4570
 1847SOL    HW1 6096   0.283   0.899   5.109 -1.0187  0.3347  2.0979
 1847SOL    HW2 6097   0.420   0.962   5.095 -1.0024 -0.3019 -1.4361
 1848SOL     OW 6098   5.725   2.770   0.243  0.3949 -0.6855 -0.2054
 1848SOL    HW1 6099   5.818   2.787   0.230  0.9319 -2.9086  0.3667
 1848SOL    HW2 6100   5.712   2.782   0.337 -0.6442  2.5784 -0.6235
 1849SOL     OW 6101   5.861   4.329   7.045  0.3002 -0.2962  0.0967
 1849SOL    HW1 6102   5.905   4.303   6.964  1.4585 -0.6925  0.8249
 1849SOL    HW2 6103   5.860   4.424   7.042 -0.5184 -0.3228 -0.8127
 1850SOL     OW 6104   2.048   6.749   5.467  0.5460 -0.1087  0.1558
 1850SOL    HW1 6105   2.030   6.701   5.549 -0.0088  0.0694  0.1463
 1850SOL    HW2 6106   1.976   6.724   5.409 -1.1664  2.5088  0.9238
 1851SOL     OW 6107   5.500   2.663   1.244 -0.4367 -0.2493 -0.0326
 1851SOL    HW1 6108   5.465   2.575   1.228 -0.3195 -0.4609  0.8163
 1851SOL    HW2 6109   5.445   2.698   1.315  1.9429 -1.2066  2.4872
 1852SOL     OW 6110   1.740   7.310   2.127 -0.4326 -0.1234  0.5664
 1852SOL    HW1 6111   1.701   7.232   2.166  0.7063  0.4285  2.9516
 1852SOL    HW2 6112   1.727   7.379   2.192 -1.2341  1.7022 -1.3827
 1853SOL     OW 6113   2.235   7.077   3.937 -0.4925 -0.2959  0.4935
 1853SOL    HW1 6114   2.239   6.982   3.945  0.2490 -0.2406  0.8415
 1853SOL    HW2 6115   2.277   7.096   3.853 -0.1588 -0.2356  0.6749
 1854SOL     OW 6116   2.866   2.272   0.313  0.4441  0.0458 -0.1859
 1854SOL    HW1 6117   2.861   2.183   0.348  0.8718 -0.9142 -2.3895
 1854SOL    HW2 6118   2.839   2.264   0.222 -1.4684  2.5631  0.0477
 1855SOL     OW 6119   3.958   4.172   6.665 -0.1053 -0.0679  0.0116
 1855SOL    HW1 6120   4.001   4.170   6.751 -0.2654  0.7277  0.1156
 1855SOL    HW2 6121   4.014   4.229   6.612 -0.3094 -0.1078 -0.2462
 1856SOL     OW 6122   0.909   3.475   0.088 -0.6810 -0.3486  0.3941
 1856SOL    HW1 6123   0.955   3.470   0.005  0.1657  2.0494  0.6376
 1856SOL    HW2 6124   0.979   3.478   0.154 -1.3173 -0.9542  1.1301
 1857SOL     OW 6125   0.097   1.957   5.637 -0.7008  0.5768  0.0186
 1857SOL    HW1 6126   0.045   1.953   5.557  0.7746 -0.7461 -0.9209
 1857SOL    HW2 6127   0.115   1.866   5.659 -3.2458  0.6873  3.4194
 1858SOL     OW 6128   7.027   1.340   2.484 -0.1437  0.3972 -0.0334
 1858SOL    HW1 6129   6.970   1.375   2.552 -0.3168  0.5168 -0.2365
 1858SOL    HW2 6130   6.972   1.281   2.434  0.1196 -0.0877  0.2390
 1859SOL     OW 6131   1.611   5.310   0.792  0.4391 -0.0115 -0.2386
 1859SOL    HW1 6132   1.599   5.301   0.887  1.0866 -0.5696 -0.2010
 1859SOL    HW2 6133   1.701   5.342   0.783 -0.1948  1.7998 -0.5964
 1860SOL     OW 6134   2.041   3.129   0.612  0.5744 -0.1416 -0.4143
 1860SOL    HW1 6135   2.052   3.051   0.558  3.2189 -1.7218  2.0913
 1860SOL    HW2 6136   2.128   3.168   0.617  0.0565  0.9413  1.1905
 1861SOL     OW 6137   7.040   5.183   6.648  0.3559 -0.3317 -0.5613
 1861SOL    HW1 6138   7.041   5.275   6.674 -0.1617 -0.1723 -1.0784
 1861SOL    HW2 6139   6.970   5.177   6.583 -0.1122 -1.2447  0.0026
 1862SOL     OW 6140   2.018   7.341   7.104  0.1274  0.6893 -0.8449
 1862SOL    HW1 6141   1.974   7.349   7.188 -1.1584  0.9514 -1.5283
 1862SOL    HW2 6142   2.043   7.248   7.099 -0.5362  0.4857 -0.5291
 1863SOL     OW 6143   5.778   0.523   3.297  0.3131  0.2049 -0.1459
 1863SOL    HW1 6144   5.810   0.440   3.261 -0.3054 -0.2063  0.2183
 1863SOL    HW2 6145   5.758   0.577   3.221  1.5115  0.3371 -0.3803
 1864SOL     OW 6146   0.286   4.327   3.326 -0.2208 -0.6044  0.3727
 1864SOL    HW1 6147   0.248   4.305   3.241 -0.1979 -1.8078  0.6526
 1864SOL    HW2 6148   0.332   4.410   3.312 -0.8954 -0.3821 -0.5762
 1865SOL     OW 6149   7.562   7.066   5.279 -0.2792  0.0518  0.7919
 1865SOL    HW1 6150   7.523   6.985   5.247 -0.9072 -0.1518  2.0094
 1865SOL    HW2 6151   7.604   7.042   5.361  0.8648  0.6598  0.4052
 1866SOL     OW 6152   7.050   2.637   1.572  0.4475 -0.5958 -0.1488
 1866SOL    HW1 6153   7.021   2.725   1.547 -0.1725 -0.0099  2.2928
 1866SOL    HW2 6154   7.118   2.653   1.638  0.4102 -1.9341  0.2376
 1867SOL     OW 6155   2.823   2.176   4.007 -0.3960 -0.0223  0.4815
 1867SOL    HW1 6156   2.899   2.228   4.034  0.2821  0.0384 -1.3981
 1867SOL    HW2 6157   2.852   2.131   3.927 -1.4045 -2.2655  1.2998
 1868SOL     OW 6158   5.879   4.869   6.567 -0.3119  0.4826  0.3006
 1868SOL    HW1 6159   5.897   4.792   6.513 -0.6313  0.9579 -0.5104
 1868SOL    HW2 6160   5.937   4.937   6.532  3.0502 -0.3662  3.6013
 1869SOL     OW 6161   2.580   6.807   6.527 -0.1575 -0.0169 -0.7552
 1869SOL    HW1 6162   2.657   6.833   6.578 -0.0856 -2.0993  0.2961
 1869SOL    HW2 6163   2.614   6.744   6.464 -1.1054 -1.8612  0.4909
 1870SOL     OW 6164   7.186   2.678   5.311  0.2894 -0.0815 -0.1336
 1870SOL    HW1 6165   7.267   2.723   5.285 -0.0800  0.8522  0.2829
 1870SOL    HW2 6166   7.202   2.647   5.400 -0.4842  1.8642  0.7302
 1871SOL     OW 6167   6.450   7.136   7.498 -0.3630 -0.0113 -0.4575
 1871SOL    HW1 6168   6.409   7.129   7.584 -2.3584  3.4194 -0.9547
 1871SOL    HW2 6169   6.501   7.217   7.503  1.8023 -1.2034 -1.7213
 1872SOL     OW 6170   3.174   6.582   6.400 -0.1107 -0.8076 -0.3734
 1872SOL    HW1 6171   3.137   6.503   6.361  3.1127 -1.7902 -1.7719
 1872SOL    HW2 6172   3.099   6.627   6.439 -2.7109 -2.5478 -2.9465
 1873SOL     OW 6173   3.041   7.626   6.900 -0.1365  0.0953 -0.7050
 1873SOL    HW1 6174   3.073   7.684   6.831  0.4717  0.0060 -0.5059
 1873SOL    HW2 6175   3.052   7.675   6.981  3.7734 -1.4819 -0.0521
 1874SOL     OW 6176   2.063   6.808   7.158  0.5959  0.1912 -0.1676
 1874SOL    HW1 6177   1.981   6.787   7.203  0.1795  1.3991 -0.3347
 1874SOL    HW2 6178   2.131   6.787   7.223  0.1169 -0.0269  0.2761
 1875SOL     OW 6179   5.182   5.144   0.726  0.3009  0.3119  0.0975
 1875SOL    HW1 6180   5.181   5.156   0.821  0.7188 -0.9956  0.2896
 1875SOL    HW2 6181   5.143   5.057   0.713 -0.3562  0.7529 -0.9841
 1876SOL     OW 6182   7.557   0.208   2.197 -0.1057 -0.0025  0.2011
 1876SOL    HW1 6183   7.596   0.200   2.110 -1.0067 -1.6346 -0.1020
 1876SOL    HW2 6184   7.606   0.279   2.239  0.1501  1.0112 -1.7190
 1877SOL     OW 6185   4.277   1.953   0.517  0.0423 -0.4643 -0.1962
 1877SOL    HW1 6186   4.346   1.994   0.464 -2.2986  1.2002 -2.1680
 1877SOL    HW2 6187   4.302   1.973   0.607  1.0773  2.0340 -0.9301
 1878SOL     OW 6188   4.955   6.538   6.311 -0.0156  0.2108  0.1579
 1878SOL    HW1 6189   4.915   6.624   6.312  0.7228  0.5625  0.0315
 1878SOL    HW2 6190   5.040   6.550   6.353 -1.1191 -1.0968  3.0129
 1879SOL     OW 6191   1.864   1.808   4.825  0.1451  0.1160  0.0083
 1879SOL    HW1 6192   1.832   1.893   4.794 -2.2693  0.1765  2.3345
 1879SOL    HW2 6193   1.828   1.744   4.764 -0.7881  0.5471  0.0924
 1880SOL     OW 6194   6.806   7.471   2.612  0.2314 -0.4955 -0.0162
 1880SOL    HW1 6195   6.768   7.510   2.691 -1.8677 -1.7925 -0.3135
 1880SOL    HW2 6196   6.814   7.544   2.551  1.6464  0.4801  1.2599
 1881SOL     OW 6197   1.072   1.839   2.725 -0.0462 -0.4508 -0.5223
 1881SOL    HW1 6198   1.119   1.922   2.733  1.6033 -1.3847 -0.0643
 1881SOL    HW2 6199   1.001   1.845   2.789  1.4688 -0.2824  1.2307
 1882SOL     OW 6200   3.292   2.873   0.884  0.4085 -0.1903  0.2182
 1882SOL    HW1 6201   3.267   2.882   0.976 -1.9520  0.4940 -0.4072
 1882SOL    HW2 6202   3.248   2.793   0.856 -2.1626  1.5745 -1.1950
 1883SOL     OW 6203   2.393   2.937   6.999 -0.2005 -1.1230 -0.1409
 1883SOL    HW1 6204   2.382   2.857   7.051 -3.0128 -1.1589 -0.6392
 1883SOL    HW2 6205   2.339   2.923   6.921  0.7055  0.5568 -1.1419
 1884SOL     OW 6206   0.899   0.539   2.872 -0.1930 -0.4336 -0.3572
 1884SOL    HW1 6207   0.835   0.562   2.804  0.0473  2.8585  0.3960
 1884SOL    HW2 6208   0.846   0.502   2.943 -1.0149  0.4166 -0.5202
 1885SOL     OW 6209   0.273   3.686   1.913  0.3957  0.3027 -0.0189
 1885SOL    HW1 6210   0.228   3.672   1.996  1.3308 -1.6355  0.2285
 1885SOL    HW2 6211   0.208   3.664   1.847  0.4666 -0.9090  0.2937
 1886SOL     OW 6212   6.699   1.244   4.969 -0.7583 -0.3033  0.4947
 1886SOL    HW1 6213   6.672   1.217   5.057 -1.9563  0.9827  0.5552
 1886SOL    HW2 6214   6.616   1.258   4.922 -0.3068  3.1860  0.4886
 1887SOL     OW 6215   5.404   5.763   6.673  0.1867 -0.3385 -0.2007
 1887SOL    HW1 6216   5.483   5.716   6.647  0.7671 -0.3121  1.3997
 1887SOL    HW2 6217   5.334   5.697   6.669  0.3977 -0.5214 -1.0091
 1888SOL     OW 6218   2.060   5.292   5.744 -0.4828 -0.3944  0.0322
 1888SOL    HW1 6219   2.080   5.303   5.837 -0.2994  1.0018 -0.1455
 1888SOL    HW2 6220   2.025   5.377   5.718 -0.7374 -0.8463 -1.1283
 1889SOL     OW 6221   6.908   0.370   2.751  0.3155 -0.2205  0.0944
 1889SOL    HW1 6222   6.997   0.396   2.774  0.1071  0.9201 -0.3014
 1889SOL    HW2 6223   6.881   0.310   2.821 -0.0799  2.6446  2.5918
 1890SOL     OW 6224   7.032   5.617   5.805 -0.0058 -0.0339 -0.5399
 1890SOL    HW1 6225   7.026   5.538   5.859 -1.1747  0.3338 -0.1040
 1890SOL    HW2 6226   7.123   5.619   5.776 -0.1322 -1.9455 -1.2043
 1891SOL     OW 6227   1.422   3.817   4.868 -0.1149 -0.2551 -0.9086
 1891SOL    HW1 6228   1.425   3.822   4.772 -0.8862 -0.7840 -0.9667
 1891SOL    HW2 6229   1.338   3.776   4.887 -0.9626  1.8216  0.0794
 1892SOL     OW 6230   4.416   1.204   2.373 -0.2775  0.0514 -0.1610
 1892SOL    HW1 6231   4.421   1.181   2.466  0.5102 -1.7648 -0.6199
 1892SOL    HW2 6232   4.387   1.124   2.329 -1.9166  1.2349 -1.3733
 1893SOL     OW 6233   2.622   4.047   1.654  0.1266 -0.2618 -0.4217
 1893SOL    HW1 6234   2.579   4.100   1.721 -0.9476 -0.4100 -0.9693
 1893SOL    HW2 6235   2.671   3.981   1.702 -0.3847 -0.1796  0.2198
 1894SOL     OW 6236   6.844   1.144   4.757  0.2491 -0.2045 -0.0305
 1894SOL    HW1 6237   6.769   1.096   4.724 -0.6056  1.4891 -0.7102
 1894SOL    HW2 6238   6.812   1.190   4.834  0.4462  0.8573 -0.5589
 1895SOL     OW 6239   3.535   2.137   2.688  0.3442  0.2390  0.1672
 1895SOL    HW1 6240   3.507   2.144   2.779  1.4903  0.9030  0.4807
 1895SOL    HW2 6241   3.456   2.156   2.637 -0.5080 -0.8888  0.9904
 1896SOL     OW 6242   6.327   1.530   4.624  0.1532 -0.3807  0.2739
 1896SOL    HW1 6243   6.380   1.594   4.672 -1.0331  1.6979 -0.9998
 1896SOL    HW2 6244   6.366   1.445   4.645  2.8960  0.8786  0.7211
 1897SOL     OW 6245   6.776   6.864   1.438 -0.3104  0.6446  0.2630
 1897SOL    HW1 6246   6.819   6.944   1.408 -1.8340  2.6830  2.9831
 1897SOL    HW2 6247   6.819   6.844   1.522 -0.1536 -1.2811 -0.2342
 1898SOL     OW 6248   1.149   6.821   0.641  0.6442 -0.5620 -0.0052
 1898SOL    HW1 6249   1.056   6.830   0.660  0.5575  0.3536 -0.7576
 1898SOL    HW2 6250   1.173   6.904   0.599  1.3917 -1.4235 -1.3880
 1899SOL     OW 6251   1.584   2.457   0.301 -0.4183  0.4270  0.1195
 1899SOL    HW1 6252   1.542   2.377   0.270 -0.8239  0.0079  1.6474
 1899SOL    HW2 6253   1.649   2.427   0.365  0.9320  1.1931 -0.8469
 1900SOL     OW 6254   5.873   5.881   5.214 -0.5293  0.3799 -0.1916
 1900SOL    HW1 6255   5.899   5.896   5.306 -0.3943 -0.6111 -0.0544
 1900SOL    HW2 6256   5.956   5.876   5.167 -0.5867  0.4994 -0.3050
 1901SOL     OW 6257   2.526   4.054   4.181  0.7070  0.5261  0.2471
 1901SOL    HW1 6258   2.575   4.129   4.215  1.4869  0.2974 -0.3433
 1901SOL    HW2 6259   2.456   4.092   4.129 -0.4815  0.8855  2.0133
 1902SOL     OW 6260   5.049   2.202   3.367  0.0315 -0.2641 -0.3924
 1902SOL    HW1 6261   5.027   2.162   3.283  0.8023  1.5894 -1.5306
 1902SOL    HW2 6262   4.965   2.231   3.402 -0.1636  0.2298 -1.2319
 1903SOL     OW 6263   0.394   1.026   6.919  0.0239  0.5289 -0.2889
 1903SOL    HW1 6264   0.488   1.035   6.932 -0.0392 -0.0843  0.6543
 1903SOL    HW2 6265   0.361   0.990   7.001 -0.8956 -0.2135 -0.9571
 1904SOL     OW 6266   3.732   2.775   4.939  0.1949  0.1227 -0.5692
 1904SOL    HW1 6267   3.660   2.837   4.951  1.2755  1.0845  1.7063
 1904SOL    HW2 6268   3.703   2.695   4.983 -0.5551 -0.4942 -2.1117
 1905SOL     OW 6269   6.138   5.724   7.155  0.0696 -0.5382 -0.1632
 1905SOL    HW1 6270   6.046   5.731   7.179  0.3004  0.3628  0.4960
 1905SOL    HW2 6271   6.185   5.731   7.237  0.8272  1.4207 -0.7230
 1906SOL     OW 6272   1.406   3.490   6.333  0.0090  0.0844 -0.0698
 1906SOL    HW1 6273   1.346   3.554   6.295  1.4911  2.0939  0.7649
 1906SOL    HW2 6274   1.354   3.444   6.399 -1.2274  0.0054 -1.0536
 1907SOL     OW 6275   0.932   1.467   0.738 -0.1615 -0.1137  0.1247
 1907SOL    HW1 6276   0.844   1.443   0.767 -0.0495  0.3211  0.8604
 1907SOL    HW2 6277   0.987   1.392   0.762  0.5242  1.4041  4.0795
 1908SOL     OW 6278   6.028   7.633   0.216 -0.6236  0.5843 -0.2679
 1908SOL    HW1 6279   6.089   7.653   0.287 -1.9923  0.5347  0.9737
 1908SOL    HW2 6280   5.941   7.648   0.254 -1.4216 -0.0990 -1.7336
 1909SOL     OW 6281   0.094   5.862   0.076  0.1576  0.2403  0.3735
 1909SOL    HW1 6282   0.040   5.851   0.154 -0.1143 -0.0823  0.1422
 1909SOL    HW2 6283   0.107   5.774   0.042 -0.1196  0.4131 -0.2031
 1910SOL     OW 6284   7.715   7.280   2.921  0.1010  0.1797 -0.3035
 1910SOL    HW1 6285   7.734   7.187   2.911  1.9584  0.5847 -0.7578
 1910SOL    HW2 6286   7.639   7.295   2.864 -0.2737 -1.0510 -0.1624
 1911SOL     OW 6287   4.573   0.702   0.934  0.7792  0.8320  0.8640
 1911SOL    HW1 6288   4.599   0.683   1.024 -0.1510 -1.0877  0.7621
 1911SOL    HW2 6289   4.555   0.617   0.895  1.0629  1.6314 -1.1322
 1912SOL     OW 6290   4.801   5.321   0.421  0.0897  0.1382 -0.4501
 1912SOL    HW1 6291   4.771   5.410   0.438 -0.7646 -0.1963 -0.1293
 1912SOL    HW2 6292   4.839   5.292   0.504  1.1631  0.4917 -0.7993
 1913SOL     OW 6293   3.502   3.910   3.500 -0.2651  0.0195  0.2519
 1913SOL    HW1 6294   3.594   3.918   3.475  0.2973  2.2536  2.5286
 1913SOL    HW2 6295   3.453   3.944   3.425  1.0398  2.3485  0.3484
 1914SOL     OW 6296   4.124   1.946   2.794  0.5746  0.2046  0.0045
 1914SOL    HW1 6297   4.191   1.884   2.768  0.8094  0.7348 -0.6807
 1914SOL    HW2 6298   4.045   1.893   2.804  1.1068 -0.4474  0.9740
 1915SOL     OW 6299   4.977   1.561   6.047  0.3476  0.4442  0.1506
 1915SOL    HW1 6300   5.016   1.546   5.961  0.8541  0.7686  0.3212
 1915SOL    HW2 6301   4.974   1.474   6.087  1.0764  0.4430  0.2127
 1916SOL     OW 6302   2.468   0.649   1.085 -0.5658 -0.0057  0.0897
 1916SOL    HW1 6303   2.393   0.699   1.053 -1.2127 -1.1151 -0.1663
 1916SOL    HW2 6304   2.433   0.562   1.103  0.9016 -0.9208 -1.2043
 1917SOL     OW 6305   1.646   3.453   5.526  0.2564  0.5320 -0.0168
 1917SOL    HW1 6306   1.643   3.435   5.432  0.3066 -0.4149  0.1494
 1917SOL    HW2 6307   1.717   3.398   5.558  2.1406  2.9319  0.1588
 1918SOL     OW 6308   0.065   3.187   6.353 -0.4049 -0.3000 -0.1688
 1918SOL    HW1 6309   0.121   3.134   6.297 -0.7301 -0.3258 -0.4704
 1918SOL    HW2 6310  -0.019   3.190   6.308  0.2327  2.4440 -1.3645
 1919SOL     OW 6311   2.945   3.842   0.431 -0.8689  0.2821 -0.0303
 1919SOL    HW1 6312   2.903   3.845   0.517  0.6472  0.2125  0.7501
 1919SOL    HW2 6313   3.023   3.788   0.445 -0.1935  0.9132 -1.2662
 1920SOL     OW 6314   2.731   1.588   6.336  0.3753  0.2358 -0.5339
 1920SOL    HW1 6315   2.780   1.562   6.414 -0.7968 -0.6413 -0.0589
 1920SOL    HW2 6316   2.788   1.652   6.292  1.1413  0.6034  0.9289
 1921SOL     OW 6317   7.593   0.895   3.889  0.2261  0.3384 -0.1337
 1921SOL    HW1 6318   7.628   0.874   3.802  1.3272 -0.2017  0.4266
 1921SOL    HW2 6319   7.553   0.814   3.919  0.1775  0.4199  0.0227
 1922SOL     OW 6320   5.881   1.552   3.570  0.0377 -0.2725 -0.2678
 1922SOL    HW1 6321   5.973   1.577   3.555 -0.0743 -0.4038 -1.2505
 1922SOL    HW2 6322   5.849   1.617   3.632  0.9462 -0.5556  0.5251
 1923SOL     OW 6323   0.870   4.804   7.646  0.3623 -0.6921  0.4654
 1923SOL    HW1 6324   0.806   4.829   7.713  0.6424 -0.2141  0.5550
 1923SOL    HW2 6325   0.940   4.869   7.653 -0.3414  0.3246 -1.3592
 1924SOL     OW 6326   2.015   1.967   5.451  0.0593  0.7719 -0.0901
 1924SOL    HW1 6327   1.960   1.889   5.457  3.2824 -1.5735  1.6489
 1924SOL    HW2 6328   1.969   2.032   5.503 -1.5322 -0.7547  0.5088
 1925SOL     OW 6329   0.500   6.302   3.673  0.8445  0.3375  0.5047
 1925SOL    HW1 6330   0.517   6.335   3.585 -1.0187  0.3672  0.1273
 1925SOL    HW2 6331   0.583   6.316   3.720  2.0634 -0.2028 -1.3734
 1926SOL     OW 6332   5.054   6.637   7.448  0.3723  0.6477  0.4543
 1926SOL    HW1 6333   5.050   6.687   7.367 -0.5393 -1.6600 -1.0133
 1926SOL    HW2 6334   5.146   6.613   7.457  0.8705  2.6868  1.3172
 1927SOL     OW 6335   1.112   0.884   6.668  0.8757 -0.4389  0.0400
 1927SOL    HW1 6336   1.042   0.933   6.626  0.9628 -2.4100 -2.6823
 1927SOL    HW2 6337   1.069   0.836   6.739 -0.0922  0.0286 -0.2159
 1928SOL     OW 6338   6.478   6.826   4.879  0.1096 -0.2227  0.0588
 1928SOL    HW1 6339   6.415   6.765   4.919  0.0102  1.1627  2.1626
 1928SOL    HW2 6340   6.563   6.782   4.889  0.0629 -0.0032  1.7084
 1929SOL     OW 6341   4.252   7.198   0.649  0.1699 -0.4770 -0.2013
 1929SOL    HW1 6342   4.313   7.267   0.623  1.0631 -1.3096 -0.3715
 1929SOL    HW2 6343   4.188   7.194   0.578  0.9733 -0.8240 -0.9194
 1930SOL     OW 6344   4.805   3.765   3.444 -0.5840  0.0647 -0.0691
 1930SOL    HW1 6345   4.750   3.689   3.461  0.7041 -0.6348  1.1594
 1930SOL    HW2 6346   4.784   3.827   3.514  1.0660 -0.7479  1.2252
 1931SOL     OW 6347   0.585   4.467   1.296 -0.2359 -0.3270  0.4659
 1931SOL    HW1 6348   0.615   4.557   1.280  1.0949 -0.7335  0.5640
 1931SOL    HW2 6349   0.576   4.461   1.391 -0.2759 -0.3122  0.4631
 1932SOL     OW 6350   6.596   0.870   5.874 -0.4735  0.6757 -0.2736
 1932SOL    HW1 6351   6.526   0.934   5.879 -0.2411  0.9006  0.1109
 1932SOL    HW2 6352   6.552   0.787   5.856 -0.7418  1.0049 -1.1894
 1933SOL     OW 6353   2.332   3.861   1.630  0.0924  0.3010 -0.2734
 1933SOL    HW1 6354   2.240   3.888   1.632  0.1545  0.4845  1.1648
 1933SOL    HW2 6355   2.331   3.772   1.595 -0.5746  0.5025 -0.7748
 1934SOL     OW 6356   6.008   1.417   5.022  0.0659 -0.2428 -0.6018
 1934SOL    HW1 6357   5.939   1.354   5.043  1.2653 -0.7238  2.4956
 1934SOL    HW2 6358   6.074   1.366   4.975  0.5106 -1.0678  0.8677
 1935SOL     OW 6359   5.097   3.541   2.487  0.4104  0.0828 -0.1391
 1935SOL    HW1 6360   5.124   3.612   2.545 -0.6407  2.6173 -2.4728
 1935SOL    HW2 6361   5.166   3.537   2.421 -0.9836  1.2071 -1.7622
 1936SOL     OW 6362   4.098   7.621   7.734 -0.2399 -0.5809  0.3121
 1936SOL    HW1 6363   4.077   7.638   7.642  0.3066  1.5272  0.5231
 1936SOL    HW2 6364   4.159   7.548   7.732  2.8416  1.7897 -1.4188
 1937SOL     OW 6365   1.866   0.156   6.901 -0.0740 -0.6985 -0.1673
 1937SOL    HW1 6366   1.885   0.186   6.990  2.5112  0.1399 -0.9240
 1937SOL    HW2 6367   1.823   0.231   6.859 -1.8838 -1.3111  0.4846
 1938SOL     OW 6368   0.183   5.031   1.209  0.8105 -0.3247  0.4695
 1938SOL    HW1 6369   0.165   5.081   1.129  1.5535 -0.3785  0.2569
 1938SOL    HW2 6370   0.162   4.941   1.186  0.1877 -0.2198  0.6149
 1939SOL     OW 6371   4.572   7.212   2.677 -0.0237  0.1886 -0.0731
 1939SOL    HW1 6372   4.661   7.180   2.690  0.5703  1.4775 -0.7929
 1939SOL    HW2 6373   4.582   7.292   2.625 -1.4981  1.0871  0.9367
 1940SOL     OW 6374   6.536   5.063   4.066  0.3742  0.1261 -0.6270
 1940SOL    HW1 6375   6.546   5.138   4.125 -0.0760 -0.0962 -0.2631
 1940SOL    HW2 6376   6.617   5.061   4.016  1.2372 -0.3281  0.7404
 1941SOL     OW 6377   1.560   1.701   5.631 -0.5591  0.1837 -0.5870
 1941SOL    HW1 6378   1.472   1.667   5.648 -0.1375 -1.2581 -1.1288
 1941SOL    HW2 6379   1.592   1.731   5.716 -1.5494  0.7104 -0.3823
 1942SOL     OW 6380   3.125   0.469   0.298 -0.1154 -0.0229  0.3089
 1942SOL    HW1 6381   3.168   0.420   0.368  0.8346  1.2684  0.6857
 1942SOL    HW2 6382   3.190   0.470   0.227 -0.9055 -0.9621 -0.4524
 1943SOL     OW 6383   3.253   2.591   6.811  0.0734 -0.3201 -0.3316
 1943SOL    HW1 6384   3.283   2.678   6.835  1.2618 -0.8049  0.0302
 1943SOL    HW2 6385   3.171   2.579   6.858  0.9322 -0.1637  1.2641
 1944SOL     OW 6386   6.854   0.365   7.487  0.7050  0.4986 -0.2397
 1944SOL    HW1 6387   6.887   0.409   7.565  1.0262 -0.5866  0.2540
 1944SOL    HW2 6388   6.895   0.278   7.488 -2.0320 -0.9045  0.3586
 1945SOL     OW 6389   5.207   6.518   0.556  0.6171 -0.1158 -0.0516
 1945SOL    HW1 6390   5.130   6.469   0.585 -0.2169  0.5802 -1.0079
 1945SOL    HW2 6391   5.246   6.551   0.636  1.2674 -2.3683  0.6393
 1946SOL     OW 6392   1.328   3.326   1.200  0.0236 -0.0733  0.5335
 1946SOL    HW1 6393   1.267   3.399   1.199  1.2141  0.9555  0.1089
 1946SOL    HW2 6394   1.385   3.340   1.124  0.2656 -1.4665  0.4132
 1947SOL     OW 6395   5.761   5.557   0.088  0.0219 -0.1161 -0.2997
 1947SOL    HW1 6396   5.719   5.633   0.047  1.1241  1.7525  1.7656
 1947SOL    HW2 6397   5.701   5.531   0.157  0.5573  0.2423  0.3177
 1948SOL     OW 6398   7.193   2.381   5.409 -0.2504  0.4028  0.1934
 1948SOL    HW1 6399   7.269   2.410   5.460 -0.4547 -0.8421  1.2699
 1948SOL    HW2 6400   7.120   2.389   5.470 -0.7833  0.4666 -0.4529
 1949SOL     OW 6401   5.735   5.935   1.056  0.1529  0.0451  0.6443
 1949SOL    HW1 6402   5.698   5.971   0.975  0.7068  0.9374  0.7711
 1949SOL    HW2 6403   5.659   5.924   1.114  0.0007  1.4150  0.7394
 1950SOL     OW 6404   3.995   7.022   3.446  0.1197 -0.2043  0.0931
 1950SOL    HW1 6405   3.916   7.005   3.497 -2.1006  1.6995 -2.4127
 1950SOL    HW2 6406   3.998   6.951   3.382 -0.9779  0.9181 -1.2732
 1951SOL     OW 6407   2.229   0.375   7.706 -0.6931  0.3529  0.4016
 1951SOL    HW1 6408   2.247   0.286   7.676 -2.0193 -0.0288  0.6949
 1951SOL    HW2 6409   2.138   0.373   7.733 -0.1665  1.2578  2.3778
 1952SOL     OW 6410   3.082   0.850   3.043 -0.0186  0.2366  0.7643
 1952SOL    HW1 6411   3.074   0.796   2.964  0.3587  0.4916  0.5436
 1952SOL    HW2 6412   3.134   0.796   3.103 -2.8316 -1.2262  2.0304
 1953SOL     OW 6413   0.987   7.746   1.306  0.5305 -0.5359 -0.3556
 1953SOL    HW1 6414   0.960   7.676   1.365 -1.0343 -0.1048 -0.5027
 1953SOL    HW2 6415   0.960   7.715   1.219 -1.3265  0.7360 -0.2817
 1954SOL     OW 6416   7.034   0.591   1.579  0.0508 -0.1040  0.1850
 1954SOL    HW1 6417   7.037   0.628   1.490 -1.5334  0.4575  0.3283
 1954SOL    HW2 6418   7.112   0.625   1.622 -0.7361  2.2002 -0.0692
 1955SOL     OW 6419   0.870   7.301   2.428 -0.4581  0.4986 -0.5592
 1955SOL    HW1 6420   0.925   7.358   2.482  0.9604 -1.0695 -0.2493
 1955SOL    HW2 6421   0.836   7.236   2.489 -0.4112 -0.1548 -1.2172
 1956SOL     OW 6422   0.348   5.429   2.657 -0.4458 -0.5877  0.1707
 1956SOL    HW1 6423   0.388   5.486   2.722  0.2922 -0.1796 -0.6087
 1956SOL    HW2 6424   0.254   5.436   2.673 -0.2547 -0.9661  1.5507
 1957SOL     OW 6425   1.579   4.900   3.092  0.0592  0.0647 -0.2682
 1957SOL    HW1 6426   1.586   4.860   3.179  1.1363 -1.5024 -1.0426
 1957SOL    HW2 6427   1.501   4.861   3.054 -0.0317  0.2441 -0.2682
 1958SOL     OW 6428   1.503   1.064   6.536  0.4628 -0.3639  0.0257
 1958SOL    HW1 6429   1.452   0.988   6.566  0.0334 -0.4195 -0.8104
 1958SOL    HW2 6430   1.583   1.025   6.500  0.4605 -0.3778  0.0350
 1959SOL     OW 6431   4.955   7.616   4.325  0.2456  0.5369  0.5375
 1959SOL    HW1 6432   4.966   7.521   4.323 -0.1279  0.4926  0.6079
 1959SOL    HW2 6433   5.045   7.650   4.325  0.3787  0.1913  0.2454
 1960SOL     OW 6434   7.532   4.870   6.800 -0.0964  0.4115 -0.3200
 1960SOL    HW1 6435   7.448   4.916   6.802  1.3101  3.1976  2.3867
 1960SOL    HW2 6436   7.591   4.933   6.759  1.3508 -0.0480  0.9954
 1961SOL     OW 6437   5.550   3.269   1.691 -0.0489 -0.1214  0.3812
 1961SOL    HW1 6438   5.539   3.182   1.654  0.0183  0.1076 -0.1896
 1961SOL    HW2 6439   5.605   3.315   1.628  0.2900  0.1946  0.8991
 1962SOL     OW 6440   0.095   3.923   2.938  0.2729  0.1327  0.2457
 1962SOL    HW1 6441   0.112   3.953   3.027 -0.9411  0.4759  0.3757
 1962SOL    HW2 6442   0.032   3.986   2.903 -0.6457 -1.0161 -0.2325
 1963SOL     OW 6443   2.819   4.269   4.013 -0.5981  0.5865 -0.2295
 1963SOL    HW1 6444   2.750   4.270   4.079 -1.6562  0.8024 -1.2886
 1963SOL    HW2 6445   2.813   4.183   3.972  0.9251 -0.0401  0.8115
 1964SOL     OW 6446   0.138   4.957   5.643 -0.0904 -0.2947  0.8001
 1964SOL    HW1 6447   0.168   4.939   5.732  2.0335 -0.4060  0.1246
 1964SOL    HW2 6448   0.180   5.040   5.620  0.3867 -0.8609 -0.4893
 1965SOL     OW 6449   6.257   3.041   5.112  0.2260  0.5140 -0.3634
 1965SOL    HW1 6450   6.248   2.956   5.068 -0.1036  1.0211 -1.2984
 1965SOL    HW2 6451   6.223   3.104   5.049  1.5307  1.4688 -0.1547
 1966SOL     OW 6452   3.609   0.261   0.792  0.5757 -1.0779  0.4527
 1966SOL    HW1 6453   3.686   0.204   0.791  1.7077  0.3239  1.8780
 1966SOL    HW2 6454   3.640   0.344   0.756 -0.7199 -0.9683 -0.4815
 1967SOL     OW 6455   1.044   4.634   6.546  0.2213  0.1340 -0.0241
 1967SOL    HW1 6456   1.061   4.551   6.502  0.0324  1.0320 -1.8944
 1967SOL    HW2 6457   1.123   4.651   6.598  0.3111 -1.1165  0.2828
 1968SOL     OW 6458   5.646   4.825   1.157 -0.0855 -0.0784  0.2692
 1968SOL    HW1 6459   5.625   4.732   1.170  2.2393 -0.6832  0.1235
 1968SOL    HW2 6460   5.625   4.841   1.065 -0.2246 -0.5334  0.2159
 1969SOL     OW 6461   2.168   3.923   2.819  0.4831  0.0261 -0.6273
 1969SOL    HW1 6462   2.135   3.996   2.767  1.9066  1.0982 -0.1012
 1969SOL    HW2 6463   2.148   3.948   2.910  1.3551 -0.0071 -0.4125
 1970SOL     OW 6464   4.049   1.498   0.332  0.3441  0.4670 -0.0528
 1970SOL    HW1 6465   4.059   1.573   0.391 -0.2283  0.4708  0.0509
 1970SOL    HW2 6466   4.138   1.473   0.309  0.5516  0.9199  0.2439
 1971SOL     OW 6467   2.729   4.817   6.629 -0.1208  0.0799 -0.1710
 1971SOL    HW1 6468   2.661   4.872   6.591 -0.8080 -1.6045 -1.5425
 1971SOL    HW2 6469   2.717   4.823   6.723 -0.6965  1.5891 -0.3294
 1972SOL     OW 6470   0.550   4.567   5.867  0.0869 -0.2289  0.3448
 1972SOL    HW1 6471   0.490   4.625   5.821  0.4248  0.1301  0.3477
 1972SOL    HW2 6472   0.632   4.574   5.818 -0.3074 -1.9517 -0.6312
 1973SOL     OW 6473   0.472   7.535   3.706  0.0500  0.2718  0.4286
 1973SOL    HW1 6474   0.466   7.629   3.723  0.6524  0.6609 -1.2753
 1973SOL    HW2 6475   0.535   7.528   3.634  1.3554 -1.5813  1.6537
 1974SOL     OW 6476   5.136   3.180   7.680 -0.1107  0.2529 -0.7655
 1974SOL    HW1 6477   5.207   3.146   7.734  0.4410  0.6443 -1.2278
 1974SOL    HW2 6478   5.096   3.248   7.734  0.3849  0.5858 -0.8099
 1975SOL     OW 6479   3.496   4.793   0.731 -0.7176  0.2214  0.2545
 1975SOL    HW1 6480   3.526   4.803   0.641  1.3864  1.7617  1.0436
 1975SOL    HW2 6481   3.543   4.717   0.763 -0.2776  0.5796  0.4751
 1976SOL     OW 6482   6.483   1.303   2.269 -0.5696  0.5622  0.3449
 1976SOL    HW1 6483   6.435   1.221   2.283 -0.1795  0.3262  0.3058
 1976SOL    HW2 6484   6.494   1.339   2.357  0.6436 -0.2176  0.5326
 1977SOL     OW 6485   3.019   2.074   7.636  0.7017  0.1458  0.6895
 1977SOL    HW1 6486   3.001   2.168   7.634 -1.4547 -0.2267 -1.1850
 1977SOL    HW2 6487   3.005   2.050   7.728  0.9490  1.5776  1.1290
 1978SOL     OW 6488   7.657   5.164   3.129 -0.1447 -0.4220  0.0312
 1978SOL    HW1 6489   7.664   5.145   3.035  0.2471  0.0991 -0.0492
 1978SOL    HW2 6490   7.747   5.168   3.160 -0.2664 -0.3722  0.3872
 1979SOL     OW 6491   5.320   5.978   4.370  0.1417 -0.0464 -0.0775
 1979SOL    HW1 6492   5.379   5.926   4.425  0.8316  1.5685  0.7795
 1979SOL    HW2 6493   5.258   6.017   4.431 -1.0328 -0.6663 -0.8299
 1980SOL     OW 6494   2.208   4.361   1.448  0.3336 -0.2892 -0.2154
 1980SOL    HW1 6495   2.282   4.368   1.388 -0.8123 -1.6911 -1.8762
 1980SOL    HW2 6496   2.233   4.291   1.509  0.7822 -0.0435 -0.1095
 1981SOL     OW 6497   4.207   2.808   7.663 -0.3425  0.4818  0.2085
 1981SOL    HW1 6498   4.222   2.798   7.757  0.2871  0.7774  0.1480
 1981SOL    HW2 6499   4.294   2.825   7.627 -0.2387 -1.6733 -0.7147
 1982SOL     OW 6500   2.330   2.048   1.885 -0.3804 -0.2219 -0.2621
 1982SOL    HW1 6501   2.326   1.958   1.853  0.5428 -0.3436 -0.0508
 1982SOL    HW2 6502   2.386   2.043   1.963  0.1132  0.6263 -0.5547
 1983SOL     OW 6503   2.825   3.882   0.652  0.1597  0.1841 -0.6026
 1983SOL    HW1 6504   2.854   3.972   0.640  0.4430 -0.0477 -1.7748
 1983SOL    HW2 6505   2.739   3.878   0.611  0.5304 -0.2843 -1.3611
 1984SOL     OW 6506   3.207   2.058   6.349 -0.0504  0.0501 -0.1473
 1984SOL    HW1 6507   3.271   2.130   6.345 -1.6432  1.4742 -1.8225
 1984SOL    HW2 6508   3.217   2.013   6.265  1.0648 -1.8928  0.9658
 1985SOL     OW 6509   0.361   5.220   6.443  0.3585 -0.1984  0.5697
 1985SOL    HW1 6510   0.426   5.290   6.432 -1.8298  1.9926  0.6369
 1985SOL    HW2 6511   0.351   5.210   6.537  0.2652 -0.1877  0.5615
 1986SOL     OW 6512   3.884   1.409   1.835  0.3294  0.5104 -0.5292
 1986SOL    HW1 6513   3.977   1.406   1.856  0.7550  1.2697 -2.1532
 1986SOL    HW2 6514   3.855   1.495   1.867  0.7272  1.2062 -1.9448
 1987SOL     OW 6515   0.707   0.534   6.530  0.2212  0.0672 -0.4387
 1987SOL    HW1 6516   0.744   0.562   6.447  0.1885  0.1498 -0.4252
 1987SOL    HW2 6517   0.640   0.470   6.506  1.0199 -0.8002 -0.4190
 1988SOL     OW 6518   0.631   0.030   1.861  0.1269  0.4579  0.2157
 1988SOL    HW1 6519   0.549   0.075   1.880  0.2388  0.2126  1.3787
 1988SOL    HW2 6520   0.696   0.100   1.854 -0.0987  0.6217 -0.2776
 1989SOL     OW 6521   1.897   1.228   6.661 -0.0029  0.4146 -0.5048
 1989SOL    HW1 6522   1.910   1.147   6.709 -0.6299  0.0081 -1.0018
 1989SOL    HW2 6523   1.952   1.292   6.706 -0.6853  0.0938  0.8454
 1990SOL     OW 6524   0.530   6.952   3.344  0.2218 -1.2460 -0.5442
 1990SOL    HW1 6525   0.469   6.913   3.406  1.3306 -1.7428  0.2731
 1990SOL    HW2 6526   0.605   6.893   3.344  1.3145  0.0821 -0.4236
 1991SOL     OW 6527   0.593   2.227   6.011 -0.7401 -0.1658 -0.4678
 1991SOL    HW1 6528   0.668   2.169   5.996 -2.5601 -2.8000 -0.1606
 1991SOL    HW2 6529   0.627   2.315   5.995  2.3800 -1.2185 -0.3340
 1992SOL     OW 6530   3.081   3.211   4.022  0.2181  0.3042 -0.6918
 1992SOL    HW1 6531   3.026   3.218   3.944  0.9290  2.1011 -1.0810
 1992SOL    HW2 6532   3.169   3.232   3.992  0.6555  0.1958  0.4457
 1993SOL     OW 6533   1.068   2.332   0.410  0.0567 -0.8086 -0.4837
 1993SOL    HW1 6534   0.987   2.341   0.461  0.0755  2.6695 -0.8717
 1993SOL    HW2 6535   1.109   2.254   0.446 -2.3452 -1.3832  1.3233
 1994SOL     OW 6536   1.250   6.012   0.134  0.2308  0.3969  0.0843
 1994SOL    HW1 6537   1.321   6.068   0.163  0.4765 -0.3062  0.8902
 1994SOL    HW2 6538   1.265   6.000   0.040  0.9574  0.5683  0.1740
 1995SOL     OW 6539   2.213   1.542   2.225  0.2211 -0.3769  0.9944
 1995SOL    HW1 6540   2.214   1.523   2.131 -2.0744  0.7486  0.6568
 1995SOL    HW2 6541   2.232   1.458   2.267 -0.2215 -1.2474 -0.4798
 1996SOL     OW 6542   6.088   2.646   0.072 -0.0493  0.4530  0.6041
 1996SOL    HW1 6543   6.031   2.569   0.065 -2.5237  2.1458  1.0424
 1996SOL    HW2 6544   6.154   2.621   0.137 -2.4017 -0.4135  2.8343
 1997SOL     OW 6545   2.169   2.531   4.950 -0.3355 -0.1097  0.3863
 1997SOL    HW1 6546   2.206   2.492   5.030  2.4708  1.5068 -0.0079
 1997SOL    HW2 6547   2.094   2.581   4.981 -0.2827 -0.8177  1.7560
 1998SOL     OW 6548   5.847   4.623   3.332 -0.3007  0.6583 -0.3669
 1998SOL    HW1 6549   5.803   4.612   3.417 -0.7135  0.0542 -0.6484
 1998SOL    HW2 6550   5.776   4.646   3.272 -0.0459  0.8453 -0.5967
 1999SOL     OW 6551   3.331   7.459   5.565 -0.8230 -0.2136 -0.0803
 1999SOL    HW1 6552   3.286   7.469   5.482 -0.3610 -2.5150 -0.6703
 1999SOL    HW2 6553   3.304   7.372   5.597  2.2202 -1.1979  0.0949
 2000SOL     OW 6554   5.386   4.592   7.602 -0.5741  0.1718  0.2286
 2000SOL    HW1 6555   5.388   4.519   7.540  0.5366  0.8753 -0.5998
 2000SOL    HW2 6556   5.426   4.557   7.681 -0.4954 -0.2528  0.0069
 2001SOL     OW 6557   1.747   4.807   7.591  0.1472 -0.2134  0.5473
 2001SOL    HW1 6558   1.771   4.770   7.506  1.2697 -0.9995  1.1835
 2001SOL    HW2 6559   1.825   4.795   7.645 -0.0101  1.6520  1.2624
 2002SOL     OW 6560   0.682   4.130   6.671  0.1195 -0.2973  0.5324
 2002SOL    HW1 6561   0.611   4.085   6.626  1.2656 -1.1720 -0.4794
 2002SOL    HW2 6562   0.741   4.060   6.700  1.5308  0.4672 -0.3473
 2003SOL     OW 6563   4.332   3.765   6.283 -0.1029  0.1817 -0.2457
 2003SOL    HW1 6564   4.330   3.769   6.378 -1.6338 -1.6509 -0.1367
 2003SOL    HW2 6565   4.253   3.812   6.255  0.0628  0.2694 -0.5701
 2004SOL     OW 6566   4.565   0.539   7.422  0.3187 -1.0024  0.4345
 2004SOL    HW1 6567   4.478   0.520   7.386 -0.2754 -1.8075  2.1614
 2004SOL    HW2 6568   4.599   0.454   7.449  2.2350 -0.8744 -1.3731
 2005SOL     OW 6569   7.062   1.945   5.125  0.4228 -0.6367  0.2572
 2005SOL    HW1 6570   7.093   1.961   5.214  0.4802 -0.4532  0.2053
 2005SOL    HW2 6571   7.016   1.861   5.130 -1.2624  0.2585  0.8911
 2006SOL     OW 6572   3.740   1.440   2.182 -0.3263  0.0867 -0.0968
 2006SOL    HW1 6573   3.797   1.367   2.158 -0.4938  0.0964 -0.5396
 2006SOL    HW2 6574   3.714   1.421   2.272  0.5250  0.1848  0.1760
 2007SOL     OW 6575   3.244   6.425   0.007  0.0287 -0.3956 -0.2930
 2007SOL    HW1 6576   3.218   6.516  -0.003 -1.7557 -0.9418 -0.9213
 2007SOL    HW2 6577   3.247   6.391  -0.083 -0.3665 -1.2100 -0.0077
 2008SOL     OW 6578   5.106   0.938   1.321 -0.1477 -0.1179 -0.3687
 2008SOL    HW1 6579   5.164   0.876   1.366 -0.8645  0.3689  1.2902
 2008SOL    HW2 6580   5.161   1.015   1.305 -0.0735 -0.0183  0.3432
 2009SOL     OW 6581   4.785   3.679   4.964  0.7165 -0.1146 -0.2695
 2009SOL    HW1 6582   4.731   3.601   4.948 -0.5973  0.7280 -0.1021
 2009SOL    HW2 6583   4.739   3.727   5.032  2.4428 -0.0346  0.9006
 2010SOL     OW 6584   6.600   2.582   5.330 -0.2695 -0.1638  0.2194
 2010SOL    HW1 6585   6.566   2.554   5.415 -0.4759 -0.8096 -0.0615
 2010SOL    HW2 6586   6.621   2.500   5.285  1.3624  0.2116  0.2497
 2011SOL     OW 6587   3.920   3.141   3.500  0.0799  0.0378 -0.2126
 2011SOL    HW1 6588   3.871   3.059   3.507 -1.1417  0.7669  0.0992
 2011SOL    HW2 6589   3.904   3.185   3.584  1.0452  0.4233 -0.2211
 2012SOL     OW 6590   3.337   0.554   5.112  0.3975  0.0843  0.0934
 2012SOL    HW1 6591   3.295   0.553   5.026 -0.1106  0.9884  0.3124
 2012SOL    HW2 6592   3.271   0.519   5.171  1.8528 -3.7813 -0.2775
 2013SOL     OW 6593   7.610   1.926   1.497  0.1063 -0.6129 -0.5507
 2013SOL    HW1 6594   7.648   1.914   1.585 -0.7102 -1.6921 -0.3109
 2013SOL    HW2 6595   7.524   1.964   1.514  0.3333  0.0831 -0.9575
 2014SOL     OW 6596   2.391   7.351   4.639 -0.1021 -0.4905 -0.2871
 2014SOL    HW1 6597   2.349   7.324   4.721 -0.1765 -0.3357 -0.2749
 2014SOL    HW2 6598   2.348   7.298   4.572 -0.2019 -0.4519 -0.2542
 2015SOL     OW 6599   6.689   0.408   2.382  0.1554 -0.1004 -0.8947
 2015SOL    HW1 6600   6.648   0.490   2.354 -1.0798 -0.1609  0.5859
 2015SOL    HW2 6601   6.674   0.348   2.309  1.1430  0.9771 -2.0298
 2016SOL     OW 6602   6.601   1.271   7.088 -0.1330 -0.5068 -0.2502
 2016SOL    HW1 6603   6.652   1.324   7.149  1.3365 -2.2667  0.1403
 2016SOL    HW2 6604   6.570   1.196   7.140 -0.5254 -1.0361 -1.2049
 2017SOL     OW 6605   5.640   4.115   1.950  0.1015  0.2065 -0.1127
 2017SOL    HW1 6606   5.556   4.085   1.916 -0.4618  1.3577  0.2161
 2017SOL    HW2 6607   5.702   4.048   1.921 -0.8643 -0.5041 -0.6320
 2018SOL     OW 6608   2.128   2.207   3.631  0.0126 -0.7150  0.1983
 2018SOL    HW1 6609   2.169   2.197   3.717 -1.2319 -2.6968  0.6150
 2018SOL    HW2 6610   2.083   2.292   3.637  0.3598 -0.5869  1.3005
 2019SOL     OW 6611   5.835   0.536   3.590 -0.3459 -0.3116 -0.9566
 2019SOL    HW1 6612   5.899   0.592   3.634 -1.1248  1.2443 -1.7207
 2019SOL    HW2 6613   5.875   0.515   3.506 -1.3104  1.8386 -2.0498
 2020SOL     OW 6614   3.169   4.607   3.076 -0.8004  0.6823 -0.0174
 2020SOL    HW1 6615   3.096   4.545   3.067 -0.6473  0.3773  0.7784
 2020SOL    HW2 6616   3.191   4.631   2.986 -1.2841  0.0723 -0.3073
 2021SOL     OW 6617   6.701   3.383   1.390 -0.2263  0.1192 -0.1045
 2021SOL    HW1 6618   6.667   3.411   1.305 -0.1236  1.8106  0.3887
 2021SOL    HW2 6619   6.625   3.385   1.449 -0.0381  0.1958  0.1365
 2022SOL     OW 6620   7.404   4.260   0.250 -0.0784  0.1146  0.8814
 2022SOL    HW1 6621   7.354   4.212   0.184  0.4388  1.2466 -0.3903
 2022SOL    HW2 6622   7.492   4.265   0.213  0.4270  0.1188  2.0364
 2023SOL     OW 6623   6.783   2.201   3.140 -0.5469 -0.2777 -0.0988
 2023SOL    HW1 6624   6.828   2.285   3.129 -0.9156  0.2980  2.1136
 2023SOL    HW2 6625   6.843   2.148   3.191 -1.9375  0.2311  2.2195
 2024SOL     OW 6626   3.369   2.666   3.133  0.2558  0.7634  0.6347
 2024SOL    HW1 6627   3.303   2.688   3.068 -0.1049  0.7764  0.9991
 2024SOL    HW2 6628   3.336   2.587   3.176  0.9194  0.2476  0.2097
 2025SOL     OW 6629   1.739   0.300   3.190 -0.2787 -0.4866 -0.5131
 2025SOL    HW1 6630   1.781   0.283   3.106  1.2871 -1.2156  0.3704
 2025SOL    HW2 6631   1.650   0.268   3.180  0.2363 -1.6558 -1.5319
 2026SOL     OW 6632   1.699   0.132   0.776  0.1500 -0.3442  0.1884
 2026SOL    HW1 6633   1.724   0.105   0.865  0.6330  0.2272  0.2358
 2026SOL    HW2 6634   1.752   0.077   0.718 -0.4991 -1.0339  0.2443
 2027SOL     OW 6635   0.606   4.962   1.256  0.6220 -0.3725  0.3234
 2027SOL    HW1 6636   0.562   5.043   1.281  1.4906  0.1396  0.2450
 2027SOL    HW2 6637   0.568   4.939   1.171 -1.9014 -1.7950  1.7084
 2028SOL     OW 6638   4.401   0.652   1.245 -0.2957  0.3289 -0.7497
 2028SOL    HW1 6639   4.495   0.637   1.231  0.1234  0.8278  1.1759
 2028SOL    HW2 6640   4.367   0.568   1.275  0.1077  0.7654  1.0347
 2029SOL     OW 6641   1.847   2.025   5.688  0.0600 -0.3679  0.3012
 2029SOL    HW1 6642   1.817   2.115   5.673 -2.0231 -1.0827 -0.2384
 2029SOL    HW2 6643   1.854   2.017   5.783  1.7736  0.7711  0.3089
 2030SOL     OW 6644   6.006   2.212   4.729 -0.3599  0.0599  0.1479
 2030SOL    HW1 6645   6.084   2.265   4.709  0.2250 -0.4851  0.9232
 2030SOL    HW2 6646   6.022   2.128   4.687 -0.6786  0.0593  0.0285
 2031SOL     OW 6647   2.778   3.894   1.840 -0.0584 -0.2575  0.7455
 2031SOL    HW1 6648   2.867   3.906   1.808  0.0151  0.5262  1.2118
 2031SOL    HW2 6649   2.787   3.896   1.936 -0.7081  0.9553  0.7957
 2032SOL     OW 6650   2.984   6.914   1.119 -0.3724  0.2186  0.3007
 2032SOL    HW1 6651   2.996   6.957   1.034 -0.3146 -0.5736 -0.1119
 2032SOL    HW2 6652   3.029   6.970   1.182  0.8456  0.0925 -0.4140
 2033SOL     OW 6653   4.326   1.792   7.375 -0.3420  0.2014 -0.0181
 2033SOL    HW1 6654   4.236   1.815   7.398 -0.9547 -0.1366 -1.9111
 2033SOL    HW2 6655   4.372   1.875   7.369 -1.1577  0.5891 -1.3727
 2034SOL     OW 6656   7.590   2.521   2.742 -0.1545  0.1010 -0.3038
 2034SOL    HW1 6657   7.608   2.435   2.780 -1.4868 -0.3192 -0.5760
 2034SOL    HW2 6658   7.671   2.570   2.755  0.1121 -0.6951  1.2313
 2035SOL     OW 6659   1.009   1.580   1.451  0.0727  0.1172 -0.7505
 2035SOL    HW1 6660   0.920   1.559   1.420 -0.0304  1.4940 -1.4480
 2035SOL    HW2 6661   1.049   1.627   1.378  0.3120  2.2008  0.6499
 2036SOL     OW 6662   7.036   6.492   6.165  0.5753  0.3683  0.4817
 2036SOL    HW1 6663   7.130   6.504   6.177  1.1410 -0.7324 -2.0940
 2036SOL    HW2 6664   7.016   6.409   6.208  1.1581 -0.2251 -0.3584
 2037SOL     OW 6665   3.238   0.057   7.547  1.3952  0.0821  0.1427
 2037SOL    HW1 6666   3.226   0.086   7.638 -1.8933  1.5414 -0.6030
 2037SOL    HW2 6667   3.202  -0.031   7.545 -0.3150  0.7513 -0.0571
 2038SOL     OW 6668   1.025   6.851   2.351  0.1696 -0.5459  0.1346
 2038SOL    HW1 6669   1.073   6.794   2.290 -0.5390 -1.0759  0.0502
 2038SOL    HW2 6670   0.953   6.885   2.298 -0.0286 -0.4299  0.4820
 2039SOL     OW 6671   6.381   4.583   0.895  0.7161  0.0019  0.4755
 2039SOL    HW1 6672   6.314   4.651   0.886  1.6911  1.2889  2.3982
 2039SOL    HW2 6673   6.349   4.511   0.840 -1.5535  1.0714  0.2801
 2040SOL     OW 6674   4.775   4.697   0.236  0.0835 -0.2995 -0.3579
 2040SOL    HW1 6675   4.806   4.657   0.317  0.6864  2.2841  0.7978
 2040SOL    HW2 6676   4.854   4.724   0.190 -0.2731  0.8901 -0.3255
 2041SOL     OW 6677   6.722   1.868   3.994 -0.0031  0.3101  0.6994
 2041SOL    HW1 6678   6.750   1.944   3.943 -2.1387  0.6018 -0.1788
 2041SOL    HW2 6679   6.715   1.901   4.084 -1.9178  1.5491  0.1715
 2042SOL     OW 6680   5.763   4.549   5.794  0.0814 -0.5787 -0.5292
 2042SOL    HW1 6681   5.796   4.568   5.882 -0.5634  1.2125 -0.6356
 2042SOL    HW2 6682   5.671   4.575   5.796 -0.1273 -1.1767 -1.5436
 2043SOL     OW 6683   3.213   2.878   2.482  0.5040  0.3552 -0.2739
 2043SOL    HW1 6684   3.177   2.963   2.509  0.3539  0.4103 -0.6372
 2043SOL    HW2 6685   3.210   2.824   2.561  0.8660  0.7755  0.0371
 2044SOL     OW 6686   3.793   7.709   6.448 -0.5010  0.9081 -0.4105
 2044SOL    HW1 6687   3.753   7.791   6.478  0.1892  1.4767 -0.9872
 2044SOL    HW2 6688   3.878   7.707   6.493 -0.5332  0.4904 -0.3690
 2045SOL     OW 6689   5.544   5.945   2.632 -0.0880 -0.2633 -0.2460
 2045SOL    HW1 6690   5.632   5.909   2.630  0.3883  0.8446 -0.0389
 2045SOL    HW2 6691   5.513   5.930   2.721 -0.0997 -0.6369 -0.3149
 2046SOL     OW 6692   7.270   6.328   2.747 -0.1251  0.4473  0.2766
 2046SOL    HW1 6693   7.226   6.391   2.689 -1.9105  0.2420  1.3299
 2046SOL    HW2 6694   7.202   6.301   2.808  1.3839 -0.2801  1.7006
 2047SOL     OW 6695   4.397   5.551   1.894 -0.4286 -0.4883  0.0203
 2047SOL    HW1 6696   4.492   5.560   1.901 -0.3986  0.0623 -0.9335
 2047SOL    HW2 6697   4.365   5.566   1.983  0.3476 -0.1781  0.2552
 2048SOL     OW 6698   4.302   5.341   1.261  0.1460  0.2657 -0.0902
 2048SOL    HW1 6699   4.385   5.294   1.256  0.0623  0.2071 -1.1033
 2048SOL    HW2 6700   4.297   5.371   1.352  1.0250 -0.1729  0.1142
 2049SOL     OW 6701   3.454   2.074   2.308 -0.7677  0.2784 -0.1326
 2049SOL    HW1 6702   3.456   1.991   2.356 -3.2878  0.7288  0.9035
 2049SOL    HW2 6703   3.541   2.081   2.268  0.0254 -2.0999  1.0063
 2050SOL     OW 6704   3.329   1.498   1.361  0.1434  0.9141 -0.0188
 2050SOL    HW1 6705   3.317   1.586   1.325  1.7095  1.2334  0.1755
 2050SOL    HW2 6706   3.419   1.497   1.392  0.5713 -1.1665 -1.1593
 2051SOL     OW 6707   4.845   1.794   7.490 -0.4926  0.1379 -0.3466
 2051SOL    HW1 6708   4.801   1.788   7.405  0.9613 -0.2539 -1.1025
 2051SOL    HW2 6709   4.931   1.755   7.475 -0.7118 -1.3057  1.6776
 2052SOL     OW 6710   2.020   1.442   5.310  0.0291 -0.0976 -0.0152
 2052SOL    HW1 6711   2.035   1.357   5.351 -1.6592 -0.7437 -0.6763
 2052SOL    HW2 6712   2.071   1.503   5.364  2.1739 -1.6237 -0.1743
 2053SOL     OW 6713   3.308   6.182   2.621  0.5081 -0.6250  0.0364
 2053SOL    HW1 6714   3.318   6.156   2.530  1.4830 -0.1578 -0.0056
 2053SOL    HW2 6715   3.243   6.122   2.657 -0.5064 -0.2833 -1.1737
 2054SOL     OW 6716   4.921   7.558   0.814 -0.3570  0.1405  0.4004
 2054SOL    HW1 6717   4.914   7.469   0.782  2.1831 -0.4922  1.3629
 2054SOL    HW2 6718   4.989   7.598   0.760 -1.6116  1.6267 -0.1691
 2055SOL     OW 6719   4.095   6.067   0.100  0.1380  0.5122  0.0681
 2055SOL    HW1 6720   4.183   6.061   0.064 -0.2912  2.0801 -1.3580
 2055SOL    HW2 6721   4.037   6.045   0.027 -0.7244 -2.6543  1.4956
 2056SOL     OW 6722   3.899   4.603   3.697  0.2238 -0.6430 -0.0135
 2056SOL    HW1 6723   3.821   4.643   3.735  1.3259  0.4191  1.2042
 2056SOL    HW2 6724   3.955   4.581   3.771  0.7999 -2.0876 -0.8155
 2057SOL     OW 6725   6.115   6.765   0.138  0.3423  0.1490  0.5584
 2057SOL    HW1 6726   6.106   6.677   0.101  1.6387 -0.0881  0.7862
 2057SOL    HW2 6727   6.100   6.823   0.063  0.3440 -0.2776  0.2201
 2058SOL     OW 6728   5.248   7.381   6.881 -0.1648 -0.3077  0.1297
 2058SOL    HW1 6729   5.161   7.419   6.886 -1.0320 -2.2410  0.3663
 2058SOL    HW2 6730   5.286   7.394   6.968 -0.3109  0.2655  0.1137
 2059SOL     OW 6731   3.589   0.574   2.718  0.0881  0.0406 -0.7847
 2059SOL    HW1 6732   3.650   0.612   2.655 -0.4317  1.5475 -0.4296
 2059SOL    HW2 6733   3.596   0.630   2.795 -0.3166 -0.9336 -0.0186
 2060SOL     OW 6734   4.795   3.806   4.684  0.0109 -0.1630 -0.5790
 2060SOL    HW1 6735   4.861   3.752   4.641  0.7056  0.4033 -0.2399
 2060SOL    HW2 6736   4.792   3.774   4.774  0.1446  0.1038 -0.4781
 2061SOL     OW 6737   0.336   6.405   4.053  0.2720  0.4257  0.0280
 2061SOL    HW1 6738   0.277   6.405   4.129  0.4300  2.5038  0.2050
 2061SOL    HW2 6739   0.415   6.450   4.085  1.7661 -1.7408 -0.3867
 2062SOL     OW 6740   1.358   5.554   5.186 -0.0583 -0.2162 -0.0348
 2062SOL    HW1 6741   1.374   5.464   5.215 -0.7298 -0.4464 -0.3635
 2062SOL    HW2 6742   1.295   5.588   5.250 -1.3053 -0.6243 -1.0162
 2063SOL     OW 6743   4.228   0.132   7.524  0.0967  0.0004  0.5231
 2063SOL    HW1 6744   4.280   0.167   7.597  0.4008 -0.0022  0.3126
 2063SOL    HW2 6745   4.226   0.037   7.539 -2.4704  0.2358  2.2344
 2064SOL     OW 6746   4.283   3.848   5.975 -0.5115  0.2498  0.2142
 2064SOL    HW1 6747   4.353   3.819   6.034  1.8276  2.0100 -1.4553
 2064SOL    HW2 6748   4.263   3.772   5.921  0.3745 -0.2134  0.5229
 2065SOL     OW 6749   6.722   3.200   7.576 -0.2612 -0.3577 -0.3013
 2065SOL    HW1 6750   6.738   3.142   7.650  1.4654  0.5546  0.0897
 2065SOL    HW2 6751   6.702   3.285   7.616  0.3294  0.0568 -0.8604
 2066SOL     OW 6752   5.653   6.043   4.698 -0.0869 -0.3854  0.0717
 2066SOL    HW1 6753   5.637   6.014   4.788  1.4053  0.5398  0.6712
 2066SOL    HW2 6754   5.742   6.014   4.678  0.3360  1.1228 -0.3764
 2067SOL     OW 6755   4.193   0.936   5.098 -0.5710 -0.1231  0.0599
 2067SOL    HW1 6756   4.203   0.990   5.176  1.0740 -1.0770  0.5731
 2067SOL    HW2 6757   4.102   0.907   5.099 -0.1830 -1.4869  2.5832
 2068SOL     OW 6758   5.173   5.931   7.453  0.0294  0.1131 -0.0780
 2068SOL    HW1 6759   5.156   5.840   7.429 -0.1111  0.5212 -1.6866
 2068SOL    HW2 6760   5.092   5.977   7.430 -0.1011  0.5675  1.2347
 2069SOL     OW 6761   0.417   2.547   5.941  0.0615  0.1048  0.8066
 2069SOL    HW1 6762   0.453   2.606   5.875 -0.1458 -0.2344  0.3886
 2069SOL    HW2 6763   0.429   2.459   5.905 -1.8223  0.0051  0.3123
 2070SOL     OW 6764   2.935   2.640   2.567  0.0458 -0.1584 -0.2429
 2070SOL    HW1 6765   2.980   2.557   2.582  1.0311  0.6218  1.3415
 2070SOL    HW2 6766   2.999   2.707   2.590 -0.3938  1.1108 -2.3774
 2071SOL     OW 6767   4.943   3.973   6.649 -0.1118  0.8594  0.0312
 2071SOL    HW1 6768   4.899   3.893   6.621 -0.0707  1.0095 -0.4659
 2071SOL    HW2 6769   4.905   3.993   6.734  2.0948 -1.4667  1.7340
 2072SOL     OW 6770   6.602   4.761   0.164  0.1238  0.6255 -0.1780
 2072SOL    HW1 6771   6.615   4.843   0.117  1.7144  0.5412  0.0688
 2072SOL    HW2 6772   6.540   4.783   0.234  1.0246  1.7897  0.2820
 2073SOL     OW 6773   2.789   7.369   1.436 -0.0066  0.0835 -0.4826
 2073SOL    HW1 6774   2.870   7.397   1.394  0.1648 -0.6439 -0.6399
 2073SOL    HW2 6775   2.775   7.280   1.405 -0.0817 -0.3333  0.7117
 2074SOL     OW 6776   5.332   1.251   7.118  0.3524  0.1945  0.1991
 2074SOL    HW1 6777   5.364   1.314   7.054  0.6806 -0.3229 -0.1597
 2074SOL    HW2 6778   5.362   1.166   7.085  0.3841 -0.0988  0.9531
 2075SOL     OW 6779   4.675   1.800   7.259  0.1386 -0.3655 -0.4368
 2075SOL    HW1 6780   4.709   1.801   7.169 -0.0208 -0.5724 -0.5013
 2075SOL    HW2 6781   4.642   1.711   7.271  1.2851 -0.7035  0.2571
 2076SOL     OW 6782   2.887   4.433   5.536 -0.1190  0.0484  0.4001
 2076SOL    HW1 6783   2.923   4.514   5.573  0.0878 -0.0706  0.4638
 2076SOL    HW2 6784   2.954   4.403   5.475  0.2328 -0.5757  1.0802
 2077SOL     OW 6785   2.283   6.565   2.525 -0.0766  0.3360 -0.1280
 2077SOL    HW1 6786   2.373   6.534   2.521  0.4650  1.9506 -1.8536
 2077SOL    HW2 6787   2.266   6.577   2.618  1.7008  0.5477  0.2081
 2078SOL     OW 6788   2.934   4.456   4.462  0.1550  0.0270  0.4423
 2078SOL    HW1 6789   2.977   4.376   4.432  0.6360  0.4546 -0.0466
 2078SOL    HW2 6790   3.002   4.523   4.457  0.1499  0.2077  2.1622
 2079SOL     OW 6791   3.174   6.118   0.070 -0.0089 -0.1068  0.6365
 2079SOL    HW1 6792   3.263   6.088   0.051 -1.1212 -1.3433 -3.6477
 2079SOL    HW2 6793   3.157   6.186   0.005 -2.5862 -0.7209  0.5619
 2080SOL     OW 6794   2.117   3.457   4.949 -0.6246  0.1181 -0.2146
 2080SOL    HW1 6795   2.034   3.435   4.991 -0.1852 -2.2545 -0.4760
 2080SOL    HW2 6796   2.112   3.416   4.863  0.6851  0.2323 -0.3646
 2081SOL     OW 6797   5.208   4.950   2.668  0.6933 -0.7171 -0.1116
 2081SOL    HW1 6798   5.187   4.889   2.599  1.9985 -1.4749  0.1219
 2081SOL    HW2 6799   5.242   5.027   2.623 -0.3978 -0.3773 -0.3795
 2082SOL     OW 6800   1.744   1.099   7.101 -0.2820 -0.2136  0.1480
 2082SOL    HW1 6801   1.741   1.074   7.193  1.0726 -1.4344 -0.0920
 2082SOL    HW2 6802   1.837   1.088   7.077  0.0451  3.1797 -0.5444
 2083SOL     OW 6803   4.099   5.356   6.215  0.1109 -0.5797 -0.1066
 2083SOL    HW1 6804   4.099   5.423   6.146  0.3642  0.7171  1.0992
 2083SOL    HW2 6805   4.126   5.276   6.170  1.5830  0.5042 -1.2867
 2084SOL     OW 6806   1.942   3.793   4.447  0.1870  0.2425 -0.1070
 2084SOL    HW1 6807   1.868   3.853   4.456  0.7656  0.7897  1.3617
 2084SOL    HW2 6808   1.910   3.711   4.485  0.3878  0.5605  0.7954
 2085SOL     OW 6809   7.061   6.177   4.012 -0.0730  0.7987  0.4278
 2085SOL    HW1 6810   7.085   6.184   4.104  0.4475  0.3900  0.3237
 2085SOL    HW2 6811   7.113   6.244   3.968  1.5315 -0.6290  0.0833
 2086SOL     OW 6812   2.469   2.709   1.740  0.4440 -0.1738 -0.0568
 2086SOL    HW1 6813   2.387   2.661   1.757 -1.4418  2.6919 -0.3570
 2086SOL    HW2 6814   2.534   2.640   1.725 -1.7187 -2.6180  0.8837
 2087SOL     OW 6815   6.203   6.222   1.010  0.1157 -0.2553  0.0215
 2087SOL    HW1 6816   6.124   6.265   1.041 -0.2808 -0.0749 -1.1656
 2087SOL    HW2 6817   6.270   6.290   1.011  0.6633 -0.7489  2.3692
 2088SOL     OW 6818   1.982   4.724   0.624  0.3081  0.0776  0.2066
 2088SOL    HW1 6819   2.021   4.698   0.707 -0.5291  0.1910  0.6463
 2088SOL    HW2 6820   1.972   4.819   0.630  0.3935  0.1098 -0.0944
 2089SOL     OW 6821   2.216   1.914   3.852 -0.0895 -0.0119  0.3330
 2089SOL    HW1 6822   2.243   1.948   3.767  1.9224 -2.7857 -0.2648
 2089SOL    HW2 6823   2.297   1.885   3.894 -1.2678 -0.6228  2.3504
 2090SOL     OW 6824   1.783   2.053   1.310  0.0024  0.0952 -0.1292
 2090SOL    HW1 6825   1.858   2.002   1.341  0.2583  0.6937  0.2535
 2090SOL    HW2 6826   1.779   2.128   1.369  0.2825  1.0940 -1.3534
 2091SOL     OW 6827   1.560   5.719   1.157  0.3641 -0.2024 -0.2911
 2091SOL    HW1 6828   1.480   5.738   1.207  0.3814 -1.2897  0.1641
 2091SOL    HW2 6829   1.602   5.805   1.146  0.3791  0.0737  1.5865
 2092SOL     OW 6830   7.340   2.318   2.548  0.2305  0.1971 -0.1165
 2092SOL    HW1 6831   7.355   2.408   2.577  0.1520  0.2424 -0.2151
 2092SOL    HW2 6832   7.420   2.271   2.571  0.2493  0.2798 -0.0145
 2093SOL     OW 6833   0.846   0.544   2.518 -0.4280 -0.6683  0.6437
 2093SOL    HW1 6834   0.770   0.486   2.527  0.3172 -1.8767 -0.4790
 2093SOL    HW2 6835   0.922   0.485   2.520  0.4623  0.4440  1.0580
 2094SOL     OW 6836   6.060   2.608   4.829  0.1387  0.1852 -0.3189
 2094SOL    HW1 6837   6.100   2.552   4.763 -1.4522 -1.4584  0.0057
 2094SOL    HW2 6838   5.976   2.634   4.791  0.3484  1.4460  0.0192
 2095SOL     OW 6839   0.659   7.381   0.867  0.1688 -0.3327  0.0551
 2095SOL    HW1 6840   0.753   7.398   0.864  0.2006 -0.5915 -1.1015
 2095SOL    HW2 6841   0.649   7.294   0.829 -0.7174  0.6191 -2.0658
 2096SOL     OW 6842   1.154   2.370   6.186 -0.1950 -0.3017  0.3199
 2096SOL    HW1 6843   1.144   2.465   6.191 -1.7383 -0.4528  0.7484
 2096SOL    HW2 6844   1.209   2.355   6.110  0.4357  0.9512  0.5123
 2097SOL     OW 6845   5.748   3.233   4.139 -0.2618 -0.1125  0.0607
 2097SOL    HW1 6846   5.790   3.257   4.057  1.1227 -1.9224  0.1753
 2097SOL    HW2 6847   5.819   3.199   4.193 -1.5874 -1.5887  0.9439
 2098SOL     OW 6848   3.300   2.150   7.655  0.1870 -0.1269  0.3091
 2098SOL    HW1 6849   3.323   2.062   7.625 -2.0524 -0.8500  0.5147
 2098SOL    HW2 6850   3.232   2.135   7.721  0.0259  1.7522  0.6136
 2099SOL     OW 6851   2.263   2.616   6.808  0.0665 -0.0131  0.5326
 2099SOL    HW1 6852   2.338   2.656   6.764  0.9090 -1.7365  0.3444
 2099SOL    HW2 6853   2.214   2.573   6.738 -0.6828  0.4514  0.7647
 2100SOL     OW 6854   0.327   6.652   2.426  0.1181 -0.4388 -0.6251
 2100SOL    HW1 6855   0.372   6.649   2.342 -0.1622 -0.6300 -0.7696
 2100SOL    HW2 6856   0.278   6.570   2.430  0.5374 -0.6703 -0.0470
 2101SOL     OW 6857   7.533   3.736   0.375  0.1757 -0.1869  0.2716
 2101SOL    HW1 6858   7.584   3.815   0.390  1.8852 -1.5314  2.0703
 2101SOL    HW2 6859   7.590   3.665   0.406 -1.3756 -2.1028 -1.0511
 2102SOL     OW 6860   5.626   4.456   6.706  0.0630  0.0025 -0.2952
 2102SOL    HW1 6861   5.687   4.486   6.773 -0.5699  0.3280  0.1389
 2102SOL    HW2 6862   5.595   4.536   6.664 -1.7787  0.0080  0.9989
 2103SOL     OW 6863   0.717   5.552   5.444 -0.0504 -0.2371 -0.2552
 2103SOL    HW1 6864   0.655   5.624   5.451  1.0458  0.5672  1.5713
 2103SOL    HW2 6865   0.736   5.527   5.534 -0.4490 -2.8968 -0.8247
 2104SOL     OW 6866   7.137   1.744   0.339  0.1900 -0.1456  0.0346
 2104SOL    HW1 6867   7.088   1.680   0.288 -0.5145  0.0924  0.3911
 2104SOL    HW2 6868   7.181   1.692   0.407 -0.1664 -0.2890  0.1607
 2105SOL     OW 6869   3.042   0.192   4.135  0.5674 -0.1859 -0.2138
 2105SOL    HW1 6870   3.023   0.147   4.052  0.2795 -1.9681  0.7888
 2105SOL    HW2 6871   2.957   0.195   4.180  1.0005 -0.4808  0.6225
 2106SOL     OW 6872   7.245   5.437   5.866  0.1509 -0.0634 -0.2857
 2106SOL    HW1 6873   7.231   5.402   5.779 -0.7102 -1.8318  0.5220
 2106SOL    HW2 6874   7.338   5.420   5.884  0.1276 -0.4412 -0.5267
 2107SOL     OW 6875   0.652   4.518   0.052  0.5562 -0.0157  0.1701
 2107SOL    HW1 6876   0.737   4.561   0.054  0.4598  0.1453  1.9029
 2107SOL    HW2 6877   0.589   4.590   0.042  0.5502 -0.0466 -0.0368
 2108SOL     OW 6878   1.015   2.891   7.507  0.0925 -0.1491  0.5762
 2108SOL    HW1 6879   1.032   2.974   7.553  0.7370 -1.8384  3.6340
 2108SOL    HW2 6880   0.935   2.858   7.546 -0.1366 -1.0206 -0.5763
 2109SOL     OW 6881   5.591   0.293   5.703  0.1345  0.0878  0.2939
 2109SOL    HW1 6882   5.644   0.336   5.636  0.8685 -0.1211  0.7305
 2109SOL    HW2 6883   5.617   0.334   5.785 -0.1168 -0.2698  0.5571
 2110SOL     OW 6884   5.888   1.514   1.477  0.7408 -0.3157 -0.7425
 2110SOL    HW1 6885   5.797   1.534   1.497  0.9010  0.1236 -0.4190
 2110SOL    HW2 6886   5.918   1.589   1.426  1.3025  0.2159  0.3317
 2111SOL     OW 6887   1.334   1.626   5.759  0.2352 -0.0912  0.1944
 2111SOL    HW1 6888   1.297   1.557   5.703  0.0455 -0.5623  0.8842
 2111SOL    HW2 6889   1.269   1.696   5.757  1.3007  0.9472 -2.0977
 2112SOL     OW 6890   0.644   0.976   4.804 -0.0761  0.2461 -0.0558
 2112SOL    HW1 6891   0.572   1.017   4.852 -1.7953  0.3821 -2.5675
 2112SOL    HW2 6892   0.665   1.038   4.734  0.1023 -1.3092 -1.4498
 2113SOL     OW 6893   1.086   4.047   4.301  0.5576  0.1139  0.3880
 2113SOL    HW1 6894   1.058   4.078   4.215  0.2379 -0.7604  0.1629
 2113SOL    HW2 6895   1.176   4.015   4.286  0.9630  1.0986  0.6641
 2114SOL     OW 6896   7.494   3.018   4.663  0.2615 -0.0600  0.2368
 2114SOL    HW1 6897   7.566   3.066   4.703 -0.9284  1.2576  0.8646
 2114SOL    HW2 6898   7.433   3.002   4.735 -0.6102 -0.1502 -0.5072
 2115SOL     OW 6899   7.595   5.555   2.237 -0.4905  0.9055  0.2028
 2115SOL    HW1 6900   7.686   5.524   2.244 -0.6811  0.5368  1.2453
 2115SOL    HW2 6901   7.543   5.485   2.277 -1.3132  0.7878 -1.0121
 2116SOL     OW 6902   3.261   2.316   5.024 -0.0720 -0.1096  0.7525
 2116SOL    HW1 6903   3.242   2.241   5.081 -0.5553  0.6531  1.6212
 2116SOL    HW2 6904   3.204   2.386   5.056  0.1615  0.5536 -0.2261
 2117SOL     OW 6905   5.756   6.812   4.762  0.1711 -0.2776 -0.6230
 2117SOL    HW1 6906   5.845   6.844   4.748  0.4811 -1.3526 -1.2969
 2117SOL    HW2 6907   5.748   6.804   4.857  0.2689  1.2025 -0.4733
 2118SOL     OW 6908   3.129   4.312   3.993 -0.1654  0.1107 -0.0281
 2118SOL    HW1 6909   3.037   4.293   3.974 -0.2523  1.8181 -1.5133
 2118SOL    HW2 6910   3.153   4.245   4.057 -2.5662 -0.0892  0.7972
 2119SOL     OW 6911   1.108   5.849   0.742  0.5235  0.2847  0.4067
 2119SOL    HW1 6912   1.116   5.758   0.712 -0.9982  0.5385 -0.8983
 2119SOL    HW2 6913   1.130   5.845   0.835  1.6107 -1.2054  0.1368
 2120SOL     OW 6914   4.687   1.045   1.883 -0.1260  0.1982 -0.0133
 2120SOL    HW1 6915   4.634   1.105   1.935 -1.5762 -1.3661  0.3904
 2120SOL    HW2 6916   4.772   1.089   1.876 -0.9178  1.9719  0.8118
 2121SOL     OW 6917   2.258   7.483   4.272  0.1706 -0.8853 -0.5973
 2121SOL    HW1 6918   2.241   7.390   4.258  0.6344 -1.0202 -0.2742
 2121SOL    HW2 6919   2.353   7.489   4.282  0.1436 -0.3769 -0.6253
 2122SOL     OW 6920   0.062   6.818   7.224  0.0886 -0.0036  0.2216
 2122SOL    HW1 6921   0.000   6.814   7.151  1.1615 -0.9939 -0.6754
 2122SOL    HW2 6922   0.121   6.890   7.202 -0.2306  0.4069  0.6722
 2123SOL     OW 6923   7.417   2.139   4.541  0.4292  0.4056  0.2592
 2123SOL    HW1 6924   7.427   2.225   4.501 -0.0265  0.9330  1.2394
 2123SOL    HW2 6925   7.449   2.150   4.631  0.5886 -0.5090  0.3277
 2124SOL     OW 6926   0.807   7.152   3.791  0.2922 -0.1239  0.4425
 2124SOL    HW1 6927   0.723   7.131   3.833  0.4032  1.2749  1.4432
 2124SOL    HW2 6928   0.785   7.217   3.725  0.8304  2.2078  2.4130
 2125SOL     OW 6929   2.850   6.236   4.180  0.2760  0.0220 -0.1684
 2125SOL    HW1 6930   2.821   6.191   4.260  2.5899 -1.1019  0.1139
 2125SOL    HW2 6931   2.774   6.233   4.122 -0.3417 -2.3819  0.6650
 2126SOL     OW 6932   2.160   4.412   6.719 -0.1506  0.1452 -0.1956
 2126SOL    HW1 6933   2.089   4.470   6.690  0.2712  0.4709 -0.6020
 2126SOL    HW2 6934   2.194   4.454   6.798  0.3702  0.6449 -0.6721
 2127SOL     OW 6935   4.259   3.655   0.565 -0.3964 -0.0143  0.2718
 2127SOL    HW1 6936   4.192   3.722   0.554  1.0112  1.6961  1.4634
 2127SOL    HW2 6937   4.303   3.679   0.647  1.8956 -0.8146 -0.6478
 2128SOL     OW 6938   6.443   4.246   3.464 -0.0602  0.2804 -0.5701
 2128SOL    HW1 6939   6.455   4.331   3.421 -1.0116 -0.4060 -2.2941
 2128SOL    HW2 6940   6.349   4.229   3.459 -0.0416 -0.3897  0.7715
 2129SOL     OW 6941   2.901   0.788   5.629  0.0004  0.4321 -0.3999
 2129SOL    HW1 6942   2.986   0.831   5.639 -0.2637  0.7408  0.7075
 2129SOL    HW2 6943   2.848   0.850   5.580 -0.2233  1.1701  0.7517
 2130SOL     OW 6944   5.648   7.319   7.430 -0.0962  0.6111 -0.1148
 2130SOL    HW1 6945   5.562   7.299   7.466  0.2155 -0.7804 -0.0866
 2130SOL    HW2 6946   5.653   7.266   7.350  1.1949 -0.2438  0.5164
 2131SOL     OW 6947   0.146   7.017   5.378 -0.0621  0.0007 -0.3346
 2131SOL    HW1 6948   0.081   7.016   5.448 -1.2628  1.0017 -1.3755
 2131SOL    HW2 6949   0.207   6.948   5.401  1.5308  2.3684  3.4458
 2132SOL     OW 6950   4.872   7.590   1.600 -0.1024 -0.0013 -0.1955
 2132SOL    HW1 6951   4.899   7.663   1.655  1.3760  0.2834 -1.2233
 2132SOL    HW2 6952   4.814   7.628   1.534 -0.4536 -0.0204  0.1005
 2133SOL     OW 6953   6.264   1.453   6.703 -0.3802  0.1075  0.2946
 2133SOL    HW1 6954   6.289   1.373   6.748  0.0638  0.2495  0.3012
 2133SOL    HW2 6955   6.210   1.423   6.629  0.4709 -0.2561 -0.1850
 2134SOL     OW 6956   3.278   0.667   5.410  0.1849 -0.6324 -0.3382
 2134SOL    HW1 6957   3.352   0.669   5.350 -0.1493  0.9813 -0.7254
 2134SOL    HW2 6958   3.201   0.663   5.353 -0.0746 -2.3890  0.0581
 2135SOL     OW 6959   3.695   4.022   4.077  0.2074  1.0650  0.1498
 2135SOL    HW1 6960   3.601   4.016   4.094 -0.0442  2.9668 -0.3917
 2135SOL    HW2 6961   3.704   4.000   3.984  0.5501 -0.8295  0.5865
 2136SOL     OW 6962   5.442   6.261   4.732 -0.6437 -0.0801  0.4795
 2136SOL    HW1 6963   5.441   6.241   4.826  0.2367  1.2042  0.7840
 2136SOL    HW2 6964   5.508   6.202   4.696  0.5892  0.9024  1.0517
 2137SOL     OW 6965   3.762   0.308   2.571  0.4414  0.3129 -0.1538
 2137SOL    HW1 6966   3.802   0.384   2.614  1.6393  0.2171 -1.0478
 2137SOL    HW2 6967   3.672   0.308   2.602  0.6036  1.6961  0.4111
 2138SOL     OW 6968   0.520   4.392   6.394 -0.5176 -0.3750 -0.3221
 2138SOL    HW1 6969   0.588   4.394   6.327 -1.5135 -0.0958 -1.3540
 2138SOL    HW2 6970   0.556   4.444   6.466 -0.3334  1.2575 -1.5425
 2139SOL     OW 6971   3.102   5.109   3.475 -0.5090  0.5750 -0.2933
 2139SOL    HW1 6972   3.109   5.181   3.412 -0.3158  0.8788  0.0717
 2139SOL    HW2 6973   3.031   5.135   3.534 -0.1319  0.6974  0.1207
 2140SOL     OW 6974   7.448   0.535   0.296  0.8392 -0.4249  0.1056
 2140SOL    HW1 6975   7.371   0.513   0.347 -0.3156  0.8692 -1.0060
 2140SOL    HW2 6976   7.487   0.450   0.275 -0.0792 -1.0889  0.9572
 2141SOL     OW 6977   1.478   6.465   6.596 -0.4101 -0.0843  0.4126
 2141SOL    HW1 6978   1.411   6.404   6.628 -1.2152  0.1485 -0.7624
 2141SOL    HW2 6979   1.554   6.448   6.652 -0.9191 -1.5098  0.7301
 2142SOL     OW 6980   7.410   1.083   5.052 -0.0239  0.0824  0.1563
 2142SOL    HW1 6981   7.315   1.093   5.047 -0.3534 -2.2485  0.5626
 2142SOL    HW2 6982   7.430   1.099   5.144 -0.2284 -0.6700  0.3409
 2143SOL     OW 6983   2.495   5.188   5.629  0.6072 -0.2526  0.3926
 2143SOL    HW1 6984   2.525   5.097   5.621  1.6947  0.1356 -0.3055
 2143SOL    HW2 6985   2.415   5.192   5.577  0.7878 -0.7150  0.0718
 2144SOL     OW 6986   3.993   6.381   6.396 -0.4319 -0.0851  0.3590
 2144SOL    HW1 6987   3.900   6.361   6.405 -0.9319  2.2304  1.0831
 2144SOL    HW2 6988   4.033   6.299   6.367 -2.8564 -0.8121 -1.1811
 2145SOL     OW 6989   6.618   3.665   7.526  0.2829 -0.6526 -0.1499
 2145SOL    HW1 6990   6.639   3.746   7.480  0.2676 -0.1738  0.6611
 2145SOL    HW2 6991   6.701   3.619   7.533  0.0519 -1.4315 -1.9172
 2146SOL     OW 6992   1.391   1.443   3.557  0.2306  0.6440  0.0654
 2146SOL    HW1 6993   1.379   1.435   3.462 -0.4498  0.5724  0.1524
 2146SOL    HW2 6994   1.454   1.514   3.567  0.1645  0.7796 -0.4307
 2147SOL     OW 6995   1.994   1.818   2.154 -0.1455 -0.2459  0.1869
 2147SOL    HW1 6996   1.942   1.738   2.150  0.8620 -0.9278  0.3797
 2147SOL    HW2 6997   2.049   1.815   2.076 -0.2759  0.3827  0.0695
 2148SOL     OW 6998   1.561   5.511   3.528 -0.2065 -0.0602 -0.3261
 2148SOL    HW1 6999   1.523   5.584   3.577  0.5853 -0.6983  1.3216
 2148SOL    HW2 7000   1.637   5.549   3.484 -0.0204  0.2009  0.2105
 2149SOL     OW 7001   7.741   4.787   5.532 -0.3292  0.1259  0.2654
 2149SOL    HW1 7002   7.794   4.861   5.562  0.6630 -0.5691  0.2769
 2149SOL    HW2 7003   7.717   4.741   5.612  2.2768 -1.7000  0.1302
 2150SOL     OW 7004   7.340   7.350   5.488 -0.4703 -0.0146  0.1015
 2150SOL    HW1 7005   7.395   7.287   5.534  1.9183  1.1839 -0.9330
 2150SOL    HW2 7006   7.278   7.381   5.554  0.1567 -1.3478  1.3590
 2151SOL     OW 7007   5.986   7.029   3.642 -0.5878  0.1265 -0.3132
 2151SOL    HW1 7008   5.999   6.952   3.697 -2.5432  0.7034  1.0409
 2151SOL    HW2 7009   6.032   7.008   3.561  0.6168 -1.6127  0.7470
 2152SOL     OW 7010   0.021   6.603   5.612  0.2323  0.0906  0.0287
 2152SOL    HW1 7011  -0.002   6.533   5.551  1.5343  0.6470 -1.1775
 2152SOL    HW2 7012  -0.050   6.667   5.602 -0.7480 -0.8397  0.8298
 2153SOL     OW 7013   7.423   6.106   7.338  0.9600  0.5183  0.1323
 2153SOL    HW1 7014   7.422   6.200   7.321  1.8478  0.2478 -1.6270
 2153SOL    HW2 7015   7.397   6.098   7.429 -2.7962  2.2550 -0.5867
 2154SOL     OW 7016   5.122   2.245   6.599 -0.0930 -0.9022  0.1036
 2154SOL    HW1 7017   5.043   2.197   6.625  0.3309 -0.6725  2.0053
 2154SOL    HW2 7018   5.194   2.185   6.621  0.3579 -0.0869  0.9358
 2155SOL     OW 7019   0.039   0.267   3.452 -0.5771  0.0860  0.3200
 2155SOL    HW1 7020  -0.018   0.338   3.424 -0.6045 -0.0668 -0.0177
 2155SOL    HW2 7021  -0.016   0.214   3.510 -0.5986  0.2612  0.4602
 2156SOL     OW 7022   5.380   2.996   4.141 -0.0913 -0.1608  0.1787
 2156SOL    HW1 7023   5.299   2.963   4.181 -1.2790  0.8547 -1.2496
 2156SOL    HW2 7024   5.372   3.091   4.147  0.2181 -0.0056 -1.3706
 2157SOL     OW 7025   2.367   2.434   7.702  0.1941 -0.5055  0.0525
 2157SOL    HW1 7026   2.321   2.515   7.677 -1.1768 -1.1910  0.2800
 2157SOL    HW2 7027   2.393   2.449   7.793  0.0680 -0.2770  0.0526
 2158SOL     OW 7028   1.145   3.005   1.099  0.0717 -0.8179 -0.4028
 2158SOL    HW1 7029   1.237   2.981   1.111  0.8386  1.0611 -1.9444
 2158SOL    HW2 7030   1.138   3.028   1.006 -2.5403 -3.1014 -0.9031
 2159SOL     OW 7031   3.556   3.653   6.071 -0.4362  0.0605  0.0295
 2159SOL    HW1 7032   3.622   3.695   6.015 -0.1695 -0.1729  0.1626
 2159SOL    HW2 7033   3.481   3.711   6.067 -0.4276  0.0426 -0.5802
 2160SOL     OW 7034   0.641   3.711   4.610  0.8350  0.9078  0.2293
 2160SOL    HW1 7035   0.678   3.637   4.562 -1.1279 -1.0040  1.4874
 2160SOL    HW2 7036   0.609   3.770   4.541  1.3292  0.0021 -0.8184
 2161SOL     OW 7037   5.979   6.194   7.283  0.4981 -0.6957 -0.3931
 2161SOL    HW1 7038   5.905   6.216   7.227  0.8982  0.1217 -0.6179
 2161SOL    HW2 7039   6.050   6.175   7.223  1.0517  0.6125 -0.2017
 2162SOL     OW 7040   3.403   0.966   0.675  0.2748  0.0239  0.6449
 2162SOL    HW1 7041   3.438   1.052   0.701  1.2549  0.5541 -2.1163
 2162SOL    HW2 7042   3.476   0.922   0.633 -1.0155 -0.9466 -0.6777
 2163SOL     OW 7043   6.447   4.508   0.415 -0.3367  0.1805  0.7320
 2163SOL    HW1 7044   6.404   4.460   0.486 -1.4182  0.7358  0.4689
 2163SOL    HW2 7045   6.446   4.446   0.342  0.2315 -0.1718  1.0148
 2164SOL     OW 7046   4.735   0.284   4.158 -0.0764 -0.6052  0.4505
 2164SOL    HW1 7047   4.824   0.293   4.190  0.4788 -0.5264 -1.0662
 2164SOL    HW2 7048   4.696   0.371   4.170  0.6937 -0.0868 -0.7442
 2165SOL     OW 7049   5.363   5.655   5.536 -0.2052 -0.4234 -0.3774
 2165SOL    HW1 7050   5.340   5.589   5.470  0.2913 -1.3607  0.3522
 2165SOL    HW2 7051   5.280   5.679   5.576 -0.6816  1.0755 -2.1355
 2166SOL     OW 7052   5.142   4.624   6.066 -0.5483 -0.0177 -0.2571
 2166SOL    HW1 7053   5.141   4.547   6.124 -1.7402  0.3973  0.3132
 2166SOL    HW2 7054   5.128   4.588   5.978  1.6522 -0.6921 -0.3771
 2167SOL     OW 7055   6.444   1.655   1.058 -0.3754 -0.4233 -0.6016
 2167SOL    HW1 7056   6.536   1.640   1.037 -0.3452  1.0477 -1.6680
 2167SOL    HW2 7057   6.403   1.570   1.046  0.8769 -1.1893  0.2279
 2168SOL     OW 7058   3.280   0.771   5.688  0.6724  0.4044  0.1170
 2168SOL    HW1 7059   3.250   0.859   5.668  1.6879  0.5310 -0.9308
 2168SOL    HW2 7060   3.299   0.731   5.603  1.5537 -0.3383  0.6349
 2169SOL     OW 7061   2.521   1.125   4.974 -0.0428 -0.3753 -0.3461
 2169SOL    HW1 7062   2.568   1.136   5.056 -0.1662  1.0032 -0.4303
 2169SOL    HW2 7063   2.446   1.070   4.997  0.8065 -1.3969  0.0859
 2170SOL     OW 7064   2.977   4.537   0.962  0.0128  0.3477 -1.0434
 2170SOL    HW1 7065   2.991   4.629   0.940  0.1670  0.4986 -0.3391
 2170SOL    HW2 7066   3.059   4.509   1.003 -0.6703  0.4094  0.4103
 2171SOL     OW 7067   7.030   4.709   1.912  0.1347  0.6545  0.1407
 2171SOL    HW1 7068   6.944   4.751   1.904 -1.2538 -1.7145  1.5904
 2171SOL    HW2 7069   7.060   4.699   1.821 -1.1184  1.4627 -0.3977
 2172SOL     OW 7070   0.061   1.952   6.029  0.0999 -0.0547  0.0348
 2172SOL    HW1 7071   0.004   1.919   5.959  0.8841 -1.2650 -0.0557
 2172SOL    HW2 7072   0.133   1.994   5.983  0.9023 -1.3407  0.0859
 2173SOL     OW 7073   4.462   6.793   0.897 -0.3209 -0.6338 -0.0923
 2173SOL    HW1 7074   4.538   6.822   0.948 -1.1044 -0.2637  0.9062
 2173SOL    HW2 7075   4.465   6.847   0.817 -1.0263  1.3737  1.1549
 2174SOL     OW 7076   5.908   5.978   4.710 -0.2255 -0.3867 -0.0568
 2174SOL    HW1 7077   5.961   6.030   4.650  1.1799 -2.2942 -0.5712
 2174SOL    HW2 7078   5.943   5.998   4.797 -0.5697  0.4833 -0.1149
 2175SOL     OW 7079   0.784   1.157   4.611 -0.3422  0.2312  0.3389
 2175SOL    HW1 7080   0.873   1.179   4.637 -0.9686  2.1740  1.0377
 2175SOL    HW2 7081   0.793   1.118   4.524  1.4355 -2.6237  1.6556
 2176SOL     OW 7082   0.482   6.979   5.884 -0.0402 -0.0834 -0.3830
 2176SOL    HW1 7083   0.467   6.901   5.938 -0.5504  0.3926  0.1904
 2176SOL    HW2 7084   0.400   6.990   5.835 -0.1215  0.2976 -0.1739
 2177SOL     OW 7085   7.691   1.889   5.386 -0.4426 -0.8458 -0.1766
 2177SOL    HW1 7086   7.730   1.823   5.327 -0.2717  0.1527 -1.2220
 2177SOL    HW2 7087   7.599   1.864   5.393 -0.4872 -0.9342 -0.9648
 2178SOL     OW 7088   3.923   1.981   5.350 -0.0700 -1.1444 -0.4393
 2178SOL    HW1 7089   3.906   1.888   5.332 -0.4382 -0.7807 -2.1319
 2178SOL    HW2 7090   3.859   2.028   5.296 -0.6749  0.0974  1.2848
 2179SOL     OW 7091   1.247   3.643   6.172 -1.2374 -0.1748  0.5980
 2179SOL    HW1 7092   1.200   3.615   6.093 -0.0071  1.8261 -0.9525
 2179SOL    HW2 7093   1.240   3.739   6.171  0.4743  0.0069  1.8472
 2180SOL     OW 7094   2.759   2.701   1.558 -0.1967  0.3414  0.6431
 2180SOL    HW1 7095   2.684   2.752   1.529 -0.8070 -0.6524  0.4024
 2180SOL    HW2 7096   2.835   2.746   1.521 -0.7174  1.0555  0.4285
 2181SOL     OW 7097   0.535   7.025   3.687 -0.0224  0.3376  0.4240
 2181SOL    HW1 7098   0.463   6.965   3.669  0.5655 -0.5370  0.9186
 2181SOL    HW2 7099   0.518   7.100   3.631 -1.6405  0.4121  0.9572
 2182SOL     OW 7100   0.666   6.678   5.738  0.1320 -0.1382 -0.2198
 2182SOL    HW1 7101   0.743   6.695   5.793 -0.2931  1.8931 -0.1906
 2182SOL    HW2 7102   0.603   6.637   5.796  0.7831 -0.8024  0.0308
 2183SOL     OW 7103   0.009   3.696   7.254 -0.2027  0.0071  0.5007
 2183SOL    HW1 7104   0.064   3.617   7.248 -0.9269 -0.4390 -0.4202
 2183SOL    HW2 7105   0.072   3.768   7.262  0.5291 -0.5010 -0.4545
 2184SOL     OW 7106   7.570   5.293   2.055 -0.5561 -0.0258 -0.6088
 2184SOL    HW1 7107   7.476   5.280   2.070 -0.3539 -0.1211  0.6979
 2184SOL    HW2 7108   7.582   5.388   2.058 -0.5096 -0.0469 -0.0764
 2185SOL     OW 7109   2.188   1.627   7.283 -0.5046 -0.4505  0.0575
 2185SOL    HW1 7110   2.210   1.709   7.327  1.4710 -1.0789  0.3540
 2185SOL    HW2 7111   2.123   1.586   7.340 -1.6600  0.9531 -0.1896
 2186SOL     OW 7112   7.457   1.763   6.225 -0.0102 -0.3312 -0.1145
 2186SOL    HW1 7113   7.544   1.791   6.253  1.0796 -1.6736 -1.9020
 2186SOL    HW2 7114   7.406   1.844   6.218  1.7834  0.7562 -1.2115
 2187SOL     OW 7115   4.165   6.858   3.158 -0.5985 -0.5877 -0.4711
 2187SOL    HW1 7116   4.238   6.800   3.181 -1.8348 -2.1682 -0.3382
 2187SOL    HW2 7117   4.109   6.805   3.101 -2.8242 -0.2672  1.2833
 2188SOL     OW 7118   7.452   3.425   4.978  0.1671  0.3862 -0.1398
 2188SOL    HW1 7119   7.378   3.425   5.038 -0.5914  1.1958 -1.0507
 2188SOL    HW2 7120   7.488   3.336   4.984 -1.7724 -0.4830 -0.7653
 2189SOL     OW 7121   7.079   7.744   5.170  0.0077  0.4135 -0.1431
 2189SOL    HW1 7122   7.027   7.667   5.150 -1.3188  1.5259 -1.2061
 2189SOL    HW2 7123   7.102   7.781   5.085 -0.8553  2.0906  0.2833
 2190SOL     OW 7124   0.083   4.852   6.915 -0.1517 -0.4618  0.6108
 2190SOL    HW1 7125   0.019   4.831   6.982 -1.6539  0.4715 -0.4726
 2190SOL    HW2 7126   0.114   4.940   6.939 -0.5186 -0.2245  0.2352
 2191SOL     OW 7127   4.230   5.192   6.749 -0.0475  0.4040 -0.3015
 2191SOL    HW1 7128   4.163   5.261   6.758 -0.3805  0.0444  0.0597
 2191SOL    HW2 7129   4.180   5.113   6.728  0.3030  0.2048 -0.3944
 2192SOL     OW 7130   3.481   4.728   3.461 -0.0316  0.1273 -0.3038
 2192SOL    HW1 7131   3.458   4.636   3.452  1.5838 -0.3489  0.0017
 2192SOL    HW2 7132   3.576   4.730   3.447  0.2040  1.5145  1.1607
 2193SOL     OW 7133   5.214   3.606   7.348  0.1269 -0.0432  0.2013
 2193SOL    HW1 7134   5.128   3.632   7.315  0.0060  0.9692  1.2854
 2193SOL    HW2 7135   5.273   3.622   7.275 -0.5344 -0.4375 -0.4417
 2194SOL     OW 7136   2.014   0.432   0.484  0.1507 -0.1283  0.3114
 2194SOL    HW1 7137   1.926   0.409   0.515  0.1725 -1.7647 -0.7055
 2194SOL    HW2 7138   2.069   0.425   0.562 -0.4635 -0.0025  0.7649
 2195SOL     OW 7139   3.732   5.116   0.017  0.5196  0.3893 -0.0786
 2195SOL    HW1 7140   3.692   5.057   0.081  0.5683  0.2030 -0.2182
 2195SOL    HW2 7141   3.712   5.204   0.049 -1.2266  0.3213 -0.8793
 2196SOL     OW 7142   2.049   2.470   3.051  0.4838 -0.1893  0.3983
 2196SOL    HW1 7143   2.075   2.486   2.961  0.5364 -0.8543  0.2851
 2196SOL    HW2 7144   1.974   2.528   3.066  1.3903  1.0143  0.4121
 2197SOL     OW 7145   4.523   2.817   5.002  0.1114  0.1608  0.5554
 2197SOL    HW1 7146   4.431   2.829   4.978  0.6545  1.3173 -1.0789
 2197SOL    HW2 7147   4.555   2.906   5.017  1.2078 -0.1546  0.1461
 2198SOL     OW 7148   2.507   5.524   1.729 -0.7236  0.2611  0.2163
 2198SOL    HW1 7149   2.456   5.467   1.785 -0.9717 -0.6484 -0.8943
 2198SOL    HW2 7150   2.591   5.535   1.775  0.1249 -2.6759 -0.4156
 2199SOL     OW 7151   1.198   6.704   3.440  0.0971  0.1840 -0.4741
 2199SOL    HW1 7152   1.206   6.760   3.363  0.0891  0.4867 -0.2571
 2199SOL    HW2 7153   1.287   6.697   3.475  0.0475  0.3291 -0.3154
 2200SOL     OW 7154   1.851   0.768   0.697 -0.0874  0.3786  0.0781
 2200SOL    HW1 7155   1.815   0.854   0.718 -0.3172 -0.0298  1.4657
 2200SOL    HW2 7156   1.848   0.763   0.602  1.1401  2.4118 -0.1250
 2201SOL     OW 7157   3.795   2.726   7.526 -0.0493  0.5456 -0.2910
 2201SOL    HW1 7158   3.797   2.786   7.451  1.7080 -0.5858 -1.2273
 2201SOL    HW2 7159   3.732   2.658   7.501 -0.2131  0.7010 -0.3013
 2202SOL     OW 7160   6.781   6.239   3.647 -0.1588 -0.0448  0.1233
 2202SOL    HW1 7161   6.791   6.334   3.641  0.1845 -0.0813  0.0873
 2202SOL    HW2 7162   6.703   6.226   3.700  1.4564  0.2607  2.7329
 2203SOL     OW 7163   2.625   4.660   4.726 -0.1258 -0.0172 -0.4169
 2203SOL    HW1 7164   2.532   4.638   4.720  0.5629 -3.6422 -0.2626
 2203SOL    HW2 7165   2.659   4.647   4.637  0.5387 -0.5862 -0.0938
 2204SOL     OW 7166   1.150   1.494   6.416  0.1361  0.2828  0.2605
 2204SOL    HW1 7167   1.116   1.566   6.364  1.3882  0.6270 -0.0992
 2204SOL    HW2 7168   1.085   1.483   6.486 -2.0303 -0.7383 -1.7499
 2205SOL     OW 7169   2.490   3.580   1.276 -0.0699 -0.2201 -0.3736
 2205SOL    HW1 7170   2.458   3.536   1.355  1.0604 -0.3644  0.0233
 2205SOL    HW2 7171   2.564   3.633   1.307  0.1248  0.0413 -1.2699
 2206SOL     OW 7172   2.782   5.532   3.172 -0.0468 -0.3682 -0.4076
 2206SOL    HW1 7173   2.844   5.472   3.131  0.3138 -0.1526 -0.1815
 2206SOL    HW2 7174   2.836   5.594   3.221 -0.3370  1.0084 -1.7731
 2207SOL     OW 7175   6.576   7.675   4.794 -0.2774  0.0020  0.1503
 2207SOL    HW1 7176   6.659   7.719   4.776 -0.5760  1.3447  1.7978
 2207SOL    HW2 7177   6.545   7.714   4.876 -2.6684 -0.2525 -0.5388
 2208SOL     OW 7178   6.571   0.832   4.291 -0.1731 -0.0701 -0.5437
 2208SOL    HW1 7179   6.636   0.860   4.355 -1.5629 -0.8702  1.3239
 2208SOL    HW2 7180   6.606   0.750   4.256 -1.1701 -1.8360  2.2648
 2209SOL     OW 7181   5.978   5.665   4.087  0.4408 -0.0990 -0.0131
 2209SOL    HW1 7182   6.003   5.590   4.142  2.8678  0.7435  0.1589
 2209SOL    HW2 7183   6.001   5.742   4.139 -0.9851  0.7915 -0.6346
 2210SOL     OW 7184   3.746   2.850   7.284 -0.1879  0.0594 -0.1133
 2210SOL    HW1 7185   3.653   2.871   7.292  0.0971  1.2579  0.2088
 2210SOL    HW2 7186   3.791   2.933   7.302  0.9177 -0.3341 -0.9805
 2211SOL     OW 7187   6.738   6.112   2.893  0.2432 -0.2673  0.5012
 2211SOL    HW1 7188   6.820   6.072   2.921  1.8172  0.6222 -2.3977
 2211SOL    HW2 7189   6.710   6.058   2.819 -1.9317 -0.6262  1.5120
 2212SOL     OW 7190   5.709   6.947   0.722  0.4414  0.5878  0.3331
 2212SOL    HW1 7191   5.687   6.917   0.633 -0.9680 -3.5809  1.8160
 2212SOL    HW2 7192   5.627   6.937   0.771  1.2931  2.3344  2.2708
 2213SOL     OW 7193   0.629   5.318   1.576  0.3421 -0.4479  0.3251
 2213SOL    HW1 7194   0.549   5.274   1.602  0.2846 -0.8874 -0.5377
 2213SOL    HW2 7195   0.606   5.411   1.576  0.0549 -0.5158  0.8014
 2214SOL     OW 7196   1.246   2.809   0.077  0.4331  0.1860  0.1201
 2214SOL    HW1 7197   1.186   2.812   0.003 -1.0493 -0.3396  1.2613
 2214SOL    HW2 7198   1.284   2.721   0.074 -2.2588 -1.1751  1.9094
 2215SOL     OW 7199   5.713   0.722   0.101  0.0326  0.2968 -0.2927
 2215SOL    HW1 7200   5.749   0.785   0.038  0.0753 -0.2185 -0.7890
 2215SOL    HW2 7201   5.619   0.741   0.102 -0.1699 -0.5186 -1.4830
 2216SOL     OW 7202   4.115   2.437   7.684 -0.1650 -0.8913  0.4321
 2216SOL    HW1 7203   4.176   2.376   7.725  3.0591  1.3992 -0.6148
 2216SOL    HW2 7204   4.098   2.502   7.752 -0.7434 -1.0092  0.4089
 2217SOL     OW 7205   4.328   6.840   6.078  0.5848  0.1316  0.0729
 2217SOL    HW1 7206   4.249   6.837   6.023  1.1583  0.6813 -0.8033
 2217SOL    HW2 7207   4.356   6.749   6.083 -1.2266 -0.3940  2.1060
 2218SOL     OW 7208   4.368   5.577   5.331 -0.2659 -0.0493  0.5918
 2218SOL    HW1 7209   4.382   5.635   5.406  2.2860 -0.6383  0.6387
 2218SOL    HW2 7210   4.372   5.489   5.368 -1.1603 -0.3266  0.0635
 2219SOL     OW 7211   1.329   4.531   6.905  0.3051  0.5991 -0.3250
 2219SOL    HW1 7212   1.371   4.563   6.826  0.3824 -0.1195 -0.5849
 2219SOL    HW2 7213   1.247   4.580   6.911  1.1931  2.0956  0.2386
 2220SOL     OW 7214   1.632   2.858   1.676  0.0647  0.1163  0.1839
 2220SOL    HW1 7215   1.600   2.900   1.596 -0.2633 -0.4225  0.0252
 2220SOL    HW2 7216   1.573   2.784   1.689  0.7083 -0.3695  0.3873
 2221SOL     OW 7217   3.482   3.714   5.298  0.0727 -0.4540 -0.4493
 2221SOL    HW1 7218   3.521   3.798   5.272 -1.0011 -0.1218 -1.0733
 2221SOL    HW2 7219   3.463   3.724   5.391 -0.2300  0.0750 -0.5624
 2222SOL     OW 7220   7.283   5.716   5.447  0.5115 -0.2443 -0.5915
 2222SOL    HW1 7221   7.372   5.696   5.418  0.4879  0.6641 -1.3380
 2222SOL    HW2 7222   7.284   5.699   5.541  0.6430 -3.0617 -1.0315
 2223SOL     OW 7223   7.535   4.256   5.385  0.4273  0.2276 -0.2644
 2223SOL    HW1 7224   7.454   4.307   5.377  1.0010  1.6669  1.9834
 2223SOL    HW2 7225   7.567   4.276   5.473  3.4462  0.0199 -1.1815
 2224SOL     OW 7226   3.253   3.377   3.293 -0.7797 -0.5824 -0.1840
 2224SOL    HW1 7227   3.236   3.326   3.214 -0.8449 -2.0393  0.7332
 2224SOL    HW2 7228   3.348   3.372   3.305 -0.6014  0.7607 -0.8771
 2225SOL     OW 7229   3.600   5.604   1.028  0.2460  0.3689  0.0391
 2225SOL    HW1 7230   3.548   5.683   1.016 -1.1411 -0.5407 -0.2441
 2225SOL    HW2 7231   3.640   5.588   0.943  1.1113  1.1428  0.2907
 2226SOL     OW 7232   5.438   2.771   0.149  1.1251  0.7100  0.1966
 2226SOL    HW1 7233   5.401   2.728   0.226  0.3840 -3.4559 -2.1471
 2226SOL    HW2 7234   5.532   2.774   0.165  0.9314  0.4397  1.4599
 2227SOL     OW 7235   7.540   2.996   0.245 -0.1994  0.0904 -0.1873
 2227SOL    HW1 7236   7.445   2.990   0.256 -0.2758  0.8033 -0.3893
 2227SOL    HW2 7237   7.573   2.910   0.271 -0.9528 -0.3738 -0.7215
 2228SOL     OW 7238   0.692   4.165   0.859  0.5337 -0.0810  0.3688
 2228SOL    HW1 7239   0.761   4.113   0.817  1.3749 -0.5237  2.2188
 2228SOL    HW2 7240   0.610   4.129   0.823  1.1573 -1.6721  0.4508
 2229SOL     OW 7241   6.842   0.652   6.727  0.3554 -0.2808 -0.6326
 2229SOL    HW1 7242   6.796   0.736   6.734  0.0701 -0.3500 -1.6063
 2229SOL    HW2 7243   6.772   0.587   6.716  0.6303 -0.5219 -0.9585
 2230SOL     OW 7244   0.132   1.269   0.066  0.3222 -0.0076  0.3530
 2230SOL    HW1 7245   0.183   1.234   0.140  1.8735 -0.1644 -0.7322
 2230SOL    HW2 7246   0.099   1.191   0.021 -1.2675  0.0953  1.2525
 2231SOL     OW 7247   0.129   1.378   5.602 -0.3265 -0.0466  0.0327
 2231SOL    HW1 7248   0.188   1.452   5.588 -0.8559  0.3495 -0.1425
 2231SOL    HW2 7249   0.187   1.306   5.626  0.1100  0.6987  1.3128
 2232SOL     OW 7250   2.475   3.769   6.259 -0.1917 -0.0741  0.8425
 2232SOL    HW1 7251   2.542   3.837   6.270 -0.2576  1.0224 -3.5142
 2232SOL    HW2 7252   2.392   3.816   6.270 -0.2440  0.8548 -2.4055
 2233SOL     OW 7253   6.043   2.679   7.558  0.0439  0.0330  0.3186
 2233SOL    HW1 7254   6.060   2.731   7.636  0.5036  0.1171  0.1622
 2233SOL    HW2 7255   6.083   2.594   7.575 -0.1047 -0.0442  0.2897
 2234SOL     OW 7256   1.086   1.189   4.522 -0.4142 -0.0757  0.0026
 2234SOL    HW1 7257   1.089   1.093   4.521 -1.2975 -0.1126 -0.0781
 2234SOL    HW2 7258   1.110   1.213   4.611 -3.7945 -0.5661  1.1902
 2235SOL     OW 7259   1.423   4.777   0.255  0.0107 -0.1361  0.2448
 2235SOL    HW1 7260   1.374   4.747   0.331 -0.4765 -0.2284 -0.0990
 2235SOL    HW2 7261   1.484   4.706   0.235 -0.4052 -0.4454  0.0731
 2236SOL     OW 7262   5.181   3.591   4.834  0.4976  0.3496 -0.1576
 2236SOL    HW1 7263   5.186   3.508   4.786  0.7732 -0.2317  0.8510
 2236SOL    HW2 7264   5.129   3.570   4.911 -0.5470  1.4470 -0.5269
 2237SOL     OW 7265   7.439   7.636   5.810  0.3032  0.5039  0.1421
 2237SOL    HW1 7266   7.524   7.608   5.778 -0.0561 -0.8513  0.2940
 2237SOL    HW2 7267   7.426   7.723   5.772  2.2713  1.2787  1.1220
 2238SOL     OW 7268   0.754   5.580   2.559  0.4166  0.1253  0.1107
 2238SOL    HW1 7269   0.722   5.666   2.588  0.9484  0.2548  0.3268
 2238SOL    HW2 7270   0.778   5.594   2.467  1.3423  0.4529  0.3898
 2239SOL     OW 7271   0.167   2.897   4.857 -0.0525 -0.2133  0.7790
 2239SOL    HW1 7272   0.202   2.852   4.933  2.9859  0.0350 -0.3227
 2239SOL    HW2 7273   0.176   2.990   4.878  1.2627 -0.1348  0.0212
 2240SOL     OW 7274   7.681   5.978   5.773  0.1711 -0.3324  0.2454
 2240SOL    HW1 7275   7.604   6.031   5.793  0.6357  0.1960  0.7147
 2240SOL    HW2 7276   7.687   5.979   5.678  0.8482  1.5162  0.2566
 2241SOL     OW 7277   6.406   4.379   4.083 -0.4890  0.7192  0.4098
 2241SOL    HW1 7278   6.316   4.407   4.101 -0.4017  1.1792  0.1422
 2241SOL    HW2 7279   6.400   4.284   4.075 -0.9757  0.7580  0.2807
 2242SOL     OW 7280   7.714   7.046   0.570  0.1014 -0.1429  0.6603
 2242SOL    HW1 7281   7.623   7.040   0.600 -0.0062  0.3328  0.4458
 2242SOL    HW2 7282   7.732   6.961   0.530 -0.2524 -0.2364  0.6985
 2243SOL     OW 7283   6.558   2.430   2.492  0.0788  0.4596  0.3352
 2243SOL    HW1 7284   6.597   2.466   2.572  0.0810 -0.9862  1.0146
 2243SOL    HW2 7285   6.470   2.467   2.488  0.8408  2.3426 -0.2521
 2244SOL     OW 7286   5.458   3.890   4.819  0.8191  0.7513 -0.0087
 2244SOL    HW1 7287   5.365   3.865   4.820  1.1262 -0.5786 -1.0036
 2244SOL    HW2 7288   5.475   3.921   4.907 -0.1212 -0.8434  0.7895
 2245SOL     OW 7289   2.600   0.209   2.830 -0.2336 -0.2579 -0.7804
 2245SOL    HW1 7290   2.608   0.279   2.894 -0.0144  1.1653 -2.2931
 2245SOL    HW2 7291   2.690   0.178   2.817  0.0571  0.9591 -1.9468
 2246SOL     OW 7292   5.653   1.181   0.683  0.5893  0.1603 -0.3977
 2246SOL    HW1 7293   5.596   1.143   0.749  1.4187  0.1311  0.3182
 2246SOL    HW2 7294   5.734   1.130   0.689  1.1412  1.0005 -0.5237
 2247SOL     OW 7295   7.673   4.119   3.290  0.1279 -0.1606  0.2462
 2247SOL    HW1 7296   7.629   4.169   3.358 -2.4967 -0.3167 -1.2071
 2247SOL    HW2 7297   7.627   4.035   3.288 -2.7732  1.1540 -4.1762
 2248SOL     OW 7298   1.182   6.526   0.876 -0.1770  0.0328  0.2659
 2248SOL    HW1 7299   1.241   6.556   0.807 -1.5930  1.8389 -0.2351
 2248SOL    HW2 7300   1.111   6.482   0.828  0.3045 -1.3842  0.8042
 2249SOL     OW 7301   7.512   1.091   2.987 -0.6715  0.1948  0.0131
 2249SOL    HW1 7302   7.500   1.087   2.892  0.7501 -1.8995 -0.1492
 2249SOL    HW2 7303   7.593   1.140   2.999 -0.8762  0.4996  0.1467
 2250SOL     OW 7304   0.151   7.677   3.044 -0.0205 -0.1306  0.2755
 2250SOL    HW1 7305   0.185   7.606   2.990 -0.8564 -0.4408  0.1478
 2250SOL    HW2 7306   0.177   7.654   3.133  0.9553  0.1436  0.0687
 2251SOL     OW 7307   6.229   4.727   2.613 -0.2792 -0.0878  0.1056
 2251SOL    HW1 7308   6.153   4.771   2.575  1.5412  2.0350 -1.3192
 2251SOL    HW2 7309   6.252   4.659   2.550 -0.8463 -0.5773  0.4238
 2252SOL     OW 7310   0.372   5.989   2.177 -0.5725  0.0199 -0.0888
 2252SOL    HW1 7311   0.429   5.960   2.106 -1.2019 -0.0521 -0.5735
 2252SOL    HW2 7312   0.373   6.085   2.170  1.5205  0.2051  1.5238
 2253SOL     OW 7313   6.138   5.152   5.016 -0.6231 -0.1095 -0.2503
 2253SOL    HW1 7314   6.178   5.197   4.942 -0.1922  0.4780  0.3276
 2253SOL    HW2 7315   6.130   5.060   4.988 -0.2913  0.0721 -0.9422
 2254SOL     OW 7316   7.013   5.502   3.629 -0.4947 -0.1583  0.0057
 2254SOL    HW1 7317   6.926   5.470   3.654 -1.2200  1.5971 -0.0994
 2254SOL    HW2 7318   6.996   5.588   3.591  1.2794  0.0792 -0.3159
 2255SOL     OW 7319   2.992   6.097   1.782  0.0557  0.4391  0.7699
 2255SOL    HW1 7320   3.007   6.192   1.781  0.6502  0.3617 -1.5452
 2255SOL    HW2 7321   3.080   6.059   1.784 -0.1776 -0.0815  1.3645
 2256SOL     OW 7322   1.925   4.778   2.589  0.0955  0.1547  0.8218
 2256SOL    HW1 7323   1.979   4.707   2.556 -0.6672 -1.2518  2.4464
 2256SOL    HW2 7324   1.873   4.738   2.659 -2.7492  1.5240 -0.3750
 2257SOL     OW 7325   4.146   2.224   4.023  0.3198  0.2763  0.7978
 2257SOL    HW1 7326   4.083   2.197   3.956  2.8313 -1.7812 -0.9471
 2257SOL    HW2 7327   4.167   2.315   4.001 -0.9008  0.5180  0.5373
 2258SOL     OW 7328   6.403   1.803   0.336 -0.2635  0.5293  0.0210
 2258SOL    HW1 7329   6.453   1.777   0.259  1.3499  1.0888  0.8284
 2258SOL    HW2 7330   6.445   1.757   0.409 -1.4431  0.3977  0.6399
 2259SOL     OW 7331   3.973   3.544   3.392 -0.6352 -0.1842  0.6511
 2259SOL    HW1 7332   3.928   3.473   3.346 -0.1941 -1.5230  2.1925
 2259SOL    HW2 7333   4.023   3.590   3.324 -0.4597 -1.7227 -0.2918
 2260SOL     OW 7334   2.557   2.363   5.263  0.4439 -0.3296  0.2216
 2260SOL    HW1 7335   2.575   2.389   5.173 -2.0782  0.3198 -0.1648
 2260SOL    HW2 7336   2.613   2.420   5.317  0.8284  0.3353 -0.8654
 2261SOL     OW 7337   1.563   2.474   3.471  0.1417  0.2460 -0.1158
 2261SOL    HW1 7338   1.585   2.559   3.432  0.3993  0.0353 -0.4263
 2261SOL    HW2 7339   1.517   2.427   3.402 -1.7867  0.8763  0.6808
 2262SOL     OW 7340   4.704   4.422   4.028 -0.0127  0.1156  0.4291
 2262SOL    HW1 7341   4.739   4.368   4.098  1.9862  0.5706 -0.1663
 2262SOL    HW2 7342   4.763   4.497   4.022 -1.7061  1.4978  0.0579
 2263SOL     OW 7343   2.993   0.703   3.707 -0.2894 -0.1192  0.3360
 2263SOL    HW1 7344   3.006   0.777   3.765  2.2165  0.3470 -0.7301
 2263SOL    HW2 7345   3.061   0.640   3.730  2.4924  1.1013 -3.5247
 2264SOL     OW 7346   0.687   5.637   1.380 -0.0808  0.0008 -0.5657
 2264SOL    HW1 7347   0.688   5.608   1.471 -0.1631 -2.5057 -1.2872
 2264SOL    HW2 7348   0.763   5.694   1.371 -0.1624  0.3947  1.0938
 2265SOL     OW 7349   2.568   2.974   4.437 -0.0969  0.1114  0.4913
 2265SOL    HW1 7350   2.528   2.894   4.471 -1.3908  0.9591  1.0737
 2265SOL    HW2 7351   2.590   2.954   4.347  0.8803 -1.3300  1.0197
 2266SOL     OW 7352   0.280   0.927   1.394  0.2466  0.0199 -0.2338
 2266SOL    HW1 7353   0.271   0.995   1.327  0.2594  0.5052  0.2483
 2266SOL    HW2 7354   0.190   0.908   1.421  0.2861  0.4626  0.2320
 2267SOL     OW 7355   5.066   1.862   5.786  0.0705  0.0745 -0.2178
 2267SOL    HW1 7356   5.016   1.816   5.718 -2.2832 -0.1590  1.5483
 2267SOL    HW2 7357   5.019   1.844   5.867  2.1848  1.2004  1.3649
 2268SOL     OW 7358   3.210   0.488   3.715 -0.1503 -0.0845 -0.1117
 2268SOL    HW1 7359   3.160   0.442   3.783 -0.2174 -0.2211 -0.2517
 2268SOL    HW2 7360   3.300   0.458   3.728 -0.3266 -0.9364 -0.7471
 2269SOL     OW 7361   5.396   0.627   0.697  0.4961 -0.1265  0.2188
 2269SOL    HW1 7362   5.434   0.628   0.609  1.5763 -0.9904  0.6462
 2269SOL    HW2 7363   5.472   0.621   0.755 -0.2220  0.0674  1.1913
 2270SOL     OW 7364   5.705   4.842   5.407 -0.1299 -0.1783 -0.1536
 2270SOL    HW1 7365   5.684   4.880   5.492 -1.3984 -0.4105 -0.3494
 2270SOL    HW2 7366   5.649   4.765   5.401 -0.3168  0.0350 -1.3476
 2271SOL     OW 7367   7.329   6.859   3.622  0.6574 -0.1037  0.5177
 2271SOL    HW1 7368   7.412   6.900   3.646  0.8480  0.2424 -0.6956
 2271SOL    HW2 7369   7.349   6.806   3.545 -0.4292  0.6806 -0.3283
 2272SOL     OW 7370   5.385   2.220   0.971  0.2813  0.0757  0.0488
 2272SOL    HW1 7371   5.311   2.187   1.022  0.0156 -0.5806 -0.7457
 2272SOL    HW2 7372   5.396   2.311   1.000 -1.5974  0.5703 -0.6899
 2273SOL     OW 7373   6.191   4.284   6.289 -0.3068  0.2179  0.1447
 2273SOL    HW1 7374   6.152   4.238   6.215  0.2713  0.2550 -0.1879
 2273SOL    HW2 7375   6.166   4.376   6.276 -0.7746  0.1216  0.3638
 2274SOL     OW 7376   6.910   2.459   5.436  0.4889 -0.1066  0.3979
 2274SOL    HW1 7377   6.907   2.540   5.487 -0.5130 -0.2104  0.5208
 2274SOL    HW2 7378   6.859   2.396   5.488 -0.7579 -0.1491 -0.8332
 2275SOL     OW 7379   3.406   1.711   4.861 -0.1952  1.0085 -0.1074
 2275SOL    HW1 7380   3.321   1.731   4.823  0.0849 -0.1419 -1.4606
 2275SOL    HW2 7381   3.463   1.696   4.785  1.6703  3.3717  0.7088
 2276SOL     OW 7382   7.012   7.366   3.796 -0.2161  0.3751  0.0780
 2276SOL    HW1 7383   7.065   7.340   3.871 -1.0209 -1.2043  0.1484
 2276SOL    HW2 7384   7.029   7.298   3.731  0.8190  1.9473 -1.3994
 2277SOL     OW 7385   0.957   3.269   1.709  0.6107 -0.3039  0.0409
 2277SOL    HW1 7386   0.864   3.280   1.689  0.8675  1.0595 -0.5560
 2277SOL    HW2 7387   0.959   3.238   1.799 -0.4149  0.3831  0.3203
 2278SOL     OW 7388   5.450   7.242   3.153  0.2452 -0.7122 -0.1441
 2278SOL    HW1 7389   5.423   7.202   3.236  0.0618 -4.0444 -1.6685
 2278SOL    HW2 7390   5.545   7.252   3.161  0.3306 -1.6899  0.2488
 2279SOL     OW 7391   5.518   1.250   1.420 -0.2700 -0.3843  0.5358
 2279SOL    HW1 7392   5.613   1.258   1.424 -0.1844 -1.2133  0.3201
 2279SOL    HW2 7393   5.486   1.311   1.487  0.3620  0.6414 -0.0773
 2280SOL     OW 7394   4.916   6.378   0.134 -0.3213 -0.4112  0.8651
 2280SOL    HW1 7395   4.893   6.449   0.074  1.1002 -0.1067  0.6429
 2280SOL    HW2 7396   4.838   6.365   0.187 -0.9516  0.6227  0.2308
 2281SOL     OW 7397   7.733   3.045   3.451 -0.2197 -0.4217  0.1405
 2281SOL    HW1 7398   7.814   3.010   3.414  0.1812  1.3998 -0.8644
 2281SOL    HW2 7399   7.762   3.098   3.526 -0.1475  1.9430 -1.4405
 2282SOL     OW 7400   1.190   4.061   2.224 -0.8911 -0.2271 -0.1088
 2282SOL    HW1 7401   1.119   4.075   2.161 -1.4889  0.3763  0.6751
 2282SOL    HW2 7402   1.146   4.043   2.307 -0.1216 -0.6627  0.2208
 2283SOL     OW 7403   3.052   0.883   1.912 -0.3172 -0.4906  0.4464
 2283SOL    HW1 7404   3.023   0.861   1.823  0.3752  0.2545  0.0267
 2283SOL    HW2 7405   3.143   0.855   1.915  0.3540  1.5268  0.1485
 2284SOL     OW 7406   0.653   6.544   0.382 -0.1689 -0.3343  0.1617
 2284SOL    HW1 7407   0.644   6.555   0.477  0.6744 -1.6119  0.4071
 2284SOL    HW2 7408   0.644   6.633   0.347 -1.9167 -0.0102  1.3035
 2285SOL     OW 7409   5.800   5.691   3.659 -0.1672 -0.3271  0.2732
 2285SOL    HW1 7410   5.710   5.694   3.628  0.0592 -0.9349 -0.4962
 2285SOL    HW2 7411   5.796   5.650   3.745 -0.7563  0.8772  0.8371
 2286SOL     OW 7412   1.787   4.695   4.563  0.1004 -0.0932 -0.4595
 2286SOL    HW1 7413   1.702   4.657   4.587  0.0560  1.7128  2.6833
 2286SOL    HW2 7414   1.771   4.740   4.480 -2.1894  0.6670  0.3322
 2287SOL     OW 7415   6.396   5.007   3.563  0.3183  0.2608 -0.2470
 2287SOL    HW1 7416   6.318   5.001   3.508  0.5044 -2.0420 -0.3617
 2287SOL    HW2 7417   6.363   5.001   3.652  0.2195  1.6431 -0.1603
 2288SOL     OW 7418   6.295   1.042   0.695  0.2177 -0.1183  0.2520
 2288SOL    HW1 7419   6.293   0.948   0.714  0.7983 -0.0453  0.7126
 2288SOL    HW2 7420   6.301   1.048   0.600 -2.6512 -0.5009 -0.0628
 2289SOL     OW 7421   2.507   1.722   5.102 -0.4093 -0.2837  0.2492
 2289SOL    HW1 7422   2.468   1.788   5.045 -2.6474 -0.6195  1.2790
 2289SOL    HW2 7423   2.495   1.639   5.055 -2.9875 -0.6754  1.3954
 2290SOL     OW 7424   4.847   0.687   6.051  0.3236 -0.2668 -0.5496
 2290SOL    HW1 7425   4.753   0.694   6.070  0.5652  2.2823  0.1793
 2290SOL    HW2 7426   4.883   0.641   6.127 -0.4752 -2.7112 -1.5698
 2291SOL     OW 7427   6.219   3.552   7.513 -0.0615 -0.2741  0.4597
 2291SOL    HW1 7428   6.256   3.640   7.512 -0.4745 -0.0753  1.3647
 2291SOL    HW2 7429   6.205   3.530   7.421  1.4625 -0.0079  0.1503
 2292SOL     OW 7430   5.597   1.835   7.502  0.3682 -0.1882 -0.0625
 2292SOL    HW1 7431   5.692   1.820   7.511  0.1154 -1.6079  0.4206
 2292SOL    HW2 7432   5.588   1.879   7.418  1.6303  1.7521  0.7236
 2293SOL     OW 7433   3.312   5.970   4.305  0.2690 -0.4567  0.0988
 2293SOL    HW1 7434   3.238   6.010   4.352 -0.2263  0.0663 -1.0927
 2293SOL    HW2 7435   3.388   5.995   4.357 -0.3269 -0.5303  1.0422
 2294SOL     OW 7436   4.633   0.611   3.771 -0.8998  0.2808  0.1153
 2294SOL    HW1 7437   4.698   0.592   3.838 -1.8840 -1.6917  0.5794
 2294SOL    HW2 7438   4.663   0.693   3.731  0.5466  0.6882  1.8947
 2295SOL     OW 7439   2.740   1.048   6.002  0.2318 -0.0864 -1.2844
 2295SOL    HW1 7440   2.757   1.114   5.935 -1.6876  0.7448 -1.0298
 2295SOL    HW2 7441   2.657   1.009   5.976  1.7745 -3.2186 -1.9994
 2296SOL     OW 7442   1.108   1.655   3.411  0.6205  0.4562  0.5080
 2296SOL    HW1 7443   1.054   1.593   3.460  1.0288 -0.4268 -0.1566
 2296SOL    HW2 7444   1.184   1.605   3.383 -0.3659  0.4412 -2.4857
 2297SOL     OW 7445   0.803   6.940   0.440  0.0711 -0.2352  0.6472
 2297SOL    HW1 7446   0.844   6.902   0.517  0.7047  0.3193  0.5892
 2297SOL    HW2 7447   0.716   6.968   0.469 -0.1623 -1.1441  0.8434
 2298SOL     OW 7448   6.206   2.745   5.365 -0.2799  0.1324  0.2608
 2298SOL    HW1 7449   6.242   2.832   5.384 -0.5894  0.8649 -2.2293
 2298SOL    HW2 7450   6.116   2.749   5.398 -0.3434  0.8146  0.0213
 2299SOL     OW 7451   7.175   2.529   3.224 -1.0350  0.0141  0.0402
 2299SOL    HW1 7452   7.138   2.616   3.205 -1.0501 -0.0200 -0.0856
 2299SOL    HW2 7453   7.249   2.547   3.282  0.1955  0.2827 -1.5526
 2300SOL     OW 7454   3.249   6.100   7.488 -0.0219  0.1536  0.1717
 2300SOL    HW1 7455   3.301   6.089   7.567 -0.5409  1.3322  0.7135
 2300SOL    HW2 7456   3.242   6.195   7.477 -1.5826  0.0325 -0.1733
 2301SOL     OW 7457   7.046   7.082   2.028  0.1510 -0.4343 -0.3447
 2301SOL    HW1 7458   7.017   7.172   2.014 -1.6489 -1.1450 -1.6103
 2301SOL    HW2 7459   7.093   7.084   2.112 -0.0465  1.6141 -0.2421
 2302SOL     OW 7460   7.601   5.855   1.266 -0.0755 -0.0462 -0.2646
 2302SOL    HW1 7461   7.521   5.868   1.317 -0.4984 -0.0402 -0.9166
 2302SOL    HW2 7462   7.580   5.888   1.178  0.7212  0.1756 -0.3800
 2303SOL     OW 7463   7.470   4.393   3.108 -0.0114 -0.7331 -0.1317
 2303SOL    HW1 7464   7.539   4.367   3.047 -1.0272 -2.0574 -0.7704
 2303SOL    HW2 7465   7.512   4.392   3.194  1.1213 -0.0609 -0.6476
 2304SOL     OW 7466   5.630   3.110   5.851  0.1298 -0.4085 -0.0509
 2304SOL    HW1 7467   5.719   3.107   5.818  1.0072 -1.0821  2.1704
 2304SOL    HW2 7468   5.636   3.159   5.933 -1.6403  0.0144 -0.1321
 2305SOL     OW 7469   0.890   5.049   5.234 -0.1970  0.1674 -0.3702
 2305SOL    HW1 7470   0.834   5.097   5.295  0.1872  0.1337  0.0128
 2305SOL    HW2 7471   0.837   5.041   5.155  0.1523  2.2751 -0.8832
 2306SOL     OW 7472   1.503   1.341   0.213  0.3957 -0.6859 -0.1978
 2306SOL    HW1 7473   1.463   1.355   0.127  0.0946 -0.3399 -0.0071
 2306SOL    HW2 7474   1.453   1.269   0.251  0.4111 -0.7200 -0.2423
 2307SOL     OW 7475   5.384   1.195   5.181  0.1562 -1.0173 -0.1344
 2307SOL    HW1 7476   5.469   1.189   5.223  0.1353 -2.3568 -0.2267
 2307SOL    HW2 7477   5.403   1.225   5.092  0.3191  0.5687  0.3982
 2308SOL     OW 7478   6.942   4.970   6.820 -0.2780  0.1201 -0.0786
 2308SOL    HW1 7479   6.989   5.023   6.755 -1.8118 -1.0024 -2.2189
 2308SOL    HW2 7480   6.999   4.894   6.834 -0.1887  0.0850 -0.5896
 2309SOL     OW 7481   4.917   2.089   6.718  0.2190 -0.0692  0.1505
 2309SOL    HW1 7482   4.972   2.122   6.789 -1.2676 -0.2384  1.4413
 2309SOL    HW2 7483   4.919   1.994   6.728  0.4156 -0.1188 -0.3574
 2310SOL     OW 7484   7.042   2.911   7.741  0.4184 -0.0484  0.0681
 2310SOL    HW1 7485   7.042   2.818   7.717 -1.0846 -0.3482  1.0792
 2310SOL    HW2 7486   6.950   2.936   7.739  0.8277  1.4877 -0.3845
 2311SOL     OW 7487   6.555   3.074   3.349 -0.0814 -0.2885 -0.6285
 2311SOL    HW1 7488   6.562   2.995   3.403 -1.2732 -0.0512 -0.0902
 2311SOL    HW2 7489   6.625   3.065   3.284  0.6905 -1.1044  0.2851
 2312SOL     OW 7490   0.599   6.854   5.511 -0.3581  0.4584 -0.4602
 2312SOL    HW1 7491   0.630   6.806   5.588 -1.0516  0.8204  0.0595
 2312SOL    HW2 7492   0.583   6.943   5.543 -1.0889  0.4990 -0.9120
 2313SOL     OW 7493   3.896   0.130   7.708  0.1924  0.5197 -0.8155
 2313SOL    HW1 7494   3.950   0.055   7.682 -1.1228  0.0585 -2.3741
 2313SOL    HW2 7495   3.863   0.166   7.626 -1.1314  1.3407  0.0288
 2314SOL     OW 7496   3.635   3.480   5.203  0.8204  0.1288 -0.4574
 2314SOL    HW1 7497   3.730   3.483   5.200  0.8027  0.6905 -0.4284
 2314SOL    HW2 7498   3.608   3.570   5.220  0.2285  0.2584 -1.9279
 2315SOL     OW 7499   1.627   1.046   2.862  0.1466  0.3883 -0.3848
 2315SOL    HW1 7500   1.535   1.062   2.842 -0.0968 -0.4177  0.0649
 2315SOL    HW2 7501   1.626   0.975   2.926  1.0126  1.2573  0.6432
 2316SOL     OW 7502   5.151   7.277   5.023 -0.1774 -0.0425  0.3686
 2316SOL    HW1 7503   5.175   7.228   5.101 -0.1726  0.7745  0.8969
 2316SOL    HW2 7504   5.211   7.246   4.955  0.7841  0.2492  1.0589
 2317SOL     OW 7505   1.721   4.138   0.783 -0.0912  0.1334 -0.4428
 2317SOL    HW1 7506   1.700   4.065   0.725 -0.1520 -0.0559 -0.1838
 2317SOL    HW2 7507   1.661   4.208   0.756  1.1930  0.7051 -1.8894
 2318SOL     OW 7508   0.934   2.499   3.955  0.3572 -0.4426 -0.1507
 2318SOL    HW1 7509   1.020   2.468   3.985  0.4784 -0.5023 -0.5509
 2318SOL    HW2 7510   0.872   2.467   4.020  0.4465 -1.7138 -0.6509
 2319SOL     OW 7511   5.591   2.596   4.134 -0.0690 -0.4216 -0.0798
 2319SOL    HW1 7512   5.672   2.599   4.185  0.6374 -2.3930 -0.9988
 2319SOL    HW2 7513   5.576   2.687   4.110  1.3080  0.1331  0.9695
 2320SOL     OW 7514   7.047   6.985   3.727  0.0302  0.2719 -0.0985
 2320SOL    HW1 7515   7.118   7.028   3.678 -0.4314 -0.6659 -1.6884
 2320SOL    HW2 7516   7.046   6.895   3.693 -0.4599 -0.3836  1.5440
 2321SOL     OW 7517   6.195   1.822   4.838 -0.0713  0.6144 -0.3889
 2321SOL    HW1 7518   6.174   1.885   4.770 -2.8481  0.4379  0.2057
 2321SOL    HW2 7519   6.176   1.737   4.798  1.3013  0.2658 -0.3689
 2322SOL     OW 7520   4.720   3.998   0.648  0.1125 -0.3961  0.4023
 2322SOL    HW1 7521   4.782   4.023   0.716  1.4725 -0.4833 -0.7615
 2322SOL    HW2 7522   4.774   3.982   0.571 -1.3820 -0.3047 -0.7108
 2323SOL     OW 7523   7.056   7.446   4.240 -0.1934 -0.0192  0.3190
 2323SOL    HW1 7524   6.968   7.410   4.228 -0.1142 -0.3519  0.6926
 2323SOL    HW2 7525   7.086   7.409   4.324  0.0918  0.5217  0.4604
 2324SOL     OW 7526   4.042   6.082   3.033  0.2703  0.1323 -0.1152
 2324SOL    HW1 7527   4.023   6.140   3.106 -0.4961  0.9073 -0.8981
 2324SOL    HW2 7528   3.974   6.102   2.968  1.4987  0.1700 -1.4399
 2325SOL     OW 7529   3.173   5.695   7.134  0.2667  0.0804  0.1038
 2325SOL    HW1 7530   3.250   5.638   7.141 -0.9933 -2.0359 -1.8659
 2325SOL    HW2 7531   3.177   5.729   7.045 -1.6423 -1.0025 -0.4366
 2326SOL     OW 7532   0.382   7.254   6.706  0.1220 -0.2371  0.0286
 2326SOL    HW1 7533   0.352   7.174   6.749 -1.3338  0.2308 -0.0748
 2326SOL    HW2 7534   0.379   7.233   6.613  2.6005 -1.0137  0.0440
 2327SOL     OW 7535   6.094   3.328   7.617 -0.4903 -0.0305  0.6070
 2327SOL    HW1 7536   6.135   3.408   7.584 -2.2818  0.2098 -1.2507
 2327SOL    HW2 7537   6.066   3.350   7.706  0.1272  0.9890  0.5566
 2328SOL     OW 7538   2.975   0.058   3.908  0.0758  0.1905  0.6694
 2328SOL    HW1 7539   3.016  -0.027   3.927  0.0882  0.1532  0.4699
 2328SOL    HW2 7540   2.989   0.071   3.814  0.3361  0.5494  0.7559
 2329SOL     OW 7541   2.480   1.286   4.760  0.0749 -0.0646 -0.0154
 2329SOL    HW1 7542   2.390   1.263   4.736 -0.2320  1.1787 -0.1217
 2329SOL    HW2 7543   2.504   1.222   4.828 -0.8253 -0.5024 -0.0931
 2330SOL     OW 7544   7.418   2.196   4.830 -0.3065 -0.1187  0.2864
 2330SOL    HW1 7545   7.505   2.212   4.867  0.3824 -0.1394 -1.2596
 2330SOL    HW2 7546   7.381   2.283   4.817 -0.4527 -0.1053  0.7598
 2331SOL     OW 7547   1.327   1.943   5.192  0.0880  0.4823  0.2507
 2331SOL    HW1 7548   1.376   1.936   5.273 -1.2072  1.9168  1.2194
 2331SOL    HW2 7549   1.358   1.870   5.139  2.1424  0.4624  1.3712
 2332SOL     OW 7550   1.316   7.696   4.746 -0.9096  0.3108 -0.2142
 2332SOL    HW1 7551   1.285   7.670   4.832 -2.3739  0.0024 -0.8105
 2332SOL    HW2 7552   1.282   7.629   4.687  0.3781  0.3108 -1.0082
 2333SOL     OW 7553   4.261   1.523   4.968  0.2471 -0.1398  0.1573
 2333SOL    HW1 7554   4.330   1.560   4.913 -0.2453 -0.5799 -0.7843
 2333SOL    HW2 7555   4.181   1.567   4.939  0.0790  0.1258  1.0067
 2334SOL     OW 7556   6.556   2.423   1.810  0.2633 -0.3463 -0.1445
 2334SOL    HW1 7557   6.553   2.470   1.727  1.7035 -1.2086 -0.7254
 2334SOL    HW2 7558   6.468   2.434   1.847  0.2921  2.0347 -0.6288
 2335SOL     OW 7559   3.078   6.080   5.051  0.5815  0.4092  0.1668
 2335SOL    HW1 7560   3.015   6.009   5.061  0.0143  0.9533  0.4987
 2335SOL    HW2 7561   3.136   6.073   5.127  0.2140  0.6167  0.4640
 2336SOL     OW 7562   5.104   5.392   5.600  0.3972 -0.6369  0.0315
 2336SOL    HW1 7563   5.139   5.337   5.530 -0.1785 -0.8991 -0.0563
 2336SOL    HW2 7564   5.028   5.435   5.562 -0.9175 -2.0508  0.9527
 2337SOL     OW 7565   5.388   6.300   6.896  0.4481 -0.1579  0.6308
 2337SOL    HW1 7566   5.421   6.227   6.845  1.5155  1.8868 -1.7841
 2337SOL    HW2 7567   5.330   6.347   6.836  0.4664  1.4427  1.8040
 2338SOL     OW 7568   4.683   1.565   4.768 -0.5491 -0.4426  0.7974
 2338SOL    HW1 7569   4.729   1.566   4.852  0.6486  2.2040  0.1807
 2338SOL    HW2 7570   4.616   1.633   4.776 -0.4530 -0.1862 -0.3793
 2339SOL     OW 7571   4.796   4.710   2.375 -0.4501 -0.0975  0.4883
 2339SOL    HW1 7572   4.719   4.662   2.347 -0.1530 -0.5384  0.4270
 2339SOL    HW2 7573   4.870   4.667   2.332 -0.3867  1.9381 -1.6227
 2340SOL     OW 7574   3.544   4.822   6.458 -0.2859 -0.0271 -0.5560
 2340SOL    HW1 7575   3.569   4.832   6.550 -0.2228 -1.3190 -0.4134
 2340SOL    HW2 7576   3.461   4.775   6.461 -1.1492  1.3896 -1.1349
 2341SOL     OW 7577   4.721   3.997   1.033 -0.2347  0.0622 -0.8458
 2341SOL    HW1 7578   4.654   4.037   0.978  1.0395  2.0779 -1.0351
 2341SOL    HW2 7579   4.799   4.049   1.017  0.5402 -0.1145  1.8854
 2342SOL     OW 7580   2.172   1.493   5.886 -0.1782 -0.3079  0.2223
 2342SOL    HW1 7581   2.251   1.459   5.843  0.1329 -1.8582  1.9065
 2342SOL    HW2 7582   2.100   1.443   5.847 -0.0953 -0.4494  0.2514
 2343SOL     OW 7583   4.884   1.902   2.401 -0.5742  0.1252  0.4878
 2343SOL    HW1 7584   4.836   1.840   2.455 -2.0738  0.2265 -0.6727
 2343SOL    HW2 7585   4.968   1.859   2.383 -0.1157  0.0071  2.6630
 2344SOL     OW 7586   6.086   3.620   1.053 -0.1459  0.5046  0.0016
 2344SOL    HW1 7587   5.994   3.592   1.048  0.2213 -1.1950  1.5794
 2344SOL    HW2 7588   6.128   3.577   0.979 -0.5181  0.9381 -0.4722
 2345SOL     OW 7589   1.676   6.932   0.380  0.0119 -0.1460  0.1664
 2345SOL    HW1 7590   1.616   6.991   0.335 -0.3180  0.5601  1.4661
 2345SOL    HW2 7591   1.640   6.844   0.365 -1.0712  0.2245  0.4963
 2346SOL     OW 7592   2.730   6.301   4.456 -0.1485  0.4711  0.6522
 2346SOL    HW1 7593   2.655   6.357   4.439  0.1826  0.5079 -0.8713
 2346SOL    HW2 7594   2.806   6.359   4.446  0.1875 -0.1717 -0.7278
 2347SOL     OW 7595   3.060   2.576   1.109 -0.3941 -0.1350 -0.5354
 2347SOL    HW1 7596   2.991   2.521   1.071 -1.5447  0.2494  0.9257
 2347SOL    HW2 7597   3.029   2.666   1.096 -0.2036  0.0438  0.1956
 2348SOL     OW 7598   0.329   1.574   5.367  0.2720 -0.0413  0.6952
 2348SOL    HW1 7599   0.256   1.522   5.333 -0.1789  2.0293 -1.8052
 2348SOL    HW2 7600   0.401   1.557   5.306  0.9726  0.1967  1.4350
 2349SOL     OW 7601   5.572   0.225   4.213  0.5189  0.2219 -0.1185
 2349SOL    HW1 7602   5.611   0.269   4.137 -0.4371  1.2496 -0.0457
 2349SOL    HW2 7603   5.492   0.184   4.178  0.1050  0.6542  0.3030
 2350SOL     OW 7604   6.198   2.195   1.017 -0.4074  0.4099 -0.0253
 2350SOL    HW1 7605   6.123   2.144   1.049  0.1109  0.8196  1.9582
 2350SOL    HW2 7606   6.266   2.182   1.083  0.6628  1.5074 -0.8707
 2351SOL     OW 7607   3.519   4.025   6.965 -0.0169 -0.1192 -0.3163
 2351SOL    HW1 7608   3.444   3.977   7.001 -1.0350  0.0718 -2.0861
 2351SOL    HW2 7609   3.538   4.092   7.031 -2.1021  0.5226 -0.2953
 2352SOL     OW 7610   1.250   6.047   5.726 -0.3834 -0.1549  0.6664
 2352SOL    HW1 7611   1.258   6.053   5.821  0.4121 -0.4276  0.6223
 2352SOL    HW2 7612   1.220   6.134   5.699 -0.9863 -0.1903  1.1939
 2353SOL     OW 7613   2.276   6.953   3.220  0.2125  0.2221  0.2489
 2353SOL    HW1 7614   2.227   7.016   3.272  0.5794  0.9230 -0.2408
 2353SOL    HW2 7615   2.367   6.980   3.230  0.4193 -0.4916  0.3737
 2354SOL     OW 7616   0.751   7.301   7.600 -0.0648  0.3011  0.9480
 2354SOL    HW1 7617   0.761   7.376   7.659 -0.7441 -0.3904  1.9736
 2354SOL    HW2 7618   0.831   7.251   7.612  0.0972  0.5198  0.7723
 2355SOL     OW 7619   0.449   2.191   6.621  0.2163  0.2264 -0.5477
 2355SOL    HW1 7620   0.368   2.153   6.585  0.1764  1.1618 -1.4953
 2355SOL    HW2 7621   0.443   2.175   6.715 -0.9109 -0.0206 -0.6454
 2356SOL     OW 7622   5.555   5.408   4.296 -0.6094  0.4629 -0.3398
 2356SOL    HW1 7623   5.535   5.407   4.202 -0.2007 -0.7457 -0.4353
 2356SOL    HW2 7624   5.602   5.489   4.310 -0.1615  0.3821 -1.2988
 2357SOL     OW 7625   1.234   2.968   0.292 -1.1446  0.0360  0.2421
 2357SOL    HW1 7626   1.234   2.922   0.208 -2.0384 -0.8856  0.7260
 2357SOL    HW2 7627   1.172   3.040   0.280  0.1140  1.0343 -0.4572
 2358SOL     OW 7628   5.267   6.903   5.438 -0.4353  0.0322  0.0629
 2358SOL    HW1 7629   5.341   6.958   5.464 -0.8733 -0.0087  1.4829
 2358SOL    HW2 7630   5.268   6.830   5.501 -1.3997 -0.2110 -0.1812
 2359SOL     OW 7631   2.758   2.683   1.824  0.1549  0.0384  0.5849
 2359SOL    HW1 7632   2.851   2.680   1.846  0.8179  2.8991 -1.3517
 2359SOL    HW2 7633   2.756   2.676   1.729 -1.8154 -1.6844  0.6718
 2360SOL     OW 7634   2.411   5.468   6.298 -0.7075 -0.0750  0.8435
 2360SOL    HW1 7635   2.402   5.489   6.391 -0.8380 -0.9811  1.0444
 2360SOL    HW2 7636   2.490   5.415   6.293 -0.5768  0.1606  0.3993
 2361SOL     OW 7637   0.352   2.793   1.011  0.0714 -0.1343  0.4572
 2361SOL    HW1 7638   0.365   2.817   1.103  0.9139 -1.4572  0.7070
 2361SOL    HW2 7639   0.431   2.746   0.987 -1.0635 -1.7424 -0.2884
 2362SOL     OW 7640   7.062   6.521   5.074  0.2278  0.0252 -0.2125
 2362SOL    HW1 7641   7.122   6.476   5.015  0.2855  0.8277 -0.7895
 2362SOL    HW2 7642   7.089   6.495   5.161 -0.4288 -1.9094 -0.5412
 2363SOL     OW 7643   5.545   5.382   4.935  0.3564 -0.2416 -0.0309
 2363SOL    HW1 7644   5.543   5.458   4.993  1.4613  0.1086 -0.4343
 2363SOL    HW2 7645   5.489   5.317   4.978 -1.7001  1.2385 -0.3398
 2364SOL     OW 7646   4.799   7.677   4.549 -0.0296  0.4493 -0.0449
 2364SOL    HW1 7647   4.857   7.634   4.485  0.0883  0.8994 -0.2445
 2364SOL    HW2 7648   4.720   7.696   4.499  0.5242  1.9396 -0.4283
 2365SOL     OW 7649   4.397   4.943   3.776 -0.2318  0.1998 -0.8409
 2365SOL    HW1 7650   4.433   4.929   3.863  0.9315  0.9578 -1.1792
 2365SOL    HW2 7651   4.302   4.931   3.787  0.0854 -1.8969  0.0546
 2366SOL     OW 7652   0.468   5.544   3.627 -0.3027  0.0284  0.5604
 2366SOL    HW1 7653   0.460   5.514   3.717  0.9443  0.1903  0.7378
 2366SOL    HW2 7654   0.513   5.472   3.582 -0.4227  0.1797  0.1921
 2367SOL     OW 7655   5.109   1.707   1.779 -0.1678  0.1029  0.1063
 2367SOL    HW1 7656   5.032   1.655   1.801  0.2038  0.0844  1.4571
 2367SOL    HW2 7657   5.135   1.677   1.692 -0.4297 -1.4109  0.5226
 2368SOL     OW 7658   1.407   7.481   7.166  0.0151 -0.2961 -0.0960
 2368SOL    HW1 7659   1.401   7.385   7.172  0.9622 -0.3341  0.7013
 2368SOL    HW2 7660   1.359   7.512   7.242 -3.0506  0.0546 -1.9987
 2369SOL     OW 7661   2.420   7.693   2.626 -0.3946  0.3701  0.0283
 2369SOL    HW1 7662   2.385   7.674   2.713  0.9841 -3.0205 -0.0140
 2369SOL    HW2 7663   2.433   7.607   2.586  0.6599  1.7568 -2.8958
 2370SOL     OW 7664   1.512   4.795   2.038  0.4092 -0.1368  0.3326
 2370SOL    HW1 7665   1.475   4.811   2.125  1.0987 -0.8944  0.7765
 2370SOL    HW2 7666   1.603   4.771   2.055  0.6168 -0.0458 -0.6207
 2371SOL     OW 7667   4.764   7.386   2.869  0.4170  0.3457  0.1289
 2371SOL    HW1 7668   4.823   7.374   2.794 -1.2037  0.0690 -1.1662
 2371SOL    HW2 7669   4.682   7.416   2.830 -0.7227 -0.5583  1.7284
 2372SOL     OW 7670   4.961   0.907   2.310 -0.3731 -0.1011 -0.3251
 2372SOL    HW1 7671   5.047   0.868   2.295  0.0174  0.6240  0.0027
 2372SOL    HW2 7672   4.900   0.842   2.276  0.3081 -0.5271 -0.7681
 2373SOL     OW 7673   0.820   0.443   5.650 -0.0704 -0.2414  0.1112
 2373SOL    HW1 7674   0.729   0.418   5.634  0.0681 -0.7208  0.0633
 2373SOL    HW2 7675   0.825   0.457   5.745 -0.1849 -0.2523  0.1182
 2374SOL     OW 7676   6.023   6.204   3.924  0.4384  0.5121 -0.0127
 2374SOL    HW1 7677   6.047   6.228   3.835  0.9096  1.0278  0.2478
 2374SOL    HW2 7678   6.002   6.287   3.967 -1.5269  0.1208 -0.1289
 2375SOL     OW 7679   0.351   5.901   4.719  0.4142 -0.0744  0.3678
 2375SOL    HW1 7680   0.423   5.939   4.769  0.0268  0.0756  0.8202
 2375SOL    HW2 7681   0.338   5.814   4.757  1.4026 -0.7549 -0.7690
 2376SOL     OW 7682   4.763   5.006   0.321  0.4250 -0.6813 -0.0135
 2376SOL    HW1 7683   4.766   4.911   0.322 -0.8459 -0.7998 -2.1900
 2376SOL    HW2 7684   4.670   5.027   0.333  0.8685  0.3958  2.1104
 2377SOL     OW 7685   6.228   5.193   0.970 -0.2340 -0.3068  0.3972
 2377SOL    HW1 7686   6.279   5.129   0.920 -0.6074 -0.3699  0.0918
 2377SOL    HW2 7687   6.280   5.273   0.967  0.5713 -0.7756  1.3624
 2378SOL     OW 7688   4.131   7.224   2.232  0.0354 -0.4771  0.7252
 2378SOL    HW1 7689   4.172   7.293   2.179  0.2554 -0.8070  0.4580
 2378SOL    HW2 7690   4.067   7.270   2.286  0.6972  0.0382  1.0906
 2379SOL     OW 7691   6.956   6.812   1.641  0.3177  0.7600  0.0681
 2379SOL    HW1 7692   7.035   6.865   1.654  1.8279 -1.6002  1.2685
 2379SOL    HW2 7693   6.952   6.756   1.718 -2.5764  0.7666  0.0200
 2380SOL     OW 7694   6.922   6.451   0.554  0.3368  0.0008 -0.0523
 2380SOL    HW1 7695   7.012   6.484   0.553  0.2052  0.3775  0.2849
 2380SOL    HW2 7696   6.868   6.527   0.531  0.0877 -0.1638 -0.0170
 2381SOL     OW 7697   7.132   1.088   4.995 -0.3161 -0.1551 -0.1024
 2381SOL    HW1 7698   7.105   1.046   4.913  0.4915  0.0177 -0.4707
 2381SOL    HW2 7699   7.105   1.028   5.064  0.7088 -1.2435 -0.6106
 2382SOL     OW 7700   1.007   1.471   0.247 -0.3312 -0.7895  0.3585
 2382SOL    HW1 7701   1.100   1.491   0.252 -0.3100 -0.8015  0.0366
 2382SOL    HW2 7702   0.964   1.546   0.288 -0.2362 -0.2299 -0.5349
 2383SOL     OW 7703   1.534   3.740   5.694 -0.3444  0.4790 -0.0511
 2383SOL    HW1 7704   1.511   3.727   5.602  0.0586 -0.2656 -0.0599
 2383SOL    HW2 7705   1.629   3.751   5.693  0.2308 -3.1502  0.5596
 2384SOL     OW 7706   1.310   0.194   3.386 -0.3901 -0.1160 -0.0315
 2384SOL    HW1 7707   1.346   0.279   3.362 -0.6503 -0.3463 -1.3353
 2384SOL    HW2 7708   1.332   0.137   3.312  1.5416 -1.7379  1.6517
 2385SOL     OW 7709   3.936   3.731   6.866  0.0699  0.1346  0.1914
 2385SOL    HW1 7710   3.938   3.699   6.956 -1.4185  0.4436  0.3590
 2385SOL    HW2 7711   4.018   3.780   6.857 -0.3299  1.2065  1.8156
 2386SOL     OW 7712   5.009   6.281   3.392 -0.1647 -0.0709  0.2532
 2386SOL    HW1 7713   5.051   6.309   3.311 -0.2635 -0.4759  0.0615
 2386SOL    HW2 7714   5.062   6.206   3.422 -1.1148 -0.9930 -0.3226
 2387SOL     OW 7715   2.104   7.271   1.778  0.6156 -0.3762 -0.4198
 2387SOL    HW1 7716   2.126   7.180   1.799  1.7636 -0.1097 -0.4028
 2387SOL    HW2 7717   2.107   7.316   1.862  2.0440  0.0552 -0.6692
 2388SOL     OW 7718   0.740   4.890   0.561 -0.3211 -0.2107 -0.0317
 2388SOL    HW1 7719   0.699   4.963   0.515  0.0140  0.0280  0.0431
 2388SOL    HW2 7720   0.760   4.925   0.648 -1.4827 -0.8356  0.5017
 2389SOL     OW 7721   5.535   3.687   0.484 -0.3795 -0.4851 -0.1719
 2389SOL    HW1 7722   5.469   3.696   0.554 -0.7980 -0.4801 -0.5602
 2389SOL    HW2 7723   5.586   3.767   0.489 -0.2381 -0.5987  0.2982
 2390SOL     OW 7724   7.163   2.486   5.102  0.1485  0.2127 -0.0766
 2390SOL    HW1 7725   7.102   2.427   5.146 -1.3553  0.7002 -1.4226
 2390SOL    HW2 7726   7.179   2.555   5.166 -0.9009  0.1903  0.2262
 2391SOL     OW 7727   7.249   1.292   4.847 -0.0041 -0.4589  0.1889
 2391SOL    HW1 7728   7.264   1.219   4.787  1.8505 -1.2401  1.4861
 2391SOL    HW2 7729   7.209   1.251   4.924  1.0191 -0.1386  0.9122
 2392SOL     OW 7730   6.942   0.429   0.000 -0.1871  0.0689  0.4978
 2392SOL    HW1 7731   6.888   0.383   0.064 -1.4596  0.2633 -0.4164
 2392SOL    HW2 7732   6.924   0.522   0.016  0.9410  0.2174  1.0807
 2393SOL     OW 7733   2.363   5.463   5.245  0.1188  0.4447  0.8909
 2393SOL    HW1 7734   2.452   5.495   5.230  0.5095 -1.2752 -0.8248
 2393SOL    HW2 7735   2.331   5.515   5.319  2.2087  1.7212  0.9758
 2394SOL     OW 7736   4.480   2.267   1.508 -0.0467 -0.5754 -0.1689
 2394SOL    HW1 7737   4.531   2.348   1.516 -1.3517  0.5645 -2.2649
 2394SOL    HW2 7738   4.494   2.221   1.590  0.7163  1.8119  1.1277
 2395SOL     OW 7739   3.601   4.361   0.544  0.2699 -0.5141 -0.1233
 2395SOL    HW1 7740   3.541   4.403   0.482 -0.1276 -0.2813  0.4076
 2395SOL    HW2 7741   3.596   4.268   0.522  0.3797 -0.4021 -0.6462
 2396SOL     OW 7742   3.729   6.156   0.100 -0.0104 -0.6413 -0.0685
 2396SOL    HW1 7743   3.641   6.170   0.137 -0.2012 -0.6864 -0.5030
 2396SOL    HW2 7744   3.763   6.080   0.147  0.3781  0.2469  1.1426
 2397SOL     OW 7745   2.436   5.500   4.173  0.4810  0.5161 -0.2238
 2397SOL    HW1 7746   2.517   5.530   4.134  0.4450  1.2113  0.2170
 2397SOL    HW2 7747   2.385   5.579   4.187 -0.1084  0.1304 -0.1190
 2398SOL     OW 7748   3.641   5.287   3.823  0.5668 -0.1812 -0.0663
 2398SOL    HW1 7749   3.704   5.240   3.877  1.8498  0.3011 -1.0913
 2398SOL    HW2 7750   3.604   5.220   3.765  0.7653 -0.3087 -0.0439
 2399SOL     OW 7751   5.887   6.538   2.393 -0.6573 -0.4301  0.3293
 2399SOL    HW1 7752   5.938   6.619   2.404 -0.4646 -0.5908  0.6114
 2399SOL    HW2 7753   5.950   6.468   2.409  0.0817 -0.7582 -3.1694
 2400SOL     OW 7754   7.606   1.460   6.744  0.6105  0.2228  0.0766
 2400SOL    HW1 7755   7.684   1.421   6.705  1.4806  1.3962  0.5661
 2400SOL    HW2 7756   7.615   1.554   6.727  0.8637  0.7646  2.6783
 2401SOL     OW 7757   6.081   5.195   4.703 -0.1683  0.2024 -0.3828
 2401SOL    HW1 7758   6.147   5.147   4.652 -2.6383 -1.7646 -1.9791
 2401SOL    HW2 7759   6.029   5.127   4.745 -2.1606  1.5581 -0.5193
 2402SOL     OW 7760   4.190   7.347   4.406  0.2323  0.4834  0.1935
 2402SOL    HW1 7761   4.151   7.426   4.369 -1.9322 -0.4348  0.3409
 2402SOL    HW2 7762   4.224   7.299   4.331  0.5416  1.0193 -0.0150
 2403SOL     OW 7763   4.294   3.598   1.202  0.0046 -0.2232  0.2922
 2403SOL    HW1 7764   4.370   3.557   1.242 -0.0536  1.0900  1.8422
 2403SOL    HW2 7765   4.259   3.656   1.269 -1.8061 -0.0558 -0.7161
 2404SOL     OW 7766   3.456   4.734   0.376  0.2555 -0.0555  0.7932
 2404SOL    HW1 7767   3.525   4.717   0.439  0.7907 -2.5046 -0.3205
 2404SOL    HW2 7768   3.489   4.698   0.293 -1.3338  0.9880 -0.3669
 2405SOL     OW 7769   2.313   7.566   2.051 -0.4452 -0.0883  0.5251
 2405SOL    HW1 7770   2.372   7.583   1.977 -0.7523  0.1661  0.3364
 2405SOL    HW2 7771   2.226   7.564   2.012 -0.9671  2.9508  1.2493
 2406SOL     OW 7772   0.315   5.396   1.605  0.5560  0.2610 -0.3528
 2406SOL    HW1 7773   0.284   5.340   1.676  2.5349 -0.2671  0.1853
 2406SOL    HW2 7774   0.380   5.453   1.647 -0.5921  2.2402 -1.1130
 2407SOL     OW 7775   0.558   5.031   6.307 -0.1681  0.2398 -0.0653
 2407SOL    HW1 7776   0.542   4.957   6.367  0.2646 -0.2514 -0.5430
 2407SOL    HW2 7777   0.568   4.990   6.221 -0.3960  0.9069 -0.4163
 2408SOL     OW 7778   5.647   0.413   2.598 -0.0202  0.3956 -0.1435
 2408SOL    HW1 7779   5.565   0.452   2.629 -1.9555 -2.0632 -1.7922
 2408SOL    HW2 7780   5.682   0.369   2.676 -1.8952 -1.0231 -0.0172
 2409SOL     OW 7781   1.898   3.709   1.992  0.7852 -0.6582 -0.1695
 2409SOL    HW1 7782   1.836   3.647   1.953 -1.4357  1.6916 -0.6310
 2409SOL    HW2 7783   1.933   3.757   1.917 -0.4464  1.1686  0.3695
 2410SOL     OW 7784   5.501   5.509   4.034 -0.3295 -0.5964 -0.3165
 2410SOL    HW1 7785   5.436   5.462   3.982 -0.0584 -1.1475 -0.1703
 2410SOL    HW2 7786   5.457   5.589   4.062 -0.7864 -0.7455 -0.6029
 2411SOL     OW 7787   0.885   6.336   4.940  0.1268  0.4656  0.0939
 2411SOL    HW1 7788   0.791   6.326   4.931 -0.2709  2.5060  1.4327
 2411SOL    HW2 7789   0.897   6.375   5.026  2.2833 -0.5649  0.3332
 2412SOL     OW 7790   6.105   3.167   0.234 -0.1255 -0.4767 -0.1025
 2412SOL    HW1 7791   6.158   3.220   0.294 -0.5347  0.1479 -0.2848
 2412SOL    HW2 7792   6.081   3.227   0.163 -1.0770 -0.7510 -0.0252
 2413SOL     OW 7793   3.821   6.420   4.690 -0.0880 -0.5183  0.3756
 2413SOL    HW1 7794   3.815   6.328   4.716  0.0365 -0.7862 -0.5123
 2413SOL    HW2 7795   3.911   6.444   4.712  0.1630 -0.8804 -0.2169
 2414SOL     OW 7796   1.875   7.523   6.929 -0.0368 -0.3923  0.3088
 2414SOL    HW1 7797   1.913   7.521   6.841  0.7590  0.5523  0.6070
 2414SOL    HW2 7798   1.924   7.457   6.977 -0.3157 -0.7482  0.1106
 2415SOL     OW 7799   0.909   7.154   2.866  0.3368  0.0921 -0.0734
 2415SOL    HW1 7800   0.927   7.240   2.829  1.5839 -0.5912 -1.1613
 2415SOL    HW2 7801   0.958   7.093   2.810  0.2957 -1.2326  1.2525
 2416SOL     OW 7802   1.805   3.377   0.393 -0.2279 -0.2888  0.1961
 2416SOL    HW1 7803   1.790   3.332   0.476 -0.2991  1.0623  0.9482
 2416SOL    HW2 7804   1.874   3.326   0.350  1.1582  0.0237  1.9239
 2417SOL     OW 7805   2.071   0.310   1.439  0.1954  0.4109  0.7884
 2417SOL    HW1 7806   2.001   0.257   1.479 -0.7144  0.8870 -0.1219
 2417SOL    HW2 7807   2.111   0.355   1.513 -2.1406  2.0806  1.1646
 2418SOL     OW 7808   0.814   3.519   0.716  0.1525 -0.1222  0.2665
 2418SOL    HW1 7809   0.831   3.514   0.810  1.0056  0.7443  0.1737
 2418SOL    HW2 7810   0.750   3.590   0.707 -0.9740 -1.1008  0.2966
 2419SOL     OW 7811   3.518   0.578   1.329 -0.7170 -0.0135 -0.4379
 2419SOL    HW1 7812   3.503   0.518   1.256 -0.2806  0.3303 -0.8125
 2419SOL    HW2 7813   3.490   0.663   1.295  2.2637  0.7378 -1.2856
 2420SOL     OW 7814   0.947   6.603   0.410  0.0723  0.6543 -0.1055
 2420SOL    HW1 7815   0.934   6.595   0.504 -1.0238 -0.4339 -0.3317
 2420SOL    HW2 7816   0.859   6.594   0.372  0.7876 -1.5965 -1.3828
 2421SOL     OW 7817   2.153   3.156   3.958  0.1210  0.4041 -0.9820
 2421SOL    HW1 7818   2.226   3.120   4.009  0.6325  2.8291  0.1137
 2421SOL    HW2 7819   2.187   3.164   3.870  0.2877 -0.8787 -1.0541
 2422SOL     OW 7820   5.687   1.113   6.715 -0.0411  0.2542 -0.2755
 2422SOL    HW1 7821   5.715   1.061   6.791  1.1363 -0.9093 -1.4402
 2422SOL    HW2 7822   5.591   1.112   6.720 -0.0000  0.5562  1.3920
 2423SOL     OW 7823   4.352   1.212   3.459 -0.3447 -0.1592 -0.0310
 2423SOL    HW1 7824   4.346   1.266   3.379 -0.6346  0.1248  0.1796
 2423SOL    HW2 7825   4.417   1.145   3.437  0.6838  0.7948  0.0042
 2424SOL     OW 7826   1.868   1.744   6.130  0.1153  0.1883  0.0502
 2424SOL    HW1 7827   1.777   1.741   6.161 -0.5734  0.3326 -1.8456
 2424SOL    HW2 7828   1.898   1.832   6.154  0.3198 -0.3818  2.0789
 2425SOL     OW 7829   1.502   0.666   0.451  0.2482 -0.2674  0.4938
 2425SOL    HW1 7830   1.466   0.694   0.535  0.5153 -0.1430  0.5669
 2425SOL    HW2 7831   1.451   0.714   0.386 -0.0388 -0.4542  0.5799
 2426SOL     OW 7832   3.614   4.647   2.753  0.1571 -0.1595  0.2860
 2426SOL    HW1 7833   3.579   4.683   2.835 -0.1316 -1.3741  0.7171
 2426SOL    HW2 7834   3.547   4.585   2.724 -1.5426  2.7879 -2.8506
 2427SOL     OW 7835   0.388   3.327   7.044  0.4103  0.8893  0.2795
 2427SOL    HW1 7836   0.376   3.265   7.116 -1.3486  1.9292  0.9555
 2427SOL    HW2 7837   0.427   3.275   6.974 -2.5289 -1.5272  0.2046
 2428SOL     OW 7838   4.158   3.817   1.438  0.2253 -0.3817  0.2747
 2428SOL    HW1 7839   4.218   3.892   1.439  3.1876 -2.5392 -0.3927
 2428SOL    HW2 7840   4.195   3.756   1.502 -0.2938 -2.4662 -1.2762
 2429SOL     OW 7841   6.944   6.810   7.319  0.3637 -0.2474 -0.1549
 2429SOL    HW1 7842   6.900   6.812   7.404 -0.4762  0.2895 -0.5817
 2429SOL    HW2 7843   6.888   6.864   7.263  2.6505  2.2285 -0.2300
 2430SOL     OW 7844   1.096   3.335   5.047  0.3899  0.0939  0.7318
 2430SOL    HW1 7845   1.058   3.247   5.046 -0.2404  0.3647 -0.2426
 2430SOL    HW2 7846   1.021   3.393   5.064  0.1487  0.6978 -1.9846
 2431SOL     OW 7847   4.169   0.347   2.726  0.1453  0.0519 -0.4294
 2431SOL    HW1 7848   4.212   0.357   2.811  1.4598 -1.4765 -0.8689
 2431SOL    HW2 7849   4.231   0.387   2.664  1.1807 -2.4008 -1.1040
 2432SOL     OW 7850   7.394   0.053   5.245 -0.1022 -0.1745  0.3367
 2432SOL    HW1 7851   7.343  -0.017   5.203 -1.3717  1.2426 -0.5644
 2432SOL    HW2 7852   7.479   0.050   5.202 -0.6862 -0.1244 -0.8549
 2433SOL     OW 7853   4.429   6.657   7.401 -0.8135  0.2081 -0.3698
 2433SOL    HW1 7854   4.406   6.622   7.315  0.5682  2.1196 -1.6056
 2433SOL    HW2 7855   4.502   6.602   7.430 -1.5820 -0.7368 -0.1715
 2434SOL     OW 7856   6.710   7.053   7.720 -0.5650  0.2063  0.7432
 2434SOL    HW1 7857   6.743   7.067   7.631  0.4629 -1.1607  0.8770
 2434SOL    HW2 7858   6.721   7.138   7.762 -1.7223  1.0814 -0.5969
 2435SOL     OW 7859   1.730   5.782   2.054 -0.5299  0.3974 -0.5273
 2435SOL    HW1 7860   1.720   5.729   1.974  0.8182 -1.4765  0.4675
 2435SOL    HW2 7861   1.807   5.836   2.037 -0.3280  0.1037 -0.5557
 2436SOL     OW 7862   4.411   6.950   0.672  0.3526  0.0498 -0.4702
 2436SOL    HW1 7863   4.342   7.015   0.686  1.8398  1.5220  0.4434
 2436SOL    HW2 7864   4.453   6.976   0.590  0.1791 -0.5107 -0.7414
 2437SOL     OW 7865   3.111   5.406   3.076 -0.8159 -0.0059 -0.2772
 2437SOL    HW1 7866   3.094   5.312   3.068 -2.3050  0.3064 -1.1442
 2437SOL    HW2 7867   3.185   5.422   3.018 -0.5341 -0.6314 -0.1047
 2438SOL     OW 7868   5.386   2.120   0.194  0.6879 -0.3642  0.5119
 2438SOL    HW1 7869   5.366   2.026   0.195  0.1449 -0.2514  1.3676
 2438SOL    HW2 7870   5.319   2.158   0.137 -1.0583 -0.1150  2.6078
 2439SOL     OW 7871   4.962   5.535   2.255 -0.1875  0.1740  0.7574
 2439SOL    HW1 7872   5.051   5.559   2.280 -0.1395 -0.1827  0.9297
 2439SOL    HW2 7873   4.972   5.463   2.193 -0.3377  0.5320  0.3110
 2440SOL     OW 7874   3.850   0.753   0.984 -0.0842  0.5896  0.2589
 2440SOL    HW1 7875   3.900   0.758   0.902 -1.0264  1.0599 -0.3107
 2440SOL    HW2 7876   3.851   0.842   1.018  0.3068  0.3924  0.7621
 2441SOL     OW 7877   1.106   3.583   0.682 -0.5647 -0.0079 -0.0442
 2441SOL    HW1 7878   1.015   3.572   0.708 -0.4032  1.5389  1.3643
 2441SOL    HW2 7879   1.103   3.615   0.592 -1.3963 -0.1304 -0.0642
 2442SOL     OW 7880   1.840   1.254   2.944  0.0391 -0.7103  0.3255
 2442SOL    HW1 7881   1.754   1.212   2.941 -0.2099 -0.1602 -0.9437
 2442SOL    HW2 7882   1.901   1.185   2.916  0.1810 -1.4160  2.2294
 2443SOL     OW 7883   6.102   4.340   0.501 -0.4956 -0.0297 -0.0025
 2443SOL    HW1 7884   6.128   4.394   0.426 -2.0214  1.0203  0.1702
 2443SOL    HW2 7885   6.149   4.258   0.489 -0.8115  0.0454 -2.2180
 2444SOL     OW 7886   6.739   0.982   4.489  0.2947 -0.4638 -0.0991
 2444SOL    HW1 7887   6.761   1.056   4.431  1.6106 -1.6187 -1.1478
 2444SOL    HW2 7888   6.824   0.953   4.523 -0.1487 -1.7471 -0.0376
 2445SOL     OW 7889   0.990   1.941   1.473 -0.4885  0.1140 -0.8104
 2445SOL    HW1 7890   1.036   1.903   1.548  0.2068  1.3207 -0.6123
 2445SOL    HW2 7891   1.015   1.885   1.399 -0.8753 -0.8536 -0.2339
 2446SOL     OW 7892   1.173   5.578   0.691  0.2859  0.3084  0.1754
 2446SOL    HW1 7893   1.120   5.509   0.732 -1.0192  2.4641  2.4618
 2446SOL    HW2 7894   1.264   5.553   0.709 -0.2063  0.4584  3.5271
 2447SOL     OW 7895   7.305   7.290   4.878  0.2308 -0.3901  0.0219
 2447SOL    HW1 7896   7.370   7.269   4.944 -1.7414 -0.3359  2.1226
 2447SOL    HW2 7897   7.221   7.279   4.923 -1.2154  0.0109 -2.3915
 2448SOL     OW 7898   4.453   2.091   4.733 -0.1300  0.9361  0.0443
 2448SOL    HW1 7899   4.433   2.184   4.719  0.3500  1.2205  1.1360
 2448SOL    HW2 7900   4.542   2.081   4.699 -0.5538  0.6143 -1.0311
 2449SOL     OW 7901   5.156   1.955   4.126  0.3845  0.1903 -0.0337
 2449SOL    HW1 7902   5.112   2.009   4.061  0.4857 -1.6288 -1.6979
 2449SOL    HW2 7903   5.248   1.981   4.122  0.2552  0.6559 -0.0111
 2450SOL     OW 7904   1.956   6.440   1.498 -0.3440 -0.1146  0.0133
 2450SOL    HW1 7905   1.949   6.508   1.564 -0.6443  1.6476 -1.7332
 2450SOL    HW2 7906   1.917   6.478   1.420  0.0472 -2.0806 -1.2251
 2451SOL     OW 7907   4.664   1.596   1.509 -0.0877  0.1658 -0.2285
 2451SOL    HW1 7908   4.697   1.615   1.421 -0.6443  2.7211  0.0393
 2451SOL    HW2 7909   4.735   1.623   1.568 -0.3542  0.0219  0.1632
 2452SOL     OW 7910   6.014   3.326   3.347  0.2542 -0.5002  0.4414
 2452SOL    HW1 7911   6.059   3.399   3.304  0.1078 -0.3306  0.5722
 2452SOL    HW2 7912   6.041   3.331   3.438 -0.6445  0.0957  0.6926
 2453SOL     OW 7913   4.413   0.367   3.178 -0.0616  0.3874 -0.5041
 2453SOL    HW1 7914   4.438   0.458   3.165 -0.2617  0.2632 -1.9058
 2453SOL    HW2 7915   4.490   0.317   3.151 -0.3976  0.1143 -0.9701
 2454SOL     OW 7916   1.088   1.015   4.983  0.7342 -0.5417 -0.4437
 2454SOL    HW1 7917   1.004   0.972   4.970  1.0716 -1.5490  0.5206
 2454SOL    HW2 7918   1.153   0.946   4.965  1.2974 -0.3071  0.6085
 2455SOL     OW 7919   4.792   5.895   0.185  0.1020  0.1704 -0.5892
 2455SOL    HW1 7920   4.838   5.901   0.268  1.7566 -2.1841 -1.2196
 2455SOL    HW2 7921   4.700   5.914   0.206  0.2967 -1.3737  1.9903
 2456SOL     OW 7922   4.786   5.237   6.905 -0.1246  0.3063  0.2218
 2456SOL    HW1 7923   4.734   5.184   6.845  0.3177 -1.7550  1.5569
 2456SOL    HW2 7924   4.750   5.216   6.992  0.6602  1.5525  0.8793
 2457SOL     OW 7925   0.426   4.548   2.937 -0.1645  0.0312  0.5078
 2457SOL    HW1 7926   0.385   4.534   2.852  0.9604  1.2167 -0.2703
 2457SOL    HW2 7927   0.435   4.643   2.945  1.5505 -0.1239  1.0358
 2458SOL     OW 7928   4.131   7.495   6.179  0.2908 -0.4056 -0.5195
 2458SOL    HW1 7929   4.070   7.515   6.250 -1.0052  1.0271 -1.9510
 2458SOL    HW2 7930   4.146   7.401   6.186 -0.6053 -0.4548  1.0322
 2459SOL     OW 7931   1.055   0.370   4.083 -0.3307  0.5270  0.2406
 2459SOL    HW1 7932   1.108   0.379   4.162  0.6001 -1.3466 -0.1267
 2459SOL    HW2 7933   1.118   0.350   4.014 -1.4378 -1.7121 -0.2192
 2460SOL     OW 7934   2.886   5.758   0.601  0.3711 -0.5156 -0.3043
 2460SOL    HW1 7935   2.919   5.681   0.647  0.3942 -0.6786 -0.5927
 2460SOL    HW2 7936   2.912   5.745   0.510 -0.4852 -0.6598 -0.5463
 2461SOL     OW 7937   7.309   2.945   4.283 -0.0560  0.1520 -0.0473
 2461SOL    HW1 7938   7.276   2.881   4.345 -2.4225  1.4623  0.1365
 2461SOL    HW2 7939   7.303   2.902   4.198 -2.1604  0.2488  0.0058
 2462SOL     OW 7940   3.324   0.614   5.885  0.0889  0.3162 -0.0613
 2462SOL    HW1 7941   3.259   0.651   5.826 -0.0093  1.1177  0.5325
 2462SOL    HW2 7942   3.287   0.530   5.913 -0.2609  0.3440 -0.4332
 2463SOL     OW 7943   6.732   2.762   7.418  0.2459  0.4489 -0.3914
 2463SOL    HW1 7944   6.666   2.806   7.365  0.5256 -0.2937 -1.3756
 2463SOL    HW2 7945   6.691   2.752   7.504 -0.2567  1.5496 -0.4829
 2464SOL     OW 7946   4.548   7.131   2.257  0.0388 -0.3939  0.6317
 2464SOL    HW1 7947   4.495   7.146   2.179  0.1466 -0.2394  0.5885
 2464SOL    HW2 7948   4.517   7.195   2.321  1.8544  1.4286 -0.2069
 2465SOL     OW 7949   4.604   1.497   5.415  0.3275  0.4436  0.4044
 2465SOL    HW1 7950   4.646   1.413   5.428 -1.1467 -0.9024 -2.4207
 2465SOL    HW2 7951   4.644   1.532   5.335 -1.7672  0.4573 -0.7276
 2466SOL     OW 7952   7.371   2.644   1.023  0.2584 -0.2517  0.0518
 2466SOL    HW1 7953   7.463   2.656   0.999  0.1755 -1.6331 -1.0640
 2466SOL    HW2 7954   7.357   2.708   1.093  1.9628  0.2370  0.0088
 2467SOL     OW 7955   2.580   5.013   0.369 -0.4443 -0.0978  0.1344
 2467SOL    HW1 7956   2.638   4.937   0.377 -0.9374 -0.3077  1.9724
 2467SOL    HW2 7957   2.532   4.997   0.287  0.1975 -1.2381 -0.0424
 2468SOL     OW 7958   1.634   2.886   0.483 -0.0648 -0.5513 -0.0043
 2468SOL    HW1 7959   1.564   2.837   0.439 -0.8057  0.3539  0.1396
 2468SOL    HW2 7960   1.591   2.963   0.518  0.9471 -0.1622  0.4230
 2469SOL     OW 7961   2.567   2.275   3.197 -0.0626 -0.0111  0.0795
 2469SOL    HW1 7962   2.540   2.186   3.218  0.3526 -0.2129 -0.2120
 2469SOL    HW2 7963   2.553   2.325   3.277  1.3158 -0.7217  0.8039
 2470SOL     OW 7964   4.000   5.482   2.193 -0.2059  0.6625  0.0072
 2470SOL    HW1 7965   4.081   5.480   2.142  0.0296  1.4890  0.3310
 2470SOL    HW2 7966   3.984   5.391   2.216  1.4294  0.6403  1.1706
 2471SOL     OW 7967   5.291   4.772   6.275 -0.0885  0.0975 -0.1376
 2471SOL    HW1 7968   5.242   4.837   6.326  0.1829  0.9456 -0.9191
 2471SOL    HW2 7969   5.261   4.786   6.185 -0.7159 -1.5047 -0.2072
 2472SOL     OW 7970   4.578   1.579   4.165  0.0360 -0.0239 -0.3641
 2472SOL    HW1 7971   4.510   1.518   4.138  0.4674 -0.1571 -1.2019
 2472SOL    HW2 7972   4.531   1.656   4.196 -0.4994 -0.4562 -0.0906
 2473SOL     OW 7973   1.111   0.500   2.711 -0.7024  0.2816  0.3061
 2473SOL    HW1 7974   1.033   0.499   2.766 -1.1826 -1.6723 -0.3119
 2473SOL    HW2 7975   1.096   0.429   2.648  1.0446  0.6632 -0.6009
 2474SOL     OW 7976   4.283   5.335   2.352  0.8069  0.1433  0.6555
 2474SOL    HW1 7977   4.194   5.329   2.318  0.6491  0.0193  1.0797
 2474SOL    HW2 7978   4.333   5.378   2.283  0.2132  1.0765  0.8034
 2475SOL     OW 7979   5.361   7.173   6.766  0.0595 -0.1344  0.0615
 2475SOL    HW1 7980   5.427   7.154   6.832  0.5521 -0.8586 -0.6159
 2475SOL    HW2 7981   5.321   7.255   6.795  2.0996  1.0186 -0.1405
 2476SOL     OW 7982   5.374   2.254   2.099  0.0107  0.2200  0.1869
 2476SOL    HW1 7983   5.385   2.264   2.005  0.8519  0.7627  0.3280
 2476SOL    HW2 7984   5.292   2.298   2.119 -0.6310 -0.6829 -0.4128
 2477SOL     OW 7985   3.483   6.752   4.460  0.8947  0.1388 -0.4033
 2477SOL    HW1 7986   3.419   6.716   4.522  2.0412 -1.0847  0.1298
 2477SOL    HW2 7987   3.459   6.714   4.375 -1.0175  2.2527 -0.9035
 2478SOL     OW 7988   7.739   4.750   1.334 -0.6586 -0.2981  0.1806
 2478SOL    HW1 7989   7.700   4.827   1.376  0.6735  1.0123 -0.8667
 2478SOL    HW2 7990   7.780   4.702   1.406 -0.1746  0.8035  0.6641
 2479SOL     OW 7991   5.042   3.564   6.347 -0.1992  0.1739 -0.0231
 2479SOL    HW1 7992   5.003   3.646   6.315 -0.7801 -0.5398 -1.2002
 2479SOL    HW2 7993   5.035   3.570   6.442  0.3377  1.7581 -0.0583
 2480SOL     OW 7994   3.624   2.402   6.369 -0.6484  0.7068  0.0950
 2480SOL    HW1 7995   3.634   2.413   6.274 -1.1747  0.2351 -0.0246
 2480SOL    HW2 7996   3.673   2.475   6.407  0.7601  0.1199 -0.5021
 2481SOL     OW 7997   1.552   4.977   3.482  0.5665 -0.0005  0.0628
 2481SOL    HW1 7998   1.521   4.910   3.543 -0.3874  0.6367  0.3243
 2481SOL    HW2 7999   1.501   5.055   3.506  0.9185  0.5372 -0.8870
 2482SOL     OW 8000   7.558   3.451   1.812  0.5813 -0.3942 -0.3177
 2482SOL    HW1 8001   7.485   3.424   1.757 -1.0906 -2.4742  2.6607
 2482SOL    HW2 8002   7.519   3.510   1.877  2.0627  0.3857 -0.0778
 2483SOL     OW 8003   6.654   6.651   2.785  0.1308  0.7146  0.2480
 2483SOL    HW1 8004   6.629   6.568   2.743 -0.4406  1.8064 -1.6749
 2483SOL    HW2 8005   6.650   6.632   2.879  1.1742 -1.7625 -0.1237
 2484SOL     OW 8006   1.496   5.890   5.702  0.0974 -0.2264 -0.4070
 2484SOL    HW1 8007   1.410   5.931   5.714 -0.8015 -1.9508 -0.5708
 2484SOL    HW2 8008   1.559   5.959   5.722 -1.3217  0.5889  1.5190
 2485SOL     OW 8009   0.302   0.403   1.060  0.3612 -0.0824 -0.6382
 2485SOL    HW1 8010   0.362   0.445   0.999 -1.2562  1.1312 -1.4844
 2485SOL    HW2 8011   0.290   0.468   1.130 -1.2684  0.4611 -1.3699
 2486SOL     OW 8012   6.336   0.881   6.144 -0.6112 -0.4955  0.3998
 2486SOL    HW1 8013   6.269   0.917   6.202  0.5236 -0.6604  1.8745
 2486SOL    HW2 8014   6.359   0.953   6.085 -2.4207 -0.5943 -0.4933
 2487SOL     OW 8015   6.180   4.467   4.465 -0.0706 -0.1930  0.6257
 2487SOL    HW1 8016   6.240   4.503   4.529  0.3591  0.2487 -0.0141
 2487SOL    HW2 8017   6.233   4.455   4.386 -0.5216 -0.9974  0.4374
 2488SOL     OW 8018   3.057   4.038   7.686 -0.3120  0.1156 -0.6346
 2488SOL    HW1 8019   2.978   4.092   7.687  0.4907  1.3461 -1.6025
 2488SOL    HW2 8020   3.122   4.091   7.732  0.0282 -0.7852 -0.0638
 2489SOL     OW 8021   2.312   3.673   3.083  0.2255  0.1299  0.3330
 2489SOL    HW1 8022   2.270   3.713   3.160 -0.7288  0.5496 -0.3881
 2489SOL    HW2 8023   2.239   3.641   3.030  0.8526  0.2022 -0.5974
 2490SOL     OW 8024   5.852   7.204   7.614 -0.1660  0.2336  0.0107
 2490SOL    HW1 8025   5.842   7.207   7.709  0.9638 -0.9344  0.1995
 2490SOL    HW2 8026   5.794   7.273   7.581 -0.7233  0.5239  1.5257
 2491SOL     OW 8027   4.845   1.223   0.936 -0.4464  0.3992 -0.1681
 2491SOL    HW1 8028   4.830   1.128   0.938  0.5585  0.2086 -0.9328
 2491SOL    HW2 8029   4.918   1.234   0.876  0.8780  1.4824  1.5515
 2492SOL     OW 8030   2.940   3.227   3.771  0.3652 -0.3286  0.2423
 2492SOL    HW1 8031   2.855   3.201   3.807  0.5342  0.6592  1.3905
 2492SOL    HW2 8032   2.919   3.262   3.685  0.0096 -3.1645 -0.9500
 2493SOL     OW 8033   4.651   6.836   1.084 -0.0472 -0.3026  0.6220
 2493SOL    HW1 8034   4.729   6.857   1.136 -0.0868 -1.0692  0.9970
 2493SOL    HW2 8035   4.578   6.850   1.143 -0.0869 -1.2754  0.8116
 2494SOL     OW 8036   3.813   3.400   4.574  0.2839 -0.3300 -0.2543
 2494SOL    HW1 8037   3.856   3.443   4.500 -0.0470  1.1862  0.3894
 2494SOL    HW2 8038   3.881   3.397   4.641 -0.0529  0.3654  0.1292
 2495SOL     OW 8039   1.241   4.120   7.335  0.3072 -0.0482 -0.7186
 2495SOL    HW1 8040   1.307   4.150   7.272  0.7532 -1.6436 -1.0516
 2495SOL    HW2 8041   1.255   4.176   7.412 -1.5884  3.3582 -2.6385
 2496SOL     OW 8042   1.136   0.215   1.118 -0.2390  0.3459  0.0669
 2496SOL    HW1 8043   1.161   0.250   1.203 -0.0786 -0.3101  0.2879
 2496SOL    HW2 8044   1.212   0.163   1.090 -0.2712  0.5891 -0.4986
 2497SOL     OW 8045   6.899   4.641   4.871  0.1762 -0.2396 -0.0708
 2497SOL    HW1 8046   6.821   4.691   4.897  1.2964  1.6335 -0.1555
 2497SOL    HW2 8047   6.886   4.623   4.778  0.1377  0.6595 -0.2459
 2498SOL     OW 8048   7.165   2.646   6.263  0.0132  0.6770  0.0020
 2498SOL    HW1 8049   7.081   2.600   6.265 -0.1697  0.9969  1.7643
 2498SOL    HW2 8050   7.193   2.642   6.172 -0.8153 -1.4171 -0.2208
 2499SOL     OW 8051   4.058   4.966   3.330  0.6238 -0.0248 -0.1800
 2499SOL    HW1 8052   4.066   4.898   3.397 -0.8184 -1.1688 -1.1041
 2499SOL    HW2 8053   4.142   5.012   3.333  1.4437 -1.4802  0.8598
 2500SOL     OW 8054   0.046   1.560   6.191 -0.3161 -0.1261  0.2627
 2500SOL    HW1 8055   0.104   1.635   6.196  0.6693 -0.8084 -0.4278
 2500SOL    HW2 8056   0.098   1.493   6.146 -1.0507 -1.3190  1.1420
 2501SOL     OW 8057   6.611   2.583   0.703  0.6716 -0.4339 -0.2068
 2501SOL    HW1 8058   6.532   2.636   0.720  0.2950 -0.9564 -0.3005
 2501SOL    HW2 8059   6.682   2.634   0.741  0.0564 -0.8482  1.5727
 2502SOL     OW 8060   4.866   5.265   3.781  0.0563  0.4121  0.2020
 2502SOL    HW1 8061   4.848   5.258   3.687 -0.5754  1.4653  0.2308
 2502SOL    HW2 8062   4.843   5.179   3.815 -1.6917  0.6367 -0.3123
 2503SOL     OW 8063   5.319   1.009   3.491 -0.1421 -0.1996 -0.0668
 2503SOL    HW1 8064   5.224   1.004   3.478 -0.1236 -0.0243 -0.2808
 2503SOL    HW2 8065   5.331   1.087   3.545 -0.0665  0.2080 -0.6556
 2504SOL     OW 8066   7.740   2.246   0.699 -0.4021 -0.0836  0.0957
 2504SOL    HW1 8067   7.764   2.162   0.659 -1.3039 -1.4172  2.1814
 2504SOL    HW2 8068   7.645   2.250   0.688 -0.1731  1.6973 -1.7641
 2505SOL     OW 8069   6.320   7.048   3.122  0.0185  0.6252  0.7639
 2505SOL    HW1 8070   6.358   6.971   3.165  0.8820  1.6996  1.9939
 2505SOL    HW2 8071   6.373   7.060   3.043  0.2739  0.3060  0.8850
 2506SOL     OW 8072   6.710   4.763   6.434  0.2019 -0.7217 -0.0956
 2506SOL    HW1 8073   6.715   4.745   6.528  0.1787  0.8562  0.2227
 2506SOL    HW2 8074   6.774   4.833   6.419 -1.6276  0.9010 -0.7752
 2507SOL     OW 8075   1.504   3.320   7.405 -0.1361  0.7789 -1.1610
 2507SOL    HW1 8076   1.481   3.255   7.338 -0.1457  0.0274 -0.4495
 2507SOL    HW2 8077   1.424   3.371   7.418 -0.3890  0.3734 -1.1119
 2508SOL     OW 8078   1.880   3.203   2.715  0.0131  0.1185  0.2780
 2508SOL    HW1 8079   1.966   3.244   2.726 -0.0228  0.1217  0.5666
 2508SOL    HW2 8080   1.872   3.189   2.621  0.0404  0.7474  0.1750
 2509SOL     OW 8081   1.313   4.565   1.043  0.5417 -0.6009  0.0094
 2509SOL    HW1 8082   1.325   4.597   0.954  0.8078 -1.1887 -0.1713
 2509SOL    HW2 8083   1.220   4.540   1.047  0.5567 -0.6785 -0.1347
 2510SOL     OW 8084   6.164   0.548   3.234 -0.0723 -0.0108  0.4133
 2510SOL    HW1 8085   6.222   0.501   3.175 -0.4270 -0.7680  0.6564
 2510SOL    HW2 8086   6.086   0.493   3.241  0.8153 -1.1131  3.3082
 2511SOL     OW 8087   3.154   3.741   6.284  0.1653  0.1397  0.4072
 2511SOL    HW1 8088   3.089   3.811   6.273 -0.1158 -0.1533  0.1618
 2511SOL    HW2 8089   3.208   3.769   6.357  0.4010  0.8765 -0.0473
 2512SOL     OW 8090   5.098   2.083   5.108 -0.0307 -0.0147  0.1378
 2512SOL    HW1 8091   5.003   2.093   5.102 -0.0191  0.1680  0.2516
 2512SOL    HW2 8092   5.112   1.993   5.138 -0.1341 -0.4550 -1.0829
 2513SOL     OW 8093   3.748   5.066   4.062  0.3164 -0.2352  0.0818
 2513SOL    HW1 8094   3.843   5.084   4.060  0.1589  0.6009 -0.3230
 2513SOL    HW2 8095   3.738   4.984   4.015  0.5136  1.2789 -2.7884
 2514SOL     OW 8096   7.421   2.420   1.746  0.0305 -0.4654 -0.0834
 2514SOL    HW1 8097   7.381   2.505   1.766 -3.0614 -1.6954 -0.3750
 2514SOL    HW2 8098   7.409   2.368   1.825  0.1623 -1.1776 -0.5199
 2515SOL     OW 8099   2.374   5.346   4.585 -0.2530 -0.5145 -0.3074
 2515SOL    HW1 8100   2.428   5.346   4.506  0.9244  1.0473  0.4419
 2515SOL    HW2 8101   2.290   5.383   4.558  0.3998  0.7141 -0.6899
 2516SOL     OW 8102   3.726   1.929   6.998 -0.0770  0.0180 -0.1625
 2516SOL    HW1 8103   3.654   1.954   6.940 -0.0986  2.8974  0.9375
 2516SOL    HW2 8104   3.690   1.859   7.053 -1.5325  0.3883 -0.6208
 2517SOL     OW 8105   7.257   3.171   7.117  0.8179 -0.0180  0.1519
 2517SOL    HW1 8106   7.277   3.090   7.163  0.5487 -0.6842 -0.8811
 2517SOL    HW2 8107   7.329   3.183   7.055 -0.2396 -0.6690 -1.2549
 2518SOL     OW 8108   2.004   6.725   2.611 -0.3118 -0.1595 -0.2435
 2518SOL    HW1 8109   1.999   6.739   2.516  0.1666 -1.6156 -0.5048
 2518SOL    HW2 8110   1.953   6.645   2.626  1.5303 -1.2797  0.3821
 2519SOL     OW 8111   3.869   7.001   0.344  0.3520 -0.0409 -0.2900
 2519SOL    HW1 8112   3.806   6.933   0.367  0.5862 -0.5465 -1.0908
 2519SOL    HW2 8113   3.871   7.000   0.248  1.0249  0.4842 -0.2896
 2520SOL     OW 8114   0.128   3.341   5.707 -0.0969  0.1592  0.4254
 2520SOL    HW1 8115   0.075   3.408   5.663 -1.0299  0.1009  1.4289
 2520SOL    HW2 8116   0.132   3.269   5.644 -0.9911  0.2749  0.2254
 2521SOL     OW 8117   6.004   4.615   7.400  0.8185 -0.4247 -0.1963
 2521SOL    HW1 8118   5.988   4.691   7.343  1.3288 -0.4650 -0.3947
 2521SOL    HW2 8119   6.019   4.652   7.486  1.2219 -0.2869 -0.3238
 2522SOL     OW 8120   2.388   7.609   0.060 -0.5783  0.1479  0.0574
 2522SOL    HW1 8121   2.435   7.538   0.015 -0.2973  0.6019 -0.3802
 2522SOL    HW2 8122   2.400   7.591   0.153  0.0426 -0.0241 -0.0517
 2523SOL     OW 8123   4.057   6.227   5.508  0.9461 -0.2338  0.2991
 2523SOL    HW1 8124   4.028   6.242   5.598  0.2652 -0.5067  0.1310
 2523SOL    HW2 8125   3.985   6.179   5.467  0.9770  0.4358 -0.5761
 2524SOL     OW 8126   2.060   4.655   2.278 -0.1705  0.4261  0.2454
 2524SOL    HW1 8127   2.039   4.746   2.300  0.0717  0.6669 -0.5083
 2524SOL    HW2 8128   2.103   4.621   2.357 -0.0033  1.0481  0.4283
 2525SOL     OW 8129   0.818   5.311   5.895  0.1884  0.4884  0.0169
 2525SOL    HW1 8130   0.831   5.318   5.989  1.3349 -1.0016  0.0080
 2525SOL    HW2 8131   0.735   5.263   5.885 -1.3215  2.9295  0.1871
 2526SOL     OW 8132   0.956   2.225   3.297  0.6547  0.3215  0.1040
 2526SOL    HW1 8133   0.891   2.268   3.241 -0.2434  0.1940  1.0130
 2526SOL    HW2 8134   0.991   2.154   3.243  0.5888  0.8563 -0.6597
 2527SOL     OW 8135   5.781   6.281   4.834  0.4124  0.1121 -0.2706
 2527SOL    HW1 8136   5.716   6.238   4.779  0.4642  1.6804 -1.6039
 2527SOL    HW2 8137   5.733   6.304   4.914 -0.7413  1.3672 -1.2886
 2528SOL     OW 8138   3.650   3.188   4.947 -0.3961 -0.2711 -0.3022
 2528SOL    HW1 8139   3.674   3.121   5.011  1.5253  0.9752  0.3741
 2528SOL    HW2 8140   3.584   3.146   4.892  1.1190 -2.9165 -0.2780
 2529SOL     OW 8141   4.265   5.480   0.758  0.0009 -0.0072  0.0350
 2529SOL    HW1 8142   4.255   5.492   0.853  0.4903  0.8993 -0.0150
 2529SOL    HW2 8143   4.228   5.394   0.741 -1.7826  0.5745  0.7675
 2530SOL     OW 8144   6.452   1.101   7.248  0.3584  0.2163 -0.2462
 2530SOL    HW1 8145   6.366   1.067   7.274  1.0137 -0.4010  1.1985
 2530SOL    HW2 8146   6.511   1.073   7.318  1.5396  1.6033 -0.6528
 2531SOL     OW 8147   2.284   5.359   3.043  0.2535  0.1205 -0.2173
 2531SOL    HW1 8148   2.333   5.424   2.993 -0.3918  0.8570  0.0852
 2531SOL    HW2 8149   2.350   5.312   3.093  0.8426 -0.2087 -1.2793
 2532SOL     OW 8150   7.717   5.272   2.445 -0.2192  0.5437  0.1020
 2532SOL    HW1 8151   7.779   5.307   2.381  0.4475 -0.3451  0.2425
 2532SOL    HW2 8152   7.632   5.279   2.403  0.2764 -0.6514 -1.1735
 2533SOL     OW 8153   7.598   2.296   3.407  0.2670  0.3732  0.0323
 2533SOL    HW1 8154   7.645   2.240   3.346  0.7756  1.1489 -0.3024
 2533SOL    HW2 8155   7.660   2.365   3.431 -0.7710  1.6173 -0.6912
 2534SOL     OW 8156   2.822   7.628   0.857  0.0144 -0.4236 -0.6472
 2534SOL    HW1 8157   2.815   7.714   0.816  1.5255  0.4776  0.8558
 2534SOL    HW2 8158   2.909   7.596   0.831  0.9141  0.0643  1.5188
 2535SOL     OW 8159   6.264   4.960   2.759  0.0043 -0.0817  0.4570
 2535SOL    HW1 8160   6.248   4.877   2.714 -0.1086 -0.2981  0.8812
 2535SOL    HW2 8161   6.321   5.009   2.701 -0.1438 -0.3515  0.0804
 2536SOL     OW 8162   7.109   5.472   2.404 -0.2366 -0.0172  0.4685
 2536SOL    HW1 8163   7.099   5.560   2.440 -0.8275  0.6843 -1.3185
 2536SOL    HW2 8164   7.061   5.415   2.464  2.2546  0.4302  3.0903
 2537SOL     OW 8165   1.575   2.559   6.462  0.5165  0.6404 -0.1153
 2537SOL    HW1 8166   1.587   2.493   6.393 -0.3503  0.3653 -0.0151
 2537SOL    HW2 8167   1.545   2.509   6.538  1.4880  0.9436  0.4792
 2538SOL     OW 8168   6.284   7.397   2.847 -0.1750  0.0831 -0.2826
 2538SOL    HW1 8169   6.199   7.403   2.891 -1.1496  1.3117 -2.2219
 2538SOL    HW2 8170   6.268   7.339   2.773  1.2075 -1.2055  0.3675
 2539SOL     OW 8171   0.996   5.432   0.479  0.0693 -0.0107 -0.3251
 2539SOL    HW1 8172   1.087   5.461   0.484  0.2800 -0.8491  1.1893
 2539SOL    HW2 8173   0.946   5.507   0.512  0.4009 -0.2925  0.8846
 2540SOL     OW 8174   0.200   0.748   2.896 -0.3749  0.4951 -0.0885
 2540SOL    HW1 8175   0.109   0.721   2.913 -0.4836  0.2809 -0.9299
 2540SOL    HW2 8176   0.253   0.674   2.926 -0.5462  0.2049 -0.4843
 2541SOL     OW 8177   3.549   6.252   2.724  0.3225  0.4633  0.0334
 2541SOL    HW1 8178   3.607   6.256   2.648  1.3110 -3.0359  0.4380
 2541SOL    HW2 8179   3.466   6.220   2.689 -0.1197  1.5487  0.0588
 2542SOL     OW 8180   6.673   2.182   2.740  0.5002  0.5117  0.7023
 2542SOL    HW1 8181   6.653   2.093   2.711  0.1133  0.2196  1.8294
 2542SOL    HW2 8182   6.588   2.220   2.762  0.4083  1.9051 -1.7351
 2543SOL     OW 8183   7.304   0.361   1.743  0.0919  0.1398 -0.3552
 2543SOL    HW1 8184   7.254   0.389   1.820  0.2770  0.9278 -0.5124
 2543SOL    HW2 8185   7.237   0.331   1.681  0.0515 -3.2914  1.1284
 2544SOL     OW 8186   1.087   5.378   5.816  0.3835  0.1747 -0.3663
 2544SOL    HW1 8187   0.992   5.379   5.807  0.4615 -0.0788 -1.3200
 2544SOL    HW2 8188   1.102   5.347   5.906 -0.4457  1.6396  0.3157
 2545SOL     OW 8189   4.435   0.902   7.275  0.1412  0.0293  0.5907
 2545SOL    HW1 8190   4.518   0.902   7.228  0.5817  1.0355  1.3275
 2545SOL    HW2 8191   4.458   0.879   7.365 -0.2984  0.7357  0.8995
 2546SOL     OW 8192   6.605   4.106   5.292 -1.0601 -0.2764 -0.2181
 2546SOL    HW1 8193   6.619   4.197   5.320 -0.5352 -0.5376  0.4142
 2546SOL    HW2 8194   6.527   4.109   5.237 -1.7214  0.3824  0.7153
 2547SOL     OW 8195   1.294   4.804   5.517  0.4596 -0.3617  0.2546
 2547SOL    HW1 8196   1.236   4.830   5.589 -1.2263 -0.9270 -0.8277
 2547SOL    HW2 8197   1.265   4.715   5.495  0.2124  0.1965 -1.8125
 2548SOL     OW 8198   7.278   4.176   0.885 -0.1718 -0.2964 -0.2369
 2548SOL    HW1 8199   7.307   4.107   0.825  0.0517 -0.5099  0.1135
 2548SOL    HW2 8200   7.357   4.227   0.902 -0.2849 -0.0978 -0.3032
 2549SOL     OW 8201   2.342   2.956   4.870 -0.1147 -0.1323  0.3009
 2549SOL    HW1 8202   2.258   2.988   4.905 -0.5910  1.4649 -2.0676
 2549SOL    HW2 8203   2.408   3.006   4.919 -0.5526 -0.6609  1.4726
 2550SOL     OW 8204   6.797   2.879   3.786 -0.0476  0.0691 -0.5094
 2550SOL    HW1 8205   6.812   2.791   3.751  0.6942  0.1832 -0.4894
 2550SOL    HW2 8206   6.702   2.891   3.781  0.0369  0.3162 -3.0815
 2551SOL     OW 8207   0.448   5.480   6.488 -0.0169 -0.0669 -0.1301
 2551SOL    HW1 8208   0.471   5.545   6.555 -0.5489 -0.8928  0.8848
 2551SOL    HW2 8209   0.394   5.528   6.426 -1.2029  0.2614  1.1103
 2552SOL     OW 8210   6.323   7.283   6.194 -0.0624  0.2124  0.4415
 2552SOL    HW1 8211   6.309   7.243   6.280  1.5772 -1.2675  0.0731
 2552SOL    HW2 8212   6.312   7.377   6.210 -1.5915 -0.1510  1.8589
 2553SOL     OW 8213   1.794   5.335   2.494  1.0415 -0.2972 -0.2800
 2553SOL    HW1 8214   1.865   5.271   2.490  2.6028  1.3019  0.4110
 2553SOL    HW2 8215   1.715   5.282   2.503  2.3464 -2.1359  1.5297
 2554SOL     OW 8216   7.611   1.175   0.231 -0.2079  0.0631 -0.0598
 2554SOL    HW1 8217   7.638   1.085   0.248 -0.4812  0.0135  0.1238
 2554SOL    HW2 8218   7.551   1.169   0.157 -1.9188 -0.1885  1.2729
 2555SOL     OW 8219   6.067   6.739   2.836  0.7539  0.1929  0.1436
 2555SOL    HW1 8220   6.029   6.826   2.842  1.2190  0.4050  0.0897
 2555SOL    HW2 8221   6.137   6.739   2.902  0.3098 -0.3742  0.6260
 2556SOL     OW 8222   2.788   3.978   6.636 -0.4770  0.0148 -0.0210
 2556SOL    HW1 8223   2.780   3.925   6.715 -0.3047 -0.3009 -0.2124
 2556SOL    HW2 8224   2.848   4.048   6.660 -1.7961  0.9649  0.6705
 2557SOL     OW 8225   6.937   1.710   6.180 -0.1321 -0.0708  0.1014
 2557SOL    HW1 8226   6.886   1.706   6.099  0.7248  0.2676 -0.4761
 2557SOL    HW2 8227   6.963   1.619   6.196 -1.9453 -0.4574  1.1126
 2558SOL     OW 8228   2.613   1.063   2.202  0.8702 -0.3079 -0.5934
 2558SOL    HW1 8229   2.619   1.148   2.245 -0.2101 -0.0634 -0.9046
 2558SOL    HW2 8230   2.631   1.000   2.272 -1.9588  0.0360  0.5542
 2559SOL     OW 8231   2.360   4.475   0.290  0.1693  0.3130 -0.4956
 2559SOL    HW1 8232   2.455   4.465   0.289  0.0855 -0.8029  0.5641
 2559SOL    HW2 8233   2.339   4.508   0.203  1.5021  0.3001 -0.8448
 2560SOL     OW 8234   3.067   4.178   6.455  0.3343  0.7639 -0.0695
 2560SOL    HW1 8235   3.061   4.199   6.548  1.1366  1.5688 -0.1878
 2560SOL    HW2 8236   2.988   4.215   6.417  0.2662  0.9065  0.2051
 2561SOL     OW 8237   1.795   0.344   0.630 -0.5413  0.6153 -0.9075
 2561SOL    HW1 8238   1.802   0.381   0.718 -1.9156  0.3934 -0.6849
 2561SOL    HW2 8239   1.762   0.255   0.645  0.4069  0.1248 -1.5855
 2562SOL     OW 8240   0.995   5.337   1.076  0.3032 -0.3884  0.1402
 2562SOL    HW1 8241   0.943   5.257   1.073  1.3276 -1.0406 -1.3822
 2562SOL    HW2 8242   1.008   5.354   1.170 -1.0393 -1.2388  0.5067
 2563SOL     OW 8243   2.922   5.615   1.390  0.4994  0.1744 -0.3798
 2563SOL    HW1 8244   2.934   5.651   1.478 -0.1881  0.0399 -0.2208
 2563SOL    HW2 8245   2.943   5.522   1.399 -1.1021 -0.1807  0.0281
 2564SOL     OW 8246   4.980   1.422   5.453  0.1712 -0.4296 -0.0764
 2564SOL    HW1 8247   4.989   1.477   5.376 -2.3519 -0.6759 -0.6028
 2564SOL    HW2 8248   4.909   1.362   5.433  0.9609 -2.0509  1.5738
 2565SOL     OW 8249   0.955   6.667   7.052  0.6580 -0.1055  0.0136
 2565SOL    HW1 8250   0.942   6.762   7.052 -1.1647 -0.2605  2.1980
 2565SOL    HW2 8251   0.931   6.640   6.963  0.1400  1.3628 -0.3255
 2566SOL     OW 8252   3.103   4.271   4.378  0.3954 -0.0065 -0.2664
 2566SOL    HW1 8253   3.111   4.233   4.290 -0.4122 -0.4047 -0.1816
 2566SOL    HW2 8254   3.193   4.292   4.404  0.5798  0.8792 -1.5144
 2567SOL     OW 8255   2.894   3.880   6.885 -0.8245 -0.1616  0.2784
 2567SOL    HW1 8256   2.970   3.907   6.937 -0.6553 -3.2664  1.8679
 2567SOL    HW2 8257   2.857   3.806   6.933 -3.9877  0.2536 -1.2593
 2568SOL     OW 8258   1.270   5.487   6.666  0.2642  0.2265 -0.2335
 2568SOL    HW1 8259   1.341   5.431   6.698  0.8776 -0.2652 -2.2875
 2568SOL    HW2 8260   1.313   5.545   6.603 -0.7055  1.7817  0.4799
 2569SOL     OW 8261   4.891   1.541   1.856 -0.3860 -0.0058 -0.0684
 2569SOL    HW1 8262   4.840   1.542   1.937 -2.2885 -0.2789 -1.2001
 2569SOL    HW2 8263   4.839   1.490   1.795  0.6349  0.7939 -1.7015
 2570SOL     OW 8264   2.520   3.731   2.130 -0.7292  0.0308  0.1519
 2570SOL    HW1 8265   2.545   3.806   2.184 -0.6245  0.2329 -0.1731
 2570SOL    HW2 8266   2.478   3.770   2.053  1.2854 -0.1069 -1.0938
 2571SOL     OW 8267   3.703   5.602   3.199 -0.1138  0.0230  0.4589
 2571SOL    HW1 8268   3.756   5.528   3.228  0.4293 -0.0147 -0.5685
 2571SOL    HW2 8269   3.696   5.590   3.104 -3.3938 -0.9101  0.6921
 2572SOL     OW 8270   1.233   2.687   0.950  0.3252 -0.1349 -0.2487
 2572SOL    HW1 8271   1.321   2.717   0.926  0.5043 -0.5467 -0.1128
 2572SOL    HW2 8272   1.248   2.622   1.019  0.1575 -2.3924 -2.2047
 2573SOL     OW 8273   4.832   4.008   2.216 -0.3156  0.1118  0.0326
 2573SOL    HW1 8274   4.911   4.013   2.162 -0.0602 -0.6918  0.3058
 2573SOL    HW2 8275   4.795   3.922   2.196  0.0494 -0.4228  1.4504
 2574SOL     OW 8276   4.541   3.937   0.159 -0.6824 -0.8835 -0.3155
 2574SOL    HW1 8277   4.576   3.861   0.206  1.0809  0.2956  0.3561
 2574SOL    HW2 8278   4.574   3.926   0.069 -0.0537 -0.7230 -0.1152
 2575SOL     OW 8279   6.617   5.298   4.210  0.3633  0.4186 -0.5564
 2575SOL    HW1 8280   6.565   5.378   4.205  0.6566  0.6562  0.1580
 2575SOL    HW2 8281   6.605   5.267   4.300 -0.5485 -0.8847 -1.0917
 2576SOL     OW 8282   3.953   4.861   7.042 -0.0444 -0.1780 -0.1002
 2576SOL    HW1 8283   3.891   4.922   7.002  0.1599  1.0151  1.3148
 2576SOL    HW2 8284   3.899   4.797   7.087 -0.2844 -1.5999 -2.2418
 2577SOL     OW 8285   6.152   4.398   5.035 -0.1991  0.1820 -0.4223
 2577SOL    HW1 8286   6.145   4.415   5.129  0.9872  0.4872 -0.3838
 2577SOL    HW2 8287   6.118   4.477   4.993 -1.3791 -0.2192 -0.2755
 2578SOL     OW 8288   4.097   3.886   4.357 -0.2416 -0.1324  0.4475
 2578SOL    HW1 8289   4.028   3.938   4.317 -2.0845 -2.6732  0.0439
 2578SOL    HW2 8290   4.169   3.890   4.295 -1.5380 -0.6519 -1.1551
 2579SOL     OW 8291   3.654   7.570   1.827 -1.1760  0.2476 -0.3236
 2579SOL    HW1 8292   3.738   7.523   1.832 -1.4970 -0.2142  1.2084
 2579SOL    HW2 8293   3.661   7.639   1.893 -2.0439  0.1312 -0.0968
 2580SOL     OW 8294   3.088   1.597   3.375 -0.2949  0.1170  0.0932
 2580SOL    HW1 8295   3.085   1.639   3.460 -1.2837  0.4169 -0.0712
 2580SOL    HW2 8296   3.033   1.519   3.384  0.8019 -0.6668  0.1437
 2581SOL     OW 8297   3.674   2.347   1.851  0.0934 -0.7233 -0.3571
 2581SOL    HW1 8298   3.685   2.315   1.761 -1.0696 -1.1272 -0.3710
 2581SOL    HW2 8299   3.722   2.429   1.853 -1.4462  0.2947 -1.9229
 2582SOL     OW 8300   2.567   5.485   7.363 -0.3486 -0.3273 -0.3735
 2582SOL    HW1 8301   2.653   5.455   7.332 -0.7092 -0.1275 -1.5977
 2582SOL    HW2 8302   2.569   5.580   7.350 -0.3244 -0.1573  0.7276
 2583SOL     OW 8303   2.480   5.423   5.835 -0.1719 -0.0856 -0.1729
 2583SOL    HW1 8304   2.520   5.360   5.775  0.1679  0.8091 -0.9110
 2583SOL    HW2 8305   2.491   5.385   5.922 -0.0422 -1.0698 -0.6136
 2584SOL     OW 8306   7.645   2.070   1.206  0.1879  0.1105 -0.4474
 2584SOL    HW1 8307   7.632   1.994   1.263  0.6128 -0.1926 -0.7533
 2584SOL    HW2 8308   7.684   2.137   1.263 -0.7759  0.3256 -0.0228
 2585SOL     OW 8309   5.528   4.843   3.567 -0.5805 -0.4594  0.1605
 2585SOL    HW1 8310   5.446   4.883   3.538 -0.6580 -0.1075  0.8491
 2585SOL    HW2 8311   5.595   4.907   3.545 -0.9962  1.6142  4.0693
 2586SOL     OW 8312   5.876   4.659   0.987 -0.1672  0.2483 -0.1526
 2586SOL    HW1 8313   5.932   4.692   1.057  0.3574  1.0687 -0.9370
 2586SOL    HW2 8314   5.921   4.581   0.954 -0.5800 -0.3301  0.6217
 2587SOL     OW 8315   5.481   6.316   6.330  0.3460  0.1232  0.6204
 2587SOL    HW1 8316   5.401   6.292   6.283  0.7734  0.0197 -0.0642
 2587SOL    HW2 8317   5.547   6.327   6.262  1.3623 -1.5131  1.2641
 2588SOL     OW 8318   3.931   1.498   4.171 -0.0844 -0.2938 -0.3201
 2588SOL    HW1 8319   3.868   1.464   4.108  0.3652 -1.2905 -0.2406
 2588SOL    HW2 8320   3.954   1.423   4.225  1.1385  0.0662 -0.3202
 2589SOL     OW 8321   3.546   0.846   1.831 -0.4502  0.2760 -0.0017
 2589SOL    HW1 8322   3.619   0.856   1.892 -2.2069 -0.4847  2.4038
 2589SOL    HW2 8323   3.569   0.770   1.778  1.3334  1.2284 -0.6946
 2590SOL     OW 8324   4.506   2.936   6.015 -0.1062 -0.1637  0.2823
 2590SOL    HW1 8325   4.512   2.849   5.975 -0.4099  0.3700 -0.9895
 2590SOL    HW2 8326   4.595   2.958   6.040 -0.0776 -0.9750  0.9416
 2591SOL     OW 8327   2.441   6.089   1.298 -0.3333 -0.0472  0.0686
 2591SOL    HW1 8328   2.479   6.060   1.215  0.0366 -0.6638  0.4484
 2591SOL    HW2 8329   2.502   6.057   1.365 -1.5974 -1.2495  0.7083
 2592SOL     OW 8330   0.943   5.596   4.118 -0.7059  0.5469 -0.0944
 2592SOL    HW1 8331   0.929   5.582   4.212 -1.3205 -0.8966 -0.3728
 2592SOL    HW2 8332   0.927   5.510   4.078 -1.2196  1.3083 -1.6080
 2593SOL     OW 8333   2.072   6.191   1.555  0.5501 -0.2834  0.0629
 2593SOL    HW1 8334   1.986   6.154   1.534 -0.3203 -0.1970  3.0051
 2593SOL    HW2 8335   2.063   6.285   1.535 -0.2630 -0.1756  0.8566
 2594SOL     OW 8336   0.293   5.187   5.543  0.4915 -0.2383 -0.1691
 2594SOL    HW1 8337   0.385   5.216   5.541  0.0145  1.3599 -1.2737
 2594SOL    HW2 8338   0.261   5.204   5.454 -1.3328  0.8837  0.6494
 2595SOL     OW 8339   6.149   6.472   7.138 -0.1908  0.2664 -0.3752
 2595SOL    HW1 8340   6.228   6.519   7.110  1.0696 -1.1349  0.6908
 2595SOL    HW2 8341   6.108   6.530   7.201  1.2037  0.1007  0.7320
 2596SOL     OW 8342   5.585   2.185   4.311  0.4248 -0.0730  0.0056
 2596SOL    HW1 8343   5.674   2.188   4.276  0.4355 -0.2971  0.0102
 2596SOL    HW2 8344   5.578   2.261   4.368  1.4085 -1.3549  1.9221
 2597SOL     OW 8345   4.126   0.487   0.004 -0.0408 -0.1254  0.1850
 2597SOL    HW1 8346   4.195   0.516   0.063 -0.3138  0.0705  0.4094
 2597SOL    HW2 8347   4.065   0.439   0.060  0.2314 -0.8427 -0.1200
 2598SOL     OW 8348   1.468   5.377   0.344  0.6698  0.3238  0.1822
 2598SOL    HW1 8349   1.376   5.353   0.356  0.9544  0.2036  2.6484
 2598SOL    HW2 8350   1.512   5.294   0.325  0.2692  0.4164 -1.2632
 2599SOL     OW 8351   0.922   4.830   3.332 -0.4886  0.4103 -0.0294
 2599SOL    HW1 8352   0.927   4.750   3.280  3.1753 -0.8095  1.8979
 2599SOL    HW2 8353   0.976   4.893   3.285 -0.9598  0.8340 -0.0184
 2600SOL     OW 8354   7.226   7.618   0.410 -0.7859  0.1278 -0.0443
 2600SOL    HW1 8355   7.133   7.631   0.390 -1.2034 -0.0437  1.6592
 2600SOL    HW2 8356   7.234   7.639   0.503  0.6990 -0.7709  0.0622
 2601SOL     OW 8357   5.347   2.738   3.604 -0.2129  0.5015 -0.1871
 2601SOL    HW1 8358   5.436   2.761   3.628 -0.2803  1.1880 -0.5754
 2601SOL    HW2 8359   5.307   2.821   3.577 -1.0910  0.2812  0.3727
 2602SOL     OW 8360   4.149   5.809   3.062 -0.1426  0.1804 -0.4104
 2602SOL    HW1 8361   4.097   5.798   3.141 -1.0163  0.6438 -0.9033
 2602SOL    HW2 8362   4.128   5.897   3.031  0.5210  0.1660 -0.9169
 2603SOL     OW 8363   3.296   7.261   1.416 -0.8012  0.0589 -0.3279
 2603SOL    HW1 8364   3.370   7.202   1.402 -0.5963 -0.2099  1.5652
 2603SOL    HW2 8365   3.219   7.208   1.394 -0.5224 -0.2518 -0.5700
 2604SOL     OW 8366   7.030   7.711   6.995 -0.9047 -0.0133 -0.4520
 2604SOL    HW1 8367   7.032   7.806   6.982 -1.8694 -0.1105 -1.5408
 2604SOL    HW2 8368   6.938   7.691   7.014 -0.3692 -0.5204  1.8340
 2605SOL     OW 8369   5.719   0.404   4.046 -0.4594 -0.4175  0.3830
 2605SOL    HW1 8370   5.731   0.388   3.952 -0.9269  0.6832  0.1217
 2605SOL    HW2 8371   5.801   0.444   4.074 -0.8039  0.4847  0.1424
 2606SOL     OW 8372   1.137   2.795   3.033 -0.4405 -0.1713  0.0422
 2606SOL    HW1 8373   1.214   2.738   3.042 -0.7119 -0.2823  1.9519
 2606SOL    HW2 8374   1.166   2.864   2.972  0.9158 -0.6325  0.1283
 2607SOL     OW 8375   2.700   3.195   3.920 -0.1747 -0.3405  0.3180
 2607SOL    HW1 8376   2.615   3.210   3.878 -0.5858 -1.9903  0.4787
 2607SOL    HW2 8377   2.710   3.268   3.981  0.4935  2.2363 -2.6131
 2608SOL     OW 8378   4.841   1.514   4.245 -0.0998 -0.4695  0.7630
 2608SOL    HW1 8379   4.823   1.519   4.339 -0.6282  1.7765  0.6121
 2608SOL    HW2 8380   4.755   1.502   4.205 -0.3049  1.5015  0.4810
 2609SOL     OW 8381   6.840   6.713   6.981 -0.5608  0.0996 -0.2361
 2609SOL    HW1 8382   6.931   6.688   7.000 -0.4142 -0.7475 -1.9240
 2609SOL    HW2 8383   6.788   6.638   7.009 -0.7692  0.5867  0.7347
 2610SOL     OW 8384   0.168   4.722   3.522  0.3164  0.4864 -0.3422
 2610SOL    HW1 8385   0.112   4.700   3.596  1.3118  0.4764  0.4301
 2610SOL    HW2 8386   0.157   4.816   3.510 -0.2651  0.3971 -0.5485
 2611SOL     OW 8387   1.264   5.129   1.110  0.5293  0.3843 -0.7395
 2611SOL    HW1 8388   1.194   5.087   1.059  0.3589 -0.8225  0.4514
 2611SOL    HW2 8389   1.243   5.109   1.201  1.9033  0.8369 -0.3013
 2612SOL     OW 8390   1.742   6.477   7.072  0.8936  0.2892 -0.2702
 2612SOL    HW1 8391   1.772   6.433   6.993  0.1270 -0.2748 -0.2624
 2612SOL    HW2 8392   1.687   6.412   7.116  0.2136  1.0555  0.0443
 2613SOL     OW 8393   3.498   6.108   2.051 -0.2785  0.4766 -0.4526
 2613SOL    HW1 8394   3.418   6.143   2.091  0.3194  1.3014  0.0595
 2613SOL    HW2 8395   3.470   6.028   2.007 -1.3565  0.6731 -0.1522
 2614SOL     OW 8396   6.369   3.218   2.240  0.4832  0.4048  0.9429
 2614SOL    HW1 8397   6.387   3.235   2.333  1.4778 -1.2094  1.0835
 2614SOL    HW2 8398   6.302   3.150   2.242 -1.6021  2.3262  0.4177
 2615SOL     OW 8399   0.408   2.916   0.752  0.3453 -0.5296 -0.5417
 2615SOL    HW1 8400   0.390   2.884   0.840  2.7274 -1.2478 -0.2213
 2615SOL    HW2 8401   0.434   2.838   0.703 -0.9814 -0.1443 -1.9158
 2616SOL     OW 8402   5.804   4.470   1.953  0.3393 -0.3936 -0.3376
 2616SOL    HW1 8403   5.885   4.420   1.962  0.2240 -0.6595 -0.8062
 2616SOL    HW2 8404   5.823   4.553   1.998  1.0544 -0.2439 -0.8866
 2617SOL     OW 8405   5.221   7.173   4.364  0.2080 -0.0035  0.0704
 2617SOL    HW1 8406   5.312   7.143   4.371  0.7192  1.7076  1.3795
 2617SOL    HW2 8407   5.172   7.095   4.337  1.7456 -1.4749  1.3309
 2618SOL     OW 8408   3.129   3.305   1.094  0.5806 -0.2111  0.4192
 2618SOL    HW1 8409   3.110   3.242   1.025  0.5676  1.0342 -0.7436
 2618SOL    HW2 8410   3.101   3.389   1.059  0.2396  0.4081  2.0907
 2619SOL     OW 8411   4.030   4.770   7.527  0.1108 -0.3962 -0.5235
 2619SOL    HW1 8412   3.985   4.852   7.548  1.1967  1.1676 -3.6580
 2619SOL    HW2 8413   3.972   4.725   7.467  0.4764 -0.9072 -0.5022
 2620SOL     OW 8414   4.987   4.896   7.262  0.4418  0.7412  0.2315
 2620SOL    HW1 8415   4.993   4.820   7.321 -0.2006  0.5970  0.1161
 2620SOL    HW2 8416   5.031   4.966   7.310  0.9977  0.3156  0.3615
 2621SOL     OW 8417   6.104   1.539   7.003  0.4003 -0.4809  0.4813
 2621SOL    HW1 8418   6.142   1.453   7.017 -0.0408 -0.9289 -0.9179
 2621SOL    HW2 8419   6.161   1.599   7.050  1.6410 -1.3593  0.1349
 2622SOL     OW 8420   0.869   1.084   4.374 -0.5106 -0.0809 -0.4073
 2622SOL    HW1 8421   0.815   1.096   4.296 -0.5989 -0.5224 -0.4116
 2622SOL    HW2 8422   0.959   1.085   4.340 -0.5356  0.0663 -0.4712
 2623SOL     OW 8423   2.543   7.304   3.420  0.0593 -0.7859 -0.0240
 2623SOL    HW1 8424   2.505   7.346   3.343 -0.4419  0.3904  0.8338
 2623SOL    HW2 8425   2.506   7.352   3.494  1.0006 -1.4987  0.9378
 2624SOL     OW 8426   6.982   2.316   5.205 -0.4955 -0.7637 -0.0626
 2624SOL    HW1 8427   6.998   2.224   5.227  0.3630 -0.6769 -0.2752
 2624SOL    HW2 8428   6.935   2.352   5.281 -1.0870 -1.4433 -0.1018
 2625SOL     OW 8429   4.098   6.211   7.512 -0.3872 -0.3677 -0.2985
 2625SOL    HW1 8430   4.153   6.139   7.483 -0.2216 -0.2251 -0.3365
 2625SOL    HW2 8431   4.158   6.284   7.524 -0.4290 -0.4506  0.4976
 2626SOL     OW 8432   0.248   5.344   7.094 -0.2321 -0.1956 -0.0927
 2626SOL    HW1 8433   0.244   5.390   7.178 -0.9094 -1.0140  0.3376
 2626SOL    HW2 8434   0.256   5.414   7.029 -2.1490  0.6147  0.4644
 2627SOL     OW 8435   3.362   2.011   3.521  0.0858 -0.4017 -0.1856
 2627SOL    HW1 8436   3.390   1.928   3.483 -0.3444 -0.1072 -1.1846
 2627SOL    HW2 8437   3.267   2.013   3.508  0.0943  0.2494 -0.1924
 2628SOL     OW 8438   5.168   6.468   3.606  0.5538  0.2839 -0.1889
 2628SOL    HW1 8439   5.236   6.408   3.637 -0.6667 -0.4012  1.2694
 2628SOL    HW2 8440   5.114   6.416   3.547  1.0489  0.7376 -1.0785
 2629SOL     OW 8441   7.548   5.947   2.659 -0.2203  0.5965  0.0196
 2629SOL    HW1 8442   7.636   5.957   2.695 -0.0695 -0.4119 -0.0425
 2629SOL    HW2 8443   7.543   6.012   2.589  0.3474  0.8934  0.2472
 2630SOL     OW 8444   5.927   4.005   3.247 -0.5138  0.4736 -0.8347
 2630SOL    HW1 8445   5.938   4.086   3.296 -2.4109  0.9458 -1.0962
 2630SOL    HW2 8446   5.948   4.027   3.157 -0.8645  0.6307 -0.8780
 2631SOL     OW 8447   0.161   2.528   0.312 -0.0254 -0.3853 -0.1937
 2631SOL    HW1 8448   0.192   2.610   0.272 -0.7371  0.3270  0.6859
 2631SOL    HW2 8449   0.202   2.527   0.398 -1.4829 -0.0012  0.5349
 2632SOL     OW 8450   5.470   6.484   1.856  0.5535  0.0226  0.6887
 2632SOL    HW1 8451   5.464   6.393   1.825  3.2250 -0.3584  1.0916
 2632SOL    HW2 8452   5.491   6.476   1.949  0.6489  1.0674  0.7595
 2633SOL     OW 8453   5.244   6.482   6.752 -0.1860 -0.1618  0.1133
 2633SOL    HW1 8454   5.167   6.533   6.727  1.0743  2.2585  0.8298
 2633SOL    HW2 8455   5.309   6.501   6.684  0.8694  0.6471  1.2882
 2634SOL     OW 8456   4.752   0.383   3.252 -0.3020 -0.0111 -0.2964
 2634SOL    HW1 8457   4.837   0.341   3.264 -0.1872 -0.7420 -2.8672
 2634SOL    HW2 8458   4.760   0.467   3.297  0.6125 -1.3641  2.2315
 2635SOL     OW 8459   2.813   7.482   6.827 -0.2945  0.5047 -0.0099
 2635SOL    HW1 8460   2.897   7.523   6.846  0.0583  1.0749 -2.4554
 2635SOL    HW2 8461   2.822   7.392   6.861  1.4283  0.4560 -0.5131
 2636SOL     OW 8462   2.728   0.824   0.170 -0.0759  0.0317  0.1366
 2636SOL    HW1 8463   2.674   0.794   0.243  2.3549 -0.8110  1.7153
 2636SOL    HW2 8464   2.801   0.762   0.167  1.1871  1.4855 -1.4230
 2637SOL     OW 8465   1.881   3.001   2.072 -0.1758  0.4194 -0.0695
 2637SOL    HW1 8466   1.876   2.983   1.978 -1.4101  1.4081 -0.2077
 2637SOL    HW2 8467   1.846   3.089   2.082 -0.8250  0.0229  1.4080
 2638SOL     OW 8468   5.029   1.741   0.196  0.2979 -0.2394  0.2733
 2638SOL    HW1 8469   4.948   1.714   0.153  1.1226  1.4351 -2.5530
 2638SOL    HW2 8470   5.012   1.831   0.224  0.8913 -0.1874  0.4690
 2639SOL     OW 8471   1.646   7.734   6.884 -0.1111  0.1083 -0.2036
 2639SOL    HW1 8472   1.624   7.652   6.840 -1.3360  0.7819 -0.8957
 2639SOL    HW2 8473   1.737   7.750   6.859  0.1892 -1.0872  0.0383
 2640SOL     OW 8474   4.586   1.464   6.271  0.2465 -0.2925 -0.3793
 2640SOL    HW1 8475   4.658   1.468   6.208 -0.6753  0.5086 -1.4278
 2640SOL    HW2 8476   4.537   1.385   6.247 -0.2397  0.1413 -0.8212
 2641SOL     OW 8477   3.302   6.045   1.129 -0.1703 -0.1669  0.0288
 2641SOL    HW1 8478   3.233   6.112   1.124 -0.8376 -0.5271  2.6605
 2641SOL    HW2 8479   3.369   6.085   1.184  2.0110  0.2890 -2.7367
 2642SOL     OW 8480   6.818   1.310   1.026 -0.2429  0.1099  0.8869
 2642SOL    HW1 8481   6.827   1.396   0.987 -1.6639 -0.0034  0.2559
 2642SOL    HW2 8482   6.785   1.327   1.114  0.6733  0.2593  1.2054
 2643SOL     OW 8483   3.234   4.126   1.714 -0.1584 -0.3896  0.5734
 2643SOL    HW1 8484   3.206   4.145   1.624  0.2342 -0.1081  0.5085
 2643SOL    HW2 8485   3.288   4.048   1.706  0.8199  0.2930  0.4005
 2644SOL     OW 8486   0.964   6.198   3.305 -0.0754 -0.0441  0.8081
 2644SOL    HW1 8487   0.992   6.107   3.305 -0.6711 -0.2467  1.5593
 2644SOL    HW2 8488   0.890   6.201   3.244 -0.4045 -0.1878  1.1954
 2645SOL     OW 8489   1.978   3.734   7.373 -0.3794  0.1177  0.5508
 2645SOL    HW1 8490   2.070   3.712   7.357 -0.6376 -0.7307  0.1543
 2645SOL    HW2 8491   1.929   3.675   7.316 -1.1593  1.1979  0.0701
 2646SOL     OW 8492   2.737   3.913   7.497 -0.1985 -0.1206  0.3252
 2646SOL    HW1 8493   2.729   3.818   7.488 -0.3746 -0.0747 -0.0087
 2646SOL    HW2 8494   2.674   3.949   7.435  0.5234  0.2190 -0.2209
 2647SOL     OW 8495   4.194   2.995   0.359 -0.2611 -0.1046  0.1131
 2647SOL    HW1 8496   4.230   2.924   0.413  0.6035 -0.8348 -1.3550
 2647SOL    HW2 8497   4.100   2.978   0.358 -0.1224 -0.9511  0.2022
 2648SOL     OW 8498   1.290   7.447   7.716 -0.1010  0.1331 -0.4008
 2648SOL    HW1 8499   1.285   7.353   7.730  1.7591 -0.2939 -2.0652
 2648SOL    HW2 8500   1.321   7.456   7.626  0.3556  2.3331 -0.0827
 2649SOL     OW 8501   7.393   5.800   7.353 -0.2516  0.0351  0.2370
 2649SOL    HW1 8502   7.397   5.895   7.366  0.5375 -0.1082  1.1106
 2649SOL    HW2 8503   7.342   5.790   7.273  0.2895  1.2273 -0.2887
 2650SOL     OW 8504   4.540   6.767   2.276 -0.0740  0.4874  0.0420
 2650SOL    HW1 8505   4.481   6.787   2.203 -0.6658 -0.8325  0.1299
 2650SOL    HW2 8506   4.627   6.769   2.237 -0.4194 -0.7405 -0.8553
 2651SOL     OW 8507   3.908   4.064   6.270  0.2825  0.0503  0.1022
 2651SOL    HW1 8508   3.876   4.150   6.299 -0.7310  0.2031 -1.3745
 2651SOL    HW2 8509   3.862   4.001   6.326  0.2722  0.4156  0.5148
 2652SOL     OW 8510   5.929   4.068   0.434 -0.1129  0.3887 -0.0853
 2652SOL    HW1 8511   5.961   3.984   0.400  0.0333  0.2909  0.2840
 2652SOL    HW2 8512   5.979   4.082   0.514 -0.0697  0.8817 -0.1975
 2653SOL     OW 8513   6.842   3.814   0.071  0.0377 -0.1037 -0.3590
 2653SOL    HW1 8514   6.880   3.817   0.158  1.2937  0.8239 -0.9060
 2653SOL    HW2 8515   6.772   3.879   0.073  1.5258  1.5988 -0.6477
 2654SOL     OW 8516   3.348   5.420   5.057 -0.6366 -0.1762 -0.3849
 2654SOL    HW1 8517   3.414   5.479   5.092 -0.8500 -0.5984  0.7839
 2654SOL    HW2 8518   3.396   5.342   5.031 -0.6479 -0.4893  0.4793
 2655SOL     OW 8519   3.285   4.572   5.778 -0.2276  0.2495 -0.3788
 2655SOL    HW1 8520   3.236   4.564   5.859  0.0182  2.4293  0.0534
 2655SOL    HW2 8521   3.247   4.648   5.734  0.4978 -0.1049 -1.6849
 2656SOL     OW 8522   2.477   0.458   4.854 -0.0474  0.0111  0.1476
 2656SOL    HW1 8523   2.397   0.505   4.877 -0.6502 -0.6518 -0.5922
 2656SOL    HW2 8524   2.546   0.503   4.904 -1.0098 -0.0537  1.6015
 2657SOL     OW 8525   6.421   2.606   1.054  0.0919 -0.3783  0.5088
 2657SOL    HW1 8526   6.331   2.580   1.035  0.4024 -0.3180 -1.2515
 2657SOL    HW2 8527   6.448   2.655   0.976  0.7803  1.9592  2.1462
 2658SOL     OW 8528   6.821   1.040   0.928  0.3872  0.0774  0.6524
 2658SOL    HW1 8529   6.907   1.053   0.888  1.8758 -0.2505  3.5006
 2658SOL    HW2 8530   6.797   1.126   0.961 -0.2560  0.1104  0.0989
 2659SOL     OW 8531   1.564   7.031   4.570  0.3395 -0.2973  0.2768
 2659SOL    HW1 8532   1.511   7.049   4.648 -0.0339 -0.0469 -0.0320
 2659SOL    HW2 8533   1.525   6.952   4.532  0.3553 -0.2644  0.1932
 2660SOL     OW 8534   6.612   4.021   7.085  0.6480  0.1405 -0.0800
 2660SOL    HW1 8535   6.566   3.944   7.118  0.6800  0.6484  1.1792
 2660SOL    HW2 8536   6.590   4.024   6.992 -0.0359 -0.9010  0.0344
 2661SOL     OW 8537   5.520   0.971   7.371 -0.4885 -0.5822  0.9508
 2661SOL    HW1 8538   5.615   0.979   7.361 -0.6574  1.0601  0.3577
 2661SOL    HW2 8539   5.505   0.990   7.464 -0.2533 -0.7560  1.0273
 2662SOL     OW 8540   6.061   7.046   7.014 -0.4171 -0.2707  0.2383
 2662SOL    HW1 8541   6.100   7.017   6.932 -0.8367  1.0174 -0.4433
 2662SOL    HW2 8542   6.133   7.093   7.059 -0.7076  0.7010 -0.2863
 2663SOL     OW 8543   6.616   1.466   0.083 -0.5624  0.2574  0.5141
 2663SOL    HW1 8544   6.571   1.550   0.080 -1.6740 -0.3420 -1.2765
 2663SOL    HW2 8545   6.582   1.418   0.007  1.5023 -1.0634  0.3481
 2664SOL     OW 8546   5.766   3.434   3.276  0.2021 -0.4274  0.0015
 2664SOL    HW1 8547   5.853   3.426   3.314  0.6853  0.0048 -0.9603
 2664SOL    HW2 8548   5.745   3.527   3.283 -1.2523 -0.8540  2.4246
 2665SOL     OW 8549   2.187   2.648   7.707 -0.3617  0.4118  0.1259
 2665SOL    HW1 8550   2.155   2.637   7.618 -0.1372 -1.4830  0.2543
 2665SOL    HW2 8551   2.133   2.719   7.743 -0.6492  0.9936 -1.3995
 2666SOL     OW 8552   4.275   1.320   1.119  0.3874 -0.1055 -0.0591
 2666SOL    HW1 8553   4.190   1.364   1.110  0.5377  0.5443  1.3450
 2666SOL    HW2 8554   4.329   1.358   1.050 -1.2357 -2.7201 -3.0436
 2667SOL     OW 8555   6.351   5.062   1.512 -0.2510 -0.1023 -1.1721
 2667SOL    HW1 8556   6.420   5.058   1.578  0.3399 -0.1740 -1.7881
 2667SOL    HW2 8557   6.282   5.115   1.552  0.9174  1.5289 -1.2352
 2668SOL     OW 8558   4.178   0.098   7.247 -0.0775 -0.2039 -0.0623
 2668SOL    HW1 8559   4.202   0.079   7.338 -1.2212  1.0044  0.5226
 2668SOL    HW2 8560   4.223   0.030   7.196  2.7497  0.6133  1.1225
 2669SOL     OW 8561   7.207   7.115   7.263  0.3429 -0.4241  0.3741
 2669SOL    HW1 8562   7.264   7.179   7.306 -1.1119  1.4186 -0.2739
 2669SOL    HW2 8563   7.173   7.061   7.335  0.2912  0.6560  1.1883
 2670SOL     OW 8564   2.032   0.276   5.305 -0.1087 -0.4395 -0.5802
 2670SOL    HW1 8565   2.112   0.228   5.327 -1.2230 -2.1219  0.0121
 2670SOL    HW2 8566   2.047   0.309   5.216  0.6233 -2.1752 -1.1372
 2671SOL     OW 8567   2.561   4.515   2.234  0.0225 -0.3419  0.6195
 2671SOL    HW1 8568   2.545   4.451   2.304 -1.0716  1.0596  1.7281
 2671SOL    HW2 8569   2.475   4.527   2.194  0.6689 -1.2338 -1.1178
 2672SOL     OW 8570   1.665   2.486   1.197 -0.4174 -0.0838  0.1086
 2672SOL    HW1 8571   1.753   2.479   1.159  0.6685  1.8108  2.0446
 2672SOL    HW2 8572   1.626   2.562   1.152  0.2553  1.1510  1.5368
 2673SOL     OW 8573   1.708   4.428   6.173  0.0165  0.0445 -0.6324
 2673SOL    HW1 8574   1.633   4.396   6.123 -0.8996  0.7607  0.2209
 2673SOL    HW2 8575   1.680   4.421   6.264  0.7827  0.8421 -0.3225
 2674SOL     OW 8576   7.214   1.131   5.890  0.0094 -0.2939  0.6200
 2674SOL    HW1 8577   7.239   1.187   5.963 -1.0356  0.7984  0.1700
 2674SOL    HW2 8578   7.236   1.043   5.919  3.4052  0.4242  0.6440
 2675SOL     OW 8579   4.987   5.988   3.235 -0.3260 -0.2767  0.3871
 2675SOL    HW1 8580   5.066   6.005   3.286  0.0531 -1.0591  0.0747
 2675SOL    HW2 8581   4.990   6.052   3.163 -0.9884  0.9968  1.4408
 2676SOL     OW 8582   2.119   6.091   0.258  0.4795 -0.7548 -0.2632
 2676SOL    HW1 8583   2.109   6.128   0.346 -0.6181  1.6211 -1.2873
 2676SOL    HW2 8584   2.131   5.998   0.272 -0.6786 -0.5890  2.3644
 2677SOL     OW 8585   5.948   2.075   2.811  0.1578  0.5054  0.1699
 2677SOL    HW1 8586   5.927   1.985   2.786  0.2053  0.5411 -0.0024
 2677SOL    HW2 8587   5.944   2.075   2.906 -1.2358  0.6560  0.1322
 2678SOL     OW 8588   2.631   5.715   7.221  0.7445 -0.3470 -0.0690
 2678SOL    HW1 8589   2.718   5.754   7.216  0.8964 -0.6423  0.2524
 2678SOL    HW2 8590   2.624   5.662   7.142  1.6449 -1.9290  0.8576
 2679SOL     OW 8591   4.355   1.370   5.458  0.8615 -0.1935 -0.4015
 2679SOL    HW1 8592   4.439   1.412   5.443  0.0954  1.1868 -0.9725
 2679SOL    HW2 8593   4.296   1.411   5.395 -1.2133  1.9038  2.6136
 2680SOL     OW 8594   0.432   1.432   5.565 -0.1189 -0.1366 -0.1360
 2680SOL    HW1 8595   0.403   1.466   5.480 -1.8711 -0.3561  0.3478
 2680SOL    HW2 8596   0.514   1.388   5.545 -0.1555  0.3745 -1.6004
 2681SOL     OW 8597   7.693   0.310   1.290  0.4993  0.3724  0.1913
 2681SOL    HW1 8598   7.746   0.242   1.247  1.0418 -0.1888  1.6775
 2681SOL    HW2 8599   7.749   0.342   1.360 -0.5307  0.9461  0.7687
 2682SOL     OW 8600   4.786   6.733   3.521 -0.3296  0.2332 -0.2838
 2682SOL    HW1 8601   4.859   6.743   3.582 -0.1038  1.1059 -0.6691
 2682SOL    HW2 8602   4.825   6.690   3.445 -0.7323 -1.3618  0.3740
 2683SOL     OW 8603   4.705   2.946   0.535 -0.1348 -0.4751 -0.1336
 2683SOL    HW1 8604   4.696   3.037   0.508 -3.2459 -0.4519  0.6477
 2683SOL    HW2 8605   4.729   2.951   0.628  2.9962 -0.5601 -0.8280
 2684SOL     OW 8606   4.909   4.119   7.050  0.4771 -0.6868  0.2444
 2684SOL    HW1 8607   4.818   4.148   7.049  0.3500 -1.0492 -1.4953
 2684SOL    HW2 8608   4.954   4.186   7.102 -0.8826 -0.9549  1.8640
 2685SOL     OW 8609   5.159   0.755   3.134  0.2857  0.5899  0.0578
 2685SOL    HW1 8610   5.223   0.764   3.063 -2.1522 -0.8755 -2.5533
 2685SOL    HW2 8611   5.105   0.834   3.127 -0.3986  0.1072 -0.2366
 2686SOL     OW 8612   5.967   4.454   2.864  0.0246  0.2091 -0.1322
 2686SOL    HW1 8613   5.894   4.497   2.819  0.5077  2.3865  1.0239
 2686SOL    HW2 8614   6.015   4.411   2.794 -3.2103 -2.8422 -0.7716
 2687SOL     OW 8615   3.336   3.035   0.509  0.6008 -0.1464  0.2538
 2687SOL    HW1 8616   3.367   2.955   0.551  0.5408  0.2278  1.0266
 2687SOL    HW2 8617   3.416   3.083   0.488  0.6214  1.2429  3.0757
 2688SOL     OW 8618   4.366   6.033   0.011  0.2866  0.7516 -0.1482
 2688SOL    HW1 8619   4.390   6.111  -0.039 -1.6116  0.5435 -1.4694
 2688SOL    HW2 8620   4.380   5.961  -0.051  2.1812 -0.0491  1.1100
 2689SOL     OW 8621   3.874   6.009   5.859 -0.3220  0.0456 -0.2661
 2689SOL    HW1 8622   3.816   5.973   5.926 -1.5358  0.6711 -0.9573
 2689SOL    HW2 8623   3.923   5.933   5.828 -1.0580 -0.5712  0.0433
 2690SOL     OW 8624   4.236   2.783   0.176 -0.1740 -0.3972 -0.0545
 2690SOL    HW1 8625   4.153   2.736   0.175 -0.5045  0.1692 -1.2086
 2690SOL    HW2 8626   4.219   2.862   0.227 -1.2338  1.1532 -2.6012
 2691SOL     OW 8627   5.030   5.540   0.625 -0.4555 -0.1111  0.3448
 2691SOL    HW1 8628   4.991   5.628   0.620 -0.9855 -0.2355  1.7450
 2691SOL    HW2 8629   5.124   5.555   0.615 -0.7251  0.2780 -2.3638
 2692SOL     OW 8630   0.533   4.242   4.834 -0.4814  0.1702 -0.1530
 2692SOL    HW1 8631   0.477   4.319   4.829  1.0705  1.3097 -0.4941
 2692SOL    HW2 8632   0.544   4.227   4.928 -1.3066 -0.0568 -0.0805
 2693SOL     OW 8633   0.102   4.294   7.551  0.3003 -0.0896  0.1009
 2693SOL    HW1 8634   0.018   4.312   7.593  0.4899  1.3433 -0.0943
 2693SOL    HW2 8635   0.142   4.380   7.540  0.2365 -0.3600 -3.0554
 2694SOL     OW 8636   6.577   0.058   3.252 -0.4564  0.0563  0.1854
 2694SOL    HW1 8637   6.649  -0.003   3.236 -0.2732  0.3616 -0.1571
 2694SOL    HW2 8638   6.524   0.054   3.173 -1.9432 -1.6628  1.1832
 2695SOL     OW 8639   2.462   3.311   3.838 -0.0274  0.0956 -0.2581
 2695SOL    HW1 8640   2.379   3.298   3.791 -0.0829  1.0086 -0.4295
 2695SOL    HW2 8641   2.440   3.371   3.909  0.7041  1.2671 -0.9931
 2696SOL     OW 8642   4.939   7.558   7.489  0.3004  0.1352  0.2376
 2696SOL    HW1 8643   4.943   7.486   7.551  0.3968  0.5132  0.6724
 2696SOL    HW2 8644   5.026   7.561   7.449  0.7652  0.8964  1.2389
 2697SOL     OW 8645   1.315   7.082   6.809 -0.4086 -0.9829 -0.1934
 2697SOL    HW1 8646   1.343   7.001   6.852  0.5878 -0.5416  0.0146
 2697SOL    HW2 8647   1.250   7.120   6.868  0.8489 -0.4500  0.8922
 2698SOL     OW 8648   0.441   4.172   3.927 -0.1459 -0.4914  0.0025
 2698SOL    HW1 8649   0.452   4.265   3.905  1.8636 -0.6927 -0.0577
 2698SOL    HW2 8650   0.378   4.139   3.864  0.7637  0.3637 -1.4046
 2699SOL     OW 8651   6.916   2.399   2.107  0.2528 -0.0004 -0.6221
 2699SOL    HW1 8652   6.950   2.317   2.071  3.9114  0.4651  1.3019
 2699SOL    HW2 8653   6.825   2.402   2.077  0.4751 -3.8025 -2.3152
 2700SOL     OW 8654   0.405   0.125   7.280 -0.3138 -0.1803 -0.7380
 2700SOL    HW1 8655   0.413   0.030   7.294 -1.1054 -0.3082 -1.1383
 2700SOL    HW2 8656   0.464   0.143   7.207  2.4945  0.2111  1.4343
 2701SOL     OW 8657   7.646   5.914   1.994 -0.0899 -0.0008  0.1164
 2701SOL    HW1 8658   7.588   5.886   2.065  2.8536  0.0297  2.7619
 2701SOL    HW2 8659   7.697   5.836   1.974  0.3393  0.4781 -0.6781
 2702SOL     OW 8660   6.910   4.181   6.871 -0.5168 -0.4154 -0.3621
 2702SOL    HW1 8661   6.849   4.247   6.905  0.7981  0.8403 -0.3619
 2702SOL    HW2 8662   6.921   4.120   6.943 -1.7134 -0.6283 -0.3392
 2703SOL     OW 8663   3.451   1.669   4.574  0.0489  0.5715  0.1754
 2703SOL    HW1 8664   3.359   1.647   4.590 -0.1778  1.1938 -0.2211
 2703SOL    HW2 8665   3.450   1.763   4.556  1.0119  1.0049  2.1111
 2704SOL     OW 8666   3.980   5.924   5.535 -0.4780 -0.7030  0.3058
 2704SOL    HW1 8667   3.991   5.951   5.627  1.2865  2.0139 -0.5965
 2704SOL    HW2 8668   4.063   5.884   5.512 -0.3608 -0.0032 -0.5099
 2705SOL     OW 8669   7.119   5.429   6.773  0.1093  0.0491 -0.0217
 2705SOL    HW1 8670   7.155   5.383   6.850 -0.3717  1.0767  0.8373
 2705SOL    HW2 8671   7.197   5.463   6.728  0.4673 -1.4415 -0.5992
 2706SOL     OW 8672   2.210   7.306   3.777 -0.0111  0.0217 -0.4134
 2706SOL    HW1 8673   2.239   7.237   3.717 -0.6106 -1.1206  0.5595
 2706SOL    HW2 8674   2.121   7.281   3.801 -1.5235  2.8635 -2.4822
 2707SOL     OW 8675   3.024   0.789   7.180  0.3433 -0.1861  0.6521
 2707SOL    HW1 8676   2.972   0.864   7.207  2.3707  0.2874  3.7325
 2707SOL    HW2 8677   2.967   0.714   7.192 -1.0305  0.6213 -0.4600
 2708SOL     OW 8678   2.676   4.690   7.130  0.5316 -0.4992  0.0296
 2708SOL    HW1 8679   2.599   4.636   7.144  0.0097 -0.0692 -1.1412
 2708SOL    HW2 8680   2.655   4.773   7.172 -0.5786  0.3937 -2.1364
 2709SOL     OW 8681   1.230   3.810   5.806  0.2106  0.8735  0.3468
 2709SOL    HW1 8682   1.291   3.741   5.779  0.7461  0.8581  1.5477
 2709SOL    HW2 8683   1.145   3.767   5.810  0.3812  0.5125  0.1762
 2710SOL     OW 8684   3.782   1.327   1.366  0.5056  0.0854 -0.2693
 2710SOL    HW1 8685   3.795   1.280   1.284  0.9782  0.6957 -0.5535
 2710SOL    HW2 8686   3.740   1.409   1.341  0.9199  0.4060  0.0518
 2711SOL     OW 8687   6.847   4.643   1.252  0.3176 -0.2177  0.0543
 2711SOL    HW1 8688   6.803   4.715   1.298  0.4904 -1.7914  2.8937
 2711SOL    HW2 8689   6.907   4.686   1.192 -1.4415  1.9840 -0.2738
 2712SOL     OW 8690   6.842   4.023   5.192 -0.8627 -0.5158  0.1618
 2712SOL    HW1 8691   6.822   3.937   5.155 -1.7913  0.1917 -1.0574
 2712SOL    HW2 8692   6.777   4.034   5.262 -1.3076 -0.4432 -0.2590
 2713SOL     OW 8693   7.605   4.177   6.960 -0.1368  0.3638  0.3579
 2713SOL    HW1 8694   7.570   4.241   6.898  1.5051  1.0179  0.0750
 2713SOL    HW2 8695   7.667   4.125   6.908 -0.8924 -1.0137  0.7640
 2714SOL     OW 8696   0.735   2.635   4.171 -0.5140  0.4369 -0.1756
 2714SOL    HW1 8697   0.701   2.553   4.207 -1.6501  1.1226  0.3892
 2714SOL    HW2 8698   0.827   2.637   4.196 -0.1939 -1.1409 -1.0988
 2715SOL     OW 8699   6.711   1.698   3.001  0.7894 -0.2635 -0.2224
 2715SOL    HW1 8700   6.704   1.613   3.044 -0.2310  0.0449  0.2435
 2715SOL    HW2 8701   6.674   1.760   3.064 -0.3420  0.2501 -1.3667
 2716SOL     OW 8702   6.805   1.391   7.254 -0.0598 -0.3221 -0.0178
 2716SOL    HW1 8703   6.877   1.372   7.314 -0.7131  0.6927  1.1448
 2716SOL    HW2 8704   6.809   1.486   7.241 -0.0065 -0.5110 -1.5101
 2717SOL     OW 8705   6.014   1.469   5.935  0.1390  0.0830  0.3053
 2717SOL    HW1 8706   5.958   1.508   6.002 -0.9136 -0.7830 -0.0674
 2717SOL    HW2 8707   5.963   1.474   5.854  1.4022  1.1368 -0.4745
 2718SOL     OW 8708   2.498   3.062   0.948  0.3826 -0.4238  0.5003
 2718SOL    HW1 8709   2.404   3.066   0.932  0.3387 -0.5857  0.7151
 2718SOL    HW2 8710   2.534   3.023   0.869  0.0940 -1.8617  1.0482
 2719SOL     OW 8711   1.682   3.593   1.523  0.0228  0.3924  0.1149
 2719SOL    HW1 8712   1.708   3.600   1.431  1.3715  2.0873  0.5798
 2719SOL    HW2 8713   1.589   3.613   1.523  0.1925  1.2460 -0.7784
 2720SOL     OW 8714   6.552   6.214   2.432 -0.4334 -0.0847  0.0242
 2720SOL    HW1 8715   6.463   6.202   2.465 -0.1807 -0.8442  0.4553
 2720SOL    HW2 8716   6.599   6.137   2.463  0.3206  0.2025 -0.3936
 2721SOL     OW 8717   4.516   1.232   4.039  0.3275  0.6143  0.5389
 2721SOL    HW1 8718   4.461   1.158   4.067 -0.6779  0.9123 -0.5598
 2721SOL    HW2 8719   4.459   1.308   4.049  0.6130  0.9604 -0.4254
 2722SOL     OW 8720   4.138   7.089   4.097  0.2083 -0.3550  1.0608
 2722SOL    HW1 8721   4.096   7.153   4.039 -0.9382 -1.5413  0.5634
 2722SOL    HW2 8722   4.131   7.006   4.051 -0.5940 -1.3110  2.8290
 2723SOL     OW 8723   4.070   4.669   5.585 -0.3571  0.1318 -0.3665
 2723SOL    HW1 8724   4.023   4.712   5.656 -0.0794 -0.0594 -0.0647
 2723SOL    HW2 8725   4.092   4.583   5.619 -0.2370  0.0317 -0.6903
 2724SOL     OW 8726   5.268   2.956   5.548  0.2349 -0.1604 -0.0290
 2724SOL    HW1 8727   5.246   3.040   5.507  0.5449 -1.6869 -3.6514
 2724SOL    HW2 8728   5.363   2.950   5.539 -0.0014 -1.9395 -2.3093
 2725SOL     OW 8729   7.467   2.124   5.743  0.2887  0.6539 -0.1819
 2725SOL    HW1 8730   7.410   2.129   5.819 -0.2245  0.6207 -0.5614
 2725SOL    HW2 8731   7.427   2.058   5.687 -0.1475  1.6942 -1.1379
 2726SOL     OW 8732   1.212   5.208   2.180 -0.1389 -0.3315 -0.0771
 2726SOL    HW1 8733   1.119   5.196   2.198 -0.3376 -0.7071 -1.2829
 2726SOL    HW2 8734   1.215   5.265   2.103  0.6507  0.3428  0.4339
 2727SOL     OW 8735   1.361   0.047   1.706 -0.1723  0.1192  0.2288
 2727SOL    HW1 8736   1.288  -0.012   1.685 -0.5171  0.3715  0.7089
 2727SOL    HW2 8737   1.433   0.017   1.650 -0.9645  0.5568 -1.0746
 2728SOL     OW 8738   0.250   6.592   7.320  0.5762  0.9188  0.1680
 2728SOL    HW1 8739   0.194   6.656   7.276 -2.3497  0.4389  2.8841
 2728SOL    HW2 8740   0.251   6.516   7.262 -2.7034  0.5009  0.5105
 2729SOL     OW 8741   0.553   3.181   2.629 -0.2721 -0.4217 -0.4863
 2729SOL    HW1 8742   0.583   3.093   2.652 -0.1406  0.0806  1.4342
 2729SOL    HW2 8743   0.630   3.225   2.595 -0.0886 -0.7265 -0.4646
 2730SOL     OW 8744   1.028   5.080   4.709  0.3519 -0.1769 -0.4565
 2730SOL    HW1 8745   0.944   5.118   4.736  0.9916 -0.5945  2.4701
 2730SOL    HW2 8746   1.089   5.107   4.777  2.3611 -0.8482 -1.9153
 2731SOL     OW 8747   2.557   1.924   4.433 -0.3444 -0.0953  0.2846
 2731SOL    HW1 8748   2.587   2.014   4.445  0.2047 -0.5891  3.3754
 2731SOL    HW2 8749   2.621   1.871   4.480  0.0677 -2.3164 -2.4935
 2732SOL     OW 8750   4.865   2.643   2.301  0.5607  0.3964  0.1517
 2732SOL    HW1 8751   4.908   2.673   2.381  3.0017 -0.9741 -0.5507
 2732SOL    HW2 8752   4.811   2.569   2.329 -0.4864  1.4069  0.8722
 2733SOL     OW 8753   2.111   1.066   0.469 -0.2174  0.2778 -0.0160
 2733SOL    HW1 8754   2.145   0.981   0.496  1.0676  0.9644  0.6087
 2733SOL    HW2 8755   2.167   1.093   0.397 -0.7029  0.5395 -0.3013
 2734SOL     OW 8756   3.649   4.194   2.044  0.1458 -0.0639 -0.4682
 2734SOL    HW1 8757   3.621   4.212   2.134  0.2193  1.0996 -0.6603
 2734SOL    HW2 8758   3.613   4.107   2.024  1.0936 -0.8460  1.0686
 2735SOL     OW 8759   1.379   4.248   3.622  0.1604 -0.1027  0.5285
 2735SOL    HW1 8760   1.414   4.160   3.616 -0.1533 -0.3289  1.6454
 2735SOL    HW2 8761   1.284   4.236   3.630  0.0175  0.3880 -0.2830
 2736SOL     OW 8762   4.876   5.478   5.474  0.0147 -0.0664  0.8648
 2736SOL    HW1 8763   4.812   5.437   5.417 -0.2772  0.7609  0.5841
 2736SOL    HW2 8764   4.932   5.530   5.415  0.3828 -0.0688  1.2049
 2737SOL     OW 8765   3.087   2.787   0.055  0.0845 -0.0749 -0.0687
 2737SOL    HW1 8766   3.131   2.860   0.098  0.2996 -1.7100  2.6642
 2737SOL    HW2 8767   2.997   2.816   0.044  0.6483  1.4043 -1.1430
 2738SOL     OW 8768   5.653   5.262   3.497 -0.2186  0.5886  0.0119
 2738SOL    HW1 8769   5.734   5.299   3.462 -0.3017  0.2039 -0.5926
 2738SOL    HW2 8770   5.646   5.301   3.584  3.7663 -3.7049  2.7657
 2739SOL     OW 8771   4.506   2.843   4.634  0.4427 -1.0402  0.2812
 2739SOL    HW1 8772   4.588   2.808   4.670 -0.6041 -1.8895  1.9682
 2739SOL    HW2 8773   4.486   2.784   4.561  2.2751  0.3427 -1.4700
 2740SOL     OW 8774   4.113   2.353   5.517 -0.2072 -0.1460  0.2515
 2740SOL    HW1 8775   4.021   2.329   5.520  0.0461 -1.2701 -0.4502
 2740SOL    HW2 8776   4.150   2.300   5.446  0.5938  1.6785 -0.7632
 2741SOL     OW 8777   4.980   7.512   1.253  0.3355 -0.4121 -0.2602
 2741SOL    HW1 8778   5.042   7.584   1.247 -0.5448  0.5686  1.7078
 2741SOL    HW2 8779   4.910   7.536   1.193 -0.3633  0.8460  1.0135
 2742SOL     OW 8780   4.773   5.333   5.749 -0.2465  0.3975  0.3508
 2742SOL    HW1 8781   4.750   5.254   5.798  1.7398 -0.5751 -0.1752
 2742SOL    HW2 8782   4.807   5.301   5.665  0.8964  1.7733  0.2434
 2743SOL     OW 8783   5.757   0.623   7.469  0.0245 -0.0147 -0.8008
 2743SOL    HW1 8784   5.771   0.548   7.526 -0.3461  1.3714  1.2054
 2743SOL    HW2 8785   5.844   0.658   7.452  0.0416  0.5090  0.2883
 2744SOL     OW 8786   4.095   0.376   7.512 -0.1277 -0.2610  0.7133
 2744SOL    HW1 8787   4.133   0.289   7.530 -0.5995 -0.4803  0.6555
 2744SOL    HW2 8788   4.095   0.420   7.597 -2.5115 -1.3552  1.3749
 2745SOL     OW 8789   2.390   2.832   7.707 -0.6124 -0.3759 -0.3517
 2745SOL    HW1 8790   2.337   2.760   7.740 -0.5313 -0.3906 -0.2536
 2745SOL    HW2 8791   2.444   2.859   7.782  1.3853 -2.0410 -1.0928
 2746SOL     OW 8792   3.965   1.158   1.204  0.4476 -0.2445  0.3699
 2746SOL    HW1 8793   3.967   1.228   1.138  1.5625 -2.0205 -1.5980
 2746SOL    HW2 8794   4.048   1.169   1.251  1.4586 -1.2334 -1.1035
 2747SOL     OW 8795   2.408   5.181   3.967 -0.3486 -0.0071  0.2594
 2747SOL    HW1 8796   2.458   5.186   4.049  0.7512 -1.1646 -0.3075
 2747SOL    HW2 8797   2.409   5.088   3.944 -0.5354  0.3109 -1.1197
 2748SOL     OW 8798   2.531   1.902   5.979  0.5895 -0.3069 -0.3549
 2748SOL    HW1 8799   2.475   1.935   6.050  0.3227 -0.1699 -0.6281
 2748SOL    HW2 8800   2.576   1.827   6.017  0.4643 -0.2194 -0.0309
 2749SOL     OW 8801   6.252   0.694   5.338  0.1411 -0.3933  0.5074
 2749SOL    HW1 8802   6.279   0.609   5.372 -2.0306 -1.8223 -1.0335
 2749SOL    HW2 8803   6.176   0.675   5.284  0.0379  2.4618 -0.5450
 2750SOL     OW 8804   3.444   7.583   6.247  0.2778 -0.1022  0.0914
 2750SOL    HW1 8805   3.430   7.542   6.332 -2.8597  1.2538  0.3535
 2750SOL    HW2 8806   3.414   7.518   6.184 -0.8380  0.2314  0.2641
 2751SOL     OW 8807   2.111   0.146   5.809  0.4861 -0.0581 -0.2325
 2751SOL    HW1 8808   2.121   0.219   5.870 -0.0215 -0.1967  0.0249
 2751SOL    HW2 8809   2.087   0.188   5.726  0.2414  0.0779 -0.0964
 2752SOL     OW 8810   0.502   2.280   3.094 -0.3047 -0.0095  0.2209
 2752SOL    HW1 8811   0.468   2.203   3.048 -1.3653 -1.1055  2.6572
 2752SOL    HW2 8812   0.550   2.244   3.168 -0.5301  1.6592  1.2230
 2753SOL     OW 8813   7.417   3.894   5.080  0.3007 -0.0004 -0.2914
 2753SOL    HW1 8814   7.444   3.870   5.169  0.9687 -1.2374 -0.7960
 2753SOL    HW2 8815   7.436   3.987   5.073 -2.3204  0.8146  1.7559
 2754SOL     OW 8816   3.711   1.861   1.622 -0.2563 -0.2207 -0.0638
 2754SOL    HW1 8817   3.648   1.866   1.694 -1.5085  0.3304 -1.1464
 2754SOL    HW2 8818   3.658   1.841   1.545  1.0742 -0.9832 -0.8222
 2755SOL     OW 8819   6.314   3.150   1.270 -0.2567  0.0407  0.4567
 2755SOL    HW1 8820   6.320   3.194   1.185 -2.0998 -1.0284 -0.2853
 2755SOL    HW2 8821   6.402   3.114   1.285  0.9992  2.8406  0.5501
 2756SOL     OW 8822   6.043   6.270   4.912  0.8578 -0.0508  0.4892
 2756SOL    HW1 8823   6.084   6.192   4.949 -0.9964 -0.5374  1.6398
 2756SOL    HW2 8824   5.958   6.239   4.881  0.8074  1.1801 -0.6886
 2757SOL     OW 8825   5.814   3.933   4.182 -0.0830  0.1558 -0.1076
 2757SOL    HW1 8826   5.848   3.902   4.099 -0.3647 -0.6635  0.0792
 2757SOL    HW2 8827   5.796   4.026   4.167 -1.7793 -0.3376 -1.5175
 2758SOL     OW 8828   6.411   3.258   2.514  0.0498 -0.4026 -0.3833
 2758SOL    HW1 8829   6.422   3.191   2.582  0.4710  0.2716  0.2364
 2758SOL    HW2 8830   6.501   3.281   2.489 -0.0388  0.9430  0.4496
 2759SOL     OW 8831   5.925   4.348   6.057 -0.3048 -0.1698  0.0741
 2759SOL    HW1 8832   5.910   4.442   6.054 -2.8961 -0.2635  3.8640
 2759SOL    HW2 8833   5.842   4.309   6.033  1.1662 -1.7353 -3.1272
 2760SOL     OW 8834   0.666   4.053   1.254 -0.8227 -0.4962  0.1743
 2760SOL    HW1 8835   0.742   4.111   1.252 -0.9740 -0.2684  0.7167
 2760SOL    HW2 8836   0.591   4.112   1.242 -0.9182 -0.7140 -0.3271
 2761SOL     OW 8837   3.035   1.182   4.717 -0.0267 -0.1578 -0.7105
 2761SOL    HW1 8838   3.129   1.167   4.728 -0.3770 -1.7003  0.3870
 2761SOL    HW2 8839   3.007   1.116   4.654 -0.3054  0.6743 -1.4952
 2762SOL     OW 8840   5.555   1.535   3.777  0.9522 -0.1859  0.5864
 2762SOL    HW1 8841   5.494   1.506   3.709  0.0887 -0.8676  1.6311
 2762SOL    HW2 8842   5.620   1.465   3.782  1.8701  0.5330 -0.5156
 2763SOL     OW 8843   4.505   2.622   2.777  0.0349  0.8931 -0.1769
 2763SOL    HW1 8844   4.451   2.691   2.737 -0.6391 -0.1075 -1.0602
 2763SOL    HW2 8845   4.593   2.658   2.778  0.1742  0.8794 -2.9607
 2764SOL     OW 8846   5.074   0.108   5.426  0.1407 -0.2129  0.2524
 2764SOL    HW1 8847   5.034   0.072   5.347 -0.0428  1.4837 -0.4782
 2764SOL    HW2 8848   5.063   0.040   5.492 -0.8582 -1.1545 -0.8430
 2765SOL     OW 8849   6.843   5.386   4.664  0.2910 -0.5146  0.4130
 2765SOL    HW1 8850   6.890   5.357   4.742  0.6904  1.0331  0.7985
 2765SOL    HW2 8851   6.877   5.474   4.647 -0.9447 -0.1843 -0.5577
 2766SOL     OW 8852   4.181   0.351   2.126 -0.1024  0.5339 -0.1421
 2766SOL    HW1 8853   4.215   0.386   2.208  2.6005  2.6957 -1.9978
 2766SOL    HW2 8854   4.109   0.293   2.152  1.8073 -0.3675  3.8169
 2767SOL     OW 8855   3.363   0.334   3.130  0.1699 -0.1691 -0.8168
 2767SOL    HW1 8856   3.365   0.372   3.042  1.0670 -0.4995 -0.9448
 2767SOL    HW2 8857   3.450   0.351   3.166  0.0872 -0.7784 -0.3111
 2768SOL     OW 8858   6.562   7.616   7.553 -0.2497 -0.9318  0.4795
 2768SOL    HW1 8859   6.621   7.664   7.496 -0.0949  2.1311  2.9601
 2768SOL    HW2 8860   6.476   7.622   7.510 -0.1645  1.3819  0.4979
 2769SOL     OW 8861   6.505   2.213   0.971 -0.1559  0.7224  0.0152
 2769SOL    HW1 8862   6.466   2.252   1.049  0.2674  1.0302  0.0759
 2769SOL    HW2 8863   6.526   2.124   0.996 -0.1704  0.7715  0.1998
 2770SOL     OW 8864   1.496   2.341   4.499 -0.5970 -0.4616 -0.0841
 2770SOL    HW1 8865   1.407   2.363   4.526 -1.1956  0.1670 -2.3058
 2770SOL    HW2 8866   1.486   2.307   4.410  1.4008 -0.2080 -0.4501
 2771SOL     OW 8867   6.978   5.955   3.274  0.0314 -0.0149 -0.4001
 2771SOL    HW1 8868   7.063   5.912   3.280 -0.4581 -0.9319  0.0917
 2771SOL    HW2 8869   6.968   6.001   3.357 -0.5917 -1.1264  0.1521
 2772SOL     OW 8870   6.205   2.873   7.234  0.6938  0.0612 -0.0317
 2772SOL    HW1 8871   6.196   2.832   7.148 -1.8999  0.7808 -0.2057
 2772SOL    HW2 8872   6.243   2.959   7.216 -1.1640  0.7884 -0.7116
 2773SOL     OW 8873   3.923   0.750   6.472 -0.1921 -0.3296  0.6751
 2773SOL    HW1 8874   3.902   0.667   6.431  0.9890  0.0303 -0.7620
 2773SOL    HW2 8875   3.839   0.794   6.484 -0.6084 -0.4620 -1.4045
 2774SOL     OW 8876   3.445   1.803   3.340  0.0475  0.2622 -0.1965
 2774SOL    HW1 8877   3.407   1.730   3.389 -0.7675  0.8735  0.1019
 2774SOL    HW2 8878   3.506   1.762   3.279 -1.4720 -0.8019 -1.0582
 2775SOL     OW 8879   4.421   1.111   0.859  0.0821 -0.2419  0.3320
 2775SOL    HW1 8880   4.448   1.026   0.822 -1.1183 -0.1808 -0.7635
 2775SOL    HW2 8881   4.371   1.089   0.937  0.0888 -0.5215  0.2589
 2776SOL     OW 8882   7.606   0.172   4.066  0.1518 -0.5811 -0.2120
 2776SOL    HW1 8883   7.670   0.105   4.092 -0.3658 -0.9088  0.2297
 2776SOL    HW2 8884   7.647   0.255   4.092 -0.1316 -0.8693  1.2240
 2777SOL     OW 8885   0.202   0.585   6.412 -0.8291 -0.1752  0.0752
 2777SOL    HW1 8886   0.208   0.489   6.411  0.5367 -0.1060 -0.7964
 2777SOL    HW2 8887   0.236   0.610   6.498  1.2608 -0.3866 -0.6341
 2778SOL     OW 8888   2.561   4.670   0.001 -0.0224 -0.0844 -0.0759
 2778SOL    HW1 8889   2.551   4.701  -0.089  0.6388 -0.2389 -0.2093
 2778SOL    HW2 8890   2.472   4.671   0.037 -0.0819  1.7064 -0.1599
 2779SOL     OW 8891   0.473   2.588   2.103  0.7170  0.1823 -0.2487
 2779SOL    HW1 8892   0.389   2.544   2.108  0.8874 -0.0840  0.5515
 2779SOL    HW2 8893   0.503   2.575   2.013  0.5187 -0.8883 -0.1706
 2780SOL     OW 8894   4.134   4.498   0.581 -0.0166 -0.5917  0.0909
 2780SOL    HW1 8895   4.060   4.491   0.642 -0.4077  1.3118 -0.1126
 2780SOL    HW2 8896   4.098   4.466   0.498 -1.4468  2.4247 -0.5993
 2781SOL     OW 8897   6.803   6.107   6.775 -0.7296  0.5529 -0.5732
 2781SOL    HW1 8898   6.814   6.194   6.735 -1.6673  0.6090 -0.7389
 2781SOL    HW2 8899   6.855   6.049   6.720 -2.0077  0.6274 -1.9379
 2782SOL     OW 8900   0.487   7.542   5.862 -0.2183 -0.4782 -0.0150
 2782SOL    HW1 8901   0.466   7.471   5.923 -0.2188 -0.6975 -0.2723
 2782SOL    HW2 8902   0.572   7.518   5.825 -0.6547 -0.8110 -0.8024
 2783SOL     OW 8903   1.414   7.326   0.403  0.0062 -0.5736 -0.4580
 2783SOL    HW1 8904   1.426   7.234   0.381  1.2118 -0.2308 -1.3493
 2783SOL    HW2 8905   1.321   7.334   0.424  0.3800 -2.6586  2.8674
 2784SOL     OW 8906   5.966   6.448   0.480 -0.2386 -0.3174  0.2673
 2784SOL    HW1 8907   5.917   6.370   0.457 -0.8304  0.2548 -0.4895
 2784SOL    HW2 8908   6.019   6.422   0.555  0.2274 -1.6770 -0.5003
 2785SOL     OW 8909   4.391   3.074   0.003  0.0366  0.5219  0.0176
 2785SOL    HW1 8910   4.299   3.091  -0.018  0.0708  0.1571 -0.4286
 2785SOL    HW2 8911   4.411   2.992  -0.042  0.0866 -0.3509  1.5756
 2786SOL     OW 8912   5.275   5.632   0.044 -0.7820  0.3717  0.2032
 2786SOL    HW1 8913   5.222   5.694   0.094  1.5304  1.4573  1.4357
 2786SOL    HW2 8914   5.363   5.641   0.079  1.3410  1.8933 -4.6351
 2787SOL     OW 8915   1.941   6.545   0.214  0.0355 -0.1914  0.0742
 2787SOL    HW1 8916   1.919   6.558   0.306  0.1791  0.4681  0.0211
 2787SOL    HW2 8917   1.893   6.614   0.168  0.0475 -0.4509 -0.3366
 2788SOL     OW 8918   7.598   6.535   4.505  0.0856  0.2208 -0.2965
 2788SOL    HW1 8919   7.669   6.595   4.529  0.5830  0.7006 -2.7185
 2788SOL    HW2 8920   7.527   6.556   4.566  2.0207 -0.4203  2.3535
 2789SOL     OW 8921   4.576   0.828   5.328  0.1821 -0.6281  0.6203
 2789SOL    HW1 8922   4.481   0.819   5.338  0.0460 -0.6674 -0.5439
 2789SOL    HW2 8923   4.588   0.844   5.234  1.1697  1.5552  1.0612
 2790SOL     OW 8924   6.586   1.566   3.590  0.2762 -0.1871 -0.0545
 2790SOL    HW1 8925   6.539   1.583   3.671 -1.0854 -1.0906 -0.6172
 2790SOL    HW2 8926   6.639   1.488   3.610 -1.2188 -1.3500 -0.4351
 2791SOL     OW 8927   2.980   5.112   6.935 -0.0764  0.4582 -0.0189
 2791SOL    HW1 8928   2.933   5.122   6.852 -1.2810 -3.0286  0.0875
 2791SOL    HW2 8929   2.913   5.127   7.002  0.4012  1.2187  0.2977
 2792SOL     OW 8930   2.248   1.098   0.195 -0.4127  0.3536  0.0230
 2792SOL    HW1 8931   2.224   1.006   0.188  1.7527 -0.2775  0.1186
 2792SOL    HW2 8932   2.231   1.134   0.107  0.4514 -0.6183 -0.5658
 2793SOL     OW 8933   1.935   5.160   4.900 -1.0319  0.2218  0.6297
 2793SOL    HW1 8934   1.930   5.072   4.938 -0.6831 -0.3960 -0.7214
 2793SOL    HW2 8935   2.026   5.170   4.872 -0.9090  1.2724  1.3203
 2794SOL     OW 8936   6.954   6.065   4.437  0.1456  0.0355 -0.5055
 2794SOL    HW1 8937   6.915   6.054   4.523  1.8007 -0.8292  0.1844
 2794SOL    HW2 8938   6.915   5.996   4.383  0.8163 -0.9227  0.2114
 2795SOL     OW 8939   1.932   5.189   2.772 -0.0984  0.8917  0.5289
 2795SOL    HW1 8940   1.968   5.196   2.684 -0.3525 -0.2158  0.3209
 2795SOL    HW2 8941   1.844   5.153   2.759  0.3027 -0.4543  1.2872
 2796SOL     OW 8942   1.471   1.291   6.863 -0.5121  0.0889  0.6191
 2796SOL    HW1 8943   1.445   1.271   6.773 -0.2670 -0.1509  0.6000
 2796SOL    HW2 8944   1.426   1.373   6.883  0.2970  0.7416 -0.1139
 2797SOL     OW 8945   2.681   6.768   3.106 -0.0567  0.1964  0.1245
 2797SOL    HW1 8946   2.590   6.797   3.094 -0.0881 -0.1518 -0.5677
 2797SOL    HW2 8947   2.684   6.682   3.063  0.8608  0.6797 -0.8329
 2798SOL     OW 8948   3.864   2.810   1.311  0.2909  0.1463 -0.7239
 2798SOL    HW1 8949   3.821   2.890   1.281  1.9831  0.9410 -1.1664
 2798SOL    HW2 8950   3.958   2.831   1.308  0.6890 -1.1200  1.2864
 2799SOL     OW 8951   5.086   2.214   1.896 -0.0353 -0.1052 -0.5864
 2799SOL    HW1 8952   5.179   2.235   1.894  0.1276 -0.7620 -0.0358
 2799SOL    HW2 8953   5.076   2.140   1.836 -0.4361  0.8205 -1.6987
 2800SOL     OW 8954   1.608   7.645   7.346  1.0959  0.1695  0.5158
 2800SOL    HW1 8955   1.514   7.640   7.361  0.6666  2.2295 -1.0795
 2800SOL    HW2 8956   1.629   7.738   7.351  2.9547 -0.1870  0.2830
 2801SOL     OW 8957   6.235   4.131   7.168 -0.1663 -0.0562 -0.2274
 2801SOL    HW1 8958   6.161   4.070   7.165 -0.1305 -0.1491  0.5619
 2801SOL    HW2 8959   6.227   4.175   7.253 -0.7367  1.7370 -1.1539
 2802SOL     OW 8960   3.788   7.088   1.570 -0.1762  0.2573  0.1415
 2802SOL    HW1 8961   3.771   7.009   1.519 -3.1000  0.7783  0.1188
 2802SOL    HW2 8962   3.877   7.113   1.547  0.8802 -3.0305  0.2216
 2803SOL     OW 8963   6.366   7.728   5.317 -0.2497 -0.0616  0.1624
 2803SOL    HW1 8964   6.300   7.699   5.254 -0.2525  0.1737  0.0577
 2803SOL    HW2 8965   6.368   7.658   5.383 -0.3576 -0.2336 -0.0146
 2804SOL     OW 8966   0.818   4.159   2.223  0.4440  0.1992 -0.5256
 2804SOL    HW1 8967   0.788   4.080   2.268 -1.4956  0.6151 -0.9727
 2804SOL    HW2 8968   0.804   4.230   2.286  2.3729  0.2121 -0.0490
 2805SOL     OW 8969   7.100   1.545   1.208 -0.4257 -0.2148 -0.5049
 2805SOL    HW1 8970   7.056   1.618   1.166  0.9103  1.2297  0.4905
 2805SOL    HW2 8971   7.189   1.548   1.174 -0.2005 -1.0446 -0.0190
 2806SOL     OW 8972   5.425   6.458   5.903 -0.0536 -0.3989  0.1983
 2806SOL    HW1 8973   5.418   6.512   5.824 -0.2250  1.2712  1.3005
 2806SOL    HW2 8974   5.343   6.473   5.950  0.9351  0.3924  1.7394
 2807SOL     OW 8975   2.440   1.016   0.544 -0.2119 -0.3232  0.0799
 2807SOL    HW1 8976   2.362   0.961   0.531 -2.7748  2.4074  2.4818
 2807SOL    HW2 8977   2.463   1.003   0.636 -0.1388  1.6349  0.3779
 2808SOL     OW 8978   5.756   5.749   4.788 -0.0017 -0.5495  0.2518
 2808SOL    HW1 8979   5.830   5.688   4.795 -0.3679 -0.9658  0.5103
 2808SOL    HW2 8980   5.797   5.833   4.766  0.7318 -0.3601  2.1034
 2809SOL     OW 8981   3.876   1.250   0.020  0.2166  0.2745  0.2224
 2809SOL    HW1 8982   3.792   1.274  -0.018  0.6182  0.6039 -0.4739
 2809SOL    HW2 8983   3.869   1.276   0.112  0.1354  1.8071 -0.1875
 2810SOL     OW 8984   7.211   5.754   1.002 -0.0036  0.0825 -0.4546
 2810SOL    HW1 8985   7.136   5.751   1.061 -0.0449 -2.3729 -0.5473
 2810SOL    HW2 8986   7.221   5.847   0.981 -0.7068  0.9279  2.4707
 2811SOL     OW 8987   0.236   0.248   7.668  0.0035  0.2520  0.6864
 2811SOL    HW1 8988   0.210   0.174   7.613 -0.2816  1.7419 -1.2886
 2811SOL    HW2 8989   0.289   0.303   7.610 -0.5237  2.0209  1.8113
 2812SOL     OW 8990   1.168   0.237   5.176 -0.2909  0.1382  0.0454
 2812SOL    HW1 8991   1.216   0.245   5.093 -2.3618 -1.1142 -1.3736
 2812SOL    HW2 8992   1.102   0.306   5.173 -1.4926 -0.9870 -0.1954
 2813SOL     OW 8993   0.631   5.698   4.438 -0.0836 -0.9216  0.8341
 2813SOL    HW1 8994   0.630   5.760   4.511  0.2288  1.0366 -0.7710
 2813SOL    HW2 8995   0.544   5.658   4.439 -0.9876  0.9779  0.7293
 2814SOL     OW 8996   1.905   6.969   0.002  0.2869 -0.0424  0.0603
 2814SOL    HW1 8997   1.881   7.060   0.019 -2.0472 -0.8826  1.8313
 2814SOL    HW2 8998   1.972   6.949   0.067  2.4377  0.9342 -1.7316
 2815SOL     OW 8999   2.284   4.475   3.181  0.6224  0.6404  0.0912
 2815SOL    HW1 9000   2.213   4.486   3.117  0.0248 -0.5529  0.5003
 2815SOL    HW2 9001   2.239   4.477   3.266  1.3448  1.7567  0.4583
 2816SOL     OW 9002   6.662   0.465   1.041  0.2470  0.6406 -0.0408
 2816SOL    HW1 9003   6.726   0.396   1.022  1.3202  0.8427  2.5364
 2816SOL    HW2 9004   6.683   0.534   0.978  1.0050 -0.2304 -0.7855
 2817SOL     OW 9005   1.765   2.104   6.552 -0.2861  0.2151  0.7812
 2817SOL    HW1 9006   1.765   2.103   6.648 -1.6607 -3.1052  0.8841
 2817SOL    HW2 9007   1.762   2.012   6.528  1.2081  0.9062 -2.5298
 2818SOL     OW 9008   7.120   3.774   6.476  0.5423  0.2441 -0.2862
 2818SOL    HW1 9009   7.182   3.740   6.411  1.1679 -1.5063  1.1062
 2818SOL    HW2 9010   7.090   3.695   6.522  0.0182  1.3877  1.4127
 2819SOL     OW 9011   0.021   3.360   5.273  0.1315 -0.7059  0.3498
 2819SOL    HW1 9012   0.069   3.282   5.247 -0.1730 -0.6061 -0.5299
 2819SOL    HW2 9013  -0.026   3.387   5.194  0.7223  0.7275  0.4578
 2820SOL     OW 9014   4.995   0.498   2.670 -0.3774  0.4564  0.0820
 2820SOL    HW1 9015   5.045   0.558   2.726 -1.6083  1.1764  0.4283
 2820SOL    HW2 9016   4.977   0.549   2.591 -0.0607 -0.0128 -0.3041
 2821SOL     OW 9017   5.053   0.237   5.095  0.4646 -0.0662 -0.0008
 2821SOL    HW1 9018   4.968   0.253   5.053  0.5616  0.1376 -0.1221
 2821SOL    HW2 9019   5.046   0.148   5.129 -0.0499  0.1962  0.5915
 2822SOL     OW 9020   3.680   2.022   4.902  0.4470  0.1000 -0.2315
 2822SOL    HW1 9021   3.652   1.945   4.950  0.5037  0.6274  0.6722
 2822SOL    HW2 9022   3.722   1.988   4.823 -0.6796 -0.7463 -0.4797
 2823SOL     OW 9023   3.422   4.890   0.082  0.2506  0.2293 -0.5306
 2823SOL    HW1 9024   3.344   4.846   0.116  0.9598 -1.2120 -0.7231
 2823SOL    HW2 9025   3.405   4.983   0.098 -1.3194 -0.0804 -0.1857
 2824SOL     OW 9026   3.317   2.063   5.157 -0.0985 -0.1270  0.1691
 2824SOL    HW1 9027   3.284   1.976   5.133 -0.7424  0.3567 -0.8149
 2824SOL    HW2 9028   3.403   2.069   5.116 -1.1751  0.6750 -2.1549
 2825SOL     OW 9029   2.514   4.957   2.075  0.2348  0.3062  0.0091
 2825SOL    HW1 9030   2.507   5.035   2.129 -0.9377  0.2069  0.0398
 2825SOL    HW2 9031   2.431   4.955   2.026  0.7259 -0.3060 -0.8237
 2826SOL     OW 9032   1.861   3.239   1.310 -0.1666 -0.0826 -0.4128
 2826SOL    HW1 9033   1.886   3.330   1.292  0.4912 -0.0885  0.3787
 2826SOL    HW2 9034   1.766   3.239   1.305 -0.1851  0.6990 -0.2438
 2827SOL     OW 9035   2.994   5.067   1.916  0.2603  0.6308  0.2737
 2827SOL    HW1 9036   2.967   5.105   2.000 -1.8098  0.3111 -0.1827
 2827SOL    HW2 9037   2.939   5.112   1.851  0.0699 -0.8240 -0.6229
 2828SOL     OW 9038   7.372   4.820   3.272 -0.0747  0.4342 -0.4885
 2828SOL    HW1 9039   7.353   4.747   3.331  1.4460 -0.3522 -0.9164
 2828SOL    HW2 9040   7.387   4.779   3.187 -1.7310  1.5064 -1.3494
 2829SOL     OW 9041   0.084   6.565   3.213 -0.7440  0.0689 -0.0848
 2829SOL    HW1 9042   0.128   6.634   3.163  0.7999 -0.0497  1.0468
 2829SOL    HW2 9043   0.121   6.483   3.180  1.2887  0.0307  2.0376
 2830SOL     OW 9044   6.472   7.561   4.495 -0.5599  0.0532  0.6967
 2830SOL    HW1 9045   6.402   7.575   4.431 -0.9701  2.1399  1.5106
 2830SOL    HW2 9046   6.435   7.594   4.577  1.5790  1.8641  1.0158
 2831SOL     OW 9047   1.958   2.854   2.336  0.0203 -0.0599  0.6587
 2831SOL    HW1 9048   2.031   2.792   2.329 -1.0908 -1.3170 -0.2457
 2831SOL    HW2 9049   1.974   2.917   2.266 -1.0671 -1.8205 -1.2802
 2832SOL     OW 9050   3.222   0.056   2.614 -0.1386  0.1996 -0.1409
 2832SOL    HW1 9051   3.241   0.013   2.531  0.4757  0.5476 -0.1840
 2832SOL    HW2 9052   3.127   0.044   2.626 -0.5121  1.3656 -1.5816
 2833SOL     OW 9053   0.260   3.438   5.980  0.2875  0.0890 -0.8862
 2833SOL    HW1 9054   0.327   3.497   5.945  2.9087 -1.9933  0.2867
 2833SOL    HW2 9055   0.279   3.434   6.074 -0.9786 -1.2182 -0.6488
 2834SOL     OW 9056   0.806   6.944   7.470  0.5466  0.2786  0.6259
 2834SOL    HW1 9057   0.838   7.027   7.434 -0.2199  0.6363  0.7591
 2834SOL    HW2 9058   0.758   6.904   7.398  0.1726  0.3595  0.8297
 2835SOL     OW 9059   1.003   7.449   2.671  0.1200 -0.3298 -0.5584
 2835SOL    HW1 9060   1.070   7.381   2.675 -0.7856 -1.4065 -2.5572
 2835SOL    HW2 9061   1.053   7.530   2.662  1.1759 -0.8981 -0.0628
 2836SOL     OW 9062   5.372   4.591   3.750  0.2316  0.3060  0.2647
 2836SOL    HW1 9063   5.377   4.636   3.666 -0.4130 -1.8465 -1.0051
 2836SOL    HW2 9064   5.279   4.592   3.773  0.1461 -0.6872  0.0094
 2837SOL     OW 9065   7.014   6.487   1.997  0.2810 -0.4024  0.0396
 2837SOL    HW1 9066   7.089   6.503   2.055  1.0732 -1.9085 -0.4893
 2837SOL    HW2 9067   7.010   6.391   1.990 -1.7283 -0.3483  0.0651
 2838SOL     OW 9068   5.756   1.709   6.365 -0.6201  0.6427  0.0949
 2838SOL    HW1 9069   5.787   1.726   6.454 -1.4802 -1.1101  0.7761
 2838SOL    HW2 9070   5.686   1.772   6.352  0.3367  1.7444  0.1746
 2839SOL     OW 9071   0.163   0.088   3.761  0.8446 -0.0925  0.6251
 2839SOL    HW1 9072   0.248   0.046   3.757 -0.9243 -4.0550  0.1462
 2839SOL    HW2 9073   0.116   0.042   3.830 -2.3361 -1.2752 -2.0568
 2840SOL     OW 9074   1.697   0.888   4.498 -0.0280 -0.1340  0.5905
 2840SOL    HW1 9075   1.767   0.822   4.499  0.7290  0.6121 -0.3848
 2840SOL    HW2 9076   1.679   0.901   4.405 -2.4933 -1.3247  0.8208
 2841SOL     OW 9077   2.696   6.628   6.927 -0.0716  0.0224  0.3392
 2841SOL    HW1 9078   2.783   6.644   6.890 -0.7217  0.9214 -0.8480
 2841SOL    HW2 9079   2.647   6.708   6.909 -0.8714 -0.0851  1.8708
 2842SOL     OW 9080   0.723   6.327   6.987 -0.1570 -0.5363 -0.0433
 2842SOL    HW1 9081   0.643   6.319   7.039  0.1779  0.4739  0.6581
 2842SOL    HW2 9082   0.755   6.415   7.007  1.0447 -0.8761 -0.4417
 2843SOL     OW 9083   4.332   3.320   6.221 -0.4932  0.5443 -0.4290
 2843SOL    HW1 9084   4.393   3.292   6.152  0.4589  2.2375 -0.3271
 2843SOL    HW2 9085   4.387   3.329   6.299 -1.6246 -1.7331  0.7217
 2844SOL     OW 9086   6.522   2.543   1.570  0.7940 -0.0494  0.5516
 2844SOL    HW1 9087   6.613   2.573   1.566  0.6465  0.3273 -3.3417
 2844SOL    HW2 9088   6.485   2.565   1.485 -3.2697  0.5313  2.2330
 2845SOL     OW 9089   4.570   7.477   0.853  0.1725 -0.2213  0.5023
 2845SOL    HW1 9090   4.618   7.395   0.860  0.7622  0.0751  0.0250
 2845SOL    HW2 9091   4.506   7.461   0.783 -1.7573 -1.2380  2.3571
 2846SOL     OW 9092   2.344   0.506   1.673  0.8280  0.4414  0.1707
 2846SOL    HW1 9093   2.408   0.541   1.736  1.9823 -1.4671  0.1348
 2846SOL    HW2 9094   2.369   0.414   1.662  0.6931  0.6607 -3.0591
 2847SOL     OW 9095   3.560   7.647   4.110 -0.7277 -0.0992  0.1497
 2847SOL    HW1 9096   3.537   7.583   4.178 -1.5305  1.8130  1.7658
 2847SOL    HW2 9097   3.475   7.675   4.074 -0.3188 -2.2551 -2.9567
 2848SOL     OW 9098   3.306   2.733   5.378 -0.3186  0.4756  0.2305
 2848SOL    HW1 9099   3.356   2.803   5.335  0.6779 -0.1150  0.3897
 2848SOL    HW2 9100   3.352   2.653   5.353 -1.8362 -0.1996 -0.4904
 2849SOL     OW 9101   2.390   5.591   6.061  0.3976 -0.2770 -0.1963
 2849SOL    HW1 9102   2.387   5.544   6.145 -0.7932 -1.2079 -0.7279
 2849SOL    HW2 9103   2.364   5.526   5.997 -0.9522  1.0184 -1.0117
 2850SOL     OW 9104   5.632   1.856   5.514 -0.6230 -0.5967  0.3537
 2850SOL    HW1 9105   5.612   1.926   5.576  1.5723 -0.8081  1.4011
 2850SOL    HW2 9106   5.582   1.878   5.436 -0.3984  1.8735  0.8327
 2851SOL     OW 9107   5.822   3.712   2.562 -0.8863 -0.2304 -0.3394
 2851SOL    HW1 9108   5.846   3.715   2.470 -0.0424 -0.2695 -0.1296
 2851SOL    HW2 9109   5.866   3.787   2.601 -1.9652  0.2995 -0.1291
 2852SOL     OW 9110   6.387   7.613   7.142  0.0881  0.1041  0.6459
 2852SOL    HW1 9111   6.329   7.680   7.107 -1.2179 -0.4470  1.6875
 2852SOL    HW2 9112   6.329   7.546   7.178  1.3614 -0.9906  0.7740
 2853SOL     OW 9113   1.051   7.678   4.034 -0.3746 -0.1138 -0.3216
 2853SOL    HW1 9114   1.061   7.719   3.948  2.4297 -2.0566 -1.0882
 2853SOL    HW2 9115   0.993   7.603   4.018 -0.0657 -0.3230 -0.4626
 2854SOL     OW 9116   2.196   2.972   0.150 -0.5293 -0.0570 -0.5473
 2854SOL    HW1 9117   2.291   2.984   0.151 -0.6424  1.0089  0.2327
 2854SOL    HW2 9118   2.168   3.005   0.064 -0.1930 -0.3380 -0.7631
 2855SOL     OW 9119   6.849   0.228   2.517 -0.0096 -0.7839  0.4145
 2855SOL    HW1 9120   6.807   0.307   2.486  1.0995  0.0955  1.0741
 2855SOL    HW2 9121   6.900   0.256   2.593 -1.0667 -2.4824  1.8151
 2856SOL     OW 9122   1.255   4.625   4.868  0.1637 -0.3187  0.5729
 2856SOL    HW1 9123   1.174   4.585   4.902 -1.1638 -0.6670 -2.6649
 2856SOL    HW2 9124   1.236   4.718   4.864 -0.6098 -0.5142 -1.2767
 2857SOL     OW 9125   5.873   2.122   7.230  0.1738 -0.2230  0.0402
 2857SOL    HW1 9126   5.900   2.031   7.233 -3.2131 -1.3694  3.0109
 2857SOL    HW2 9127   5.805   2.125   7.163  1.9683  0.8276 -1.8465
 2858SOL     OW 9128   2.030   7.578   6.347  0.4767  0.3083  0.4151
 2858SOL    HW1 9129   1.977   7.575   6.426 -0.0714  0.4610  0.0564
 2858SOL    HW2 9130   2.047   7.486   6.326 -2.5959  0.0302 -1.4089
 2859SOL     OW 9131   1.215   3.662   2.962  0.0247 -0.1236 -0.0295
 2859SOL    HW1 9132   1.226   3.615   2.880 -0.1416  0.2816 -0.2918
 2859SOL    HW2 9133   1.170   3.601   3.020  0.6008 -0.5884 -0.0726
 2860SOL     OW 9134   6.936   7.631   0.341  0.0559 -0.2400  0.1519
 2860SOL    HW1 9135   6.923   7.653   0.248 -0.8955  1.5645  0.6710
 2860SOL    HW2 9136   6.876   7.559   0.357  0.4318 -0.7582 -0.6804
 2861SOL     OW 9137   5.434   3.174   0.574  0.1515  0.8541 -0.3178
 2861SOL    HW1 9138   5.359   3.166   0.515  1.3294  0.4547 -1.8374
 2861SOL    HW2 9139   5.409   3.126   0.652 -0.6393 -0.5133 -1.3759
 2862SOL     OW 9140   2.056   5.031   6.356  0.1612  0.6836  0.2222
 2862SOL    HW1 9141   1.973   5.003   6.320 -0.4365  0.7171  1.5042
 2862SOL    HW2 9142   2.122   4.999   6.295 -0.8611  2.4487 -1.9610
 2863SOL     OW 9143   2.314   6.580   3.803 -0.1095 -0.6763 -0.0507
 2863SOL    HW1 9144   2.384   6.518   3.784 -0.5669 -0.8877 -1.1187
 2863SOL    HW2 9145   2.249   6.564   3.735 -0.2707  0.9288 -0.2995
 2864SOL     OW 9146   6.434   2.227   5.817 -0.4615  0.4346  0.6832
 2864SOL    HW1 9147   6.438   2.152   5.757 -1.9407  0.6172  0.3028
 2864SOL    HW2 9148   6.470   2.195   5.899  2.5572  0.4517 -0.5014
 2865SOL     OW 9149   3.302   0.702   4.466  0.0648  0.2466 -0.0361
 2865SOL    HW1 9150   3.243   0.736   4.398  0.8435  1.2495 -0.2406
 2865SOL    HW2 9151   3.376   0.665   4.417  0.2404  0.2267  0.2424
 2866SOL     OW 9152   7.014   6.496   1.356  0.3011 -0.5235  0.0264
 2866SOL    HW1 9153   7.079   6.486   1.286 -0.1894  0.9178 -0.6630
 2866SOL    HW2 9154   6.929   6.488   1.311 -0.0141 -0.9467  0.6862
 2867SOL     OW 9155   3.919   0.889   5.076 -0.1243 -0.4021 -0.5656
 2867SOL    HW1 9156   3.866   0.861   5.002  0.2161 -0.6915 -0.7032
 2867SOL    HW2 9157   3.877   0.849   5.152 -1.0132  0.6441 -0.4846
 2868SOL     OW 9158   3.109   4.668   2.805 -0.0837 -0.3474  0.2591
 2868SOL    HW1 9159   3.071   4.754   2.822  0.8483  0.3008 -0.8107
 2868SOL    HW2 9160   3.036   4.607   2.813 -0.6765  0.4858  1.4261
 2869SOL     OW 9161   4.490   1.429   1.924  0.6001 -0.0104 -0.2144
 2869SOL    HW1 9162   4.569   1.460   1.968  1.4825 -2.7244  0.3265
 2869SOL    HW2 9163   4.419   1.477   1.966  1.7308  0.1753  1.5882
 2870SOL     OW 9164   6.363   3.905   1.584  0.1630  0.2764  0.1093
 2870SOL    HW1 9165   6.430   3.973   1.574 -0.8553  1.4080  0.7656
 2870SOL    HW2 9166   6.357   3.891   1.678  1.0896 -1.5211 -0.0532
 2871SOL     OW 9167   3.669   4.987   1.057 -0.2081 -0.2496 -0.3450
 2871SOL    HW1 9168   3.735   5.050   1.029 -1.4131  1.4913  0.5362
 2871SOL    HW2 9169   3.611   4.978   0.982 -0.3952  0.2027 -0.2560
 2872SOL     OW 9170   5.389   3.848   5.400  0.2884  0.1506 -0.1419
 2872SOL    HW1 9171   5.402   3.753   5.410 -1.1381  0.0960  1.7957
 2872SOL    HW2 9172   5.294   3.859   5.404  0.4404  1.6763 -0.4107
 2873SOL     OW 9173   6.788   0.527   2.078  0.2513 -0.0603 -0.0015
 2873SOL    HW1 9174   6.749   0.440   2.071 -1.2584  0.5616  0.3615
 2873SOL    HW2 9175   6.737   0.571   2.146  0.2237  1.4992 -0.9812
 2874SOL     OW 9176   0.227   3.707   5.547  0.1116 -0.3480  0.1633
 2874SOL    HW1 9177   0.139   3.708   5.585 -0.4785 -1.0980 -1.1372
 2874SOL    HW2 9178   0.271   3.782   5.587 -1.4861  0.7348 -0.0222
 2875SOL     OW 9179   7.020   6.810   5.079 -0.2399  0.2644 -0.1774
 2875SOL    HW1 9180   6.937   6.852   5.101 -0.2276  0.1421  0.1095
 2875SOL    HW2 9181   7.001   6.716   5.079 -0.4629  0.2908 -1.6385
 2876SOL     OW 9182   2.251   0.769   5.948 -0.1288  0.0788 -0.1830
 2876SOL    HW1 9183   2.294   0.686   5.926 -0.2036  0.1528 -0.6286
 2876SOL    HW2 9184   2.323   0.828   5.972  0.3925  1.0232 -3.4873
 2877SOL     OW 9185   7.647   2.076   6.217  0.2316 -0.0695  0.7859
 2877SOL    HW1 9186   7.630   2.157   6.169 -0.7743  0.4410  1.9509
 2877SOL    HW2 9187   7.717   2.032   6.167  0.6539  1.4076  0.0371
 2878SOL     OW 9188   1.831   6.785   5.825  0.0147  0.3131 -0.2881
 2878SOL    HW1 9189   1.800   6.827   5.744 -1.6749 -0.7556 -0.2418
 2878SOL    HW2 9190   1.753   6.742   5.861  1.0094 -0.2457  1.2849
 2879SOL     OW 9191   4.749   4.094   4.864 -0.2378  0.3123 -0.5956
 2879SOL    HW1 9192   4.773   4.187   4.856  0.4146  0.1223 -0.8758
 2879SOL    HW2 9193   4.762   4.074   4.957 -0.7837  0.6060 -0.4501
 2880SOL     OW 9194   6.026   4.534   3.776  0.8849  0.0415  0.3764
 2880SOL    HW1 9195   6.030   4.542   3.681 -1.4299  1.4838  0.3186
 2880SOL    HW2 9196   6.103   4.581   3.808  1.5083 -0.1814 -0.7647
 2881SOL     OW 9197   1.075   1.396   6.671  0.3948 -0.4942  0.1611
 2881SOL    HW1 9198   1.017   1.323   6.650  1.5984 -1.1236 -1.1979
 2881SOL    HW2 9199   1.163   1.359   6.660  1.0576  0.6258  1.4225
 2882SOL     OW 9200   6.031   1.677   2.084  0.3618  0.1346 -0.3024
 2882SOL    HW1 9201   5.985   1.666   2.000  0.9347  1.3677 -0.8011
 2882SOL    HW2 9202   6.067   1.590   2.102 -2.2681 -0.9524  0.2160
 2883SOL     OW 9203   0.968   5.741   5.883 -0.6376  0.5454  0.2337
 2883SOL    HW1 9204   0.893   5.745   5.943 -0.1176  0.8055  0.8757
 2883SOL    HW2 9205   0.983   5.832   5.857  0.0416  0.6303  0.8648
 2884SOL     OW 9206   4.857   5.903   4.772 -0.3651  0.1667 -0.0713
 2884SOL    HW1 9207   4.796   5.896   4.846 -0.0249  0.5941  0.2518
 2884SOL    HW2 9208   4.878   5.996   4.767  2.5154 -0.2919  1.6613
 2885SOL     OW 9209   1.549   6.361   4.628 -0.1504  0.6541  0.5416
 2885SOL    HW1 9210   1.466   6.336   4.668 -1.5527  0.2951 -2.3079
 2885SOL    HW2 9211   1.525   6.425   4.560  1.1291 -2.4632 -3.2588
 2886SOL     OW 9212   3.640   1.577   1.288 -0.5976  0.4433 -0.0929
 2886SOL    HW1 9213   3.688   1.590   1.206  0.2522  0.9805  0.4778
 2886SOL    HW2 9214   3.601   1.662   1.307 -2.6602 -0.2165 -1.0589
 2887SOL     OW 9215   6.793   1.372   2.946 -0.4034 -0.0514  0.5569
 2887SOL    HW1 9216   6.769   1.281   2.927  1.1366 -0.6056  1.1103
 2887SOL    HW2 9217   6.744   1.393   3.025 -2.0930  0.2155 -0.4998
 2888SOL     OW 9218   7.483   4.663   0.606 -0.1954  0.4926  0.1963
 2888SOL    HW1 9219   7.560   4.624   0.566 -1.4832 -1.7008 -0.3028
 2888SOL    HW2 9220   7.484   4.631   0.697 -0.0987  1.1271  0.4244
 2889SOL     OW 9221   2.427   1.734   1.919 -0.1785  0.0575  0.2021
 2889SOL    HW1 9222   2.489   1.729   1.846  0.4799  3.2881  0.3890
 2889SOL    HW2 9223   2.468   1.682   1.989  1.9902  1.3775  0.0174
 2890SOL     OW 9224   2.129   4.938   1.032 -0.1233  0.0054 -0.6570
 2890SOL    HW1 9225   2.081   5.018   1.012 -0.2989  0.1061  0.1083
 2890SOL    HW2 9226   2.138   4.940   1.128  1.0095 -0.2343 -0.7444
 2891SOL     OW 9227   3.827   6.756   3.079  0.2960 -0.1159 -0.2937
 2891SOL    HW1 9228   3.904   6.721   3.035  0.5928 -0.3227  0.3701
 2891SOL    HW2 9229   3.753   6.732   3.023  0.6274 -0.6458 -0.5061
 2892SOL     OW 9230   2.724   4.431   7.725  0.3726  0.1381  0.2722
 2892SOL    HW1 9231   2.641   4.405   7.685 -0.3763 -1.0071  2.4258
 2892SOL    HW2 9232   2.732   4.524   7.704 -1.5824  0.3349  0.2075
 2893SOL     OW 9233   2.595   2.897   4.165 -0.3573  0.0046 -0.2948
 2893SOL    HW1 9234   2.599   2.858   4.078 -2.5134 -0.1459 -0.3777
 2893SOL    HW2 9235   2.686   2.897   4.196  0.4203 -0.1705 -2.4209
 2894SOL     OW 9236   6.978   2.818   6.623 -0.1964 -0.4979 -0.1663
 2894SOL    HW1 9237   6.891   2.781   6.608  0.0943 -1.0203 -0.5605
 2894SOL    HW2 9238   7.018   2.760   6.687  0.4070 -1.0998 -1.0768
 2895SOL     OW 9239   3.265   2.201   5.401  0.0441 -0.2374 -0.2973
 2895SOL    HW1 9240   3.191   2.253   5.369 -0.2538 -0.1875  0.4588
 2895SOL    HW2 9241   3.292   2.149   5.325  0.2806  0.9376 -1.0341
 2896SOL     OW 9242   4.105   1.114   1.703  0.4911  0.3222  0.1661
 2896SOL    HW1 9243   4.043   1.163   1.648  0.0352 -0.4424 -0.0082
 2896SOL    HW2 9244   4.141   1.180   1.763  0.9869  1.1723 -1.0271
 2897SOL     OW 9245   2.323   6.818   3.897 -0.2209 -0.3996  0.2065
 2897SOL    HW1 9246   2.416   6.826   3.914 -0.5538  0.8870  1.6592
 2897SOL    HW2 9247   2.311   6.728   3.866  1.2199 -1.1993  1.8351
 2898SOL     OW 9248   1.719   1.341   6.953  0.0758  0.6576 -0.0619
 2898SOL    HW1 9249   1.635   1.328   6.908 -0.4645  0.8982  0.8663
 2898SOL    HW2 9250   1.739   1.256   6.991  0.1839  0.6407 -0.1551
 2899SOL     OW 9251   2.735   4.653   4.476 -0.6746 -0.1599 -0.0685
 2899SOL    HW1 9252   2.812   4.596   4.487 -0.8111 -0.2093  0.6687
 2899SOL    HW2 9253   2.770   4.732   4.435  0.0416  0.4062  1.5497
 2900SOL     OW 9254   6.784   2.649   0.356  0.0896  0.2405  0.0518
 2900SOL    HW1 9255   6.826   2.593   0.422 -0.1073 -0.3419 -0.3095
 2900SOL    HW2 9256   6.714   2.595   0.321 -0.4613  0.9249  0.0866
 2901SOL     OW 9257   2.572   7.373   1.962 -0.0841 -0.2134 -0.5462
 2901SOL    HW1 9258   2.645   7.382   2.024  0.0656 -2.1878 -0.3644
 2901SOL    HW2 9259   2.546   7.463   1.942  1.3454  0.5065  0.6311
 2902SOL     OW 9260   0.938   4.969   5.632  0.4291 -0.1536  0.4618
 2902SOL    HW1 9261   1.028   4.956   5.661  0.5115  0.6188  0.5911
 2902SOL    HW2 9262   0.928   5.064   5.628  0.5285 -0.2006 -2.4384
 2903SOL     OW 9263   0.931   1.169   0.391  0.9830  0.2225 -0.4002
 2903SOL    HW1 9264   0.950   1.256   0.354 -0.6560  0.9278  0.3285
 2903SOL    HW2 9265   0.836   1.160   0.384  1.0486 -1.2043  0.2392
 2904SOL     OW 9266   3.876   1.030   0.595  0.3072  0.4030  0.0735
 2904SOL    HW1 9267   3.802   1.088   0.574 -0.4938 -0.0112  1.6317
 2904SOL    HW2 9268   3.950   1.068   0.548 -0.5056  1.8821 -0.0682
 2905SOL     OW 9269   1.702   5.974   3.969  0.3795  0.4000 -0.6087
 2905SOL    HW1 9270   1.731   5.934   4.051  0.4747  0.4630 -0.6119
 2905SOL    HW2 9271   1.728   5.911   3.901  2.1002  1.2567 -0.7899
 2906SOL     OW 9272   7.449   3.247   0.492  0.5180  0.1029 -0.5244
 2906SOL    HW1 9273   7.538   3.237   0.459  0.8568 -0.1162  0.4401
 2906SOL    HW2 9274   7.417   3.158   0.504  0.3899  0.1789 -0.2876
 2907SOL     OW 9275   2.641   2.433   7.488 -0.0811 -0.1900 -0.1530
 2907SOL    HW1 9276   2.698   2.509   7.496 -0.2605 -0.0409 -0.2824
 2907SOL    HW2 9277   2.592   2.430   7.570  0.2477 -0.4270  0.0338
 2908SOL     OW 9278   5.484   3.976   5.066 -0.4069 -0.3603  0.3413
 2908SOL    HW1 9279   5.427   3.994   5.140  0.8941 -0.0826  1.3179
 2908SOL    HW2 9280   5.560   4.033   5.080 -0.3487  0.0725 -1.4814
 2909SOL     OW 9281   0.177   0.966   0.115  0.0880 -0.0356  0.4585
 2909SOL    HW1 9282   0.214   1.014   0.189  0.7874  0.4534 -0.1927
 2909SOL    HW2 9283   0.253   0.926   0.072  0.0895  2.0030 -1.6294
 2910SOL     OW 9284   2.944   4.788   2.203 -0.3850  0.1778 -0.0957
 2910SOL    HW1 9285   2.853   4.796   2.231 -0.4737  2.2322 -0.7941
 2910SOL    HW2 9286   2.985   4.869   2.233  0.9066 -0.1686 -0.8569
 2911SOL     OW 9287   5.162   3.984   5.998 -0.1216 -1.0538  0.5070
 2911SOL    HW1 9288   5.071   3.961   6.019  0.1283 -3.2193 -0.5128
 2911SOL    HW2 9289   5.210   3.967   6.079 -0.8555  2.2788  1.7948
 2912SOL     OW 9290   3.825   6.079   1.396  0.3609 -0.5468 -0.4446
 2912SOL    HW1 9291   3.782   6.031   1.325 -1.4002 -0.2402  0.3688
 2912SOL    HW2 9292   3.770   6.063   1.473  0.6564  1.3752  0.2223
 2913SOL     OW 9293   3.707   6.316   6.343 -0.0627  0.2123  0.0811
 2913SOL    HW1 9294   3.681   6.400   6.305 -2.7137 -0.1090  1.0062
 2913SOL    HW2 9295   3.721   6.259   6.268  1.9717  1.4694 -0.5704
 2914SOL     OW 9296   0.809   5.771   3.439 -0.0752  0.4998 -0.1918
 2914SOL    HW1 9297   0.731   5.773   3.494 -0.2372  0.0404 -0.3974
 2914SOL    HW2 9298   0.780   5.804   3.354  0.9792  4.8829  0.9136
 2915SOL     OW 9299   4.790   1.849   5.537  0.5871  0.0382 -0.5323
 2915SOL    HW1 9300   4.844   1.780   5.574  0.0107  0.7122  1.7112
 2915SOL    HW2 9301   4.708   1.805   5.514  1.5128 -0.7114 -2.6941
 2916SOL     OW 9302   6.891   6.341   6.631 -0.4619  0.2433  0.5073
 2916SOL    HW1 9303   6.810   6.374   6.592  0.3546  1.4112 -0.2868
 2916SOL    HW2 9304   6.952   6.334   6.557 -0.5276 -3.1240  0.6242
 2917SOL     OW 9305   5.621   2.662   5.724 -0.2620  0.2750 -0.4261
 2917SOL    HW1 9306   5.614   2.704   5.809 -0.9342 -1.4943  0.4604
 2917SOL    HW2 9307   5.715   2.649   5.711 -0.1069  1.2613 -0.3317
 2918SOL     OW 9308   5.066   0.148   4.672 -0.1989  0.1723  0.5776
 2918SOL    HW1 9309   5.104   0.074   4.718 -1.8960 -1.4305 -0.4444
 2918SOL    HW2 9310   5.138   0.210   4.660  1.8920 -2.3204 -0.5357
 2919SOL     OW 9311   0.103   3.073   4.552 -0.1156 -0.1819 -0.5175
 2919SOL    HW1 9312   0.142   2.986   4.562 -0.4113 -0.3923 -1.1428
 2919SOL    HW2 9313   0.161   3.117   4.490 -0.9763 -0.5768 -1.6392
 2920SOL     OW 9314   0.832   2.213   0.881  0.1447  0.0824 -0.3071
 2920SOL    HW1 9315   0.918   2.172   0.869 -0.2503 -0.6998 -0.5544
 2920SOL    HW2 9316   0.772   2.139   0.892 -0.0563  0.6152  3.2516
 2921SOL     OW 9317   3.481   3.757   6.816  0.0839  0.2187 -0.0196
 2921SOL    HW1 9318   3.417   3.796   6.876 -1.7733 -1.6742 -0.6266
 2921SOL    HW2 9319   3.523   3.688   6.866  0.3600  0.2828 -0.1591
 2922SOL     OW 9320   2.001   5.326   1.120 -0.1023  0.2289 -0.3083
 2922SOL    HW1 9321   2.085   5.372   1.115 -0.0297  0.1758  0.2803
 2922SOL    HW2 9322   1.996   5.275   1.040 -0.3773  1.5932 -1.1909
 2923SOL     OW 9323   4.930   3.809   7.508 -0.0918  0.3389 -0.2241
 2923SOL    HW1 9324   4.892   3.889   7.470 -0.1528  0.7316  0.6346
 2923SOL    HW2 9325   4.927   3.745   7.436 -2.3417  0.3463 -0.2282
 2924SOL     OW 9326   7.145   4.655   5.839 -0.0743 -0.9074 -0.6405
 2924SOL    HW1 9327   7.082   4.720   5.806  1.4428  1.0650  0.1322
 2924SOL    HW2 9328   7.147   4.671   5.934  3.1773  0.6752 -0.8669
 2925SOL     OW 9329   1.076   4.496   4.354  0.0308 -0.3495 -0.1767
 2925SOL    HW1 9330   0.990   4.464   4.328  0.2628 -1.4183  0.3050
 2925SOL    HW2 9331   1.102   4.439   4.427 -0.1914  1.9270  1.8263
 2926SOL     OW 9332   0.637   4.249   5.564  0.0591 -0.3559 -0.5784
 2926SOL    HW1 9333   0.581   4.200   5.505 -1.8454  1.6098 -0.5518
 2926SOL    HW2 9334   0.617   4.341   5.545  0.2308  0.3755  2.2330
 2927SOL     OW 9335   3.441   1.512   5.690  0.1437 -0.0568  0.2218
 2927SOL    HW1 9336   3.520   1.460   5.703 -0.2527 -0.8143 -0.3241
 2927SOL    HW2 9337   3.468   1.603   5.707  0.5212 -0.5535  2.6325
 2928SOL     OW 9338   3.097   4.782   1.026 -0.1077  0.2092 -0.4051
 2928SOL    HW1 9339   3.111   4.716   1.094 -0.7551 -1.3144 -1.6954
 2928SOL    HW2 9340   3.185   4.814   1.006  0.3433 -1.0093 -0.4534
 2929SOL     OW 9341   3.195   6.811   1.581  0.1016  0.2920 -0.2351
 2929SOL    HW1 9342   3.229   6.855   1.503  0.8224  1.4670  0.6966
 2929SOL    HW2 9343   3.256   6.835   1.651 -0.8824 -0.1682  0.8287
 2930SOL     OW 9344   6.231   2.633   2.946 -0.7473  0.0617 -0.7431
 2930SOL    HW1 9345   6.217   2.727   2.955  0.1168  0.0099  2.4733
 2930SOL    HW2 9346   6.155   2.594   2.990 -0.2878 -0.6753 -0.5908
 2931SOL     OW 9347   2.081   7.639   0.802  0.0967  0.1961 -0.2929
 2931SOL    HW1 9348   2.102   7.593   0.720  2.7236  0.1487  0.3216
 2931SOL    HW2 9349   2.054   7.726   0.773 -0.4222 -0.2596 -1.2540
 2932SOL     OW 9350   2.941   6.487   4.480  0.0963  0.2142  0.4862
 2932SOL    HW1 9351   2.979   6.496   4.567  1.2600  1.9247 -0.1571
 2932SOL    HW2 9352   2.900   6.572   4.462 -1.1008 -0.4789 -0.2081
 2933SOL     OW 9353   3.254   6.073   3.839 -0.5575  0.3353 -0.5186
 2933SOL    HW1 9354   3.211   5.993   3.867  0.4598 -0.0238  0.0915
 2933SOL    HW2 9355   3.348   6.055   3.851 -0.3286  1.6969 -0.1459
 2934SOL     OW 9356   5.384   5.341   3.828 -0.1514  0.3963 -0.0604
 2934SOL    HW1 9357   5.433   5.387   3.760  2.0294 -1.9034 -0.1892
 2934SOL    HW2 9358   5.299   5.322   3.788  0.0852  1.4537 -1.1209
 2935SOL     OW 9359   3.024   6.383   0.843 -0.5079 -0.3053  0.0428
 2935SOL    HW1 9360   2.969   6.305   0.850  0.3915 -0.9939 -0.4199
 2935SOL    HW2 9361   3.077   6.383   0.923  1.5080 -1.7693 -1.2108
 2936SOL     OW 9362   3.774   4.360   0.199  0.3725 -0.0969 -0.0083
 2936SOL    HW1 9363   3.823   4.277   0.194  0.6540  0.1448 -1.9136
 2936SOL    HW2 9364   3.805   4.411   0.124 -1.7494  0.6675 -0.4264
 2937SOL     OW 9365   3.611   3.296   0.834 -0.1433 -0.0105 -0.0101
 2937SOL    HW1 9366   3.703   3.313   0.854 -0.1468 -1.5159  1.4425
 2937SOL    HW2 9367   3.569   3.285   0.919 -1.3500 -0.9044 -0.6935
 2938SOL     OW 9368   1.106   5.773   2.621 -0.2990 -0.0274  0.2538
 2938SOL    HW1 9369   1.056   5.849   2.648  0.2106  0.1310  0.7834
 2938SOL    HW2 9370   1.180   5.769   2.682  0.3025 -0.2890 -0.4595
 2939SOL     OW 9371   1.797   4.335   5.560 -0.2210  0.4586 -0.1571
 2939SOL    HW1 9372   1.730   4.270   5.538  1.0518 -0.7279 -0.6867
 2939SOL    HW2 9373   1.879   4.293   5.535  0.9946  0.7872  2.8647
 2940SOL     OW 9374   0.460   4.699   4.317  0.3381 -0.1985 -0.7109
 2940SOL    HW1 9375   0.466   4.731   4.407  1.7842  1.8727 -1.4626
 2940SOL    HW2 9376   0.447   4.604   4.326 -1.0218  0.1256  1.6499
 2941SOL     OW 9377   2.451   2.436   6.345  0.1217  0.2577  0.0337
 2941SOL    HW1 9378   2.405   2.353   6.332  0.3809  0.1666 -0.3410
 2941SOL    HW2 9379   2.396   2.485   6.406  1.9347 -1.7544  3.5455
 2942SOL     OW 9380   0.233   3.056   2.856 -0.1749  0.2977  0.5079
 2942SOL    HW1 9381   0.189   3.027   2.776  1.2146  1.7526 -0.8686
 2942SOL    HW2 9382   0.315   3.008   2.858 -0.5194 -0.2696  1.4799
 2943SOL     OW 9383   1.963   6.334   7.377 -0.2858 -0.3931 -0.7526
 2943SOL    HW1 9384   1.931   6.251   7.412 -1.0233 -0.4196 -1.4756
 2943SOL    HW2 9385   1.900   6.399   7.408 -0.4330 -0.2862 -1.2789
 2944SOL     OW 9386   2.997   0.856   0.374 -0.0145 -0.8744  0.3604
 2944SOL    HW1 9387   2.997   0.951   0.380  1.4053 -0.6431 -1.9400
 2944SOL    HW2 9388   2.964   0.826   0.459 -4.2253  1.6740 -0.0941
 2945SOL     OW 9389   2.561   6.514   3.351  0.0036  0.1974 -0.1270
 2945SOL    HW1 9390   2.535   6.578   3.417 -2.5885 -0.9624  0.1147
 2945SOL    HW2 9391   2.568   6.565   3.270 -2.1632  0.8256  0.0219
 2946SOL     OW 9392   2.872   7.260   4.611 -0.0484 -0.3029  0.0110
 2946SOL    HW1 9393   2.798   7.203   4.588 -0.8766 -0.1093  1.9817
 2946SOL    HW2 9394   2.939   7.199   4.645  0.4832 -0.4160 -1.1957
 2947SOL     OW 9395   7.348   6.247   1.122 -0.0539  0.0355  0.3545
 2947SOL    HW1 9396   7.307   6.332   1.137 -1.2987 -0.2681 -1.1075
 2947SOL    HW2 9397   7.280   6.194   1.080  0.9208 -1.4600  0.5838
 2948SOL     OW 9398   6.853   6.497   7.504  0.3953  0.3835 -0.0503
 2948SOL    HW1 9399   6.861   6.591   7.519  2.4086  0.0495  1.4450
 2948SOL    HW2 9400   6.881   6.484   7.413 -0.2435  1.2552 -0.3779
 2949SOL     OW 9401   0.622   3.051   1.253 -0.0529 -0.1481 -0.3712
 2949SOL    HW1 9402   0.621   2.997   1.331  1.5123  1.5532  0.9077
 2949SOL    HW2 9403   0.714   3.066   1.234 -0.4075  0.1259 -2.1179
 2950SOL     OW 9404   4.873   5.449   4.897 -0.4123  0.4472  0.1463
 2950SOL    HW1 9405   4.923   5.516   4.850  1.1924  0.1541  1.3601
 2950SOL    HW2 9406   4.927   5.427   4.972 -0.8255 -2.3071 -0.2500
 2951SOL     OW 9407   0.444   3.017   2.117 -0.1054  0.1901 -0.3189
 2951SOL    HW1 9408   0.441   2.962   2.195  1.1312  0.7056  0.1269
 2951SOL    HW2 9409   0.499   3.091   2.142  0.6585  0.1713 -1.8038
 2952SOL     OW 9410   7.296   0.892   5.996  0.6199 -0.2773  0.0426
 2952SOL    HW1 9411   7.367   0.829   6.008 -1.4142 -2.8636 -0.5934
 2952SOL    HW2 9412   7.291   0.939   6.079  1.7806 -1.4189  0.8046
 2953SOL     OW 9413   6.924   4.002   4.201  0.1211  0.2475  0.1997
 2953SOL    HW1 9414   6.863   3.929   4.191 -1.3805  1.5120 -0.4271
 2953SOL    HW2 9415   7.006   3.971   4.162 -0.1297 -1.4655  0.9743
 2954SOL     OW 9416   2.515   7.443   7.627 -0.6901  0.2435 -0.0609
 2954SOL    HW1 9417   2.535   7.350   7.622 -3.1379 -0.6820  3.4158
 2954SOL    HW2 9418   2.431   7.452   7.581 -1.3005  0.3158  1.0202
 2955SOL     OW 9419   2.421   5.053   6.292  0.4383 -0.3547  0.2722
 2955SOL    HW1 9420   2.353   5.114   6.264  2.5510  1.1772 -1.9410
 2955SOL    HW2 9421   2.378   4.996   6.356 -2.4869  1.4114  0.0383
 2956SOL     OW 9422   1.054   5.407   2.703 -0.1994  0.0485 -0.5194
 2956SOL    HW1 9423   1.077   5.460   2.627 -0.4718  0.1165 -0.5540
 2956SOL    HW2 9424   0.997   5.338   2.668  0.3490 -0.4180 -0.5201
 2957SOL     OW 9425   3.876   5.001   2.541 -0.6764 -0.4781  0.5095
 2957SOL    HW1 9426   3.833   5.024   2.458 -0.5786 -0.6396  0.4157
 2957SOL    HW2 9427   3.928   5.078   2.563  1.1848 -1.3103 -0.7861
 2958SOL     OW 9428   0.821   7.443   5.802 -0.2151  0.3676  0.1694
 2958SOL    HW1 9429   0.868   7.365   5.771 -0.3281  0.9645 -1.6184
 2958SOL    HW2 9430   0.820   7.434   5.897  0.8941 -1.1676  0.0742
 2959SOL     OW 9431   6.572   3.012   4.312 -0.1039 -0.5832 -0.3031
 2959SOL    HW1 9432   6.572   3.035   4.405  0.2682  0.1060 -0.4654
 2959SOL    HW2 9433   6.660   2.979   4.295  1.0761  2.6291 -1.1656
 2960SOL     OW 9434   0.945   1.475   5.523  0.2745 -0.0819 -0.1949
 2960SOL    HW1 9435   1.011   1.433   5.468 -1.4392 -1.8969 -1.0045
 2960SOL    HW2 9436   0.972   1.456   5.612 -0.1311 -2.6228 -0.5200
 2961SOL     OW 9437   0.226   2.376   6.332 -0.6031 -0.5813 -0.7513
 2961SOL    HW1 9438   0.155   2.334   6.379 -0.3398  0.5324  0.7161
 2961SOL    HW2 9439   0.253   2.312   6.266 -1.0617 -2.1620  0.5512
 2962SOL     OW 9440   6.253   3.500   5.228  0.1539 -0.1279  0.6032
 2962SOL    HW1 9441   6.344   3.501   5.199  0.0757 -0.8621  0.3202
 2962SOL    HW2 9442   6.255   3.453   5.311  0.5485  2.9159  2.4607
 2963SOL     OW 9443   7.728   6.706   5.175 -0.5096  0.3650 -0.1170
 2963SOL    HW1 9444   7.763   6.748   5.097  0.2448  1.2508  0.6783
 2963SOL    HW2 9445   7.767   6.754   5.248 -2.3041  0.5062  0.8169
 2964SOL     OW 9446   4.461   6.103   5.073 -0.1260 -0.3487 -0.3059
 2964SOL    HW1 9447   4.468   6.014   5.109 -1.6424 -0.3228  0.1152
 2964SOL    HW2 9448   4.369   6.113   5.050 -0.0975  1.3021  0.1417
 2965SOL     OW 9449   7.175   6.842   2.322 -0.2724 -0.6213  0.3331
 2965SOL    HW1 9450   7.231   6.832   2.399  0.0561 -0.1508  0.1615
 2965SOL    HW2 9451   7.229   6.890   2.259 -0.6149 -0.8077 -0.1087
 2966SOL     OW 9452   7.656   3.058   2.499  0.0144 -0.1761 -0.5198
 2966SOL    HW1 9453   7.624   2.975   2.463  0.2459 -0.3226 -0.3876
 2966SOL    HW2 9454   7.576   3.105   2.523 -0.0885 -0.9310  0.7093
 2967SOL     OW 9455   5.107   1.370   1.066 -0.1599 -0.6698 -0.4298
 2967SOL    HW1 9456   5.094   1.317   0.988  0.1076 -0.4862 -0.5983
 2967SOL    HW2 9457   5.048   1.445   1.054 -1.1522 -1.3258  0.1843
 2968SOL     OW 9458   0.484   2.023   3.520  0.0433  0.8249 -0.3382
 2968SOL    HW1 9459   0.464   2.037   3.612 -0.1939 -0.0322 -0.2523
 2968SOL    HW2 9460   0.408   1.977   3.485  0.7904 -0.2453 -0.5920
 2969SOL     OW 9461   1.703   6.443   4.824  0.2840 -0.2301  0.4400
 2969SOL    HW1 9462   1.661   6.527   4.841  4.3821  1.8441  1.6798
 2969SOL    HW2 9463   1.652   6.404   4.754 -3.7280  1.7148  2.0067
 2970SOL     OW 9464   4.057   0.091   4.132  0.3812  0.3085  0.6527
 2970SOL    HW1 9465   3.979   0.053   4.172 -0.1141  0.4918 -0.1321
 2970SOL    HW2 9466   4.124   0.084   4.200 -0.3034  0.1156  1.3226
 2971SOL     OW 9467   3.185   2.184   3.250 -0.2857  0.5113  0.1024
 2971SOL    HW1 9468   3.177   2.176   3.345  0.1517  0.4724  0.1379
 2971SOL    HW2 9469   3.245   2.113   3.226  2.4907  2.6474  0.2253
 2972SOL     OW 9470   2.797   2.176   6.550 -0.2421 -0.9463  1.3317
 2972SOL    HW1 9471   2.776   2.214   6.635 -2.8892 -0.3013  0.4954
 2972SOL    HW2 9472   2.723   2.118   6.531  0.3971 -1.2440 -0.4516
 2973SOL     OW 9473   5.549   7.123   0.407  0.4962  0.0961  0.3023
 2973SOL    HW1 9474   5.638   7.089   0.408  1.1778  1.6625  3.2189
 2973SOL    HW2 9475   5.498   7.062   0.460 -0.2509 -0.8274 -1.4042
 2974SOL     OW 9476   4.490   3.210   3.416  0.1583  0.6977  0.6223
 2974SOL    HW1 9477   4.455   3.129   3.454  0.9006  0.0429 -0.0635
 2974SOL    HW2 9478   4.416   3.271   3.417 -0.4625 -0.0506  0.9543
 2975SOL     OW 9479   7.493   0.656   3.998  0.0763  0.5198  0.4373
 2975SOL    HW1 9480   7.541   0.680   4.077  1.9922 -0.3341 -0.3947
 2975SOL    HW2 9481   7.506   0.561   3.991 -0.6456  0.4854 -0.5291
 2976SOL     OW 9482   2.220   2.282   0.489  0.2618  0.2735  0.2210
 2976SOL    HW1 9483   2.208   2.191   0.514  0.9921 -0.5398 -2.1459
 2976SOL    HW2 9484   2.149   2.300   0.428  0.9572  0.8345 -0.4421
 2977SOL     OW 9485   2.155   2.639   5.591 -0.4873 -0.4259  0.5007
 2977SOL    HW1 9486   2.120   2.647   5.502 -1.4248 -1.3292  0.7617
 2977SOL    HW2 9487   2.081   2.661   5.647  0.3899  1.1983  1.0740
 2978SOL     OW 9488   7.378   4.998   1.059 -0.6560 -0.1519  0.7400
 2978SOL    HW1 9489   7.304   4.951   1.020 -0.1069 -1.0167  0.7109
 2978SOL    HW2 9490   7.451   4.936   1.055 -0.2161  0.2696  1.8251
 2979SOL     OW 9491   0.187   4.081   0.975 -0.4250 -0.1227  0.2196
 2979SOL    HW1 9492   0.111   4.133   0.951  0.6857  0.8832 -1.3449
 2979SOL    HW2 9493   0.158   3.990   0.968 -1.6659  0.2492  0.4007
 2980SOL     OW 9494   2.974   6.447   7.382 -0.2546  0.3691 -0.3623
 2980SOL    HW1 9495   2.906   6.383   7.400  0.2635 -0.7599 -2.1176
 2980SOL    HW2 9496   2.953   6.481   7.295  1.6363 -0.4026 -1.1916
 2981SOL     OW 9497   1.156   1.500   1.182 -0.4593  0.2506 -0.3021
 2981SOL    HW1 9498   1.124   1.411   1.198  1.0867 -0.3726 -0.5347
 2981SOL    HW2 9499   1.176   1.502   1.089 -0.3044  0.7993 -0.2610
 2982SOL     OW 9500   7.061   1.268   5.379  0.2517 -0.5535 -0.1442
 2982SOL    HW1 9501   7.048   1.357   5.413  0.8351 -0.0776 -1.1216
 2982SOL    HW2 9502   7.082   1.216   5.457  0.3184  0.2537  0.3935
 2983SOL     OW 9503   7.609   7.519   0.207 -0.0394  0.3016 -0.8173
 2983SOL    HW1 9504   7.664   7.537   0.131 -0.0578 -0.7211 -1.0777
 2983SOL    HW2 9505   7.656   7.560   0.280  0.5837  0.2588 -1.1833
 2984SOL     OW 9506   7.438   1.147   7.096  0.0305 -0.2358 -0.1162
 2984SOL    HW1 9507   7.516   1.102   7.066  0.6166  0.3672  0.4590
 2984SOL    HW2 9508   7.448   1.153   7.191 -0.2263  0.7373 -0.1397
 2985SOL     OW 9509   7.583   4.200   2.033  0.3331 -0.5043  0.1560
 2985SOL    HW1 9510   7.543   4.140   1.969 -0.6055 -0.0974  0.3411
 2985SOL    HW2 9511   7.518   4.269   2.044 -0.3627 -1.4697  2.9011
 2986SOL     OW 9512   7.655   0.095   6.316  0.0608 -0.0515  0.0204
 2986SOL    HW1 9513   7.700   0.018   6.351 -0.9089 -1.2182 -1.1601
 2986SOL    HW2 9514   7.565   0.066   6.303  0.2630  0.3645 -3.0636
 2987SOL     OW 9515   3.439   5.258   1.421  0.5589 -0.1775  0.9138
 2987SOL    HW1 9516   3.413   5.251   1.329  0.7387  0.7265  0.7844
 2987SOL    HW2 9517   3.441   5.168   1.452 -0.7193 -0.4180  0.3735
 2988SOL     OW 9518   1.999   5.804   1.648  1.2673  0.1786 -0.2531
 2988SOL    HW1 9519   1.948   5.869   1.600  0.0155 -0.6062 -0.0351
 2988SOL    HW2 9520   2.060   5.768   1.583  0.9814  0.5448 -0.7297
 2989SOL     OW 9521   0.046   3.976   4.893 -0.3464 -0.1338 -0.0416
 2989SOL    HW1 9522   0.072   4.067   4.876 -0.0467 -0.4014 -1.0923
 2989SOL    HW2 9523  -0.012   3.982   4.969  0.7972  0.7743  0.8112
 2990SOL     OW 9524   2.058   5.342   6.059  0.4539  0.4114  0.2069
 2990SOL    HW1 9525   2.112   5.275   6.102 -2.0014 -0.9372  1.4131
 2990SOL    HW2 9526   2.089   5.425   6.096  1.5851 -0.3123  0.9653
 2991SOL     OW 9527   5.481   5.156   1.733  0.3428  0.4929  0.2631
 2991SOL    HW1 9528   5.517   5.185   1.649  2.1551 -0.9943  0.4474
 2991SOL    HW2 9529   5.505   5.224   1.795 -0.7900  1.4821 -0.3531
 2992SOL     OW 9530   5.582   7.677   2.606  0.4566  0.2726  0.1917
 2992SOL    HW1 9531   5.528   7.665   2.528 -1.7547 -0.6435  1.7593
 2992SOL    HW2 9532   5.608   7.588   2.631  1.5740  0.5959  0.2285
 2993SOL     OW 9533   1.901   1.626   1.144  0.8680 -0.3515 -0.2513
 2993SOL    HW1 9534   1.990   1.649   1.168  1.4689 -1.4411 -1.3085
 2993SOL    HW2 9535   1.906   1.533   1.121 -0.5203 -0.4087 -0.3938
 2994SOL     OW 9536   4.760   7.478   5.611  0.1298  0.5337  0.0111
 2994SOL    HW1 9537   4.743   7.385   5.627  0.6650  0.8767  3.2036
 2994SOL    HW2 9538   4.678   7.522   5.631 -0.0507  0.8192 -1.2504
 2995SOL     OW 9539   4.103   4.159   1.894  0.0177  0.2156  0.5421
 2995SOL    HW1 9540   4.036   4.092   1.880 -0.2868  0.6861 -0.2799
 2995SOL    HW2 9541   4.103   4.211   1.814  0.2165  1.2347  1.1813
 2996SOL     OW 9542   6.321   3.531   6.273 -0.2877  0.2620  0.3802
 2996SOL    HW1 9543   6.299   3.472   6.345 -0.2928  0.3197  0.4266
 2996SOL    HW2 9544   6.236   3.554   6.235 -0.2512 -0.1477  0.0515
 2997SOL     OW 9545   7.690   4.644   3.333 -0.1297 -0.3578 -0.0587
 2997SOL    HW1 9546   7.659   4.732   3.353 -0.3378 -0.0175 -1.7446
 2997SOL    HW2 9547   7.784   4.647   3.345 -0.3458 -0.4999  1.9146
 2998SOL     OW 9548   1.868   0.510   2.365  0.6909 -0.0531  0.0245
 2998SOL    HW1 9549   1.882   0.549   2.278 -0.4082 -0.9628 -0.5902
 2998SOL    HW2 9550   1.789   0.552   2.398 -0.3798 -1.5476 -0.5546
 2999SOL     OW 9551   5.933   0.164   3.937  0.5678 -0.5239  0.0115
 2999SOL    HW1 9552   5.983   0.246   3.940 -0.1203 -0.0911 -0.1110
 2999SOL    HW2 9553   5.932   0.134   4.028 -2.4637  1.6634  0.8703
 3000SOL     OW 9554   7.108   0.560   4.981 -0.3737 -0.2403 -0.3898
 3000SOL    HW1 9555   7.170   0.491   4.958 -0.9442 -0.7521 -0.4336
 3000SOL    HW2 9556   7.104   0.557   5.077  0.5463  0.5893 -0.3103
 3001SOL     OW 9557   3.373   7.129   1.875 -0.2395 -0.1304 -0.0130
 3001SOL    HW1 9558   3.439   7.167   1.818 -1.3774  0.2619 -1.1091
 3001SOL    HW2 9559   3.334   7.204   1.919 -0.7639 -0.2438 -0.2756
 3002SOL     OW 9560   3.672   6.600   6.753 -0.0354  0.8451 -0.1208
 3002SOL    HW1 9561   3.678   6.639   6.666  0.8461 -1.6675 -1.2908
 3002SOL    HW2 9562   3.740   6.532   6.754 -0.9701 -0.1624  2.0100
 3003SOL     OW 9563   0.125   2.204   4.506 -0.2585  0.0517 -0.1526
 3003SOL    HW1 9564   0.035   2.235   4.514 -0.7164 -1.3735  0.7035
 3003SOL    HW2 9565   0.172   2.276   4.465 -1.4471  1.4525  0.8402
 3004SOL     OW 9566   1.635   6.883   7.069  0.9923  0.0983 -0.0109
 3004SOL    HW1 9567   1.648   6.909   6.978  1.8093 -1.2956 -0.3249
 3004SOL    HW2 9568   1.541   6.867   7.076  1.1810 -1.9235 -1.2659
 3005SOL     OW 9569   3.908   0.492   6.111  0.3654  0.0076  0.4890
 3005SOL    HW1 9570   3.925   0.432   6.184  0.4656  0.8860  1.1996
 3005SOL    HW2 9571   3.913   0.579   6.149 -0.1326  0.4729 -0.4568
 3006SOL     OW 9572   0.930   0.928   2.099  0.3184 -0.2516 -0.3654
 3006SOL    HW1 9573   0.946   0.963   2.011  1.2784 -0.2274 -0.1973
 3006SOL    HW2 9574   0.861   0.984   2.135 -0.5240 -0.6480 -1.3235
 3007SOL     OW 9575   2.553   0.105   4.543 -0.4247  0.0150 -0.2120
 3007SOL    HW1 9576   2.631   0.064   4.506 -0.6356 -1.1578  0.6163
 3007SOL    HW2 9577   2.586   0.183   4.588  0.0448  0.4644 -1.3006
 3008SOL     OW 9578   1.712   3.198   2.348  0.4767 -0.0472 -0.0888
 3008SOL    HW1 9579   1.786   3.200   2.408  1.6311 -1.2772 -1.3810
 3008SOL    HW2 9580   1.743   3.244   2.270 -0.3424 -0.0471 -0.4306
 3009SOL     OW 9581   1.973   1.958   6.333 -0.8650  0.7756  0.0465
 3009SOL    HW1 9582   1.906   1.933   6.396 -0.8451 -1.0679 -0.5977
 3009SOL    HW2 9583   2.056   1.937   6.376 -0.8593 -0.7588 -0.6473
 3010SOL     OW 9584   2.081   7.609   2.239  0.1558  0.1105 -0.2067
 3010SOL    HW1 9585   2.157   7.657   2.204 -1.2098  2.9880  0.5148
 3010SOL    HW2 9586   2.007   7.638   2.186 -0.9109 -0.4246  0.9307
 3011SOL     OW 9587   7.016   4.152   5.437  0.1069  0.2868  0.0560
 3011SOL    HW1 9588   7.036   4.239   5.402  0.0786  0.0812 -0.4876
 3011SOL    HW2 9589   6.936   4.127   5.392  0.2178 -0.0975  0.0742
 3012SOL     OW 9590   2.859   3.644   4.818  0.4379 -0.2568  0.2393
 3012SOL    HW1 9591   2.924   3.617   4.753  0.7545  0.1967  0.3641
 3012SOL    HW2 9592   2.802   3.705   4.770  1.8786  1.7024  0.8849
 3013SOL     OW 9593   1.557   5.231   1.843  0.6563  0.2414 -0.0853
 3013SOL    HW1 9594   1.620   5.172   1.882 -1.0436 -1.6543 -0.0198
 3013SOL    HW2 9595   1.476   5.180   1.839 -0.9925  2.6764  0.2214
 3014SOL     OW 9596   0.364   4.475   4.466 -0.0070  0.0009 -0.2018
 3014SOL    HW1 9597   0.330   4.531   4.535  0.2072 -0.8320  0.5998
 3014SOL    HW2 9598   0.291   4.417   4.445 -0.0498  0.2088 -0.6303
 3015SOL     OW 9599   4.668   1.105   5.204  0.0422  0.1361  0.0516
 3015SOL    HW1 9600   4.669   1.200   5.190 -0.4337  0.1860  0.3364
 3015SOL    HW2 9601   4.698   1.094   5.295 -0.0566  0.0259  0.0714
 3016SOL     OW 9602   0.419   7.500   0.845 -0.6355 -0.6730  0.0527
 3016SOL    HW1 9603   0.508   7.471   0.866 -0.2499  0.6061  0.3052
 3016SOL    HW2 9604   0.390   7.442   0.775  1.0941  0.0099 -1.2958
 3017SOL     OW 9605   5.320   2.108   3.237 -0.1455  0.5324 -0.1218
 3017SOL    HW1 9606   5.352   2.024   3.204  0.7107  0.7191  0.2171
 3017SOL    HW2 9607   5.229   2.090   3.263 -0.1956 -0.1108 -0.6939
 3018SOL     OW 9608   1.936   3.550   0.876  0.0481  0.2049  0.3685
 3018SOL    HW1 9609   1.971   3.604   0.805  0.0813 -0.5143 -0.1720
 3018SOL    HW2 9610   1.932   3.609   0.951 -0.5796  1.1555 -0.3906
 3019SOL     OW 9611   7.385   2.409   4.391  0.3054  0.3191 -0.2462
 3019SOL    HW1 9612   7.452   2.391   4.326  1.2990  1.5523  0.3937
 3019SOL    HW2 9613   7.394   2.502   4.411 -1.6524  0.5408 -0.1825
 3020SOL     OW 9614   2.899   5.904   5.192 -0.1373  0.2511 -0.7681
 3020SOL    HW1 9615   2.925   5.815   5.218  3.7586  1.1049 -1.0313
 3020SOL    HW2 9616   2.818   5.892   5.142  0.2080 -3.1392 -0.7609
 3021SOL     OW 9617   1.649   6.856   7.372  0.1675  0.0298  0.3932
 3021SOL    HW1 9618   1.706   6.790   7.333  2.7401  1.4605  1.4934
 3021SOL    HW2 9619   1.630   6.917   7.301  3.8754  1.9930  0.8501
 3022SOL     OW 9620   4.400   2.106   7.609 -0.0543  0.3757 -0.0267
 3022SOL    HW1 9621   4.434   2.050   7.540  2.6741  0.0870  1.4412
 3022SOL    HW2 9622   4.388   2.048   7.684  1.7959  1.4640  1.1961
 3023SOL     OW 9623   1.730   6.936   5.241  0.0865 -0.2291 -0.1033
 3023SOL    HW1 9624   1.765   7.018   5.274  1.6043 -0.7162 -0.4553
 3023SOL    HW2 9625   1.746   6.938   5.147  2.1924 -1.8366  0.1455
 3024SOL     OW 9626   1.389   3.572   5.374  0.1292 -0.1612 -0.5351
 3024SOL    HW1 9627   1.309   3.611   5.337 -1.7648 -2.0356  1.2806
 3024SOL    HW2 9628   1.390   3.483   5.338  0.2966 -0.7743  0.9224
 3025SOL     OW 9629   1.459   5.419   4.939 -0.2052 -0.2650 -0.0857
 3025SOL    HW1 9630   1.442   5.365   4.862  0.1316 -0.3673 -0.0920
 3025SOL    HW2 9631   1.373   5.444   4.971 -0.3794 -1.2045  0.1980
 3026SOL     OW 9632   3.366   2.046   6.987  0.4250  0.0243  0.2960
 3026SOL    HW1 9633   3.288   2.066   7.038  0.6836 -0.3829  0.8513
 3026SOL    HW2 9634   3.436   2.096   7.029  0.5027  0.2453 -0.0908
 3027SOL     OW 9635   2.522   5.645   1.493 -0.2190  0.0015 -0.3258
 3027SOL    HW1 9636   2.511   5.613   1.583 -0.3355  1.2845  0.1388
 3027SOL    HW2 9637   2.434   5.639   1.455 -0.3142  0.1238 -0.1245
 3028SOL     OW 9638   2.142   7.014   2.437 -0.1495 -0.0771  0.1290
 3028SOL    HW1 9639   2.155   7.007   2.532  2.7986 -0.9278 -0.2631
 3028SOL    HW2 9640   2.071   6.952   2.419 -0.5653 -0.1167  1.7131
 3029SOL     OW 9641   5.372   6.795   3.196  0.6301 -0.0825 -0.1159
 3029SOL    HW1 9642   5.410   6.746   3.270  1.5068 -0.8581 -1.0504
 3029SOL    HW2 9643   5.292   6.834   3.232  1.2137 -0.1604  1.3337
 3030SOL     OW 9644   2.225   5.882   6.859  0.1798 -0.2426 -0.6466
 3030SOL    HW1 9645   2.271   5.848   6.936 -3.2640  1.9317  2.7949
 3030SOL    HW2 9646   2.245   5.975   6.859 -0.2649 -0.1320 -2.1245
 3031SOL     OW 9647   6.621   4.253   5.973  0.3477 -0.5237  0.1358
 3031SOL    HW1 9648   6.671   4.296   5.903  0.2458 -0.0758  0.3343
 3031SOL    HW2 9649   6.663   4.284   6.053  0.6122 -1.2177  0.2704
 3032SOL     OW 9650   2.320   7.714   5.749  0.0556  0.0009  0.4145
 3032SOL    HW1 9651   2.227   7.735   5.761 -0.3726 -1.9882  0.9661
 3032SOL    HW2 9652   2.366   7.796   5.767 -1.6163  1.2042 -0.5391
 3033SOL     OW 9653   3.029   3.713   5.705  0.2665  0.3126 -0.4923
 3033SOL    HW1 9654   3.080   3.676   5.633 -1.2523 -1.0775 -0.9145
 3033SOL    HW2 9655   3.018   3.805   5.680  0.3717  0.0237 -1.6990
 3034SOL     OW 9656   5.215   6.019   7.728  0.4048 -0.6313  0.0537
 3034SOL    HW1 9657   5.184   5.988   7.643  1.2557  1.7547 -1.2054
 3034SOL    HW2 9658   5.310   6.026   7.718  0.3081  1.8518  0.3828
 3035SOL     OW 9659   3.861   4.021   1.743 -0.2838  0.1744 -0.0336
 3035SOL    HW1 9660   3.819   3.986   1.822  0.1760 -0.0928  0.0942
 3035SOL    HW2 9661   3.804   3.994   1.671  0.1300 -0.9520  0.0458
 3036SOL     OW 9662   0.875   6.707   1.290  0.8805  0.0771  0.1717
 3036SOL    HW1 9663   0.957   6.656   1.283  0.7366 -0.2314  0.6960
 3036SOL    HW2 9664   0.835   6.698   1.204  1.0208 -0.4310  0.1520
 3037SOL     OW 9665   5.067   7.712   6.154  0.4091  0.0356  0.3558
 3037SOL    HW1 9666   5.025   7.629   6.174 -1.5856  1.1493  1.0571
 3037SOL    HW2 9667   5.124   7.693   6.080 -0.3458 -1.8538  0.2156
 3038SOL     OW 9668   7.497   3.803   1.145 -0.3987 -0.3760  0.3544
 3038SOL    HW1 9669   7.461   3.881   1.102 -0.1579 -0.8754 -0.7760
 3038SOL    HW2 9670   7.529   3.836   1.229  0.6309  0.9810 -0.5125
 3039SOL     OW 9671   0.690   7.585   7.113 -0.0617  0.4665 -0.2942
 3039SOL    HW1 9672   0.697   7.535   7.195 -1.1097  1.5272  0.4687
 3039SOL    HW2 9673   0.740   7.665   7.129  0.9000  0.0771 -1.2106
 3040SOL     OW 9674   6.144   2.125   3.358 -0.3804  0.3815 -0.1167
 3040SOL    HW1 9675   6.175   2.190   3.422 -0.9708  0.0424  0.5248
 3040SOL    HW2 9676   6.062   2.161   3.325 -0.0882  0.5446 -0.6820
 3041SOL     OW 9677   3.119   0.014   1.246  0.2909  0.0450 -0.1210
 3041SOL    HW1 9678   3.037  -0.015   1.207 -0.1123  0.7089  0.2319
 3041SOL    HW2 9679   3.127   0.106   1.222  0.3811  0.2801  0.7814
 3042SOL     OW 9680   7.377   5.441   4.026  0.1099 -0.8472  0.2023
 3042SOL    HW1 9681   7.299   5.451   4.080 -0.0721  1.8651 -0.3793
 3042SOL    HW2 9682   7.343   5.441   3.936  0.7334  1.1507 -0.0928
 3043SOL     OW 9683   2.756   2.037   1.139  0.1407  0.1036 -0.3964
 3043SOL    HW1 9684   2.705   2.109   1.101  1.4247  0.6076 -1.2276
 3043SOL    HW2 9685   2.754   2.053   1.233  1.1181  1.7632 -0.6189
 3044SOL     OW 9686   3.966   5.744   6.102 -0.0253 -0.1636  0.4472
 3044SOL    HW1 9687   3.893   5.691   6.133 -0.0847  0.0702  0.7082
 3044SOL    HW2 9688   3.957   5.744   6.006 -1.3321  1.2193  0.5477
 3045SOL     OW 9689   4.375   0.891   0.050 -0.7262 -0.1884  0.4699
 3045SOL    HW1 9690   4.427   0.962   0.013 -2.0364  0.4711 -0.1857
 3045SOL    HW2 9691   4.404   0.884   0.140 -0.4534  1.0889  0.4953
 3046SOL     OW 9692   1.686   6.444   3.187 -0.2260 -0.4151  0.3506
 3046SOL    HW1 9693   1.617   6.430   3.252 -2.6129 -0.4675 -2.0454
 3046SOL    HW2 9694   1.694   6.539   3.180  0.8706 -0.3960  1.4713
 3047SOL     OW 9695   1.559   3.028   1.888  0.4008  0.1167 -0.2852
 3047SOL    HW1 9696   1.583   3.099   1.828 -1.0835 -0.5671 -1.7698
 3047SOL    HW2 9697   1.566   2.948   1.835 -0.5227 -0.5651  0.5753
 3048SOL     OW 9698   1.325   6.590   7.309 -0.1576 -0.0411  0.0304
 3048SOL    HW1 9699   1.387   6.582   7.237 -0.8700  0.4289 -0.6506
 3048SOL    HW2 9700   1.240   6.565   7.271 -0.7199  1.1751  0.4393
 3049SOL     OW 9701   0.594   0.033   1.398  0.0364 -0.1145 -0.2620
 3049SOL    HW1 9702   0.570  -0.046   1.448  1.7660  0.0246  0.8707
 3049SOL    HW2 9703   0.520   0.092   1.410 -0.0485 -0.4873  1.3224
 3050SOL     OW 9704   0.408   1.598   6.372  0.1991  0.2154 -0.3809
 3050SOL    HW1 9705   0.432   1.537   6.302 -1.0844 -0.2449 -0.4524
 3050SOL    HW2 9706   0.408   1.684   6.331 -0.2841 -0.0219 -0.8992
 3051SOL     OW 9707   0.537   4.044   2.645 -0.0725  0.4431 -0.1807
 3051SOL    HW1 9708   0.532   3.977   2.577  1.7183  0.7021 -0.6151
 3051SOL    HW2 9709   0.453   4.038   2.691 -0.5200 -1.0940 -1.1304
 3052SOL     OW 9710   5.043   0.787   0.025  0.2396  0.0169 -0.1835
 3052SOL    HW1 9711   5.016   0.696   0.018 -2.0241  0.5849  0.4333
 3052SOL    HW2 9712   5.075   0.809  -0.063 -1.6788 -0.6704 -1.1191
 3053SOL     OW 9713   6.288   6.069   2.038 -0.1961  0.2087  0.1117
 3053SOL    HW1 9714   6.331   6.000   2.089 -2.1546 -0.1059  1.4326
 3053SOL    HW2 9715   6.296   6.147   2.092  0.9754  0.7701 -0.8416
 3054SOL     OW 9716   2.782   4.693   1.384  0.2220 -0.3751 -0.8779
 3054SOL    HW1 9717   2.840   4.671   1.457  0.9305  1.0695 -0.9593
 3054SOL    HW2 9718   2.699   4.649   1.404  0.1055  0.7223  1.2670
 3055SOL     OW 9719   7.506   6.656   6.913 -0.5047  0.2409  0.3050
 3055SOL    HW1 9720   7.511   6.675   7.007 -0.3164  0.6464  0.2154
 3055SOL    HW2 9721   7.439   6.716   6.880  0.1403  0.8132  0.0083
 3056SOL     OW 9722   1.754   3.201   0.652  0.4234 -0.5627  1.0383
 3056SOL    HW1 9723   1.833   3.154   0.625  0.7967 -0.4045  1.8264
 3056SOL    HW2 9724   1.704   3.138   0.703  0.3060 -0.5040  0.9951
 3057SOL     OW 9725   6.409   2.071   2.096 -0.5886  0.5045  0.2305
 3057SOL    HW1 9726   6.370   1.985   2.105  0.5645 -0.2562 -1.4264
 3057SOL    HW2 9727   6.335   2.131   2.089 -1.4219 -0.5219  0.1015
 3058SOL     OW 9728   0.720   2.963   5.093 -0.3544 -0.0805 -0.0899
 3058SOL    HW1 9729   0.665   3.019   5.149  1.5957  1.4296  0.4074
 3058SOL    HW2 9730   0.768   2.907   5.154  1.4777  1.2906 -0.1837
 3059SOL     OW 9731   2.407   0.692   5.281  0.2234  0.7962  0.5855
 3059SOL    HW1 9732   2.315   0.694   5.252  0.2901  0.8392  0.3742
 3059SOL    HW2 9733   2.425   0.600   5.296  0.2223  0.7600  0.3737
 3060SOL     OW 9734   7.019   1.359   4.675  0.1161  0.1280 -0.3088
 3060SOL    HW1 9735   7.112   1.359   4.697  0.3756  1.8424 -1.2484
 3060SOL    HW2 9736   6.985   1.279   4.715  1.8273 -0.1361  0.7058
 3061SOL     OW 9737   7.340   5.315   1.050  0.3278  0.1458 -0.0659
 3061SOL    HW1 9738   7.321   5.343   1.139  0.3728  0.4908 -0.1652
 3061SOL    HW2 9739   7.326   5.220   1.052 -0.6933  0.2874  0.0479
 3062SOL     OW 9740   0.427   7.454   2.978  0.0045  0.0814 -0.4294
 3062SOL    HW1 9741   0.504   7.422   2.932 -0.6117  2.5832 -3.5851
 3062SOL    HW2 9742   0.357   7.454   2.912 -2.8623 -2.0938  2.2800
 3063SOL     OW 9743   5.409   0.018   3.350 -0.1256  0.6015 -0.0514
 3063SOL    HW1 9744   5.494  -0.024   3.345 -0.8616 -0.9086 -0.5935
 3063SOL    HW2 9745   5.423   0.106   3.314  1.0092  0.0712 -0.9774
 3064SOL     OW 9746   3.539   5.689   0.430  0.6306  0.0612 -0.2604
 3064SOL    HW1 9747   3.567   5.628   0.498  0.4090 -0.2681 -0.4620
 3064SOL    HW2 9748   3.538   5.774   0.473  1.4552  0.0089 -0.1145
 3065SOL     OW 9749   1.251   3.776   2.178  0.2583  0.2280  0.5609
 3065SOL    HW1 9750   1.174   3.832   2.186 -1.6406 -1.5963 -2.8067
 3065SOL    HW2 9751   1.311   3.826   2.123 -0.0460  0.2690  0.2618
 3066SOL     OW 9752   2.382   3.449   4.077  0.5851 -0.0630 -0.6960
 3066SOL    HW1 9753   2.390   3.389   4.151 -0.2841 -0.6372 -1.0514
 3066SOL    HW2 9754   2.315   3.512   4.104 -0.6468 -1.0065 -1.4472
 3067SOL     OW 9755   5.186   0.720   4.705  1.0291 -0.0243 -0.1052
 3067SOL    HW1 9756   5.137   0.643   4.733  1.0016  0.0131 -0.0505
 3067SOL    HW2 9757   5.150   0.742   4.619  0.4888  0.4081  0.2315
 3068SOL     OW 9758   5.405   4.636   4.146 -0.0896  0.3408  0.1185
 3068SOL    HW1 9759   5.491   4.677   4.134  0.1625  0.1176  1.1209
 3068SOL    HW2 9760   5.358   4.695   4.205 -0.5286  0.3180 -0.2034
 3069SOL     OW 9761   4.006   0.110   3.724 -0.7837  0.4623 -0.2356
 3069SOL    HW1 9762   3.956   0.145   3.797  0.1663 -0.0918  0.6932
 3069SOL    HW2 9763   4.090   0.155   3.728 -0.0367 -0.9305  0.1729
 3070SOL     OW 9764   7.230   1.717   1.389  0.6237 -0.0132 -0.0370
 3070SOL    HW1 9765   7.191   1.763   1.463  1.3714 -1.5175  1.3506
 3070SOL    HW2 9766   7.167   1.648   1.368  0.9765 -0.3505  0.0058
 3071SOL     OW 9767   6.511   3.750   3.894 -0.0359 -0.5785  0.5429
 3071SOL    HW1 9768   6.474   3.770   3.808  0.4662  0.8323  0.6296
 3071SOL    HW2 9769   6.436   3.725   3.948 -0.9023  1.9665  0.6457
 3072SOL     OW 9770   1.836   2.109   7.454  0.7095 -0.1728 -0.2089
 3072SOL    HW1 9771   1.850   2.041   7.387  0.0695  0.1607 -0.6877
 3072SOL    HW2 9772   1.911   2.168   7.443  1.9564 -1.4443  1.0435
 3073SOL     OW 9773   5.050   7.044   5.662  0.3512 -0.1488 -0.3110
 3073SOL    HW1 9774   5.013   6.970   5.614 -0.3682  0.3088 -0.4783
 3073SOL    HW2 9775   5.076   7.007   5.746  1.2752 -0.8808 -0.8929
 3074SOL     OW 9776   3.244   2.748   3.857 -0.7819 -0.0379  0.5476
 3074SOL    HW1 9777   3.315   2.754   3.793 -1.0721  2.8096  0.3691
 3074SOL    HW2 9778   3.169   2.716   3.807 -0.6691  0.9395 -0.2699
 3075SOL     OW 9779   7.336   2.066   3.805  0.3142 -0.3897 -0.1788
 3075SOL    HW1 9780   7.391   2.135   3.842  0.8436 -0.8741 -0.0372
 3075SOL    HW2 9781   7.374   1.985   3.838  0.4499 -0.8116 -1.3056
 3076SOL     OW 9782   7.402   7.349   0.066  0.2652  0.1243 -0.1636
 3076SOL    HW1 9783   7.476   7.348   0.127 -0.4882 -0.8843  0.7858
 3076SOL    HW2 9784   7.425   7.283   0.001  1.2267  1.4414 -1.2004
 3077SOL     OW 9785   6.427   2.502   7.560  0.1079  0.7845  0.0205
 3077SOL    HW1 9786   6.419   2.421   7.508  1.1269  1.5305 -1.3476
 3077SOL    HW2 9787   6.394   2.571   7.503  2.5586  1.8357 -0.2274
 3078SOL     OW 9788   5.894   4.979   4.776 -0.1657 -0.6550 -0.3486
 3078SOL    HW1 9789   5.842   4.977   4.857 -0.9565  1.0627 -0.7782
 3078SOL    HW2 9790   5.829   4.991   4.707  0.6930  0.0937 -1.0351
 3079SOL     OW 9791   6.776   2.994   0.034 -0.6623  0.6573 -0.4045
 3079SOL    HW1 9792   6.769   2.987   0.129 -0.9451  0.6085 -0.4286
 3079SOL    HW2 9793   6.693   2.960   0.001  0.0905 -0.9597 -0.7478
 3080SOL     OW 9794   6.223   2.541   3.607 -0.2767 -0.3762 -0.3470
 3080SOL    HW1 9795   6.208   2.524   3.700 -0.0549  1.4425  0.0731
 3080SOL    HW2 9796   6.229   2.637   3.601  0.7022 -0.4932 -2.0844
 3081SOL     OW 9797   4.571   3.455   4.009  0.1258 -0.6437 -0.6639
 3081SOL    HW1 9798   4.546   3.411   4.090  1.0463  1.3394  0.7936
 3081SOL    HW2 9799   4.502   3.432   3.947 -0.2689 -2.7432  0.4611
 3082SOL     OW 9800   1.324   3.533   5.018  0.0723  0.0010 -0.3971
 3082SOL    HW1 9801   1.419   3.522   5.024 -0.0785 -0.6659  1.3090
 3082SOL    HW2 9802   1.301   3.489   4.936  1.1249 -0.7609 -0.3168
 3083SOL     OW 9803   0.660   1.490   2.071 -0.1777  0.0699  0.6600
 3083SOL    HW1 9804   0.715   1.441   2.011 -0.5836  0.4774 -0.0513
 3083SOL    HW2 9805   0.654   1.434   2.149 -0.9829 -1.2313 -0.2822
 3084SOL     OW 9806   0.504   6.839   6.677 -0.1352  0.7080  0.0029
 3084SOL    HW1 9807   0.525   6.751   6.708 -2.5709  0.3182  0.7548
 3084SOL    HW2 9808   0.510   6.894   6.754  3.1958  1.6792 -0.7889
 3085SOL     OW 9809   1.444   6.570   1.762 -0.5695 -0.3055 -0.2190
 3085SOL    HW1 9810   1.527   6.607   1.794 -0.1056 -2.0004  0.6180
 3085SOL    HW2 9811   1.410   6.520   1.836 -0.9926 -1.8476 -1.4220
 3086SOL     OW 9812   2.804   1.765   2.090 -0.2406 -0.5940 -0.4248
 3086SOL    HW1 9813   2.818   1.681   2.047 -0.8432  0.2348 -2.3527
 3086SOL    HW2 9814   2.880   1.817   2.066  0.1609 -0.5562  0.8147
 3087SOL     OW 9815   3.312   7.538   6.541 -0.0389  0.2711  0.4286
 3087SOL    HW1 9816   3.279   7.502   6.624 -2.3230  0.9207 -0.1291
 3087SOL    HW2 9817   3.379   7.601   6.568 -1.7140  1.5249  1.9399
 3088SOL     OW 9818   0.571   1.841   1.995  0.3040 -0.5566  0.1480
 3088SOL    HW1 9819   0.527   1.782   2.057  0.5447  1.0356  1.9501
 3088SOL    HW2 9820   0.604   1.784   1.926 -1.6224 -2.1993  0.5125
 3089SOL     OW 9821   2.680   1.849   7.658  0.9306 -0.0969  0.0102
 3089SOL    HW1 9822   2.652   1.761   7.632 -0.8783  0.2133  0.7692
 3089SOL    HW2 9823   2.681   1.846   7.754  3.0285  0.1025  0.0420
 3090SOL     OW 9824   7.370   4.683   1.300  0.6813  0.3522 -0.0233
 3090SOL    HW1 9825   7.334   4.762   1.340 -0.3640  0.5496 -1.3026
 3090SOL    HW2 9826   7.388   4.625   1.374  0.2329  1.2766  0.8304
 3091SOL     OW 9827   3.487   4.193   2.817 -0.0427 -0.4133  0.0715
 3091SOL    HW1 9828   3.550   4.126   2.790 -0.8789 -1.5974  0.9312
 3091SOL    HW2 9829   3.513   4.216   2.906  0.0388  0.1569 -0.0992
 3092SOL     OW 9830   7.498   5.170   7.116 -0.1694  0.3181  0.0260
 3092SOL    HW1 9831   7.546   5.170   7.033 -0.2781 -1.3945 -0.0719
 3092SOL    HW2 9832   7.419   5.119   7.099 -0.9821  1.2669  0.7840
 3093SOL     OW 9833   3.001   4.884   6.027 -0.2484  0.7212 -0.4682
 3093SOL    HW1 9834   3.027   4.972   5.999  1.3509  0.3687 -0.1818
 3093SOL    HW2 9835   2.905   4.888   6.030 -0.2559  2.1908 -1.2860
 3094SOL     OW 9836   3.449   5.472   5.459  0.5276 -0.1078  0.1393
 3094SOL    HW1 9837   3.496   5.465   5.542  0.6712  0.3131  0.0960
 3094SOL    HW2 9838   3.471   5.392   5.411 -0.6288 -1.0103  1.0503
 3095SOL     OW 9839   2.627   0.795   5.438  0.9028 -0.3192 -0.3196
 3095SOL    HW1 9840   2.563   0.811   5.368  0.6490  0.4916  0.0876
 3095SOL    HW2 9841   2.660   0.881   5.460  0.7828 -0.5366  0.7523
 3096SOL     OW 9842   4.607   1.389   6.770 -0.2709  0.0233 -0.2047
 3096SOL    HW1 9843   4.553   1.465   6.749  0.0900 -0.1260 -1.7646
 3096SOL    HW2 9844   4.650   1.366   6.688  0.9170 -0.8577  0.6232
 3097SOL     OW 9845   6.570   5.314   3.333 -0.4159  0.2541 -0.2376
 3097SOL    HW1 9846   6.612   5.384   3.383 -0.6053  0.4645 -0.3680
 3097SOL    HW2 9847   6.639   5.251   3.317 -0.3471  0.1954  0.2706
 3098SOL     OW 9848   3.472   2.290   4.831  0.2596  0.1455  0.0694
 3098SOL    HW1 9849   3.405   2.287   4.900 -1.5743 -1.6457 -1.6480
 3098SOL    HW2 9850   3.546   2.241   4.867 -0.7828 -1.0313  0.6809
 3099SOL     OW 9851   7.075   7.094   6.504  0.5206 -0.2274 -0.1860
 3099SOL    HW1 9852   7.020   7.057   6.573  0.4118  0.2874  0.0056
 3099SOL    HW2 9853   7.082   7.187   6.526  2.6123 -0.5271  0.5579
 3100SOL     OW 9854   7.609   2.647   3.060  0.2081  0.2712 -0.9854
 3100SOL    HW1 9855   7.686   2.606   3.101 -0.5496 -0.2781 -0.0642
 3100SOL    HW2 9856   7.549   2.574   3.045 -1.5924  1.0867  1.6017
 3101SOL     OW 9857   5.051   4.345   6.456  0.4791  0.4401 -0.2296
 3101SOL    HW1 9858   5.094   4.362   6.540 -0.2569  2.3598 -0.1880
 3101SOL    HW2 9859   4.963   4.314   6.480  1.1600 -1.7144 -0.3246
 3102SOL     OW 9860   0.718   2.449   0.955  0.5893  0.4482  0.3548
 3102SOL    HW1 9861   0.677   2.408   1.032  1.2024  0.2246  0.5643
 3102SOL    HW2 9862   0.774   2.380   0.918  0.3996  0.5965 -0.2196
 3103SOL     OW 9863   0.875   2.867   3.331 -0.0464 -0.0457  0.5086
 3103SOL    HW1 9864   0.851   2.812   3.257 -0.4841 -1.0394  1.3655
 3103SOL    HW2 9865   0.848   2.817   3.408  0.3137  1.0024  1.3412
 3104SOL     OW 9866   3.376   2.034   4.152  0.3047 -0.0097  0.2778
 3104SOL    HW1 9867   3.448   2.092   4.175  0.6988 -0.6166  0.6001
 3104SOL    HW2 9868   3.410   1.981   4.080 -0.0487  0.1423 -0.0057
 3105SOL     OW 9869   0.033   1.105   4.350 -0.4617 -0.3245  0.7601
 3105SOL    HW1 9870   0.025   1.087   4.444  0.0950  2.1468  1.3534
 3105SOL    HW2 9871  -0.039   1.165   4.331 -0.8342 -1.1362 -0.5345
 3106SOL     OW 9872   5.129   0.575   4.015 -0.1052  0.1401 -0.3632
 3106SOL    HW1 9873   5.076   0.524   4.077 -0.3447  0.7905 -0.0293
 3106SOL    HW2 9874   5.200   0.515   3.991 -0.6594 -0.5341 -0.3683
 3107SOL     OW 9875   5.224   1.328   3.297  0.5077  0.2787  0.8312
 3107SOL    HW1 9876   5.214   1.291   3.384 -2.3261 -1.6154 -0.1583
 3107SOL    HW2 9877   5.162   1.400   3.294  0.0853 -0.1034  0.1830
 3108SOL     OW 9878   7.298   7.698   3.393 -0.3667 -0.5567  0.2342
 3108SOL    HW1 9879   7.273   7.605   3.397  1.9828 -1.2337  1.0915
 3108SOL    HW2 9880   7.393   7.696   3.381 -0.4702  1.7851 -1.5818
 3109SOL     OW 9881   1.707   3.122   7.518  0.1187  0.5225  0.2837
 3109SOL    HW1 9882   1.712   3.135   7.612  0.0474  2.2675  0.0828
 3109SOL    HW2 9883   1.625   3.165   7.492 -0.2595 -0.6116 -0.4780
 3110SOL     OW 9884   1.870   6.928   2.762 -0.1320 -0.6234  0.5517
 3110SOL    HW1 9885   1.921   6.867   2.709  0.0901 -0.6253  0.7656
 3110SOL    HW2 9886   1.787   6.936   2.717 -0.2125 -1.1959  0.5973
 3111SOL     OW 9887   3.177   2.421   0.008  0.2364 -0.2888  0.6324
 3111SOL    HW1 9888   3.152   2.485   0.074 -1.4927 -2.0025  1.7133
 3111SOL    HW2 9889   3.265   2.394   0.033  0.7685  1.1946  0.4818
 3112SOL     OW 9890   0.872   5.159   2.437 -0.7465  0.2122 -0.1688
 3112SOL    HW1 9891   0.847   5.215   2.511 -1.0494  0.8584 -0.7497
 3112SOL    HW2 9892   0.835   5.202   2.361  0.1416 -0.0913 -0.7856
 3113SOL     OW 9893   4.567   3.200   6.130 -0.2419  0.4369  0.4821
 3113SOL    HW1 9894   4.535   3.140   6.063  0.7301  0.9805 -0.4823
 3113SOL    HW2 9895   4.599   3.142   6.200  0.9450 -0.2070 -0.5562
 3114SOL     OW 9896   5.811   1.710   0.573  0.8815  0.2390  0.2376
 3114SOL    HW1 9897   5.768   1.714   0.658 -0.6886  1.4908 -0.5667
 3114SOL    HW2 9898   5.861   1.791   0.566  1.7612 -0.2775  0.3137
 3115SOL     OW 9899   3.496   5.335   0.460  0.3008 -0.3076  0.1385
 3115SOL    HW1 9900   3.479   5.292   0.544 -1.6805  0.3353  0.1328
 3115SOL    HW2 9901   3.523   5.424   0.484  0.6756 -0.4087  0.0984
 3116SOL     OW 9902   3.858   2.659   4.420 -0.8365  0.2402 -0.2284
 3116SOL    HW1 9903   3.895   2.630   4.337  3.0919  0.9153  1.0803
 3116SOL    HW2 9904   3.871   2.585   4.480  1.3761  1.4928  0.9914
 3117SOL     OW 9905   7.302   3.137   5.755  0.4816 -0.3942 -0.1846
 3117SOL    HW1 9906   7.342   3.085   5.824 -0.7157 -1.1654 -0.0351
 3117SOL    HW2 9907   7.374   3.161   5.697  1.3355 -0.6350  0.7515
 3118SOL     OW 9908   7.384   2.513   7.470  0.5745  0.4623 -0.2534
 3118SOL    HW1 9909   7.358   2.494   7.379 -0.3541  0.5538 -0.0208
 3118SOL    HW2 9910   7.475   2.485   7.475  0.2065 -0.9398 -0.8132
 3119SOL     OW 9911   2.135   2.540   2.792  0.3026  0.6543 -0.5091
 3119SOL    HW1 9912   2.223   2.507   2.810  0.3634  1.3154  0.4319
 3119SOL    HW2 9913   2.149   2.612   2.730  0.3528  0.3131 -0.9016
 3120SOL     OW 9914   3.897   1.605   6.948 -0.5136  0.1678  0.0510
 3120SOL    HW1 9915   3.838   1.678   6.927 -0.5585 -0.4690 -2.4452
 3120SOL    HW2 9916   3.839   1.530   6.959 -0.2908 -0.2519 -1.3941
 3121SOL     OW 9917   4.046   3.152   1.630 -0.2023 -0.0112  0.0508
 3121SOL    HW1 9918   3.954   3.143   1.607 -0.8216  1.5850  1.6203
 3121SOL    HW2 9919   4.065   3.077   1.687 -0.3206 -0.7139 -0.8251
 3122SOL     OW 9920   0.102   0.455   1.486 -0.2794  0.4013 -0.3809
 3122SOL    HW1 9921   0.153   0.425   1.561 -0.4062 -1.7617 -1.0910
 3122SOL    HW2 9922   0.033   0.509   1.523  0.6362  0.7250  0.8920
 3123SOL     OW 9923   1.192   2.150   1.123 -0.2478 -0.1330 -0.3368
 3123SOL    HW1 9924   1.247   2.092   1.176 -0.3676  0.1232  0.0728
 3123SOL    HW2 9925   1.243   2.230   1.113  0.5336 -0.8087 -2.1207
 3124SOL     OW 9926   0.941   4.059   0.771  0.6743  0.0023 -0.0552
 3124SOL    HW1 9927   0.899   3.983   0.730  0.3973 -0.1108  0.4293
 3124SOL    HW2 9928   1.035   4.046   0.755  0.6260 -0.4200 -0.0097
 3125SOL     OW 9929   1.569   5.608   0.475  0.9880  0.4135  0.0261
 3125SOL    HW1 9930   1.559   5.688   0.424  0.3422  1.5508  1.8429
 3125SOL    HW2 9931   1.534   5.539   0.418 -1.6087  1.8894 -0.3405
 3126SOL     OW 9932   1.755   1.194   0.237 -0.1956 -0.3687 -0.4534
 3126SOL    HW1 9933   1.781   1.203   0.328 -0.2559 -1.5089 -0.3079
 3126SOL    HW2 9934   1.678   1.251   0.228  0.0024 -0.0081  0.1174
 3127SOL     OW 9935   6.152   1.277   7.430 -0.3003  0.1045  0.6048
 3127SOL    HW1 9936   6.174   1.187   7.406 -3.0377 -1.4633  3.1775
 3127SOL    HW2 9937   6.137   1.322   7.347 -1.3784 -2.5887 -0.7720
 3128SOL     OW 9938   1.829   5.091   4.315  0.6294 -0.6452  0.1038
 3128SOL    HW1 9939   1.758   5.134   4.267 -0.4764 -1.0859  1.2582
 3128SOL    HW2 9940   1.880   5.163   4.352  0.4373 -0.3109 -0.2764
 3129SOL     OW 9941   2.203   6.508   3.161  0.2206 -0.3893  0.1373
 3129SOL    HW1 9942   2.130   6.543   3.213  1.0739  2.2898 -0.2975
 3129SOL    HW2 9943   2.240   6.439   3.216 -1.3590 -0.3886  1.2840
 3130SOL     OW 9944   2.741   7.324   6.337  1.0193  0.5897  0.1442
 3130SOL    HW1 9945   2.816   7.268   6.320 -0.0609 -1.0638  0.6522
 3130SOL    HW2 9946   2.717   7.306   6.428 -1.2252 -0.5081 -0.5865
 3131SOL     OW 9947   7.721   6.400   2.595  0.4238  0.4712  0.1272
 3131SOL    HW1 9948   7.677   6.403   2.680 -1.9185 -0.1761 -0.9749
 3131SOL    HW2 9949   7.697   6.482   2.553  0.2407  0.1148 -0.4808
 3132SOL     OW 9950   7.245   4.949   5.073  0.6145  0.5594 -0.6193
 3132SOL    HW1 9951   7.297   4.967   5.151 -0.6859  1.3171  0.1091
 3132SOL    HW2 9952   7.308   4.914   5.010  1.4380 -1.6809  1.2814
 3133SOL     OW 9953   1.039   4.224   3.702 -0.0952  0.0064  0.1543
 3133SOL    HW1 9954   1.032   4.163   3.629  1.3415 -0.6559  0.5380
 3133SOL    HW2 9955   1.106   4.186   3.759 -1.6118  0.1602  2.1734
 3134SOL     OW 9956   0.702   4.892   7.424 -0.1503  0.2101 -0.2092
 3134SOL    HW1 9957   0.609   4.912   7.426 -0.4736 -0.8243 -2.1523
 3134SOL    HW2 9958   0.744   4.973   7.395 -0.3449  0.8894  1.3559
 3135SOL     OW 9959   6.069   3.875   2.328  0.6368 -0.0167  0.2578
 3135SOL    HW1 9960   5.985   3.833   2.311 -0.1736  0.3713  2.7947
 3135SOL    HW2 9961   6.050   3.969   2.321  0.6111  0.1004  1.5486
 3136SOL     OW 9962   3.293   7.611   4.314 -0.0961 -0.5056  0.0567
 3136SOL    HW1 9963   3.222   7.660   4.272 -0.0100  0.5138  1.0636
 3136SOL    HW2 9964   3.339   7.676   4.366 -0.8415 -1.8945  2.6045
 3137SOL     OW 9965   4.932   4.903   4.672 -0.3777  0.4686 -0.0687
 3137SOL    HW1 9966   4.892   4.925   4.756 -1.5064  0.7172 -0.6451
 3137SOL    HW2 9967   4.926   4.983   4.620 -0.9997 -0.0641 -0.8633
 3138SOL     OW 9968   4.557   1.199   1.502  0.5131 -0.3027 -0.1687
 3138SOL    HW1 9969   4.557   1.187   1.407  0.4666  0.3944 -0.2590
 3138SOL    HW2 9970   4.520   1.286   1.515  0.3189 -0.4832  0.5026
 3139SOL     OW 9971   6.027   2.669   3.981  0.1064  0.0358  0.2949
 3139SOL    HW1 9972   5.998   2.759   3.998 -0.2979  0.0352 -0.3936
 3139SOL    HW2 9973   5.958   2.630   3.928  0.1951 -0.7471  0.7366
 3140SOL     OW 9974   4.136   5.051   4.248  0.0994  0.1249 -0.1991
 3140SOL    HW1 9975   4.093   4.999   4.181  0.7521 -0.6782 -0.0140
 3140SOL    HW2 9976   4.066   5.102   4.289 -0.2744  0.8024 -1.6234
 3141SOL     OW 9977   5.981   4.880   6.073  0.1067  0.3279 -0.0928
 3141SOL    HW1 9978   6.052   4.843   6.125 -0.7274 -0.9388  0.2046
 3141SOL    HW2 9979   6.024   4.920   5.997  1.0571 -1.5706 -0.6029
 3142SOL     OW 9980   3.694   0.220   6.473 -0.7474 -0.0732  0.3478
 3142SOL    HW1 9981   3.770   0.245   6.525  0.1470 -3.0983  0.6629
 3142SOL    HW2 9982   3.724   0.224   6.382 -0.4381 -0.5133  0.4294
 3143SOL     OW 9983   4.365   4.803   6.306 -0.3055 -0.5751 -0.0897
 3143SOL    HW1 9984   4.302   4.853   6.253 -0.4441 -1.0356 -0.3681
 3143SOL    HW2 9985   4.394   4.865   6.373  0.7014  0.3729 -1.3495
 3144SOL     OW 9986   3.641   2.382   0.438 -0.3092 -0.1168  0.3694
 3144SOL    HW1 9987   3.548   2.404   0.443 -0.6636 -1.4617  0.1550
 3144SOL    HW2 9988   3.683   2.439   0.502 -1.3460  0.1519  0.8327
 3145SOL     OW 9989   6.921   4.067   3.292 -0.2801 -0.2124  0.0218
 3145SOL    HW1 9990   7.001   4.119   3.290 -1.1549  1.1473 -0.7696
 3145SOL    HW2 9991   6.891   4.065   3.201 -1.3168 -0.4420  0.3570
 3146SOL     OW 9992   5.116   3.907   5.746 -0.0990  0.3889 -0.2020
 3146SOL    HW1 9993   5.194   3.858   5.720 -0.1388 -1.0610  2.1676
 3146SOL    HW2 9994   5.136   3.940   5.834 -2.8562 -1.8214  1.4146
 3147SOL     OW 9995   1.962   4.028   4.078 -0.0558 -0.5091  0.5893
 3147SOL    HW1 9996   1.878   4.056   4.112  0.1605 -2.2724  2.7757
 3147SOL    HW2 9997   2.023   4.096   4.106 -0.7133  0.9298 -1.2611
 3148SOL     OW 9998   5.595   4.562   4.979 -0.2374  0.6379  0.9140
 3148SOL    HW1 9999   5.656   4.488   4.976 -1.1292 -0.0845  0.2436
 3148SOL    HW210000   5.651   4.639   4.964  0.5045 -0.0095  0.2538
 3149SOL     OW10001   2.539   3.946   2.282 -0.1252 -0.1445  0.5180
 3149SOL    HW110002   2.581   4.029   2.259  1.5782 -0.4095  2.3990
 3149SOL    HW210003   2.531   3.949   2.377  0.4429 -2.3461  0.6753
 3150SOL     OW10004   7.622   4.995   1.410  0.0543  0.3815  0.0923
 3150SOL    HW110005   7.693   5.046   1.449  1.9232 -1.5826 -0.5211
 3150SOL    HW210006   7.606   5.036   1.325 -1.2900  2.2768  1.1857
 3151SOL     OW10007   5.333   0.507   2.374 -0.9386  0.5290  0.2546
 3151SOL    HW110008   5.278   0.571   2.329 -1.4906 -0.9009 -1.2257
 3151SOL    HW210009   5.400   0.483   2.310  0.2500  0.8041  1.3589
 3152SOL     OW10010   7.187   1.214   3.655 -0.0006  0.0294  0.2297
 3152SOL    HW110011   7.282   1.205   3.658  0.0919  0.0267 -1.6141
 3152SOL    HW210012   7.154   1.125   3.670  0.4046 -0.5199 -1.8839
 3153SOL     OW10013   0.994   7.091   4.932  0.1902 -0.0955 -0.4373
 3153SOL    HW110014   1.061   7.126   4.990  0.4491 -1.6099  0.2269
 3153SOL    HW210015   1.026   7.004   4.907  0.0163  0.4466 -2.7813
 3154SOL     OW10016   4.640   5.673   3.713  0.0879 -0.0226  0.4226
 3154SOL    HW110017   4.679   5.729   3.780  1.0141  2.2276 -1.8189
 3154SOL    HW210018   4.558   5.717   3.689  0.1995 -0.2890 -0.4998
 3155SOL     OW10019   7.111   0.245   4.961  0.0267  0.0605  0.2167
 3155SOL    HW110020   7.046   0.265   5.028  0.7080 -0.6410  1.1286
 3155SOL    HW210021   7.195   0.251   5.007  0.5451  0.0253 -0.6967
 3156SOL     OW10022   1.115   7.180   7.364 -0.7156  0.1999 -0.5995
 3156SOL    HW110023   1.129   7.274   7.357 -2.7159  0.6260  0.4903
 3156SOL    HW210024   1.020   7.170   7.372 -0.4116 -1.6954  1.9627
 3157SOL     OW10025   4.508   7.132   1.485  0.0569  0.3127 -0.1438
 3157SOL    HW110026   4.556   7.120   1.567 -0.9821  0.5027  0.5006
 3157SOL    HW210027   4.510   7.226   1.469  0.2731  0.2746 -0.3609
 3158SOL     OW10028   1.291   6.182   2.497 -0.0968  0.5775  0.0737
 3158SOL    HW110029   1.205   6.163   2.459 -0.0776 -0.8255  0.6798
 3158SOL    HW210030   1.353   6.145   2.434  0.0160  0.5478  0.2022
 3159SOL     OW10031   7.284   7.241   1.648  0.3478  0.6863 -0.1958
 3159SOL    HW110032   7.309   7.222   1.557  0.6522  0.7522 -0.1261
 3159SOL    HW210033   7.267   7.335   1.649  0.0173  0.6298 -0.2602
 3160SOL     OW10034   3.603   2.871   3.364  0.0438 -0.2093 -0.0402
 3160SOL    HW110035   3.680   2.885   3.310  0.5341 -0.3511  0.6066
 3160SOL    HW210036   3.596   2.951   3.416 -0.4661 -0.0417 -0.3640
 3161SOL     OW10037   2.337   5.120   1.706  0.1883 -0.0369 -0.3636
 3161SOL    HW110038   2.315   5.057   1.638  1.2020  0.1346 -0.8719
 3161SOL    HW210039   2.404   5.175   1.667 -0.0074  0.7667  0.4020
 3162SOL     OW10040   3.044   4.681   4.292 -0.6557  0.2480 -0.0030
 3162SOL    HW110041   3.004   4.638   4.215 -0.6624  0.5336 -0.1594
 3162SOL    HW210042   3.002   4.767   4.296  0.4860  0.8506 -0.6127
 3163SOL     OW10043   2.345   1.272   0.714 -0.0785 -0.1981 -0.4200
 3163SOL    HW110044   2.423   1.329   0.718 -0.6044  0.5471 -0.5183
 3163SOL    HW210045   2.362   1.213   0.641  1.3099 -1.4368  0.8393
 3164SOL     OW10046   3.272   0.188   6.644  0.2967  0.2177 -0.0728
 3164SOL    HW110047   3.192   0.136   6.648  1.0453 -0.9133  1.1600
 3164SOL    HW210048   3.315   0.172   6.728  1.8724  0.7180 -0.7446
 3165SOL     OW10049   7.563   6.289   6.659 -0.1345  0.1784  0.5466
 3165SOL    HW110050   7.634   6.270   6.720 -1.7844 -0.2438  2.4325
 3165SOL    HW210051   7.562   6.385   6.652  0.3810  0.2036  0.8027
 3166SOL     OW10052   2.606   1.292   2.339 -0.2795  0.6620 -0.0009
 3166SOL    HW110053   2.694   1.328   2.326 -0.4926  0.2584 -3.5281
 3166SOL    HW210054   2.553   1.367   2.365  0.9587  0.9879  1.7608
 3167SOL     OW10055   7.743   3.147   4.781  0.1786 -0.6443  1.2382
 3167SOL    HW110056   7.783   3.134   4.695 -0.7643 -0.8443  0.8138
 3167SOL    HW210057   7.750   3.242   4.796  1.2775 -0.7392  1.4280
 3168SOL     OW10058   6.286   4.531   3.716 -0.1484 -0.6377 -0.7873
 3168SOL    HW110059   6.246   4.447   3.691 -1.6170  0.0651 -0.8848
 3168SOL    HW210060   6.348   4.549   3.646 -0.3492 -1.3066 -1.1480
 3169SOL     OW10061   1.338   1.531   3.283 -0.0434  0.3090  0.0507
 3169SOL    HW110062   1.301   1.553   3.197 -0.5019 -0.5831  0.0150
 3169SOL    HW210063   1.407   1.467   3.264 -0.8387 -0.6830  0.4289
 3170SOL     OW10064   0.760   0.812   4.139 -0.3082 -0.4947  0.0534
 3170SOL    HW110065   0.827   0.746   4.158 -0.2689  0.0635  1.9647
 3170SOL    HW210066   0.701   0.809   4.214 -2.4011 -0.8743 -1.5127
 3171SOL     OW10067   2.846   3.395   7.563 -0.2399 -0.1036 -0.8618
 3171SOL    HW110068   2.902   3.472   7.570  0.3003 -0.5574  0.1210
 3171SOL    HW210069   2.901   3.330   7.519 -0.5866 -0.0381 -1.4069
 3172SOL     OW10070   0.229   6.913   0.926  0.0271  0.1759  0.5212
 3172SOL    HW110071   0.206   6.822   0.909  0.0314  0.3203 -0.2695
 3172SOL    HW210072   0.198   6.929   1.015 -0.5412 -0.4103  0.4330
 3173SOL     OW10073   2.647   2.898   5.062  0.2071  0.0981 -0.0989
 3173SOL    HW110074   2.630   2.829   4.997 -1.3354  0.6982 -0.3894
 3173SOL    HW210075   2.650   2.979   5.011  0.9089  0.3742  0.3676
 3174SOL     OW10076   7.707   6.852   6.964 -0.4896 -0.8224 -0.3489
 3174SOL    HW110077   7.641   6.834   6.897 -0.6020 -1.4979 -0.0684
 3174SOL    HW210078   7.788   6.867   6.915 -1.0762  1.2559 -0.7642
 3175SOL     OW10079   1.673   5.558   2.795 -0.1335  0.5533  0.2930
 3175SOL    HW110080   1.665   5.654   2.794  1.2038  0.6986  1.0418
 3175SOL    HW210081   1.588   5.527   2.825  0.0365  1.6159  1.9831
 3176SOL     OW10082   0.827   4.271   1.317  0.1561  0.1460  0.2383
 3176SOL    HW110083   0.745   4.313   1.291 -0.6758 -0.7978  1.2629
 3176SOL    HW210084   0.893   4.310   1.259 -0.2068  4.1293  2.2067
 3177SOL     OW10085   4.485   2.372   6.650  0.1140  0.3239 -0.1081
 3177SOL    HW110086   4.543   2.298   6.632  0.2100  0.0683  1.1548
 3177SOL    HW210087   4.446   2.352   6.735 -0.5426  1.3046 -0.1571
 3178SOL     OW10088   3.906   7.092   4.593 -0.8794  0.0850 -0.0281
 3178SOL    HW110089   3.833   7.038   4.563 -0.3698 -0.2775 -0.6626
 3178SOL    HW210090   3.952   7.117   4.513 -0.9380  1.2308  0.2798
 3179SOL     OW10091   6.577   4.966   2.766 -0.5511  0.1817 -0.4716
 3179SOL    HW110092   6.637   4.937   2.698 -1.1440 -1.8212 -0.2023
 3179SOL    HW210093   6.561   4.888   2.819 -1.2924  1.3266  1.0628
 3180SOL     OW10094   7.457   3.911   7.013 -0.0445 -0.0952 -0.1064
 3180SOL    HW110095   7.519   3.973   7.051 -0.6338 -1.0636  2.7379
 3180SOL    HW210096   7.505   3.828   7.009 -0.3833 -0.2859 -0.2997
 3181SOL     OW10097   5.753   1.245   0.125  0.0442  0.6143  0.2368
 3181SOL    HW110098   5.794   1.318   0.172  0.9676  1.5668 -1.8846
 3181SOL    HW210099   5.667   1.279   0.101  0.3187  0.8838 -0.3979
 3182SOL     OW10100   3.127   4.898   0.535 -0.1182  0.1269 -0.3484
 3182SOL    HW110101   3.114   4.920   0.627  0.8787  2.3015 -0.6544
 3182SOL    HW210102   3.049   4.848   0.511 -0.8356  0.3196  1.4277
 3183SOL     OW10103   3.522   1.314   2.969 -0.2159  0.4122 -0.0444
 3183SOL    HW110104   3.485   1.269   2.893 -1.1477  0.5014  0.3409
 3183SOL    HW210105   3.521   1.407   2.945 -0.1149  0.4035 -0.0833
 3184SOL     OW10106   2.331   2.862   2.785 -0.4188  0.1003 -0.6217
 3184SOL    HW110107   2.342   2.777   2.742  1.2491  0.8155 -1.7178
 3184SOL    HW210108   2.236   2.872   2.794 -0.9505 -0.0299 -4.3994
 3185SOL     OW10109   1.709   3.385   2.817  0.2416  0.3786  0.1605
 3185SOL    HW110110   1.717   3.450   2.748 -1.4080  0.1197 -0.3108
 3185SOL    HW210111   1.776   3.320   2.797  0.5978  0.9331 -0.4800
 3186SOL     OW10112   4.049   5.364   6.793 -0.3305 -0.4487  0.0234
 3186SOL    HW110113   4.005   5.336   6.873 -0.9963  1.2557  0.3042
 3186SOL    HW210114   3.980   5.407   6.742  0.6912  1.0687 -0.1507
 3187SOL     OW10115   0.269   1.646   6.745 -0.0291 -0.0728  0.0539
 3187SOL    HW110116   0.321   1.716   6.706 -1.6721  1.4622  0.5011
 3187SOL    HW210117   0.209   1.691   6.805 -1.9938 -1.7111 -0.5739
 3188SOL     OW10118   4.617   3.168   1.883 -0.2863  1.0654  0.2112
 3188SOL    HW110119   4.704   3.195   1.911 -0.3627  0.7674  0.7484
 3188SOL    HW210120   4.632   3.119   1.802  0.4474 -1.8956  1.9805
 3189SOL     OW10121   5.395   1.775   6.819 -0.2079 -0.4234  0.0141
 3189SOL    HW110122   5.326   1.825   6.863  0.5666 -0.4266  1.2673
 3189SOL    HW210123   5.448   1.841   6.774 -0.9219 -0.4070 -0.8250
 3190SOL     OW10124   5.400   3.013   3.559 -0.2256 -0.0634  0.2309
 3190SOL    HW110125   5.362   3.100   3.552 -1.4246 -0.4472  1.5089
 3190SOL    HW210126   5.492   3.029   3.582 -0.0288  0.8605 -1.1326
 3191SOL     OW10127   4.692   5.721   2.507 -0.2588  0.0374  0.6952
 3191SOL    HW110128   4.699   5.641   2.455 -1.5339  0.0116  0.5338
 3191SOL    HW210129   4.695   5.792   2.444 -1.0010  0.0387  0.6591
 3192SOL     OW10130   5.158   5.540   0.922  0.4051  0.2249 -0.0379
 3192SOL    HW110131   5.134   5.488   0.845 -0.1632 -1.1180  0.9935
 3192SOL    HW210132   5.075   5.557   0.966  0.5530  2.3103 -0.4948
 3193SOL     OW10133   6.066   0.481   1.218  0.2036 -0.5401  0.0354
 3193SOL    HW110134   6.012   0.424   1.164  0.1497  0.9955 -1.6372
 3193SOL    HW210135   6.003   0.534   1.267  0.1859  0.1403 -0.7025
 3194SOL     OW10136   2.938   4.280   2.471  0.3151 -1.1032 -0.2119
 3194SOL    HW110137   3.000   4.336   2.423 -0.4893  0.9088  0.9567
 3194SOL    HW210138   2.857   4.285   2.420  0.4213 -1.7719 -0.4543
 3195SOL     OW10139   7.260   5.231   0.556  0.0457  0.1525 -0.3539
 3195SOL    HW110140   7.280   5.264   0.643 -0.7825 -1.1756  0.3815
 3195SOL    HW210141   7.327   5.268   0.499  0.7747  0.7996  0.9053
 3196SOL     OW10142   3.182   6.173   5.973  0.1883  0.0199 -0.6593
 3196SOL    HW110143   3.140   6.122   5.904  0.6310 -1.7338  0.3106
 3196SOL    HW210144   3.172   6.120   6.052 -0.3694  2.0134  0.6789
 3197SOL     OW10145   0.443   0.632   6.664  0.1919 -0.2666 -0.7053
 3197SOL    HW110146   0.513   0.572   6.690 -0.7294 -0.5805  1.2213
 3197SOL    HW210147   0.447   0.634   6.569  1.1994 -2.2552 -0.7500
 3198SOL     OW10148   7.554   7.100   4.065 -0.0735 -0.0067  0.7719
 3198SOL    HW110149   7.631   7.153   4.045 -1.1647  1.2634 -0.2001
 3198SOL    HW210150   7.590   7.021   4.106  1.6673  0.9649  1.2232
 3199SOL     OW10151   0.105   4.581   7.523  0.3331  0.3042 -0.3896
 3199SOL    HW110152   0.111   4.613   7.432 -0.2163 -1.1858 -0.9764
 3199SOL    HW210153   0.044   4.641   7.565  0.0167  0.5775 -1.2096
 3200SOL     OW10154   4.384   4.991   2.896 -0.6528 -0.2880 -0.4896
 3200SOL    HW110155   4.352   4.912   2.940 -0.6659 -0.4309 -0.7530
 3200SOL    HW210156   4.314   5.055   2.909 -0.2491 -0.0444  0.4926
 3201SOL     OW10157   1.374   7.069   3.657 -0.3343  0.2444 -0.3629
 3201SOL    HW110158   1.439   7.061   3.726 -0.2706  2.4705 -0.0825
 3201SOL    HW210159   1.291   7.084   3.703 -0.2270  2.1716 -0.6933
 3202SOL     OW10160   1.143   0.689   4.433  0.1646  0.1046 -0.1058
 3202SOL    HW110161   1.116   0.720   4.519  0.1502 -3.1826  1.2310
 3202SOL    HW210162   1.112   0.756   4.372 -0.4905  2.1849  2.3424
 3203SOL     OW10163   3.475   4.280   7.541 -0.0672 -0.3770 -0.2756
 3203SOL    HW110164   3.501   4.352   7.484 -0.2439 -0.3589 -0.3334
 3203SOL    HW210165   3.557   4.252   7.582 -0.2010  0.7941  0.8482
 3204SOL     OW10166   6.399   6.517   1.614  0.0869 -0.7785 -0.4682
 3204SOL    HW110167   6.473   6.577   1.605 -0.7772  0.6167  1.0765
 3204SOL    HW210168   6.363   6.510   1.526  0.3734  0.8072 -0.7357
 3205SOL     OW10169   4.468   0.370   2.361  0.3180  0.6770 -0.5355
 3205SOL    HW110170   4.470   0.440   2.296  0.5572  0.5153 -0.7060
 3205SOL    HW210171   4.561   0.352   2.379  0.2585  0.3761 -0.5251
 3206SOL     OW10172   5.659   4.773   3.233  0.0365 -0.3747  0.0930
 3206SOL    HW110173   5.564   4.766   3.226 -0.2646  2.5979 -0.2564
 3206SOL    HW210174   5.674   4.865   3.258  2.8741 -0.3724 -1.2725
 3207SOL     OW10175   0.640   2.440   5.059  0.3680  0.0712 -0.1008
 3207SOL    HW110176   0.680   2.393   5.132 -2.1481 -3.2548 -0.6282
 3207SOL    HW210177   0.546   2.429   5.072 -0.3283  3.1467 -1.5875
 3208SOL     OW10178   3.054   4.425   7.206  0.1652 -0.0570  0.6862
 3208SOL    HW110179   3.108   4.486   7.257 -0.7021  1.2988  0.0464
 3208SOL    HW210180   2.967   4.465   7.207  0.0655 -0.1194 -1.6300
 3209SOL     OW10181   2.398   6.058   6.124  0.0436  0.0185  0.3198
 3209SOL    HW110182   2.313   6.101   6.112 -0.2548 -0.3687  0.9981
 3209SOL    HW210183   2.461   6.129   6.117 -0.3558  0.3706  0.1807
 3210SOL     OW10184   0.198   0.828   7.414 -0.4291 -0.0441  0.2169
 3210SOL    HW110185   0.274   0.772   7.433 -0.3663  0.4961  1.6637
 3210SOL    HW210186   0.131   0.798   7.476 -1.4354 -0.5253 -1.0523
 3211SOL     OW10187   4.105   2.201   4.764  0.0802  0.1461 -0.1395
 3211SOL    HW110188   4.042   2.256   4.810  1.7881  1.1533  1.0729
 3211SOL    HW210189   4.090   2.113   4.800  1.2965  0.8787  2.3749
 3212SOL     OW10190   1.267   4.470   7.418 -0.1015 -0.4476  0.2665
 3212SOL    HW110191   1.330   4.452   7.348  0.0602 -0.6981  0.4772
 3212SOL    HW210192   1.310   4.536   7.472 -0.0306 -0.6004  0.3963
 3213SOL     OW10193   4.899   6.570   7.674 -0.5734  0.0959  0.0360
 3213SOL    HW110194   4.944   6.610   7.600 -0.7830  0.4480  0.0938
 3213SOL    HW210195   4.808   6.598   7.665 -0.5943  0.1709  0.4394
 3214SOL     OW10196   0.394   6.035   3.586 -0.2734 -0.0774 -0.3592
 3214SOL    HW110197   0.412   6.113   3.638  0.5066  0.8538 -1.9513
 3214SOL    HW210198   0.308   6.005   3.615  0.6487 -0.3981  2.3715
 3215SOL     OW10199   2.351   7.242   4.146  0.2428 -0.5108 -0.2189
 3215SOL    HW110200   2.389   7.308   4.088 -0.9885  1.1851  0.8389
 3215SOL    HW210201   2.302   7.184   4.088 -0.3487  0.7091 -0.9644
 3216SOL     OW10202   6.521   0.919   3.305  0.4501  0.4931 -0.2743
 3216SOL    HW110203   6.545   0.919   3.397  1.4217  0.6702 -0.5161
 3216SOL    HW210204   6.430   0.890   3.304  0.5737  0.0273  0.7023
 3217SOL     OW10205   3.595   5.309   0.199 -0.0124 -0.8870  0.0567
 3217SOL    HW110206   3.639   5.393   0.189 -0.6414 -0.8097 -3.3285
 3217SOL    HW210207   3.555   5.312   0.286  1.5557  1.4801  0.7893
 3218SOL     OW10208   4.537   5.413   4.090 -0.2211  0.2366  0.1034
 3218SOL    HW110209   4.449   5.375   4.082 -0.3878  0.6873 -0.2145
 3218SOL    HW210210   4.572   5.410   4.001 -0.1636  0.6602  0.1117
 3219SOL     OW10211   2.671   5.956   6.869 -0.3972 -0.1326 -0.4652
 3219SOL    HW110212   2.689   6.039   6.826 -1.0620  0.2599 -0.0036
 3219SOL    HW210213   2.757   5.918   6.886  0.0378  1.5087  1.3512
 3220SOL     OW10214   2.377   0.574   2.647  0.0289 -0.3547  0.0422
 3220SOL    HW110215   2.285   0.594   2.635  0.0530 -0.5067 -0.4343
 3220SOL    HW210216   2.379   0.486   2.682 -0.0968  0.5884  2.6234
 3221SOL     OW10217   3.598   4.109   0.485  0.5878  0.2922  0.7269
 3221SOL    HW110218   3.598   4.101   0.390 -1.1091  2.9214  0.3891
 3221SOL    HW210219   3.592   4.019   0.517 -1.5161 -0.5884 -1.7634
 3222SOL     OW10220   7.690   1.461   3.240  0.0486 -0.2887  0.4128
 3222SOL    HW110221   7.638   1.421   3.170 -0.0754 -1.3415  1.0823
 3222SOL    HW210222   7.627   1.511   3.292  0.0113 -0.1264  0.2124
 3223SOL     OW10223   3.660   1.272   5.341 -0.0518 -0.5308  0.6036
 3223SOL    HW110224   3.656   1.348   5.282 -3.1040  0.5588  1.9881
 3223SOL    HW210225   3.612   1.203   5.295  0.2751 -0.7002  0.5165
 3224SOL     OW10226   4.103   4.288   3.857 -0.3267 -0.0432  0.3925
 3224SOL    HW110227   4.169   4.345   3.817  1.2121 -0.2747  2.4291
 3224SOL    HW210228   4.068   4.237   3.784  1.5187  0.3252 -0.8147
 3225SOL     OW10229   2.872   5.251   3.962  0.8566 -0.2437 -0.3424
 3225SOL    HW110230   2.918   5.334   3.950  1.5473 -0.6757 -0.7156
 3225SOL    HW210231   2.925   5.202   4.024 -1.3376  0.9163  2.6915
 3226SOL     OW10232   0.845   2.946   2.373  0.0994  0.4275 -0.2625
 3226SOL    HW110233   0.883   2.872   2.419  0.8435 -1.1406 -3.1441
 3226SOL    HW210234   0.763   2.963   2.419  0.1831 -1.8086  0.8629
 3227SOL     OW10235   0.242   2.274   2.395  0.2942  0.3125  0.4447
 3227SOL    HW110236   0.198   2.359   2.387 -0.8682 -0.3368 -0.1599
 3227SOL    HW210237   0.210   2.222   2.322 -3.0160 -2.3929  3.4177
 3228SOL     OW10238   1.722   5.307   0.194  0.0863 -0.3897  0.7763
 3228SOL    HW110239   1.762   5.384   0.152 -2.1075  0.4275  0.0029
 3228SOL    HW210240   1.770   5.297   0.276  2.4810 -0.1329 -0.4872
 3229SOL     OW10241   6.702   5.165   7.620 -0.2459 -0.4137 -0.0975
 3229SOL    HW110242   6.744   5.079   7.616 -1.6779 -1.1274 -0.3992
 3229SOL    HW210243   6.729   5.208   7.539 -0.6009 -1.1025 -0.5936
 3230SOL     OW10244   0.093   3.807   3.443  0.1751  0.1300 -0.1106
 3230SOL    HW110245   0.053   3.880   3.489 -0.2321 -0.2596  0.1530
 3230SOL    HW210246   0.040   3.796   3.364  0.3471  0.2357 -0.2417
 3231SOL     OW10247   0.048   5.573   6.154  0.1865  0.5094  0.6378
 3231SOL    HW110248   0.075   5.481   6.143  0.4757  0.7606 -1.0181
 3231SOL    HW210249  -0.040   5.576   6.116  0.3934  1.0136  0.1880
 3232SOL     OW10250   7.641   1.951   5.089  0.6067  0.1908  0.1349
 3232SOL    HW110251   7.563   1.931   5.037  0.7438  1.0727 -0.4295
 3232SOL    HW210252   7.608   2.001   5.164  0.5133 -0.3478  0.4620
 3233SOL     OW10253   4.668   3.316   3.581 -0.2277 -0.3293  0.3597
 3233SOL    HW110254   4.607   3.268   3.525 -0.5574 -2.5127  2.4423
 3233SOL    HW210255   4.648   3.287   3.670  0.6270  2.5880  1.6269
 3234SOL     OW10256   2.362   1.569   0.845  0.2205 -0.7124  0.1019
 3234SOL    HW110257   2.288   1.510   0.832  0.2669 -0.6568 -0.4477
 3234SOL    HW210258   2.435   1.511   0.868 -0.0990 -0.7256  1.1494
 3235SOL     OW10259   2.669   1.988   2.705  0.5300  0.2762 -0.5743
 3235SOL    HW110260   2.634   2.047   2.772 -0.5640  1.5336 -2.1926
 3235SOL    HW210261   2.623   1.905   2.721 -0.0915  0.6993 -0.0691
 3236SOL     OW10262   3.464   2.445   3.792  0.2237  0.2207 -0.2177
 3236SOL    HW110263   3.372   2.425   3.774  0.3753 -0.4141 -0.3046
 3236SOL    HW210264   3.503   2.460   3.706 -0.0273  1.5632 -0.1201
 3237SOL     OW10265   2.110   0.861   5.235 -0.0209 -0.2458 -0.4272
 3237SOL    HW110266   2.067   0.879   5.151 -1.1510 -0.7982  0.0117
 3237SOL    HW210267   2.107   0.765   5.243 -0.2553 -0.1793  0.4018
 3238SOL     OW10268   1.304   2.629   2.608 -0.2581  0.0528 -0.1686
 3238SOL    HW110269   1.303   2.669   2.695 -1.2435  0.9494 -0.5760
 3238SOL    HW210270   1.391   2.590   2.601  0.4271  1.3883  0.5751
 3239SOL     OW10271   7.480   7.718   5.541 -0.3563  0.3495  0.2794
 3239SOL    HW110272   7.475   7.624   5.523  0.5137  0.3102  0.1832
 3239SOL    HW210273   7.392   7.750   5.524 -0.8237 -0.5437  0.8913
 3240SOL     OW10274   7.295   6.871   3.912  0.1793 -0.2550 -0.0253
 3240SOL    HW110275   7.260   6.861   3.823  1.5138  1.5031 -0.7937
 3240SOL    HW210276   7.354   6.796   3.923 -0.0014 -0.4859 -0.5969
 3241SOL     OW10277   7.074   2.144   4.060  0.4456  0.3106  0.1913
 3241SOL    HW110278   7.013   2.149   4.134  0.8004  0.7948  0.4539
 3241SOL    HW210279   7.037   2.076   4.003  0.0745  0.0604  0.7248
 3242SOL     OW10280   5.996   3.046   3.570 -0.1506  0.2099  0.2394
 3242SOL    HW110281   6.059   3.118   3.578  0.2057 -0.1761  1.0503
 3242SOL    HW210282   5.978   3.040   3.476 -0.6901  1.7791  0.2117
 3243SOL     OW10283   3.902   2.063   1.696 -0.0239  0.4202  0.1944
 3243SOL    HW110284   3.977   2.045   1.639  0.5944 -1.4684  1.5095
 3243SOL    HW210285   3.832   2.008   1.661  0.6500 -1.5398  1.7542
 3244SOL     OW10286   6.563   3.947   7.699 -0.2038 -0.3023 -0.2702
 3244SOL    HW110287   6.583   3.936   7.607 -0.3359 -1.4918 -0.1663
 3244SOL    HW210288   6.565   4.042   7.713  1.4295 -0.1913 -1.1137
 3245SOL     OW10289   3.283   5.327   4.720  0.4097 -0.1659  0.2874
 3245SOL    HW110290   3.281   5.313   4.625 -0.3391 -1.0363  0.4140
 3245SOL    HW210291   3.194   5.356   4.742  0.2270 -1.1180  0.8703
 3246SOL     OW10292   1.525   3.621   5.959  0.2408 -0.2915 -0.4825
 3246SOL    HW110293   1.536   3.676   5.881 -0.6561 -0.2370 -0.5787
 3246SOL    HW210294   1.614   3.593   5.980  0.9330  2.2067  0.3218
 3247SOL     OW10295   0.277   3.732   7.720  0.0249 -0.3985  0.1406
 3247SOL    HW110296   0.248   3.716   7.810  1.7203 -0.8515  0.6523
 3247SOL    HW210297   0.226   3.807   7.691 -0.3140 -0.0222  1.6107
 3248SOL     OW10298   0.509   6.648   0.821 -0.3074 -0.6626  0.7828
 3248SOL    HW110299   0.594   6.669   0.858 -0.5116  0.3373  0.6972
 3248SOL    HW210300   0.520   6.560   0.783  0.9659 -0.1401 -0.1162
 3249SOL     OW10301   6.407   5.368   3.698 -0.7250 -0.3024  0.8849
 3249SOL    HW110302   6.478   5.306   3.685 -1.2285 -0.6879 -0.1164
 3249SOL    HW210303   6.329   5.322   3.666 -1.0808  0.8983 -0.0335
 3250SOL     OW10304   0.884   2.953   0.578 -0.2015 -0.4930 -0.0901
 3250SOL    HW110305   0.841   3.027   0.620 -0.3277 -0.5090 -0.1910
 3250SOL    HW210306   0.824   2.879   0.591 -0.1666 -0.5341 -0.1580
 3251SOL     OW10307   4.827   4.422   5.844  0.1057 -0.3960 -0.3952
 3251SOL    HW110308   4.923   4.427   5.843  0.0894 -0.1048 -1.4128
 3251SOL    HW210309   4.806   4.360   5.775 -0.4727  0.1479 -0.7118
 3252SOL     OW10310   0.643   5.596   7.256 -0.5747  0.6316 -0.3127
 3252SOL    HW110311   0.644   5.508   7.293 -1.0667  0.5640 -0.4519
 3252SOL    HW210312   0.625   5.653   7.330 -1.8383  0.4718 -0.4854
 3253SOL     OW10313   3.512   0.560   4.376 -0.4958  0.3521 -0.1373
 3253SOL    HW110314   3.553   0.626   4.320  0.1056 -1.3958 -1.8742
 3253SOL    HW210315   3.491   0.488   4.316  0.5628 -1.7965  1.9337
 3254SOL     OW10316   1.449   3.660   4.296 -1.1149  0.0780 -0.2579
 3254SOL    HW110317   1.518   3.594   4.303 -1.2779 -0.1036 -0.3504
 3254SOL    HW210318   1.489   3.731   4.244  0.0465  1.3597  2.2068
 3255SOL     OW10319   3.414   7.423   1.202 -0.1042  0.5172 -0.2202
 3255SOL    HW110320   3.341   7.398   1.259  0.4351  1.2399  0.8378
 3255SOL    HW210321   3.424   7.350   1.142 -1.3188  0.1471 -0.0020
 3256SOL     OW10322   3.147   3.912   3.801 -0.2342 -0.1223  0.5791
 3256SOL    HW110323   3.236   3.927   3.770 -0.4786 -0.0263 -0.0763
 3256SOL    HW210324   3.115   3.840   3.747 -1.1683  1.0018 -0.4033
 3257SOL     OW10325   5.908   6.486   6.925 -0.0529 -0.4739 -0.4959
 3257SOL    HW110326   5.991   6.456   6.888  0.6992  0.4160  0.4367
 3257SOL    HW210327   5.932   6.548   6.993 -1.3930 -1.8347  1.3401
 3258SOL     OW10328   0.907   5.801   7.508 -0.4949  0.4216  0.0403
 3258SOL    HW110329   0.818   5.791   7.475  0.0277 -0.4631 -1.2016
 3258SOL    HW210330   0.908   5.754   7.591 -1.1640  0.3419  0.0056
 3259SOL     OW10331   2.474   1.196   1.185 -0.0063 -0.1045  0.5175
 3259SOL    HW110332   2.562   1.159   1.189  0.0233 -0.0177  0.6828
 3259SOL    HW210333   2.481   1.280   1.230 -0.3942 -0.5252  1.3898
 3260SOL     OW10334   5.977   6.243   3.307 -0.0910  0.2468  0.8558
 3260SOL    HW110335   5.999   6.265   3.398  2.3805 -0.3890  0.4859
 3260SOL    HW210336   5.981   6.326   3.261  1.8593  0.1759  0.8035
 3261SOL     OW10337   4.601   6.406   4.474  0.6694 -0.2703  0.4186
 3261SOL    HW110338   4.566   6.412   4.562 -0.6519 -0.4882 -0.0709
 3261SOL    HW210339   4.690   6.372   4.485 -0.8833 -4.5833  1.4456
 3262SOL     OW10340   5.673   5.360   5.643 -0.1146 -0.3037  0.9165
 3262SOL    HW110341   5.741   5.308   5.686 -0.4797 -1.2445  0.3743
 3262SOL    HW210342   5.720   5.408   5.575  0.1282 -0.3317  1.0605
 3263SOL     OW10343   1.591   3.370   7.733 -0.3668  0.6233 -0.0169
 3263SOL    HW110344   1.546   3.342   7.653  0.8719 -2.1778  0.1726
 3263SOL    HW210345   1.551   3.320   7.803  1.2606 -0.0078  0.5081
 3264SOL     OW10346   4.097   5.438   2.744 -0.7715  0.4918 -0.0759
 3264SOL    HW110347   4.052   5.494   2.680 -2.2049 -0.8976 -0.3689
 3264SOL    HW210348   4.087   5.483   2.827 -1.8601  0.7358 -0.3140
 3265SOL     OW10349   4.746   5.940   2.357 -0.1955 -0.2550  0.2468
 3265SOL    HW110350   4.696   5.993   2.419  1.3781  1.1966  0.3680
 3265SOL    HW210351   4.775   6.003   2.290  0.4665 -1.2621 -0.4329
 3266SOL     OW10352   6.273   0.922   5.605 -0.9181 -0.6816 -0.8228
 3266SOL    HW110353   6.327   0.996   5.632 -2.7774  0.4544 -0.0459
 3266SOL    HW210354   6.321   0.845   5.636  0.2216  0.2816 -0.1189
 3267SOL     OW10355   7.351   6.787   7.126  0.1589  0.6827 -0.1010
 3267SOL    HW110356   7.336   6.864   7.070  0.0688  0.2959 -0.6196
 3267SOL    HW210357   7.266   6.743   7.129  0.2875  0.4340 -0.0669
 3268SOL     OW10358   4.384   5.484   0.348 -0.0101 -0.2266 -0.2664
 3268SOL    HW110359   4.432   5.542   0.407 -0.5819  0.1318 -0.1561
 3268SOL    HW210360   4.439   5.480   0.269  1.1591 -1.3269  0.5475
 3269SOL     OW10361   3.911   7.666   0.217 -0.4197 -0.9120  0.5424
 3269SOL    HW110362   3.954   7.641   0.135 -1.0375 -4.1776  1.0921
 3269SOL    HW210363   3.820   7.682   0.193  0.0268  1.3633  0.1471
 3270SOL     OW10364   7.259   5.577   0.344  0.1577  0.1982 -0.3592
 3270SOL    HW110365   7.208   5.521   0.286 -1.2095  0.6472  0.3753
 3270SOL    HW210366   7.226   5.666   0.327 -2.0827  0.1256  2.7700
 3271SOL     OW10367   5.802   2.997   6.324 -0.2525  0.2461  0.2907
 3271SOL    HW110368   5.735   2.933   6.300  0.0642  0.0695 -0.1296
 3271SOL    HW210369   5.790   3.069   6.262  1.1806 -0.6221 -1.0725
 3272SOL     OW10370   5.183   0.971   4.857  0.5201 -0.3603 -0.5040
 3272SOL    HW110371   5.092   0.963   4.886  0.8399 -3.3077  0.0783
 3272SOL    HW210372   5.221   1.039   4.913 -1.4066  1.3464 -1.1650
 3273SOL     OW10373   7.315   2.344   1.127 -0.0745  0.3732  0.4732
 3273SOL    HW110374   7.318   2.330   1.222 -2.8360 -1.2011  0.4380
 3273SOL    HW210375   7.338   2.436   1.115 -1.3196  1.0603  2.8585
 3274SOL     OW10376   1.334   2.625   4.382 -0.1656 -0.1437 -0.1597
 3274SOL    HW110377   1.427   2.619   4.401 -0.4286 -1.8224  0.8351
 3274SOL    HW210378   1.319   2.561   4.312 -0.7489 -0.7677  0.5177
 3275SOL     OW10379   5.203   6.743   6.965 -0.3564 -0.2977 -0.8598
 3275SOL    HW110380   5.144   6.786   6.903 -0.7339 -0.2908 -0.5015
 3275SOL    HW210381   5.289   6.750   6.925 -0.4054  0.8399 -0.7825
 3276SOL     OW10382   2.746   2.941   6.146  0.0113 -0.3270  0.0776
 3276SOL    HW110383   2.804   3.007   6.109 -2.0838  2.0750  0.7111
 3276SOL    HW210384   2.707   2.984   6.223 -3.2666 -1.3300 -0.8455
 3277SOL     OW10385   3.227   7.696   2.045  0.0807  0.0310  0.2075
 3277SOL    HW110386   3.243   7.646   1.964 -0.0181 -1.0135  0.8119
 3277SOL    HW210387   3.136   7.675   2.067 -0.2922  1.2709 -0.0396
 3278SOL     OW10388   6.173   5.904   5.704  0.0213 -0.5733  0.3781
 3278SOL    HW110389   6.263   5.932   5.718  0.1466  0.2794 -1.7526
 3278SOL    HW210390   6.176   5.808   5.706  0.9715 -0.5470  0.3681
 3279SOL     OW10391   0.005   3.350   5.001 -0.0978 -0.0189 -0.4401
 3279SOL    HW110392  -0.051   3.417   4.960  0.2958  0.1968 -0.6322
 3279SOL    HW210393   0.093   3.368   4.967  0.2808  0.2950  0.6506
 3280SOL     OW10394   3.773   5.143   2.035  0.7483 -0.1695  0.2782
 3280SOL    HW110395   3.851   5.129   1.981  1.1083  0.6471  0.5792
 3280SOL    HW210396   3.700   5.120   1.977  1.0943  1.1487 -0.7290
 3281SOL     OW10397   7.098   0.399   4.292  0.1333  1.0052  0.1053
 3281SOL    HW110398   7.026   0.338   4.308  2.1688 -1.9451 -1.0058
 3281SOL    HW210399   7.082   0.434   4.205 -0.0816  0.5251 -0.0529
 3282SOL     OW10400   5.005   2.178   4.000  0.3942 -0.6460 -0.0728
 3282SOL    HW110401   4.927   2.124   4.014  0.3111 -0.7540 -0.9030
 3282SOL    HW210402   4.974   2.268   4.007  0.5393 -0.6859  1.3547
 3283SOL     OW10403   0.518   5.827   2.418 -0.4540  0.6276 -0.4039
 3283SOL    HW110404   0.472   5.746   2.395 -0.5924  0.3078  0.9122
 3283SOL    HW210405   0.520   5.877   2.336  1.4894 -1.5512 -1.8279
 3284SOL     OW10406   4.228   4.851   0.750 -0.6162  0.0825 -0.5479
 3284SOL    HW110407   4.139   4.829   0.777  0.0414 -1.9868  0.1261
 3284SOL    HW210408   4.261   4.907   0.820 -0.6331 -1.0266  0.3582
 3285SOL     OW10409   1.277   0.749   5.145  0.4673 -0.1283 -0.3040
 3285SOL    HW110410   1.276   0.673   5.086  1.7643  0.0674 -0.6025
 3285SOL    HW210411   1.335   0.812   5.102 -0.0507  0.7684  0.2790
 3286SOL     OW10412   4.089   5.196   1.205  0.7002 -0.7238 -0.2633
 3286SOL    HW110413   4.097   5.144   1.285  0.3166 -1.2608 -0.5692
 3286SOL    HW210414   4.156   5.264   1.214  0.7273 -0.8360  0.4677
 3287SOL     OW10415   2.295   1.330   3.497  0.2659 -0.1590  0.0832
 3287SOL    HW110416   2.281   1.327   3.592  0.1403 -1.9437  0.0329
 3287SOL    HW210417   2.363   1.265   3.480  2.0794  1.8413 -0.8122
 3288SOL     OW10418   2.943   7.174   0.133 -0.0850  0.3673  0.0775
 3288SOL    HW110419   2.918   7.259   0.095  0.4850  0.8256  0.7173
 3288SOL    HW210420   2.867   7.118   0.116 -1.4325  1.6119  1.5789
 3289SOL     OW10421   6.299   1.749   1.810 -0.4100 -0.1453 -0.6191
 3289SOL    HW110422   6.219   1.714   1.771  0.6719 -1.6157 -1.6531
 3289SOL    HW210423   6.343   1.672   1.847 -1.0709  1.0864  3.0700
 3290SOL     OW10424   5.000   7.688   5.616 -0.2644 -0.3985  0.5228
 3290SOL    HW110425   4.926   7.631   5.640 -1.6350  0.7933 -0.6811
 3290SOL    HW210426   5.073   7.627   5.603 -1.4576 -1.8150  0.0999
 3291SOL     OW10427   4.708   7.203   3.082 -0.5250 -0.3906  0.1700
 3291SOL    HW110428   4.636   7.150   3.046 -1.6868 -0.2530  2.1662
 3291SOL    HW210429   4.735   7.259   3.009 -2.0330 -0.8730 -0.8072
 3292SOL     OW10430   1.544   7.339   4.815  0.0666  0.1327 -0.4575
 3292SOL    HW110431   1.558   7.344   4.721 -1.2159 -2.1364 -0.8386
 3292SOL    HW210432   1.552   7.430   4.846 -3.7554  1.7618 -3.3897
 3293SOL     OW10433   6.535   5.536   0.748 -0.2321  0.2671 -0.1884
 3293SOL    HW110434   6.455   5.577   0.713 -0.1747  0.7481  0.2300
 3293SOL    HW210435   6.573   5.491   0.673 -1.6261 -1.1682 -0.0814
 3294SOL     OW10436   1.778   2.853   5.198  0.0191  0.1210 -0.4419
 3294SOL    HW110437   1.769   2.922   5.264  0.9117  2.6093 -2.7150
 3294SOL    HW210438   1.688   2.834   5.170 -0.1881  1.1457 -0.4987
 3295SOL     OW10439   6.649   1.269   1.509  0.1544 -0.2646 -0.0599
 3295SOL    HW110440   6.634   1.205   1.439  0.9627  0.6812 -1.1300
 3295SOL    HW210441   6.737   1.250   1.541  1.6879  2.1357 -2.4654
 3296SOL     OW10442   2.535   6.369   6.323  0.1684 -0.1521  0.3272
 3296SOL    HW110443   2.474   6.389   6.252  0.0464 -1.9970 -0.1359
 3296SOL    HW210444   2.483   6.320   6.386  1.2418 -2.2453 -0.3308
 3297SOL     OW10445   5.695   1.766   3.202  0.0046  0.3794  0.6598
 3297SOL    HW110446   5.702   1.671   3.215 -0.3130  0.2842  0.1419
 3297SOL    HW210447   5.702   1.778   3.108  0.0267  0.8730  0.7221
 3298SOL     OW10448   5.508   2.026   4.808 -0.4920  0.3285  0.0618
 3298SOL    HW110449   5.570   1.994   4.743 -0.3732 -0.4014  0.5175
 3298SOL    HW210450   5.422   2.014   4.768 -0.3703  0.7451 -0.3214
 3299SOL     OW10451   2.494   7.064   6.711  0.7275 -0.0110 -0.4189
 3299SOL    HW110452   2.403   7.035   6.717  1.2124 -1.3379  1.7752
 3299SOL    HW210453   2.538   6.995   6.661  0.6377  0.3969 -1.0732
 3300SOL     OW10454   6.398   5.472   1.178 -0.1684 -0.0385  0.5138
 3300SOL    HW110455   6.320   5.510   1.137 -0.1887  0.4880  1.0220
 3300SOL    HW210456   6.429   5.407   1.116 -0.2994  0.6191 -0.2542
 3301SOL     OW10457   4.474   4.607   4.279  0.3579 -0.2772  0.5212
 3301SOL    HW110458   4.484   4.530   4.335  1.4017  0.6098  1.6049
 3301SOL    HW210459   4.564   4.632   4.257 -0.0094 -0.0409 -0.8011
 3302SOL     OW10460   6.637   7.101   5.621  0.1260 -0.1769 -0.9113
 3302SOL    HW110461   6.652   7.140   5.707  0.3570 -0.7184 -0.7033
 3302SOL    HW210462   6.562   7.148   5.585 -0.8466 -0.8791  0.1537
 3303SOL     OW10463   4.741   1.345   6.092  0.4288 -0.3600 -0.6924
 3303SOL    HW110464   4.688   1.270   6.118  1.0525  0.0247  1.9692
 3303SOL    HW210465   4.831   1.313   6.095  0.6915  0.3993  0.3711
 3304SOL     OW10466   7.403   4.835   3.666 -0.4044 -0.3603  0.4564
 3304SOL    HW110467   7.420   4.928   3.649 -0.3717 -0.3778  0.3952
 3304SOL    HW210468   7.330   4.813   3.609 -0.6395 -0.2827  0.7237
 3305SOL     OW10469   1.859   2.977   7.260 -0.4689  0.2140 -0.0510
 3305SOL    HW110470   1.773   3.018   7.254 -0.4950  0.1659 -0.0048
 3305SOL    HW210471   1.903   3.024   7.332 -0.3446  0.4437 -0.2738
 3306SOL     OW10472   4.632   2.768   3.409  0.6787 -0.4760  0.5505
 3306SOL    HW110473   4.635   2.770   3.313 -0.3967  4.3568  0.3810
 3306SOL    HW210474   4.715   2.805   3.437  0.0423  0.4469  1.3060
 3307SOL     OW10475   7.154   6.215   5.907  0.1483 -0.3183  0.1157
 3307SOL    HW110476   7.229   6.201   5.964 -1.7773 -1.5099  2.5697
 3307SOL    HW210477   7.161   6.307   5.881  1.6003  0.0360  1.5764
 3308SOL     OW10478   1.096   6.871   4.013 -0.0644 -0.4029 -0.7702
 3308SOL    HW110479   1.003   6.875   3.992 -0.1065 -0.3435 -0.5778
 3308SOL    HW210480   1.100   6.888   4.108  0.2432  0.9767 -1.0107
 3309SOL     OW10481   6.331   1.319   0.708 -0.0222  0.0020 -0.0578
 3309SOL    HW110482   6.423   1.325   0.684  0.0558 -1.7271 -0.2639
 3309SOL    HW210483   6.308   1.227   0.694 -1.7837  0.4061 -0.0233
 3310SOL     OW10484   1.851   2.508   1.398  0.1875  0.3955 -0.3481
 3310SOL    HW110485   1.883   2.567   1.329  0.2925  0.2915 -0.3887
 3310SOL    HW210486   1.759   2.496   1.378  0.1423  0.6307 -0.2800
 3311SOL     OW10487   4.160   6.815   0.213  0.1612  0.4224 -0.0699
 3311SOL    HW110488   4.092   6.753   0.187 -1.7015  2.3592 -0.0803
 3311SOL    HW210489   4.188   6.785   0.300  0.3904 -1.2216 -0.6635
 3312SOL     OW10490   3.724   2.809   5.651 -0.6467 -0.2361  0.1217
 3312SOL    HW110491   3.745   2.720   5.623 -0.7567 -0.3926  0.5297
 3312SOL    HW210492   3.741   2.810   5.745 -0.0625  0.3510  0.0151
 3313SOL     OW10493   3.764   3.072   1.580  0.3080 -0.0211  0.1243
 3313SOL    HW110494   3.727   3.136   1.641 -0.9501  0.4183 -1.0288
 3313SOL    HW210495   3.785   3.123   1.502 -0.2916 -0.9081 -0.6471
 3314SOL     OW10496   5.100   0.563   6.125 -0.4149 -0.3525  0.0330
 3314SOL    HW110497   5.091   0.477   6.165 -0.1530 -1.4874 -2.1887
 3314SOL    HW210498   5.156   0.548   6.048  0.7971  2.0666  0.3487
 3315SOL     OW10499   0.712   3.350   4.938  0.2904 -0.3401 -0.3114
 3315SOL    HW110500   0.737   3.441   4.956  1.0176 -0.8138  1.2326
 3315SOL    HW210501   0.726   3.340   4.844  1.7756  0.6856 -0.2371
 3316SOL     OW10502   5.325   2.635   4.258 -0.4983  0.0026 -0.2343
 3316SOL    HW110503   5.273   2.622   4.179 -0.6852 -1.0798  0.0496
 3316SOL    HW210504   5.416   2.629   4.228 -0.5559  0.4496 -0.5011
 3317SOL     OW10505   0.647   0.797   5.605  0.2271 -0.1110  0.4877
 3317SOL    HW110506   0.627   0.829   5.517 -0.3371  0.2433  0.7439
 3317SOL    HW210507   0.740   0.773   5.600  0.0651 -0.6320 -0.3630
 3318SOL     OW10508   7.628   6.680   1.922 -0.2319  0.3645 -0.3101
 3318SOL    HW110509   7.631   6.664   1.828  0.1572 -1.1753 -0.0634
 3318SOL    HW210510   7.705   6.733   1.940 -0.2699  0.6067 -0.8492
 3319SOL     OW10511   3.495   5.053   6.700 -0.2780  0.0048  0.1158
 3319SOL    HW110512   3.559   5.077   6.633 -0.6853 -1.8190 -0.9978
 3319SOL    HW210513   3.412   5.044   6.653 -0.4915 -1.7527  0.7411
 3320SOL     OW10514   5.299   6.396   2.565 -0.5755 -0.0377 -0.0731
 3320SOL    HW110515   5.236   6.365   2.500 -1.0237  0.0397  0.3215
 3320SOL    HW210516   5.308   6.490   2.548 -2.0145  0.3416  1.0629
 3321SOL     OW10517   7.629   5.569   5.126 -0.6194  0.7075  0.5674
 3321SOL    HW110518   7.673   5.485   5.128 -2.6498 -0.4005  1.0701
 3321SOL    HW210519   7.699   5.632   5.107  1.1206 -0.9314  1.2124
 3322SOL     OW10520   0.230   0.373   4.379  0.4659 -0.3110 -0.3915
 3322SOL    HW110521   0.191   0.325   4.453 -0.2541  1.1189  0.2051
 3322SOL    HW210522   0.201   0.325   4.302 -2.4075  0.5194  0.0420
 3323SOL     OW10523   3.551   1.987   5.409 -0.2305  0.5019 -0.4573
 3323SOL    HW110524   3.512   2.047   5.473  1.7327  0.0135  1.2873
 3323SOL    HW210525   3.600   2.044   5.351 -0.8894  0.8272 -0.7124
 3324SOL     OW10526   3.581   2.750   0.238 -0.2119 -0.0033 -0.2561
 3324SOL    HW110527   3.554   2.745   0.329  0.9152  0.2884  0.1057
 3324SOL    HW210528   3.526   2.685   0.193  0.9569 -1.9969  1.0729
 3325SOL     OW10529   3.184   3.825   2.382 -0.0865 -0.1152  0.1935
 3325SOL    HW110530   3.251   3.893   2.393 -0.0842 -0.0259 -0.3782
 3325SOL    HW210531   3.149   3.839   2.294 -1.2385  0.1874  0.6794
 3326SOL     OW10532   1.187   0.256   1.753 -0.1368  0.4888 -0.0626
 3326SOL    HW110533   1.235   0.329   1.792 -0.0944 -0.4063  1.6554
 3326SOL    HW210534   1.231   0.178   1.785 -2.3386 -0.3635  1.1219
 3327SOL     OW10535   6.639   6.735   6.392  0.0431 -0.7860  0.0923
 3327SOL    HW110536   6.642   6.652   6.440 -1.6534 -0.4711  0.7924
 3327SOL    HW210537   6.678   6.714   6.307 -1.1702 -2.5509 -0.0922
 3328SOL     OW10538   3.649   7.611   2.603  0.5657 -0.1546  0.1564
 3328SOL    HW110539   3.592   7.674   2.648  1.1480  1.2943 -1.0176
 3328SOL    HW210540   3.721   7.596   2.664 -1.4132 -2.7616  2.0813
 3329SOL     OW10541   6.161   2.006   7.576  0.1702 -0.2328 -0.1262
 3329SOL    HW110542   6.177   2.064   7.501  0.9989 -0.7873 -0.4012
 3329SOL    HW210543   6.200   1.922   7.549  1.2909 -0.1979  1.2762
 3330SOL     OW10544   5.446   0.009   5.017 -0.0345 -0.3780  0.7842
 3330SOL    HW110545   5.493  -0.069   4.988 -1.0652 -0.8879  0.4167
 3330SOL    HW210546   5.376  -0.025   5.073 -1.7537  0.0563 -0.9722
 3331SOL     OW10547   7.722   5.037   2.878  0.3541  0.2053 -0.6083
 3331SOL    HW110548   7.633   5.058   2.848  0.6884  0.0032 -1.7815
 3331SOL    HW210549   7.742   4.953   2.837  0.6581 -0.3348  0.5932
 3332SOL     OW10550   7.362   6.686   6.397  0.1690 -0.5396 -0.5758
 3332SOL    HW110551   7.333   6.777   6.387 -0.0865 -0.6777 -1.1000
 3332SOL    HW210552   7.444   6.682   6.347 -0.0449 -0.7101 -0.9101
 3333SOL     OW10553   4.429   7.661   4.071  0.9840  0.7734 -0.0410
 3333SOL    HW110554   4.514   7.642   4.111 -0.2840 -1.5078  1.8034
 3333SOL    HW210555   4.378   7.703   4.141 -0.4462 -0.9471  0.0274
 3334SOL     OW10556   6.833   6.618   3.824 -0.3270  0.2645 -0.5100
 3334SOL    HW110557   6.792   6.533   3.811 -1.0897  0.8051 -1.9348
 3334SOL    HW210558   6.926   6.602   3.813 -0.2748 -0.6869  1.0719
 3335SOL     OW10559   4.465   0.944   5.916  0.0258  0.3542 -0.1510
 3335SOL    HW110560   4.466   0.849   5.924  0.1171  0.1112 -2.5060
 3335SOL    HW210561   4.456   0.961   5.823  0.2872  2.6775  0.1751
 3336SOL     OW10562   5.413   4.772   4.843  0.0376  0.4294 -0.2390
 3336SOL    HW110563   5.352   4.836   4.883  0.0886  0.8081 -0.7583
 3336SOL    HW210564   5.419   4.702   4.908 -1.6629 -0.0514 -0.5565
 3337SOL     OW10565   5.842   1.052   6.391  0.4509 -0.1626 -0.0428
 3337SOL    HW110566   5.829   1.028   6.300 -1.9585  0.4932  0.0716
 3337SOL    HW210567   5.855   1.146   6.391 -1.2866  0.1106  0.3836
 3338SOL     OW10568   2.939   2.589   5.348 -0.6153  0.2282 -0.0461
 3338SOL    HW110569   2.922   2.628   5.434 -1.2982 -0.8429  0.3301
 3338SOL    HW210570   2.931   2.662   5.287 -0.8640  0.8660  0.7215
 3339SOL     OW10571   4.515   0.632   6.953 -0.4323  0.2528 -0.3081
 3339SOL    HW110572   4.486   0.565   7.015 -0.3504 -0.6486 -1.2165
 3339SOL    HW210573   4.472   0.608   6.871 -0.6438  1.5013 -0.5711
 3340SOL     OW10574   3.068   3.548   1.007  0.0471  0.2750 -0.3544
 3340SOL    HW110575   3.044   3.575   1.096  2.7307 -0.9419  0.8537
 3340SOL    HW210576   3.156   3.583   0.994  0.2649 -0.7770 -1.9955
 3341SOL     OW10577   2.806   6.133   1.168 -0.5433  0.0435  0.2211
 3341SOL    HW110578   2.799   6.040   1.149  0.9782  0.3938 -2.6127
 3341SOL    HW210579   2.739   6.174   1.113 -0.5824  0.7030  0.7431
 3342SOL     OW10580   6.689   6.569   3.462 -0.4833 -0.9614  0.3917
 3342SOL    HW110581   6.630   6.524   3.402  1.0954 -1.9764 -0.4572
 3342SOL    HW210582   6.771   6.521   3.456 -0.1933 -0.9681  3.2377
 3343SOL     OW10583   5.292   7.603   7.542  0.4536 -0.8898  0.1165
 3343SOL    HW110584   5.367   7.632   7.491 -1.0147  2.0359 -0.6115
 3343SOL    HW210585   5.237   7.556   7.479 -0.8080  1.7201 -0.8621
 3344SOL     OW10586   0.810   0.924   7.329  0.0919 -0.0956  0.2181
 3344SOL    HW110587   0.785   1.016   7.341 -2.7814 -0.8555  0.6057
 3344SOL    HW210588   0.743   0.888   7.272  0.0685 -2.4256  1.6178
 3345SOL     OW10589   5.443   5.330   3.317  0.2415  0.3883 -0.1052
 3345SOL    HW110590   5.508   5.285   3.372 -1.5708 -0.7712  1.2391
 3345SOL    HW210591   5.470   5.313   3.227  1.8260  0.0276  0.4183
 3346SOL     OW10592   2.644   2.794   3.425 -0.2536 -0.0090 -0.2413
 3346SOL    HW110593   2.717   2.835   3.377 -0.5070  1.6260  0.7118
 3346SOL    HW210594   2.571   2.854   3.412 -0.6965 -0.2540  1.0310
 3347SOL     OW10595   4.722   6.211   5.976  0.0580  0.5157 -0.3888
 3347SOL    HW110596   4.770   6.128   5.974  1.1188  1.1020 -0.0318
 3347SOL    HW210597   4.637   6.190   5.938 -0.1510 -1.0208  0.8295
 3348SOL     OW10598   7.483   5.918   0.983  0.2787  0.6876 -0.3987
 3348SOL    HW110599   7.516   5.869   0.908 -1.3083  0.0178 -0.7001
 3348SOL    HW210600   7.434   5.991   0.945 -1.5054 -0.2888 -0.1153
 3349SOL     OW10601   6.457   7.259   2.444 -0.3806  0.1022  0.2183
 3349SOL    HW110602   6.453   7.163   2.446  0.7522  0.0394  0.4256
 3349SOL    HW210603   6.403   7.286   2.517 -1.0245 -0.3664 -0.0754
 3350SOL     OW10604   4.284   4.904   7.367  0.3493 -0.2273  0.5822
 3350SOL    HW110605   4.194   4.874   7.376 -0.0793  0.9036  0.2830
 3350SOL    HW210606   4.319   4.902   7.457 -0.2552  0.1418  0.8352
 3351SOL     OW10607   6.157   4.948   5.504 -0.1454  0.3389 -0.2037
 3351SOL    HW110608   6.163   4.939   5.599  0.5187 -0.1601 -0.2815
 3351SOL    HW210609   6.116   5.034   5.490  3.7749  2.5935  0.5419
 3352SOL     OW10610   2.242   2.934   5.399 -0.2887  0.7277 -0.0537
 3352SOL    HW110611   2.296   2.945   5.320  0.5537 -0.1136  0.3781
 3352SOL    HW210612   2.300   2.959   5.471 -1.0837  1.5750  0.3050
 3353SOL     OW10613   4.584   4.932   7.434  0.0107 -0.0548  0.3672
 3353SOL    HW110614   4.655   4.981   7.473  0.3026  1.6075 -2.0184
 3353SOL    HW210615   4.505   4.970   7.471  0.3018  0.0412  0.8962
 3354SOL     OW10616   5.415   4.307   3.796  0.7257 -0.6653 -0.5718
 3354SOL    HW110617   5.413   4.400   3.776 -2.0674 -0.9402 -2.0670
 3354SOL    HW210618   5.408   4.303   3.891  2.8479  0.6037 -0.3023
 3355SOL     OW10619   2.953   0.009   6.198 -0.0794  0.0523  0.6321
 3355SOL    HW110620   2.906   0.056   6.267  1.6490 -1.0371  2.6697
 3355SOL    HW210621   3.017  -0.046   6.245 -0.2919 -2.4310 -1.7263
 3356SOL     OW10622   0.429   4.864   0.743 -0.2853  0.2850  0.3056
 3356SOL    HW110623   0.460   4.909   0.822  0.5243  3.1657 -1.4757
 3356SOL    HW210624   0.472   4.910   0.671 -1.3228 -1.9124 -1.8768
 3357SOL     OW10625   2.144   1.819   1.932  0.1462  0.3023  0.0949
 3357SOL    HW110626   2.238   1.803   1.945  0.2569  0.7010 -0.1719
 3357SOL    HW210627   2.133   1.820   1.837 -0.1820 -0.0264  0.1289
 3358SOL     OW10628   7.339   4.337   2.130  0.0644  0.7302  0.0467
 3358SOL    HW110629   7.338   4.371   2.219 -1.8830 -0.9424  0.7575
 3358SOL    HW210630   7.300   4.250   2.137  1.2835 -0.0881 -2.2243
 3359SOL     OW10631   3.155   5.367   3.369 -0.1403  0.1180 -0.3341
 3359SOL    HW110632   3.205   5.432   3.418 -3.3325  0.3470  3.0977
 3359SOL    HW210633   3.093   5.420   3.317 -1.2028 -0.0945  0.6741
 3360SOL     OW10634   4.509   2.695   0.201 -0.5203  0.2088  0.6877
 3360SOL    HW110635   4.416   2.716   0.209 -0.5197  0.3575  0.3603
 3360SOL    HW210636   4.540   2.686   0.291 -0.9605 -0.3451  0.7866
 3361SOL     OW10637   1.517   2.013   3.300 -0.2453  0.1769  0.2822
 3361SOL    HW110638   1.564   2.034   3.381 -0.6319 -2.3413  1.2214
 3361SOL    HW210639   1.585   2.010   3.232  0.3966  0.2074  0.9195
 3362SOL     OW10640   5.128   0.662   6.781  0.6261 -0.1075 -0.0819
 3362SOL    HW110641   5.115   0.572   6.753 -1.0665 -0.4363  1.5794
 3362SOL    HW210642   5.152   0.656   6.874 -0.0379  1.1579  0.2014
 3363SOL     OW10643   3.955   6.889   7.010 -0.1597  0.1620  0.4368
 3363SOL    HW110644   3.958   6.820   7.075  1.6843 -1.1890 -0.9812
 3363SOL    HW210645   4.044   6.923   7.006 -0.9113  2.3364  0.7348
 3364SOL     OW10646   4.814   2.460   5.145  0.2695 -0.3967  0.1037
 3364SOL    HW110647   4.730   2.470   5.190  0.8518  1.8569  0.8264
 3364SOL    HW210648   4.864   2.538   5.169  1.0223  0.5021 -3.6856
 3365SOL     OW10649   1.636   0.939   6.139 -0.4133 -0.6648 -0.7017
 3365SOL    HW110650   1.635   0.844   6.153 -0.2824 -0.5643 -0.0052
 3365SOL    HW210651   1.547   0.959   6.108 -0.4799 -0.9963 -0.7287
 3366SOL     OW10652   4.925   2.634   7.139 -0.0323 -0.1203 -0.1457
 3366SOL    HW110653   4.961   2.617   7.226  0.1395  0.8055 -0.0208
 3366SOL    HW210654   4.948   2.557   7.087 -0.2847 -0.7513  0.6723
 3367SOL     OW10655   0.267   2.396   3.750  0.1483  0.9140 -0.6961
 3367SOL    HW110656   0.313   2.480   3.752 -0.0580  1.0330 -0.9105
 3367SOL    HW210657   0.175   2.419   3.757  0.1770  0.6021  1.4280
 3368SOL     OW10658   4.667   4.365   2.683 -0.5527 -0.0583 -0.0806
 3368SOL    HW110659   4.697   4.455   2.674 -0.6911 -0.0740 -0.7414
 3368SOL    HW210660   4.582   4.363   2.640 -0.1292 -0.7226 -0.9202
 3369SOL     OW10661   3.574   5.431   5.762 -0.3883 -0.7410  0.4314
 3369SOL    HW110662   3.519   5.454   5.836  0.8890  0.5096  1.0282
 3369SOL    HW210663   3.577   5.335   5.763 -0.8856 -0.7568  1.6036
 3370SOL     OW10664   2.104   2.613   7.468 -0.0808  0.0701 -0.2983
 3370SOL    HW110665   2.153   2.556   7.407  0.9149  0.2332  0.3289
 3370SOL    HW210666   2.024   2.634   7.421  0.9924  0.8158 -1.8940
 3371SOL     OW10667   6.161   0.244   4.434  0.2389 -0.0512  0.5701
 3371SOL    HW110668   6.213   0.323   4.423 -0.7194  0.2876 -2.0217
 3371SOL    HW210669   6.216   0.173   4.399  0.0751 -0.1552  0.5230
 3372SOL     OW10670   2.923   5.262   0.199 -0.5435  0.2776 -0.4651
 3372SOL    HW110671   2.919   5.230   0.289 -1.0525 -0.0185 -0.5905
 3372SOL    HW210672   2.884   5.192   0.147  2.4660 -0.9621 -1.3003
 3373SOL     OW10673   1.550   6.710   4.596 -0.3827  0.5089 -0.0543
 3373SOL    HW110674   1.639   6.724   4.563 -0.3068 -0.8203 -0.4358
 3373SOL    HW210675   1.559   6.716   4.691 -0.1916  1.9827 -0.1353
 3374SOL     OW10676   7.002   4.534   0.870 -0.4620 -0.0061 -0.1736
 3374SOL    HW110677   7.015   4.453   0.918  0.3520  0.5373  0.5521
 3374SOL    HW210678   7.002   4.509   0.778 -0.7609 -0.8918  0.0625
 3375SOL     OW10679   1.030   6.067   1.677  0.0088 -0.8264  1.2582
 3375SOL    HW110680   1.114   6.034   1.645  0.4584  0.4316  1.0782
 3375SOL    HW210681   1.004   6.131   1.611 -1.3385 -1.5359  1.0722
 3376SOL     OW10682   0.599   3.904   5.598 -0.0917 -0.0629  0.1579
 3376SOL    HW110683   0.536   3.942   5.536 -0.7870 -0.8309  0.3714
 3376SOL    HW210684   0.637   3.979   5.643  1.9651  0.6944 -2.6054
 3377SOL     OW10685   7.124   4.184   3.463  0.5226 -0.1386 -0.1643
 3377SOL    HW110686   7.136   4.276   3.439 -2.7337 -0.4209 -3.6826
 3377SOL    HW210687   7.189   4.137   3.411  1.5090  0.0119  0.8805
 3378SOL     OW10688   0.393   5.138   1.304 -0.1042 -0.6314 -0.7572
 3378SOL    HW110689   0.319   5.088   1.270 -0.9244  1.5115 -2.3351
 3378SOL    HW210690   0.355   5.200   1.366  0.3813  0.3151 -1.3804
 3379SOL     OW10691   3.541   3.333   4.645 -0.0245 -0.1783 -0.2624
 3379SOL    HW110692   3.629   3.358   4.618  0.7455 -4.0383 -2.0923
 3379SOL    HW210693   3.490   3.332   4.563 -0.3460 -2.5985 -0.1302
 3380SOL     OW10694   2.212   5.705   6.453 -0.6433 -0.4989 -0.4067
 3380SOL    HW110695   2.211   5.771   6.384  2.0305 -0.2777 -0.3246
 3380SOL    HW210696   2.303   5.675   6.457 -1.0094 -1.5446  2.0504
 3381SOL     OW10697   6.747   5.281   6.299  0.4789 -0.0906 -0.4970
 3381SOL    HW110698   6.705   5.366   6.310  0.1901 -0.1215 -1.2818
 3381SOL    HW210699   6.678   5.224   6.265  0.5775 -0.7422  0.3608
 3382SOL     OW10700   2.660   4.917   1.558  0.4739  0.0380 -0.0696
 3382SOL    HW110701   2.565   4.914   1.551  0.3428  0.3474  1.3547
 3382SOL    HW210702   2.690   4.835   1.519 -0.6149 -1.8807  2.8437
 3383SOL     OW10703   4.097   6.588   0.637 -0.7344  0.1831 -0.0025
 3383SOL    HW110704   4.082   6.620   0.726 -1.1206 -1.9165  0.7387
 3383SOL    HW210705   4.111   6.494   0.647 -0.5452 -0.0747 -2.1549
 3384SOL     OW10706   6.282   2.049   0.317 -0.1855 -0.2596  0.4943
 3384SOL    HW110707   6.188   2.042   0.298 -0.0692 -0.4726 -0.0038
 3384SOL    HW210708   6.317   1.963   0.292  0.5286  0.5610 -1.4865
 3385SOL     OW10709   3.211   4.966   6.865 -0.3423  0.2236 -0.1315
 3385SOL    HW110710   3.278   4.987   6.930 -0.4081  0.2681 -0.0770
 3385SOL    HW210711   3.134   5.015   6.895 -0.5432 -0.2189  0.0837
 3386SOL     OW10712   7.239   2.103   1.329 -0.2040 -0.0860  0.1720
 3386SOL    HW110713   7.264   2.058   1.249  0.9322 -0.0686  0.5014
 3386SOL    HW210714   7.155   2.144   1.309 -1.1384 -2.0813 -0.2391
 3387SOL     OW10715   6.019   5.310   5.201  0.2412  0.6979  0.0298
 3387SOL    HW110716   5.948   5.329   5.139  0.3578 -0.2294 -0.4039
 3387SOL    HW210717   6.073   5.245   5.156  0.0138 -0.4225  1.3164
 3388SOL     OW10718   7.018   5.256   6.252 -0.3606  0.1167  0.1906
 3388SOL    HW110719   7.098   5.242   6.303 -0.2375  0.0642 -0.0143
 3388SOL    HW210720   6.958   5.299   6.312 -0.4105 -0.4432  0.5418
 3389SOL     OW10721   4.362   1.893   0.088 -0.2883 -0.3567 -0.0603
 3389SOL    HW110722   4.341   1.815   0.038  0.0473 -0.7530  0.4071
 3389SOL    HW210723   4.329   1.875   0.176  1.1300 -0.6096  0.4529
 3390SOL     OW10724   3.533   4.316   3.069 -0.1348  0.1453 -0.1745
 3390SOL    HW110725   3.619   4.300   3.108 -0.9054 -0.6368  1.3385
 3390SOL    HW210726   3.521   4.410   3.073 -0.1361  0.1117  1.5026
 3391SOL     OW10727   3.536   5.838   6.881 -0.4874 -0.1599  0.2016
 3391SOL    HW110728   3.505   5.882   6.960  2.3504  1.5062  0.5209
 3391SOL    HW210729   3.510   5.746   6.893 -0.2249  0.0631  3.0622
 3392SOL     OW10730   7.300   5.599   6.948 -0.0593 -0.1256  0.2549
 3392SOL    HW110731   7.377   5.551   6.979  0.3690 -1.1974 -2.1947
 3392SOL    HW210732   7.335   5.657   6.879 -1.3870 -0.4593 -0.7371
 3393SOL     OW10733   3.724   4.677   4.311 -0.0091 -0.1129  0.2644
 3393SOL    HW110734   3.723   4.771   4.330  2.5239 -0.2345  1.4008
 3393SOL    HW210735   3.679   4.637   4.385 -2.0168  0.1956 -0.7174
 3394SOL     OW10736   5.239   1.265   2.815  0.0555 -0.4142 -0.9849
 3394SOL    HW110737   5.206   1.221   2.894  0.4133 -0.9263 -1.1151
 3394SOL    HW210738   5.194   1.350   2.814  2.0348  0.7811  1.2518
 3395SOL     OW10739   5.645   1.947   4.590  0.1494 -0.6358  0.1704
 3395SOL    HW110740   5.668   1.968   4.499  0.3092  0.8011  0.5306
 3395SOL    HW210741   5.636   1.851   4.590  0.1175 -0.6610 -1.3595
 3396SOL     OW10742   0.376   5.963   5.438  0.4177  0.4534  0.1414
 3396SOL    HW110743   0.319   5.891   5.410  0.8352 -0.3920  1.3761
 3396SOL    HW210744   0.345   6.039   5.388 -0.7330 -0.3386 -0.3992
 3397SOL     OW10745   5.041   0.926   4.606 -0.7676  0.2911 -0.4349
 3397SOL    HW110746   4.998   1.003   4.569  1.1639  1.2979 -0.6793
 3397SOL    HW210747   5.084   0.958   4.686 -0.1132 -0.5822 -0.4198
 3398SOL     OW10748   3.942   1.346   6.522  0.0371  0.3480 -0.0186
 3398SOL    HW110749   3.903   1.344   6.609 -2.1648  1.2055 -0.9108
 3398SOL    HW210750   3.868   1.337   6.462  1.3485  0.9501 -1.8229
 3399SOL     OW10751   3.859   7.306   3.955 -0.4237  0.1861  0.5322
 3399SOL    HW110752   3.846   7.389   3.909  0.3756 -0.0364 -0.1262
 3399SOL    HW210753   3.951   7.285   3.940 -0.4788 -0.5380  1.1669
 3400SOL     OW10754   5.101   4.500   5.828 -0.0577  0.2353  0.6114
 3400SOL    HW110755   5.099   4.558   5.752 -1.2388 -0.2154  0.2731
 3400SOL    HW210756   5.171   4.438   5.808  1.0117  1.3146  0.8367
 3401SOL     OW10757   7.035   7.256   0.962  0.2162  0.4168  0.5897
 3401SOL    HW110758   6.972   7.286   1.027 -0.2333  1.9349 -0.5042
 3401SOL    HW210759   7.061   7.169   0.993 -0.9104  0.5792  2.1151
 3402SOL     OW10760   6.171   5.114   4.424  0.4516 -0.7048 -0.1237
 3402SOL    HW110761   6.178   5.196   4.375 -0.2868 -1.2246 -1.1472
 3402SOL    HW210762   6.077   5.093   4.421  0.3689 -0.7061  1.6142
 3403SOL     OW10763   0.771   0.923   2.974 -0.2990  0.6562 -0.4325
 3403SOL    HW110764   0.848   0.873   3.000  0.4803  1.3136 -1.3982
 3403SOL    HW210765   0.805   1.010   2.952 -1.6428  1.7271  1.4420
 3404SOL     OW10766   2.350   6.036   2.422 -0.1656  0.4296 -0.7056
 3404SOL    HW110767   2.337   6.131   2.430  0.2119  0.4599 -0.4239
 3404SOL    HW210768   2.288   5.998   2.484 -0.1650  0.5030 -0.6591
 3405SOL     OW10769   0.285   4.215   4.387 -0.5430 -0.0763 -0.1325
 3405SOL    HW110770   0.354   4.205   4.453 -1.2429 -1.3167  0.4603
 3405SOL    HW210771   0.311   4.157   4.316 -0.3493  0.4221 -0.4753
 3406SOL     OW10772   0.142   7.347   7.348 -0.0860 -0.2425  0.5260
 3406SOL    HW110773   0.089   7.366   7.425 -1.3490  1.5301 -0.7093
 3406SOL    HW210774   0.146   7.430   7.300  2.2414 -0.7955 -0.4101
 3407SOL     OW10775   5.395   4.102   6.956 -0.4035 -0.3684  0.0514
 3407SOL    HW110776   5.394   4.123   6.862 -1.0964 -1.2160 -0.1476
 3407SOL    HW210777   5.415   4.185   6.999  4.7275 -0.7689 -1.0217
 3408SOL     OW10778   3.805   2.084   4.214 -0.0230  0.0169  0.8119
 3408SOL    HW110779   3.721   2.129   4.221 -0.9027 -1.2197 -0.9686
 3408SOL    HW210780   3.797   2.008   4.272  1.0447  1.4486  2.9515
 3409SOL     OW10781   4.764   6.510   1.896  0.0019 -0.3112 -0.2828
 3409SOL    HW110782   4.781   6.416   1.901  0.7409 -0.2142 -0.8749
 3409SOL    HW210783   4.829   6.544   1.835 -0.8514  0.4398 -0.8189
 3410SOL     OW10784   1.121   4.162   6.386  0.0204 -0.2131  0.0755
 3410SOL    HW110785   1.047   4.102   6.390 -0.0432 -0.2848 -1.4984
 3410SOL    HW210786   1.191   4.117   6.433 -0.8047 -0.3127  1.2456
 3411SOL     OW10787   1.676   1.396   5.269 -0.4753  0.1821  0.5175
 3411SOL    HW110788   1.718   1.310   5.265 -1.3430 -0.2719  0.8288
 3411SOL    HW210789   1.688   1.426   5.359  2.8328  1.9889 -0.3746
 3412SOL     OW10790   1.355   7.226   1.792  0.0756  0.1133  0.0801
 3412SOL    HW110791   1.262   7.222   1.811  0.0519  0.3001  0.0030
 3412SOL    HW210792   1.392   7.149   1.834  0.1315  0.8609  1.4551
 3413SOL     OW10793   5.161   7.651   4.790 -0.0069 -0.2540  0.0893
 3413SOL    HW110794   5.200   7.578   4.837  0.1151 -0.8362 -0.9074
 3413SOL    HW210795   5.067   7.641   4.805  0.0139 -0.5779  0.0052
 3414SOL     OW10796   7.412   3.438   4.117 -0.1669 -0.5046 -0.0126
 3414SOL    HW110797   7.360   3.461   4.040  0.2386 -0.5015 -0.2832
 3414SOL    HW210798   7.350   3.392   4.174 -0.5812 -0.1196 -0.1423
 3415SOL     OW10799   6.246   4.546   2.423  0.3544 -0.2994 -0.2603
 3415SOL    HW110800   6.219   4.582   2.338  1.3003 -0.5643 -0.6941
 3415SOL    HW210801   6.328   4.500   2.404 -0.3308 -1.8868  0.4638
 3416SOL     OW10802   3.498   2.398   5.739 -0.0404 -0.8366  0.0342
 3416SOL    HW110803   3.572   2.444   5.777 -0.5723  1.1426 -1.2132
 3416SOL    HW210804   3.487   2.321   5.795  1.5824 -0.0631  1.5183
 3417SOL     OW10805   4.319   4.501   4.577  0.3897 -0.6613 -0.4097
 3417SOL    HW110806   4.396   4.470   4.529  1.0097  2.9622 -2.0854
 3417SOL    HW210807   4.301   4.588   4.541 -2.4730  0.0705  2.2946
 3418SOL     OW10808   6.929   4.475   6.466  0.0274  0.0473  0.3601
 3418SOL    HW110809   6.901   4.471   6.375 -1.6209 -3.5014  0.8102
 3418SOL    HW210810   6.877   4.545   6.505 -1.6874 -0.5097 -0.8188
 3419SOL     OW10811   1.017   7.396   5.197  0.0112 -0.1053  0.5356
 3419SOL    HW110812   0.994   7.487   5.218 -0.4852  0.1714 -1.0765
 3419SOL    HW210813   0.965   7.343   5.258 -1.0040  0.6498  0.3465
 3420SOL     OW10814   7.467   6.224   1.619 -0.4238  0.4943 -0.1471
 3420SOL    HW110815   7.456   6.131   1.641 -0.1901  0.6988  0.9078
 3420SOL    HW210816   7.456   6.269   1.703 -0.1579  1.3898 -0.5872
 3421SOL     OW10817   5.911   7.207   1.171 -0.7315 -0.4078  0.5557
 3421SOL    HW110818   5.939   7.291   1.209 -0.8698  0.2145 -0.6763
 3421SOL    HW210819   5.980   7.146   1.195  0.9110  0.7185 -1.0077
 3422SOL     OW10820   6.689   5.414   5.597  0.3953 -0.2790  0.2488
 3422SOL    HW110821   6.748   5.370   5.657 -1.1875 -2.2656  0.4813
 3422SOL    HW210822   6.624   5.456   5.654 -0.0509 -0.5820 -0.0337
 3423SOL     OW10823   2.598   3.209   1.862  0.3830 -0.0978  0.6727
 3423SOL    HW110824   2.627   3.183   1.949 -1.8374 -1.2153  1.1658
 3423SOL    HW210825   2.552   3.132   1.828  0.5276  0.5761 -1.1849
 3424SOL     OW10826   6.861   6.141   4.991  0.1676  0.3808 -0.1871
 3424SOL    HW110827   6.854   6.203   5.065 -0.1725 -1.6079  1.5469
 3424SOL    HW210828   6.845   6.056   5.030  0.6915 -0.8503 -2.4876
 3425SOL     OW10829   6.942   3.535   3.109 -0.0667  0.4446 -0.3835
 3425SOL    HW110830   6.893   3.537   3.191 -0.5557  2.5240 -0.6708
 3425SOL    HW210831   6.875   3.524   3.041  0.0845  0.9694 -0.6259
 3426SOL     OW10832   4.409   7.443   4.538  0.2838  0.2179 -0.2802
 3426SOL    HW110833   4.348   7.384   4.494  2.0296 -0.8931 -1.2801
 3426SOL    HW210834   4.456   7.388   4.600  1.5997  0.6156 -0.8890
 3427SOL     OW10835   5.824   0.308   5.310 -0.1319  0.2220  0.8828
 3427SOL    HW110836   5.892   0.354   5.261 -0.0291 -0.8347 -0.0104
 3427SOL    HW210837   5.750   0.369   5.311  0.3288  0.8023  0.6077
 3428SOL     OW10838   1.943   3.326   3.950 -0.6894 -0.1411 -0.1726
 3428SOL    HW110839   1.962   3.383   4.025 -1.3152 -0.1931  0.0312
 3428SOL    HW210840   2.018   3.266   3.946  0.3758  1.1861 -0.8867
 3429SOL     OW10841   1.072   2.542   6.977 -0.3748  0.1035 -0.3591
 3429SOL    HW110842   1.111   2.612   7.029  1.7007 -1.4241  0.3310
 3429SOL    HW210843   1.144   2.511   6.921 -0.8983 -2.0188  0.0238
 3430SOL     OW10844   3.953   5.027   2.911  0.0311  0.2034 -0.0861
 3430SOL    HW110845   3.896   5.078   2.969  0.1475 -0.4088  0.5711
 3430SOL    HW210846   3.893   4.985   2.849 -0.1804 -0.0202  0.2735
 3431SOL     OW10847   5.997   2.600   3.129  0.0118 -0.5667 -0.4451
 3431SOL    HW110848   5.903   2.585   3.127  0.0354 -0.9098  0.3527
 3431SOL    HW210849   6.006   2.694   3.143 -0.2777 -0.8012  1.7618
 3432SOL     OW10850   5.941   6.507   5.364  0.3495  0.5954  0.4153
 3432SOL    HW110851   6.001   6.504   5.439 -0.6726 -1.0736  1.2371
 3432SOL    HW210852   5.928   6.415   5.340 -0.3167  1.0359 -1.0372
 3433SOL     OW10853   3.272   1.078   2.991  0.1832 -1.0284 -0.3928
 3433SOL    HW110854   3.354   1.094   3.038 -0.6140  2.3775  0.0627
 3433SOL    HW210855   3.237   0.998   3.030  0.0020  1.0717  4.3328
 3434SOL     OW10856   6.396   2.077   5.101  0.2943  0.5313  0.3216
 3434SOL    HW110857   6.442   2.037   5.027 -0.6554 -0.8648  0.4453
 3434SOL    HW210858   6.436   2.037   5.178  1.0534  1.7318  0.5626
 3435SOL     OW10859   1.680   5.977   1.725  0.1648  0.1655 -0.1120
 3435SOL    HW110860   1.725   5.975   1.641 -0.9958  0.5663 -0.7638
 3435SOL    HW210861   1.638   5.892   1.733 -0.2259  0.3463 -0.2231
 3436SOL     OW10862   4.502   4.475   2.947  0.2299  0.1712  0.1041
 3436SOL    HW110863   4.431   4.533   2.917  0.3543  0.3173  0.0890
 3436SOL    HW210864   4.582   4.525   2.929  0.3535 -0.1205 -0.1677
 3437SOL     OW10865   5.215   1.934   6.928 -0.3870 -0.3343 -0.5738
 3437SOL    HW110866   5.181   2.017   6.963  1.6498 -0.3529  1.7050
 3437SOL    HW210867   5.136   1.883   6.907 -1.6807  2.1646 -2.1560
 3438SOL     OW10868   6.511   3.387   1.623  0.5432  0.0089  0.2228
 3438SOL    HW110869   6.429   3.370   1.577  1.5383 -0.5506 -1.4312
 3438SOL    HW210870   6.534   3.477   1.600  1.1439 -0.3367 -0.5834
 3439SOL     OW10871   2.114   2.614   0.872 -0.3293 -0.4025  0.0113
 3439SOL    HW110872   2.119   2.545   0.806  1.3198 -0.8923  0.6056
 3439SOL    HW210873   2.169   2.583   0.944 -0.7936  0.8485  0.9529
 3440SOL     OW10874   5.918   6.372   1.802 -0.0098 -0.3590  0.5753
 3440SOL    HW110875   5.885   6.397   1.715 -1.7779  0.1553  1.3387
 3440SOL    HW210876   5.990   6.433   1.819 -0.7572  0.6694  0.1526
 3441SOL     OW10877   6.433   4.763   6.373 -0.4451 -0.3658 -0.1727
 3441SOL    HW110878   6.527   4.778   6.384 -0.5435  0.6606 -0.5607
 3441SOL    HW210879   6.392   4.814   6.443 -0.7726  0.6698 -1.0835
 3442SOL     OW10880   3.683   6.825   0.467  0.3102  0.3924 -0.1138
 3442SOL    HW110881   3.595   6.855   0.490  0.5113  0.7655  0.1868
 3442SOL    HW210882   3.696   6.747   0.521  0.8046  1.3000  1.1289
 3443SOL     OW10883   4.067   7.669   6.565  0.0513  0.1537  0.8150
 3443SOL    HW110884   4.111   7.688   6.648  0.2548 -0.8576  0.9582
 3443SOL    HW210885   4.079   7.574   6.553 -1.8007 -0.1104  0.7031
 3444SOL     OW10886   4.892   3.702   1.654  0.9167  0.3974  0.6144
 3444SOL    HW110887   4.888   3.797   1.664  0.8088  0.7266 -1.9831
 3444SOL    HW210888   4.804   3.676   1.628  0.6714 -0.6170  2.2335
 3445SOL     OW10889   1.128   5.138   5.270  1.0109 -0.3735 -0.2929
 3445SOL    HW110890   1.169   5.128   5.184  0.0621 -1.0621 -0.6751
 3445SOL    HW210891   1.039   5.107   5.258  0.0265  2.0064  0.2797
 3446SOL     OW10892   4.971   2.660   5.904  0.4395  0.0163 -0.6269
 3446SOL    HW110893   4.922   2.653   5.822  0.5116  1.9748 -0.8849
 3446SOL    HW210894   5.043   2.719   5.884  1.2150 -0.4881  0.5381
 3447SOL     OW10895   5.927   3.843   6.395 -0.1664  0.1768 -0.1026
 3447SOL    HW110896   5.849   3.857   6.341 -0.1691  2.1055  0.3098
 3447SOL    HW210897   5.990   3.909   6.364  0.1793  0.6997  1.5690
 3448SOL     OW10898   0.386   1.126   7.434  0.2984  0.1859 -0.4629
 3448SOL    HW110899   0.451   1.186   7.399  0.2248 -0.4040 -1.6420
 3448SOL    HW210900   0.418   1.039   7.409 -0.6949 -0.1364 -0.6433
 3449SOL     OW10901   3.075   0.015   7.143  0.6037  0.2897  0.0484
 3449SOL    HW110902   3.128   0.094   7.150  0.5027  0.8345 -3.3538
 3449SOL    HW210903   2.985   0.044   7.160  0.6098  0.9060 -0.8712
 3450SOL     OW10904   1.412   0.609   5.464 -0.1746  0.4693 -0.2326
 3450SOL    HW110905   1.358   0.531   5.446  0.1922  0.5526 -1.8192
 3450SOL    HW210906   1.354   0.682   5.444 -0.6936  0.6654  1.7624
 3451SOL     OW10907   3.162   7.322   3.093  0.4907 -0.4655  0.1404
 3451SOL    HW110908   3.137   7.363   3.010  2.8402 -0.0121 -0.4189
 3451SOL    HW210909   3.183   7.395   3.151  1.0425 -0.8091  0.3831
 3452SOL     OW10910   6.751   7.437   0.868 -0.0145 -0.2675  0.0608
 3452SOL    HW110911   6.840   7.460   0.840 -0.1340  0.3980  0.2207
 3452SOL    HW210912   6.763   7.400   0.956 -0.1447  2.2726  1.2212
 3453SOL     OW10913   7.628   5.677   7.271 -0.2143 -0.5381 -0.0625
 3453SOL    HW110914   7.552   5.718   7.314 -0.5203 -2.3325  1.2172
 3453SOL    HW210915   7.700   5.690   7.334  0.3627  0.3475 -0.8658
 3454SOL     OW10916   3.410   0.708   3.404  0.3883  0.0731 -0.1171
 3454SOL    HW110917   3.334   0.651   3.416  0.9159 -0.3892  1.2339
 3454SOL    HW210918   3.382   0.792   3.440  1.0883 -0.6013  2.1609
 3455SOL     OW10919   1.915   1.191   5.012  0.0304 -0.4754  0.2249
 3455SOL    HW110920   1.960   1.138   4.946 -2.5338  0.0533 -2.1011
 3455SOL    HW210921   1.824   1.191   4.985 -0.9323  0.8792  3.0984
 3456SOL     OW10922   0.195   6.936   3.736 -0.2573 -0.5514 -0.2672
 3456SOL    HW110923   0.247   6.888   3.801 -1.9447 -0.1333  1.4892
 3456SOL    HW210924   0.107   6.898   3.742 -0.7856  0.4295 -1.3506
 3457SOL     OW10925   1.933   4.131   6.735  0.6673  0.0332 -0.4643
 3457SOL    HW110926   2.025   4.142   6.711  0.6679 -0.4899 -0.7136
 3457SOL    HW210927   1.926   4.171   6.822  1.1587 -0.0349 -0.3901
 3458SOL     OW10928   1.979   2.888   2.621  0.0631 -0.3451  0.0742
 3458SOL    HW110929   1.910   2.945   2.654 -1.4226 -2.2360  0.3417
 3458SOL    HW210930   1.960   2.879   2.527 -0.2476 -1.1066  0.2046
 3459SOL     OW10931   5.810   6.342   3.045  0.4346 -0.1805 -0.1147
 3459SOL    HW110932   5.764   6.282   2.987  0.6600  0.6386 -1.1770
 3459SOL    HW210933   5.751   6.416   3.055  0.9181  0.2425 -0.3359
 3460SOL     OW10934   2.736   3.567   0.730  0.0233 -0.2547 -0.6576
 3460SOL    HW110935   2.680   3.644   0.724  0.0921  0.1240  2.2976
 3460SOL    HW210936   2.784   3.566   0.647 -3.0760  0.3457 -2.6065
 3461SOL     OW10937   1.175   6.326   5.701  0.0959  0.3351  0.4078
 3461SOL    HW110938   1.115   6.336   5.775  0.0375  1.9539  0.1696
 3461SOL    HW210939   1.250   6.381   5.722 -0.3083  1.5267 -1.1057
 3462SOL     OW10940   6.835   4.482   3.247  0.0700  0.0930  0.6909
 3462SOL    HW110941   6.833   4.473   3.152  0.0192  0.9331  0.6036
 3462SOL    HW210942   6.787   4.406   3.280 -1.8985  0.9615 -0.0377
 3463SOL     OW10943   1.706   1.080   4.036  0.4098 -0.5590 -0.0593
 3463SOL    HW110944   1.687   1.173   4.024 -0.1672 -0.5401  0.8920
 3463SOL    HW210945   1.707   1.043   3.947 -1.3870 -0.0341 -0.3266
 3464SOL     OW10946   2.860   2.026   6.932 -0.5913 -0.0960  0.0337
 3464SOL    HW110947   2.861   2.008   7.026  1.4893 -0.3221  0.0086
 3464SOL    HW210948   2.921   1.963   6.894  2.7227  3.2179 -0.7491
 3465SOL     OW10949   2.901   5.741   4.329 -0.2392  0.1266  0.4866
 3465SOL    HW110950   2.806   5.748   4.320 -0.2400 -1.5677 -1.8464
 3465SOL    HW210951   2.936   5.801   4.263  0.2429 -0.3594  0.2894
 3466SOL     OW10952   4.293   5.633   4.054 -0.1914 -0.0725  0.0229
 3466SOL    HW110953   4.232   5.704   4.074 -0.2316 -0.4313  1.2553
 3466SOL    HW210954   4.319   5.599   4.140  4.2405  2.1124 -0.1301
 3467SOL     OW10955   5.121   0.646   3.453  0.4728  0.1828  0.5194
 3467SOL    HW110956   5.171   0.625   3.374 -0.3569  1.1128 -0.2728
 3467SOL    HW210957   5.182   0.697   3.507  0.7578  0.3116  0.0808
 3468SOL     OW10958   7.740   4.778   7.145  0.2364  0.2127 -0.6942
 3468SOL    HW110959   7.655   4.810   7.176  0.3365 -1.7553  1.9802
 3468SOL    HW210960   7.798   4.787   7.221  2.0134 -0.0043 -1.9558
 3469SOL     OW10961   5.796   2.722   6.206 -0.7852  0.2952 -0.5192
 3469SOL    HW110962   5.787   2.768   6.122 -2.6674 -0.2561 -0.6531
 3469SOL    HW210963   5.714   2.738   6.252  0.6007  1.4681  1.7404
 3470SOL     OW10964   4.174   6.382   1.508 -0.5078 -0.2543  0.6643
 3470SOL    HW110965   4.163   6.291   1.478 -2.1726 -0.4224  1.6629
 3470SOL    HW210966   4.263   6.404   1.483  0.5046 -2.6927  1.7701
 3471SOL     OW10967   6.668   7.568   2.838  0.2461 -0.1635 -0.6825
 3471SOL    HW110968   6.617   7.644   2.811  1.7747  1.0217 -0.3780
 3471SOL    HW210969   6.707   7.594   2.922  2.0540 -0.6456 -1.3225
 3472SOL     OW10970   7.719   6.647   1.632  0.5824  0.1306  0.3421
 3472SOL    HW110971   7.691   6.556   1.635 -1.3223  0.6694  0.4420
 3472SOL    HW210972   7.783   6.650   1.561  0.8980 -1.3313  0.5436
 3473SOL     OW10973   4.405   0.284   0.857  0.6748  0.0944 -0.0670
 3473SOL    HW110974   4.416   0.255   0.947 -0.0861 -0.6975 -0.2107
 3473SOL    HW210975   4.462   0.360   0.849 -0.5418  1.2351  1.5781
 3474SOL     OW10976   0.381   4.603   0.781 -0.0862 -0.1513  0.3972
 3474SOL    HW110977   0.473   4.580   0.790  0.1256  1.0660  1.8359
 3474SOL    HW210978   0.382   4.697   0.762 -1.0226 -0.2858 -0.4056
 3475SOL     OW10979   5.855   2.592   7.163 -0.0795  0.4743  0.6130
 3475SOL    HW110980   5.817   2.678   7.179 -0.5121  0.6148 -1.0186
 3475SOL    HW210981   5.894   2.598   7.076  2.1432 -0.2237  1.4916
 3476SOL     OW10982   1.187   3.534   5.696 -0.2935 -0.0569 -0.3027
 3476SOL    HW110983   1.259   3.519   5.635  1.2302  0.4919  1.2860
 3476SOL    HW210984   1.108   3.529   5.641  0.9606 -0.0798 -2.2060
 3477SOL     OW10985   5.460   0.129   2.704  0.2114  0.1657 -0.2625
 3477SOL    HW110986   5.516   0.080   2.644 -1.6585 -1.4396 -0.8051
 3477SOL    HW210987   5.428   0.063   2.766  1.1421  1.5622  1.8278
 3478SOL     OW10988   3.353   6.667   1.266 -0.3919  0.3769 -0.2521
 3478SOL    HW110989   3.296   6.729   1.311 -1.3342  0.4777 -1.5050
 3478SOL    HW210990   3.320   6.666   1.176  2.6226  1.6946 -1.5047
 3479SOL     OW10991   2.777   0.439   6.060  0.1204  0.1021  0.2416
 3479SOL    HW110992   2.718   0.406   5.992 -1.6115 -0.9614  2.1818
 3479SOL    HW210993   2.744   0.527   6.079  1.0119  0.6671 -0.6756
 3480SOL     OW10994   6.313   5.988   1.306  0.3291  0.4576 -0.1384
 3480SOL    HW110995   6.308   6.084   1.300 -0.3226  0.4331 -0.0396
 3480SOL    HW210996   6.222   5.959   1.300  0.5261 -0.1593 -0.1803
 3481SOL     OW10997   0.619   5.780   0.219 -0.1542 -0.0770  0.0790
 3481SOL    HW110998   0.699   5.804   0.267  0.0275  0.4254 -0.4670
 3481SOL    HW210999   0.563   5.740   0.286  0.5663 -0.4712  0.4567
 3482SOL     OW11000   0.506   1.537   3.003 -0.0043  0.1056  0.1832
 3482SOL    HW111001   0.508   1.448   3.037  0.0652  1.2224  3.3536
 3482SOL    HW211002   0.581   1.541   2.944  1.3924 -1.3129  1.7566
 3483SOL     OW11003   0.877   5.576   4.384  0.8070 -0.0491 -0.1450
 3483SOL    HW111004   0.905   5.549   4.472 -0.5655 -1.4875 -0.1077
 3483SOL    HW211005   0.789   5.612   4.397  1.2524  1.3215 -0.7186
 3484SOL     OW11006   5.562   2.154   5.584  0.1298 -0.6664 -0.2889
 3484SOL    HW111007   5.567   2.146   5.679  0.9566 -0.3888 -0.3030
 3484SOL    HW211008   5.470   2.136   5.563 -0.1682 -0.2183  0.6075
 3485SOL     OW11009   5.468   1.288   5.602 -0.4617 -0.4109  0.1575
 3485SOL    HW111010   5.476   1.256   5.692 -1.8445  1.7317  1.1432
 3485SOL    HW211011   5.541   1.248   5.555  2.2645  0.8159  2.9950
 3486SOL     OW11012   7.240   0.934   3.956  0.0009 -0.1832  0.3595
 3486SOL    HW111013   7.245   0.840   3.973 -0.0588 -0.0497  1.1528
 3486SOL    HW211014   7.194   0.941   3.872  0.1636 -0.8637  0.2088
 3487SOL     OW11015   6.584   0.754   6.142 -0.6881  0.0950  0.0699
 3487SOL    HW111016   6.608   0.764   6.050 -0.7147 -0.3432  0.0156
 3487SOL    HW211017   6.491   0.774   6.145 -0.0933  3.4623  0.5373
 3488SOL     OW11018   6.037   7.638   3.404 -0.5029 -0.1209  0.1451
 3488SOL    HW111019   6.112   7.664   3.457 -0.4652  1.8801 -0.8043
 3488SOL    HW211020   6.068   7.642   3.314 -1.4973 -0.2030 -0.2180
 3489SOL     OW11021   3.176   4.518   4.955 -0.0028  0.0960  0.4616
 3489SOL    HW111022   3.203   4.463   5.028 -0.9837 -1.5013 -0.3196
 3489SOL    HW211023   3.104   4.572   4.989  2.0390  2.2295  1.7092
 3490SOL     OW11024   0.647   5.132   6.547  0.1228  0.0971 -0.0453
 3490SOL    HW111025   0.607   5.147   6.461 -1.1538  1.0529  0.6740
 3490SOL    HW211026   0.573   5.115   6.605  0.9270 -0.0554  0.9635
 3491SOL     OW11027   7.097   3.701   2.766 -0.4015  0.4922  0.5781
 3491SOL    HW111028   7.151   3.626   2.791 -0.0296  0.4489 -0.3250
 3491SOL    HW211029   7.159   3.771   2.748 -0.6660  0.6123  0.1009
 3492SOL     OW11030   4.522   6.596   5.624  0.1647 -0.7667 -0.3610
 3492SOL    HW111031   4.608   6.575   5.660  0.8996  1.8248 -0.3525
 3492SOL    HW211032   4.536   6.599   5.529 -0.0535 -0.9315 -0.3979
 3493SOL     OW11033   6.537   7.588   0.510  0.0157 -0.3628  0.5299
 3493SOL    HW111034   6.577   7.516   0.461 -0.3556 -1.0547  1.2111
 3493SOL    HW211035   6.504   7.648   0.443  1.7986  0.0278 -0.0474
 3494SOL     OW11036   2.234   7.004   6.778 -0.3986 -0.2492 -0.0574
 3494SOL    HW111037   2.279   7.061   6.841  0.9627 -1.8544  0.5047
 3494SOL    HW211038   2.141   7.024   6.789 -0.0029  1.5177  0.4253
 3495SOL     OW11039   3.614   1.446   6.697 -0.7683  0.5222 -0.4103
 3495SOL    HW111040   3.614   1.445   6.793 -0.8573 -0.0866 -0.4139
 3495SOL    HW211041   3.616   1.539   6.674  2.0641  0.7129  0.1864
 3496SOL     OW11042   7.721   1.862   2.332 -0.2038  0.4789  0.4859
 3496SOL    HW111043   7.800   1.914   2.343 -0.0868  0.0046  2.2087
 3496SOL    HW211044   7.662   1.894   2.401 -1.0010 -0.0881  0.0792
 3497SOL     OW11045   1.312   7.699   0.107 -0.0213  0.3167  1.0668
 3497SOL    HW111046   1.300   7.605   0.097 -1.0373  0.4746  0.7090
 3497SOL    HW211047   1.298   7.716   0.200  0.3351  0.0951  1.1620
 3498SOL     OW11048   1.848   3.602   4.779  0.0445 -0.4628 -0.2848
 3498SOL    HW111049   1.779   3.655   4.819  1.0316  0.5817  0.1245
 3498SOL    HW211050   1.930   3.643   4.810  0.8420 -1.6423 -0.7594
 3499SOL     OW11051   2.013   5.198   3.333 -0.5451  0.0534  0.2184
 3499SOL    HW111052   2.036   5.213   3.241  2.0141  0.1979  0.7961
 3499SOL    HW211053   2.068   5.259   3.381  1.6487 -3.0601  2.0386
 3500SOL     OW11054   3.956   7.121   6.263  0.1387 -0.1604  0.6594
 3500SOL    HW111055   3.929   7.047   6.209  0.1439  0.5402 -0.3361
 3500SOL    HW211056   3.967   7.084   6.350  1.8141 -1.6883 -0.1366
 3501SOL     OW11057   3.730   2.048   3.644 -0.6150 -0.6351 -0.4967
 3501SOL    HW111058   3.745   2.142   3.635 -0.2007 -0.6009  0.4177
 3501SOL    HW211059   3.649   2.041   3.694  0.2452 -0.7285  0.9288
 3502SOL     OW11060   7.417   4.219   6.397 -0.4530  0.5185  0.1670
 3502SOL    HW111061   7.342   4.213   6.456  0.2860 -1.6960  0.9578
 3502SOL    HW211062   7.491   4.238   6.454  0.1067 -0.6615 -0.1435
 3503SOL     OW11063   4.720   3.686   3.082  0.1058 -0.2229 -0.8163
 3503SOL    HW111064   4.664   3.647   3.148 -0.2030  1.2099 -0.1913
 3503SOL    HW211065   4.758   3.763   3.125  0.2203  0.5084 -2.1553
 3504SOL     OW11066   0.904   3.387   4.091 -0.3661 -0.2754  0.5381
 3504SOL    HW111067   0.924   3.296   4.113 -1.1788 -0.8796 -1.1221
 3504SOL    HW211068   0.809   3.393   4.098 -0.2843  0.5885  1.0855
 3505SOL     OW11069   5.526   5.885   2.896 -0.7043  0.1000 -0.5720
 3505SOL    HW111070   5.442   5.892   2.943 -1.0972  1.6922 -1.4406
 3505SOL    HW211071   5.590   5.867   2.965 -1.4286  1.2008  0.4453
 3506SOL     OW11072   2.113   0.065   6.779 -0.0338  0.1628  0.0399
 3506SOL    HW111073   2.068  -0.018   6.788  0.6177 -0.0899  1.1992
 3506SOL    HW211074   2.061   0.127   6.830  0.4804  0.0511  0.7062
 3507SOL     OW11075   2.899   6.696   3.440  0.1950 -0.7393  0.8042
 3507SOL    HW111076   2.879   6.790   3.448 -2.0336 -1.1944  1.4233
 3507SOL    HW211077   2.989   6.688   3.469  0.3627  1.1854  0.9530
 3508SOL     OW11078   7.420   6.556   1.700  0.0025 -0.1191  0.5147
 3508SOL    HW111079   7.361   6.628   1.724  0.3670  0.1834  0.5156
 3508SOL    HW211080   7.396   6.485   1.759  0.0849  0.2273  0.9790
 3509SOL     OW11081   0.414   2.167   5.552  0.3576  0.1012  0.1513
 3509SOL    HW111082   0.488   2.109   5.533 -0.6751 -1.0278 -0.5576
 3509SOL    HW211083   0.347   2.142   5.489 -0.8955  0.6220  1.2354
 3510SOL     OW11084   2.044   3.346   1.805  0.1545 -0.2892  0.3265
 3510SOL    HW111085   1.958   3.302   1.808 -0.3597  0.4987 -1.5204
 3510SOL    HW211086   2.051   3.389   1.890 -0.6580 -1.4884  1.0397
 3511SOL     OW11087   1.823   0.220   2.937 -0.3142  0.8556 -0.1974
 3511SOL    HW111088   1.912   0.211   2.904 -0.1953 -2.6628  0.6703
 3511SOL    HW211089   1.769   0.232   2.859  0.6801  0.3072 -0.9832
 3512SOL     OW11090   4.670   1.940   0.429 -0.0182  0.7939  0.0629
 3512SOL    HW111091   4.736   1.986   0.376 -1.0008  0.2040 -1.7755
 3512SOL    HW211092   4.715   1.861   0.460  0.0891  0.2270 -1.4594
 3513SOL     OW11093   2.736   3.155   2.465 -0.5697 -0.0515  0.7288
 3513SOL    HW111094   2.701   3.074   2.502 -2.8264  0.5616  0.0810
 3513SOL    HW211095   2.674   3.179   2.396  2.0626  0.2325 -1.7452
 3514SOL     OW11096   2.863   7.133   5.277  0.5716 -0.2175  0.0091
 3514SOL    HW111097   2.881   7.225   5.260  0.1094 -0.2482 -0.6918
 3514SOL    HW211098   2.772   7.121   5.249  0.4035 -0.7239  0.7567
 3515SOL     OW11099   2.513   1.078   7.428  0.4748 -0.0196  0.8107
 3515SOL    HW111100   2.568   1.018   7.478  2.9449  0.8044 -0.7738
 3515SOL    HW211101   2.573   1.142   7.391 -1.5152  0.8293 -1.2098
 3516SOL     OW11102   2.657   6.686   1.956  0.2266  0.1871 -0.3254
 3516SOL    HW111103   2.664   6.781   1.951 -2.1128  0.4383 -0.0092
 3516SOL    HW211104   2.696   6.655   1.874  1.7065  1.3348 -0.0954
 3517SOL     OW11105   3.704   2.220   7.748  0.6594  0.0133  0.2358
 3517SOL    HW111106   3.762   2.278   7.798  1.2274  0.2111 -0.6227
 3517SOL    HW211107   3.745   2.134   7.756  1.4205  0.2577 -0.8575
 3518SOL     OW11108   4.768   1.269   5.465  0.1335 -0.1112  0.0179
 3518SOL    HW111109   4.695   1.243   5.522 -0.4832 -0.2642 -0.8267
 3518SOL    HW211110   4.820   1.190   5.455 -0.1947 -0.2856 -0.2827
 3519SOL     OW11111   4.390   5.316   5.450  0.3110 -0.3417 -0.0165
 3519SOL    HW111112   4.326   5.244   5.453 -0.0739 -0.0844 -1.2495
 3519SOL    HW211113   4.441   5.306   5.530 -0.5218 -1.2599  0.4284
 3520SOL     OW11114   2.620   3.428   7.249 -0.1901 -0.1195  0.1169
 3520SOL    HW111115   2.540   3.398   7.205 -0.0323  0.0214 -0.2626
 3520SOL    HW211116   2.677   3.350   7.251  0.3853  0.2465 -1.2404
 3521SOL     OW11117   4.726   0.193   0.629  0.1327  0.5813 -0.1869
 3521SOL    HW111118   4.645   0.151   0.600  0.4362  0.1685 -0.4551
 3521SOL    HW211119   4.752   0.249   0.556 -0.2230  1.1725  0.1347
 3522SOL     OW11120   1.066   5.312   6.615  0.3748 -0.8313 -0.4331
 3522SOL    HW111121   1.086   5.222   6.641 -0.1045 -1.6091 -2.5203
 3522SOL    HW211122   1.137   5.365   6.652  1.4979 -2.2803 -0.4301
 3523SOL     OW11123   2.838   5.328   2.902 -0.5351  0.1436 -0.1758
 3523SOL    HW111124   2.870   5.378   2.827 -0.4286 -0.0462 -0.2561
 3523SOL    HW211125   2.903   5.259   2.915 -0.9252 -0.2607 -0.3552
 3524SOL     OW11126   3.999   3.682   3.157 -0.5071  0.5296 -0.1198
 3524SOL    HW111127   3.936   3.652   3.092 -0.8240 -0.7092  0.7353
 3524SOL    HW211128   4.082   3.686   3.110 -1.3316  3.3647 -1.6001
 3525SOL     OW11129   5.744   6.649   3.931  0.5028 -0.0384  0.0744
 3525SOL    HW111130   5.822   6.598   3.910  1.0218  0.9866 -0.5770
 3525SOL    HW211131   5.717   6.687   3.847  1.1340  2.1065  0.7759
 3526SOL     OW11132   7.041   1.423   3.150  0.0561  0.1215 -0.0979
 3526SOL    HW111133   7.003   1.434   3.063 -1.0967  0.8544  0.4731
 3526SOL    HW211134   6.982   1.362   3.195  0.8859 -0.6053  0.0527
 3527SOL     OW11135   0.994   1.837   0.692 -0.0317 -0.2315  0.0571
 3527SOL    HW111136   0.955   1.895   0.626  1.0176  1.3441  0.7602
 3527SOL    HW211137   1.020   1.759   0.643  0.2257  0.6601 -1.2952
 3528SOL     OW11138   1.884   6.043   4.802  0.2176  0.1096 -0.0925
 3528SOL    HW111139   1.956   6.094   4.765 -0.0092  0.4982 -0.0036
 3528SOL    HW211140   1.858   5.984   4.732 -1.3084  1.9639 -1.1759
 3529SOL     OW11141   0.223   3.954   6.592  0.8462 -0.2441  0.2423
 3529SOL    HW111142   0.259   3.962   6.503 -1.9574 -1.3060 -1.1315
 3529SOL    HW211143   0.253   4.033   6.637  0.9618  1.2519 -2.2407
 3530SOL     OW11144   4.806   6.134   7.723 -0.3604 -0.5420 -0.0952
 3530SOL    HW111145   4.812   6.207   7.784  2.0012 -1.4046  0.8223
 3530SOL    HW211146   4.831   6.057   7.774 -1.6520 -1.8605 -1.3244
 3531SOL     OW11147   2.572   5.576   2.057  0.2652 -0.1132 -0.2178
 3531SOL    HW111148   2.486   5.537   2.067 -0.2112  1.3398  2.1914
 3531SOL    HW211149   2.610   5.574   2.145  2.6494 -0.5609 -1.1847
 3532SOL     OW11150   0.101   7.520   0.047  0.1328 -0.2167 -0.0033
 3532SOL    HW111151   0.173   7.551   0.102  1.1425  1.6082 -2.1787
 3532SOL    HW211152   0.124   7.429   0.027  1.4349  0.0782  0.0272
 3533SOL     OW11153   4.756   6.747   7.360  0.1971 -0.1433  0.0194
 3533SOL    HW111154   4.829   6.689   7.341 -1.5465 -1.7505 -2.3136
 3533SOL    HW211155   4.758   6.812   7.289  0.4139  0.9675  1.0030
 3534SOL     OW11156   5.734   4.215   4.180 -0.3101 -0.1798  0.0496
 3534SOL    HW111157   5.708   4.221   4.272 -0.8451  0.9133 -0.1566
 3534SOL    HW211158   5.801   4.283   4.169 -0.6140  0.0381 -0.4865
 3535SOL     OW11159   4.267   7.186   7.394 -0.3741 -0.3692 -0.1637
 3535SOL    HW111160   4.303   7.098   7.404 -0.8571 -0.4794  0.6481
 3535SOL    HW211161   4.194   7.189   7.455 -0.2777  0.6483 -0.0869
 3536SOL     OW11162   4.433   2.249   0.632 -0.4831 -0.2664 -0.5255
 3536SOL    HW111163   4.471   2.337   0.629  0.3287 -0.6080 -0.7250
 3536SOL    HW211164   4.443   2.222   0.723 -0.6185 -0.2008 -0.4911
 3537SOL     OW11165   2.338   7.723   0.922  0.0244  0.0556  0.0254
 3537SOL    HW111166   2.257   7.734   0.973 -0.8631  2.2084 -1.6905
 3537SOL    HW211167   2.318   7.656   0.857 -0.4845  0.7674 -0.5589
 3538SOL     OW11168   5.182   5.259   3.375 -0.0607 -0.0937  0.1452
 3538SOL    HW111169   5.127   5.291   3.304  0.1535 -0.0322  0.0076
 3538SOL    HW211170   5.267   5.299   3.360  0.1514 -0.5596  0.0906
 3539SOL     OW11171   5.932   5.432   4.260 -0.2443  0.2181  0.2460
 3539SOL    HW111172   5.906   5.402   4.348  2.1422 -0.7246  0.7066
 3539SOL    HW211173   5.860   5.405   4.204 -1.0854 -0.6704  1.6735
 3540SOL     OW11174   5.342   3.037   7.151 -0.1899 -0.0755  0.1261
 3540SOL    HW111175   5.293   3.098   7.096  1.3717 -0.6560 -2.0236
 3540SOL    HW211176   5.304   2.951   7.130  0.3010 -0.2812  0.0765
 3541SOL     OW11177   2.460   3.329   5.915 -0.5898  0.4962 -0.2337
 3541SOL    HW111178   2.443   3.394   5.983  0.6061  0.5998 -0.0132
 3541SOL    HW211179   2.510   3.377   5.849  0.1935 -0.1714 -0.1301
 3542SOL     OW11180   5.643   1.480   7.522  0.4049 -0.0063  0.3305
 3542SOL    HW111181   5.734   1.485   7.551  0.8090  0.5210 -0.9779
 3542SOL    HW211182   5.639   1.534   7.443 -1.0038 -0.1740  0.2521
 3543SOL     OW11183   6.380   5.869   2.515 -0.1598 -0.2052 -0.1831
 3543SOL    HW111184   6.300   5.908   2.551 -1.0736  0.8755 -3.0235
 3543SOL    HW211185   6.451   5.911   2.562 -1.1978 -1.1358  2.3829
 3544SOL     OW11186   2.563   2.907   7.257 -0.6740 -0.3642 -0.1152
 3544SOL    HW111187   2.575   2.829   7.202  0.5071 -0.5560  0.3696
 3544SOL    HW211188   2.493   2.883   7.318 -1.5718 -0.3704 -1.1215
 3545SOL     OW11189   2.129   1.369   7.115  0.4160 -0.7181  0.0982
 3545SOL    HW111190   2.209   1.390   7.162  0.7479 -1.3352 -0.1850
 3545SOL    HW211191   2.059   1.378   7.180  0.7248 -0.2974  0.3734
 3546SOL     OW11192   2.355   0.242   3.339  0.0357 -0.3760  0.7651
 3546SOL    HW111193   2.308   0.263   3.420 -1.6231  1.8566 -0.6458
 3546SOL    HW211194   2.343   0.148   3.328  1.0760 -0.9320  3.4896
 3547SOL     OW11195   1.413   2.668   4.792  0.1702 -0.1381  0.0963
 3547SOL    HW111196   1.482   2.641   4.731 -0.4188 -2.6496  0.4437
 3547SOL    HW211197   1.421   2.607   4.866 -1.3444  0.6095  0.9205
 3548SOL     OW11198   2.994   5.269   6.154  0.3889  0.8766  0.3490
 3548SOL    HW111199   2.937   5.344   6.173  0.5071  1.3718 -1.1678
 3548SOL    HW211200   3.076   5.290   6.200  0.1808  1.3245  0.5279
 3549SOL     OW11201   7.059   0.464   5.947 -0.2584 -0.1687  0.0371
 3549SOL    HW111202   7.030   0.547   5.909  0.3930 -0.5501 -1.3957
 3549SOL    HW211203   7.041   0.399   5.879 -1.4516 -1.3577  1.4242
 3550SOL     OW11204   4.660   7.044   6.609 -0.3548 -0.3785  0.2258
 3550SOL    HW111205   4.584   7.028   6.553 -0.0915  1.7239 -0.8178
 3550SOL    HW211206   4.701   7.123   6.573  2.1060 -1.2048  1.0193
 3551SOL     OW11207   5.871   3.224   2.278 -0.5580 -0.8507 -0.3536
 3551SOL    HW111208   5.797   3.214   2.218 -1.6674  1.3486  0.5105
 3551SOL    HW211209   5.879   3.139   2.321 -1.6334 -1.5776 -1.5122
 3552SOL     OW11210   7.530   1.284   1.674  0.2170  0.4985 -0.3584
 3552SOL    HW111211   7.450   1.330   1.698  1.2881  1.2976  1.9413
 3552SOL    HW211212   7.594   1.353   1.658  0.3692 -0.1111 -2.7268
 3553SOL     OW11213   0.585   1.384   1.745  0.0070 -0.4422  0.4031
 3553SOL    HW111214   0.521   1.358   1.811 -0.5158 -2.1581 -0.7249
 3553SOL    HW211215   0.667   1.342   1.773  0.1949  0.2046  0.8381
 3554SOL     OW11216   6.073   0.931   4.426  0.3168  0.1688  0.3748
 3554SOL    HW111217   6.142   0.889   4.477  2.0421 -0.0610 -2.0248
 3554SOL    HW211218   6.113   1.013   4.395 -1.4010  1.3238  1.0415
 3555SOL     OW11219   3.861   6.784   4.743  0.2615  0.2702  0.0841
 3555SOL    HW111220   3.892   6.713   4.799 -1.2574  0.1481  0.8052
 3555SOL    HW211221   3.836   6.740   4.661 -0.2472  0.0251  0.3647
 3556SOL     OW11222   2.781   2.104   0.799  0.1659 -0.3142 -0.3093
 3556SOL    HW111223   2.753   2.140   0.883  0.4781  0.5529 -0.5635
 3556SOL    HW211224   2.755   2.012   0.802 -0.4180 -0.1310  0.4664
 3557SOL     OW11225   3.539   1.549   5.988  0.4296  0.6673 -0.5080
 3557SOL    HW111226   3.554   1.467   5.942  0.7983  0.1132  0.5664
 3557SOL    HW211227   3.573   1.534   6.077 -0.6536  1.5524  0.0868
 3558SOL     OW11228   3.139   2.498   1.394  0.0526 -0.6663  0.0745
 3558SOL    HW111229   3.118   2.556   1.468  0.6694 -2.4834  1.7676
 3558SOL    HW211230   3.054   2.468   1.362 -0.3071  1.5639 -1.2333
 3559SOL     OW11231   0.683   6.075   7.336  0.2709  0.1416 -0.2269
 3559SOL    HW111232   0.681   6.051   7.243 -0.6357 -2.1163  0.3107
 3559SOL    HW211233   0.599   6.116   7.352  0.3578  0.3738 -0.3562
 3560SOL     OW11234   3.112   1.466   1.529 -0.4741  0.7309  0.2290
 3560SOL    HW111235   3.185   1.477   1.467 -0.3762 -2.3224 -0.3709
 3560SOL    HW211236   3.151   1.422   1.604 -1.6812 -1.4368 -0.3183
 3561SOL     OW11237   1.348   2.312   3.380 -0.3867 -0.3510  0.1513
 3561SOL    HW111238   1.397   2.266   3.312  1.0155 -2.4134  2.3803
 3561SOL    HW211239   1.290   2.245   3.417 -2.7862  1.2801 -0.3913
 3562SOL     OW11240   6.846   1.423   3.374 -0.0619  0.0537  0.0943
 3562SOL    HW111241   6.908   1.475   3.424  1.1665 -1.3011  0.0391
 3562SOL    HW211242   6.791   1.381   3.440 -0.9608  1.2603  0.1424
 3563SOL     OW11243   2.206   6.349   2.951 -0.0126  0.1614  0.4083
 3563SOL    HW111244   2.209   6.261   2.988  0.3587  0.0382  0.0932
 3563SOL    HW211245   2.217   6.407   3.027  0.1921 -0.0745  0.5605
 3564SOL     OW11246   0.997   7.124   3.538 -0.2830 -0.7927 -0.5841
 3564SOL    HW111247   0.932   7.137   3.469 -1.2402 -1.0845  0.2285
 3564SOL    HW211248   1.074   7.090   3.494 -0.5024  0.0437 -1.6469
 3565SOL     OW11249   3.249   1.374   2.295 -0.6008 -0.4196 -0.0050
 3565SOL    HW111250   3.296   1.349   2.215  2.1994  1.4665  0.8544
 3565SOL    HW211251   3.273   1.307   2.359 -1.6588 -1.1309 -0.3266
 3566SOL     OW11252   1.438   5.642   5.815  0.5557  0.1852  0.1789
 3566SOL    HW111253   1.486   5.720   5.788 -0.1039  0.5653  0.0885
 3566SOL    HW211254   1.434   5.648   5.911 -0.1914  0.6957  0.1296
 3567SOL     OW11255   2.008   2.303   7.452  0.0962  0.3717 -0.0386
 3567SOL    HW111256   2.047   2.387   7.425  0.9229  0.2162  0.6218
 3567SOL    HW211257   2.040   2.290   7.541  1.3696 -1.4673 -0.7027
 3568SOL     OW11258   5.496   3.967   2.545  0.0715  0.0936  0.4226
 3568SOL    HW111259   5.562   3.979   2.614 -0.9859  0.1333  1.4470
 3568SOL    HW211260   5.545   3.978   2.463  1.4462 -0.4085  1.1440
 3569SOL     OW11261   0.537   3.414   0.090 -0.1349 -0.7374 -0.2991
 3569SOL    HW111262   0.525   3.408   0.185  0.1128  0.6114 -0.1508
 3569SOL    HW211263   0.542   3.324   0.060  2.4978 -1.2532  1.3393
 3570SOL     OW11264   5.184   1.234   0.114  0.0355  0.6821  0.6522
 3570SOL    HW111265   5.140   1.318   0.099  1.6203  1.2692 -1.0334
 3570SOL    HW211266   5.224   1.212   0.030  0.4428 -1.3279  1.3104
 3571SOL     OW11267   1.468   1.283   5.120 -0.0939  0.1642  0.1741
 3571SOL    HW111268   1.530   1.331   5.175  0.4677 -0.5803  0.2053
 3571SOL    HW211269   1.422   1.225   5.180  1.1395 -1.2974 -0.2265
 3572SOL     OW11270   0.206   0.702   6.818 -0.1503 -0.3423 -0.2563
 3572SOL    HW111271   0.250   0.767   6.873  0.4774  1.0677 -2.3158
 3572SOL    HW211272   0.274   0.668   6.761 -1.0093 -0.8420 -1.0206
 3573SOL     OW11273   5.332   7.741   0.234 -0.1355 -0.2688  0.1358
 3573SOL    HW111274   5.245   7.710   0.209 -0.6875  2.4835 -1.8847
 3573SOL    HW211275   5.392   7.674   0.202 -1.4696 -2.3239  1.7582
 3574SOL     OW11276   0.538   7.105   7.661 -0.1052 -0.4107  0.0330
 3574SOL    HW111277   0.604   7.174   7.649 -1.5691  0.7722 -1.6878
 3574SOL    HW211278   0.460   7.151   7.690 -0.7630 -1.5181  0.0619
 3575SOL     OW11279   5.555   2.797   2.706 -0.0873  0.1560  0.4695
 3575SOL    HW111280   5.576   2.843   2.625  1.4215  1.0829  1.3419
 3575SOL    HW211281   5.634   2.749   2.728 -1.4341 -2.4854 -0.0986
 3576SOL     OW11282   0.031   2.192   7.147  0.0934 -0.3324  0.1248
 3576SOL    HW111283   0.111   2.139   7.145  0.7716  0.4903  2.4667
 3576SOL    HW211284   0.056   2.275   7.108  0.2506 -0.2642  0.3657
 3577SOL     OW11285   1.268   6.352   1.509 -0.1953  0.2726 -0.0877
 3577SOL    HW111286   1.311   6.335   1.593 -0.5902 -2.0711 -0.2716
 3577SOL    HW211287   1.176   6.333   1.526 -0.3910  0.5122 -0.8648
 3578SOL     OW11288   2.185   4.901   6.853 -1.2562 -0.0257 -0.0520
 3578SOL    HW111289   2.131   4.883   6.930 -3.9397 -0.4898 -1.9150
 3578SOL    HW211290   2.122   4.914   6.782  0.9942 -3.8048 -3.1371
 3579SOL     OW11291   3.267   3.114   5.315  0.2209  0.7218 -0.9048
 3579SOL    HW111292   3.324   3.037   5.308 -0.8913 -0.2358  0.2025
 3579SOL    HW211293   3.310   3.180   5.261  0.8135 -0.9059 -2.5438
 3580SOL     OW11294   7.358   3.264   4.744  0.1869 -0.3492 -0.6592
 3580SOL    HW111295   7.345   3.357   4.757  1.8250 -0.1158 -0.4362
 3580SOL    HW211296   7.274   3.224   4.766  0.7773  0.5604  4.7114
 3581SOL     OW11297   6.494   5.211   3.077  0.7934  0.2336 -0.5387
 3581SOL    HW111298   6.497   5.229   3.171  0.4060  2.2125 -0.8614
 3581SOL    HW211299   6.428   5.142   3.069  1.5485 -0.6754  0.7133
 3582SOL     OW11300   5.518   5.256   1.464  0.2072 -0.5821  0.2636
 3582SOL    HW111301   5.434   5.300   1.453  0.5081 -0.2271 -0.7642
 3582SOL    HW211302   5.517   5.185   1.399  0.5668 -0.7719  0.4625
 3583SOL     OW11303   0.970   1.641   4.155 -0.1984  0.2636  0.0618
 3583SOL    HW111304   0.974   1.666   4.248  0.6992  0.3595  0.0029
 3583SOL    HW211305   1.039   1.692   4.114 -1.4367  1.2332 -0.9117
 3584SOL     OW11306   0.223   0.556   0.620 -0.3615  0.4071 -0.1466
 3584SOL    HW111307   0.136   0.584   0.590 -0.0800 -0.1362 -1.5461
 3584SOL    HW211308   0.206   0.479   0.673 -0.8410  1.1412  0.7936
 3585SOL     OW11309   2.031   1.365   3.632  0.5424  0.1224  0.3965
 3585SOL    HW111310   2.090   1.439   3.642  0.3107  0.5935 -1.4435
 3585SOL    HW211311   2.080   1.302   3.579  0.6325 -0.9717  1.6950
 3586SOL     OW11312   2.311   4.884   6.479 -0.7765  0.3014 -0.1692
 3586SOL    HW111313   2.240   4.825   6.454  0.8387 -2.2060  0.7241
 3586SOL    HW211314   2.339   4.853   6.565  0.6057  1.9796  0.0436
 3587SOL     OW11315   0.785   6.138   1.796  0.1209 -0.9864  0.5232
 3587SOL    HW111316   0.874   6.128   1.762 -0.5239 -1.3811 -1.1952
 3587SOL    HW211317   0.732   6.157   1.718 -0.9845  1.5103  1.7843
 3588SOL     OW11318   4.404   2.566   3.161 -0.0067  0.0525 -0.2637
 3588SOL    HW111319   4.465   2.492   3.162  1.0100  0.8661  0.2541
 3588SOL    HW211320   4.431   2.619   3.086 -0.4969  0.0965 -0.4137
 3589SOL     OW11321   5.982   0.768   2.691  0.0830 -0.0202 -0.4052
 3589SOL    HW111322   5.934   0.726   2.619 -0.6228 -0.2416  0.1802
 3589SOL    HW211323   5.922   0.763   2.765  0.4390  1.0412 -0.0359
 3590SOL     OW11324   3.098   3.653   2.596 -0.3411 -0.1118  0.2317
 3590SOL    HW111325   3.038   3.601   2.541  1.0851 -0.1798 -1.3636
 3590SOL    HW211326   3.153   3.700   2.533  2.6437 -1.6040  1.5078
 3591SOL     OW11327   0.964   4.083   3.238 -0.3495 -0.0322  0.0677
 3591SOL    HW111328   1.028   4.111   3.172 -0.8398  2.0050  0.3624
 3591SOL    HW211329   0.932   3.999   3.207  0.8738 -0.0506 -1.2441
 3592SOL     OW11330   7.371   7.515   6.529  0.2997 -0.2109 -0.2122
 3592SOL    HW111331   7.354   7.595   6.580 -2.0070 -1.2641  0.7890
 3592SOL    HW211332   7.363   7.543   6.438 -1.4221  0.5285  0.1362
 3593SOL     OW11333   5.747   7.139   4.596 -0.2707 -0.0063 -0.0214
 3593SOL    HW111334   5.763   7.155   4.503 -0.9058  0.2731 -0.0928
 3593SOL    HW211335   5.727   7.045   4.601  0.0203 -0.0732 -0.1289
 3594SOL     OW11336   4.336   0.143   1.181  0.2069 -0.7440 -0.1183
 3594SOL    HW111337   4.273   0.172   1.115 -0.2829  0.9468  1.0284
 3594SOL    HW211338   4.290   0.076   1.231 -1.1785  1.2800  1.4476
 3595SOL     OW11339   6.331   5.714   7.689  0.0559  0.3010 -0.3436
 3595SOL    HW111340   6.294   5.768   7.759  0.5795  0.2350 -0.0093
 3595SOL    HW211341   6.408   5.764   7.659 -0.7081  0.8063 -1.5380
 3596SOL     OW11342   4.056   6.784   7.353  0.1558  0.3309  0.2163
 3596SOL    HW111343   3.965   6.812   7.348  0.2570  0.4298 -3.3261
 3596SOL    HW211344   4.065   6.749   7.442 -2.8919  1.6095  1.1710
 3597SOL     OW11345   7.570   4.032   0.405  0.1207  0.1682  0.2021
 3597SOL    HW111346   7.645   4.069   0.452  2.7191 -1.0369 -2.6293
 3597SOL    HW211347   7.523   4.107   0.370  0.5995  0.9312  1.1587
 3598SOL     OW11348   3.736   0.515   0.863  0.2012  0.0464 -0.8959
 3598SOL    HW111349   3.728   0.603   0.901  0.3716 -0.5599  0.6306
 3598SOL    HW211350   3.732   0.456   0.939 -0.0662 -1.2735 -1.9039
 3599SOL     OW11351   3.433   3.829   0.040  0.3076  0.5183  0.2757
 3599SOL    HW111352   3.477   3.865  -0.037  1.0938  3.1403  1.8191
 3599SOL    HW211353   3.340   3.828   0.016  0.8125 -2.5877 -2.0736
 3600SOL     OW11354   3.728   2.965   6.972 -0.4895 -0.1894  0.4857
 3600SOL    HW111355   3.639   2.942   6.948 -0.3959  0.0699 -0.1281
 3600SOL    HW211356   3.724   3.058   6.994  0.1088  0.5583 -2.1855
 3601SOL     OW11357   1.325   5.218   7.365  0.0712 -0.0381  0.1716
 3601SOL    HW111358   1.384   5.231   7.439 -0.5052  1.4359  0.3970
 3601SOL    HW211359   1.237   5.233   7.400 -0.2908 -0.3178 -0.5859
 3602SOL     OW11360   4.741   4.651   2.943 -0.0836  0.2675 -0.2330
 3602SOL    HW111361   4.716   4.652   3.035 -0.9443  0.4563 -0.4607
 3602SOL    HW211362   4.784   4.736   2.929 -0.9902  0.7341 -0.2701
 3603SOL     OW11363   2.911   4.080   4.507  0.1625 -0.5379  0.0024
 3603SOL    HW111364   2.961   4.124   4.438 -0.5166  0.3705  0.0752
 3603SOL    HW211365   2.978   4.052   4.570  0.7076 -0.5734 -0.5816
 3604SOL     OW11366   3.122   4.557   3.921 -0.2197 -0.1967  0.1094
 3604SOL    HW111367   3.050   4.571   3.981  0.9656 -1.2077  1.8451
 3604SOL    HW211368   3.147   4.466   3.934  1.3991  0.1422 -0.4112
 3605SOL     OW11369   2.895   6.673   3.768 -0.2718 -0.1080 -0.2613
 3605SOL    HW111370   2.974   6.666   3.714  1.3429 -1.4346  2.0980
 3605SOL    HW211371   2.914   6.745   3.828 -2.2628  1.7062 -1.6704
 3606SOL     OW11372   3.566   1.423   7.338  0.0139 -0.2537 -0.1808
 3606SOL    HW111373   3.471   1.415   7.329  0.0335 -0.2798 -0.3554
 3606SOL    HW211374   3.600   1.412   7.250  0.1519  0.2089 -0.1891
 3607SOL     OW11375   6.846   0.278   0.976  0.2646  0.2182  0.6077
 3607SOL    HW111376   6.892   0.297   0.895 -0.4343  0.6820  0.3112
 3607SOL    HW211377   6.847   0.182   0.983 -0.8686  0.0906 -0.6648
 3608SOL     OW11378   6.233   3.670   1.429  0.7248  0.5296 -0.1810
 3608SOL    HW111379   6.243   3.744   1.490  2.4356 -1.0096  1.5427
 3608SOL    HW211380   6.139   3.664   1.413  0.2704  1.3624  1.8743
 3609SOL     OW11381   4.128   7.647   1.821  0.0374  0.5894 -0.2955
 3609SOL    HW111382   4.146   7.563   1.778  0.5984  0.6719 -0.2314
 3609SOL    HW211383   4.153   7.713   1.756 -2.7277  0.7649 -1.3415
 3610SOL     OW11384   0.385   6.155   7.084  0.0203  0.0566 -0.4547
 3610SOL    HW111385   0.421   6.067   7.097 -0.9357 -0.5497 -1.6984
 3610SOL    HW211386   0.362   6.157   6.991 -2.5120  0.6377  0.1197
 3611SOL     OW11387   6.020   6.486   0.118 -0.0256  0.9281  0.3192
 3611SOL    HW111388   5.942   6.433   0.105  0.4707  0.3221 -0.2280
 3611SOL    HW211389   6.049   6.464   0.207 -1.3472  2.3384  1.1516
 3612SOL     OW11390   2.162   6.001   3.509  0.3330 -0.1074  0.3776
 3612SOL    HW111391   2.164   6.076   3.450 -0.8929 -0.4727 -0.1497
 3612SOL    HW211392   2.095   6.022   3.574 -1.1500 -1.3515 -0.6640
 3613SOL     OW11393   6.360   0.805   0.845  0.4986  0.2913  0.0226
 3613SOL    HW111394   6.304   0.822   0.920 -1.6436 -0.5396 -1.2848
 3613SOL    HW211395   6.448   0.830   0.874  0.0272 -1.2381  3.2130
 3614SOL     OW11396   7.126   7.373   6.265  0.4696  0.1571 -0.5861
 3614SOL    HW111397   7.145   7.286   6.229  1.9594  0.2593 -0.1435
 3614SOL    HW211398   7.104   7.357   6.357  3.2502  0.3819  0.2081
 3615SOL     OW11399   2.711   7.008   0.154  0.6634  0.5143 -0.4107
 3615SOL    HW111400   2.747   6.919   0.152  0.4191  0.4048 -0.0185
 3615SOL    HW211401   2.617   6.996   0.146  0.5626  0.6840  0.4426
 3616SOL     OW11402   2.605   6.624   2.403  0.3402  0.1011  0.2688
 3616SOL    HW111403   2.550   6.702   2.411  2.1390  1.6170 -1.2666
 3616SOL    HW211404   2.673   6.636   2.470 -0.2525 -0.9636  1.0866
 3617SOL     OW11405   5.042   4.716   2.727  0.6529 -0.2325  0.6703
 3617SOL    HW111406   5.007   4.794   2.771  0.9417 -0.4746  1.3331
 3617SOL    HW211407   5.048   4.650   2.796  0.7939 -0.7218  0.1946
 3618SOL     OW11408   6.558   6.695   6.860  0.1075  0.2327 -0.1300
 3618SOL    HW111409   6.637   6.730   6.901  0.1018  1.3376 -1.0292
 3618SOL    HW211410   6.526   6.766   6.805 -1.0896 -0.4743 -0.3719
 3619SOL     OW11411   7.110   0.824   0.162  0.3031 -0.1697  0.2319
 3619SOL    HW111412   7.087   0.770   0.239 -0.6860  0.4994  0.4228
 3619SOL    HW211413   7.044   0.893   0.161 -0.3410 -0.7341 -1.8263
 3620SOL     OW11414   3.928   2.378   2.820 -0.2222  0.6449  0.5382
 3620SOL    HW111415   3.878   2.441   2.768  0.5903 -0.1196 -1.2514
 3620SOL    HW211416   3.865   2.346   2.886 -1.6183  0.9047 -0.6105
 3621SOL     OW11417   2.548   7.506   4.241 -0.1918  0.0768 -0.1904
 3621SOL    HW111418   2.596   7.523   4.322 -0.4564  0.7805 -0.1722
 3621SOL    HW211419   2.529   7.593   4.205 -1.7683 -0.1517  0.0031
 3622SOL     OW11420   1.476   0.883   0.015 -0.0235  0.3141 -0.2080
 3622SOL    HW111421   1.424   0.942  -0.039  0.8473  1.5563  0.2895
 3622SOL    HW211422   1.517   0.823  -0.047  0.7595  1.5526 -0.9209
 3623SOL     OW11423   7.716   5.152   3.655  0.4281 -0.2759 -0.6199
 3623SOL    HW111424   7.752   5.119   3.738  1.5452 -0.1384 -1.0253
 3623SOL    HW211425   7.741   5.244   3.653  0.6660 -0.3449 -1.2282
 3624SOL     OW11426   5.239   6.660   2.505  0.2490  0.2839  0.3666
 3624SOL    HW111427   5.210   6.719   2.435  1.1799  0.5781  0.2109
 3624SOL    HW211428   5.207   6.701   2.586 -0.3449  0.2353  0.1628
 3625SOL     OW11429   6.422   5.225   7.665  0.2166  0.1686  0.8604
 3625SOL    HW111430   6.508   5.217   7.626  0.2645 -2.2532  1.2915
 3625SOL    HW211431   6.361   5.203   7.594  0.1700 -1.4442  1.3567
 3626SOL     OW11432   0.591   1.124   2.967 -0.1648 -0.1050 -0.0668
 3626SOL    HW111433   0.505   1.083   2.969  0.0251 -0.5472  2.8518
 3626SOL    HW211434   0.648   1.060   2.925 -0.8987 -0.5559 -0.3850
 3627SOL     OW11435   3.040   5.121   4.893 -0.7089 -0.0486  0.4914
 3627SOL    HW111436   3.099   5.157   4.827 -1.8228 -0.1166 -0.5843
 3627SOL    HW211437   3.001   5.198   4.934 -1.9483  0.0245 -0.7528
 3628SOL     OW11438   6.054   0.636   3.695  0.0257 -0.3382 -0.4484
 3628SOL    HW111439   6.122   0.581   3.655  0.2178  0.3169 -1.0399
 3628SOL    HW211440   6.084   0.648   3.785  0.5602 -0.2909 -0.6259
 3629SOL     OW11441   5.536   7.253   2.553  0.1208 -0.2565 -0.0570
 3629SOL    HW111442   5.445   7.246   2.524 -0.7044  0.5018  2.1296
 3629SOL    HW211443   5.540   7.201   2.633  1.2754  0.7124  0.5435
 3630SOL     OW11444   0.173   4.978   0.010 -0.2278  0.2293  0.2708
 3630SOL    HW111445   0.145   4.958  -0.080 -1.4392 -0.7561  0.8457
 3630SOL    HW211446   0.265   4.951   0.011 -0.9211 -2.5004  0.0661
 3631SOL     OW11447   5.007   7.326   4.288 -0.1842 -0.0713  0.1227
 3631SOL    HW111448   5.028   7.351   4.198 -0.9619  0.3807  0.0619
 3631SOL    HW211449   5.075   7.263   4.311 -1.4787 -2.3302 -1.7533
 3632SOL     OW11450   1.276   6.037   4.966 -0.1901 -0.1449  0.4113
 3632SOL    HW111451   1.283   5.953   5.011 -1.4040 -0.0241  0.8571
 3632SOL    HW211452   1.184   6.044   4.941  0.3216  0.1076 -1.5118
 3633SOL     OW11453   5.884   3.264   7.149  0.2352 -0.0701  0.5506
 3633SOL    HW111454   5.887   3.222   7.236  0.2782 -0.5308  0.3293
 3633SOL    HW211455   5.803   3.315   7.150  0.9119  1.0616  1.3727
 3634SOL     OW11456   1.387   4.048   6.415  0.2217  0.6154  0.4943
 3634SOL    HW111457   1.393   3.980   6.483 -1.6164 -0.8001 -0.6460
 3634SOL    HW211458   1.435   4.122   6.451  0.1909 -0.4192  2.8999
 3635SOL     OW11459   0.098   7.250   0.465  1.1500 -0.4181 -0.2092
 3635SOL    HW111460   0.075   7.173   0.516  1.2049  0.6604  1.5205
 3635SOL    HW211461   0.021   7.306   0.470  1.4237  0.0155 -0.7297
 3636SOL     OW11462   1.648   3.253   6.581  0.1206 -0.4614 -0.0695
 3636SOL    HW111463   1.707   3.328   6.593 -0.3339 -0.1799  0.4442
 3636SOL    HW211464   1.669   3.220   6.494  1.7917 -1.0185  0.4949
 3637SOL     OW11465   4.024   2.718   5.750  0.3617 -0.1416 -0.8229
 3637SOL    HW111466   4.078   2.639   5.759 -0.6146 -0.7767 -0.4320
 3637SOL    HW211467   3.935   2.690   5.772 -0.0721  0.9840 -1.0468
 3638SOL     OW11468   2.921   7.441   0.288  0.0443 -0.0910  0.2336
 3638SOL    HW111469   2.910   7.449   0.193  2.6656 -1.5733 -0.2940
 3638SOL    HW211470   2.901   7.349   0.307  1.2841 -0.2521  0.8099
 3639SOL     OW11471   7.728   6.603   4.787  0.3284  0.1103  0.6685
 3639SOL    HW111472   7.724   6.518   4.743 -0.5504  0.2604  0.4314
 3639SOL    HW211473   7.820   6.616   4.806  0.8418  0.3128 -1.7009
 3640SOL     OW11474   4.994   4.641   3.179  0.2829  0.7732 -0.1378
 3640SOL    HW111475   5.008   4.735   3.171  0.4626  0.8091  0.5389
 3640SOL    HW211476   5.029   4.604   3.098  2.4295  1.0643  0.6059
 3641SOL     OW11477   0.248   2.097   4.055  0.4928  0.3340  0.2169
 3641SOL    HW111478   0.176   2.056   4.008  0.5519  0.6686 -0.1709
 3641SOL    HW211479   0.232   2.075   4.147 -0.7695  1.3755  0.2825
 3642SOL     OW11480   5.295   4.499   5.307 -0.7327  0.5333 -0.5666
 3642SOL    HW111481   5.357   4.447   5.255 -0.3858  1.0776 -0.7066
 3642SOL    HW211482   5.252   4.555   5.243 -0.3736  1.1396 -0.2868
 3643SOL     OW11483   4.343   0.376   1.342  1.1754  0.1169 -0.4927
 3643SOL    HW111484   4.414   0.393   1.405  2.0188 -0.2306 -1.3118
 3643SOL    HW211485   4.369   0.294   1.300  0.4662  0.1822 -1.0637
 3644SOL     OW11486   2.742   2.991   6.541 -0.4423 -0.3394  0.6883
 3644SOL    HW111487   2.742   2.916   6.482  1.4106  0.2872 -0.2051
 3644SOL    HW211488   2.768   2.956   6.626 -1.2572 -0.9444  0.7016
 3645SOL     OW11489   4.737   4.431   7.537  0.2872 -0.2048  0.8482
 3645SOL    HW111490   4.778   4.512   7.569  0.1873  0.1589  0.0958
 3645SOL    HW211491   4.800   4.397   7.473 -0.2606 -0.0042  0.1858
 3646SOL     OW11492   4.932   5.185   0.218  0.3653 -0.0021 -0.0208
 3646SOL    HW111493   4.901   5.265   0.262  1.7675  0.2301  0.5955
 3646SOL    HW211494   4.891   5.113   0.267 -0.4305  0.3100 -0.2047
 3647SOL     OW11495   1.771   2.156   3.795  0.1782 -0.2720  0.5316
 3647SOL    HW111496   1.689   2.201   3.779  0.8108  0.4398 -0.8242
 3647SOL    HW211497   1.839   2.219   3.771  1.1254 -1.0167  1.1501
 3648SOL     OW11498   6.180   0.929   1.523 -0.1322 -0.3033  0.1955
 3648SOL    HW111499   6.147   1.019   1.519 -0.6129 -0.4554  0.6243
 3648SOL    HW211500   6.274   0.938   1.537 -0.3958  0.1498  1.9393
 3649SOL     OW11501   0.092   7.593   2.057 -0.1793 -0.2902 -0.7506
 3649SOL    HW111502   0.038   7.616   2.133  0.6181 -0.7843 -0.0043
 3649SOL    HW211503   0.171   7.647   2.068  0.5374 -1.3574 -0.4558
 3650SOL     OW11504   7.350   4.600   4.056 -0.0029  0.3345 -0.4601
 3650SOL    HW111505   7.371   4.646   4.138 -2.6320  1.4368 -0.3054
 3650SOL    HW211506   7.366   4.508   4.075 -0.1361  0.6183  1.1667
 3651SOL     OW11507   0.944   6.148   5.645  0.3373  0.2728  0.6911
 3651SOL    HW111508   0.949   6.243   5.637 -0.6767  0.4078  1.3831
 3651SOL    HW211509   0.966   6.115   5.558 -1.8117  1.2665 -0.2982
 3652SOL     OW11510   6.699   4.955   3.039  0.4084  0.1037  0.2170
 3652SOL    HW111511   6.739   5.042   3.041 -0.6486  0.6822 -1.3567
 3652SOL    HW211512   6.606   4.971   3.053  0.1433 -0.7236 -0.5046
 3653SOL     OW11513   5.198   2.931   2.540  0.6174  0.3917 -0.8150
 3653SOL    HW111514   5.228   2.855   2.590  1.0803  0.2273 -1.3253
 3653SOL    HW211515   5.244   2.923   2.456 -0.7263  0.2361 -1.5598
 3654SOL     OW11516   4.648   5.146   7.220 -0.0880  0.4126 -0.4520
 3654SOL    HW111517   4.588   5.207   7.176 -1.1558 -0.6703 -0.5687
 3654SOL    HW211518   4.630   5.158   7.313 -1.1582 -0.5219 -0.5148
 3655SOL     OW11519   0.988   1.642   7.603  0.5815 -0.5253 -0.4468
 3655SOL    HW111520   0.956   1.555   7.627  0.1702 -0.9058 -2.2786
 3655SOL    HW211521   0.949   1.659   7.518  0.5242  1.5445 -0.0483
 3656SOL     OW11522   4.512   1.383   7.196 -0.0077  0.2948  0.3276
 3656SOL    HW111523   4.537   1.449   7.260 -0.3216 -0.6713  1.4722
 3656SOL    HW211524   4.466   1.316   7.246 -1.1209 -0.0392 -1.0527
 3657SOL     OW11525   4.956   3.324   2.618 -0.1215 -0.3828 -0.3629
 3657SOL    HW111526   5.043   3.334   2.656 -0.0824 -1.5496 -0.0883
 3657SOL    HW211527   4.948   3.230   2.601 -0.2089  0.0107 -3.0646
 3658SOL     OW11528   2.278   4.968   5.619 -0.0853  0.7110 -0.4343
 3658SOL    HW111529   2.347   4.954   5.684  0.5222  2.3037 -0.6747
 3658SOL    HW211530   2.196   4.962   5.669  0.3741  2.0696  0.5451
 3659SOL     OW11531   1.819   6.050   1.933 -0.3436 -0.2181  0.3941
 3659SOL    HW111532   1.770   6.029   1.854 -0.8788  3.4901 -0.4319
 3659SOL    HW211533   1.896   6.097   1.902 -0.4738  1.1725  2.0171
 3660SOL     OW11534   6.479   6.314   1.899  0.2032  0.1180  0.6120
 3660SOL    HW111535   6.563   6.273   1.879  0.0665 -0.0363  0.3401
 3660SOL    HW211536   6.425   6.297   1.821 -0.2600 -0.2709  1.0096
 3661SOL     OW11537   2.481   2.106   2.900  0.2390  0.2039  0.1031
 3661SOL    HW111538   2.443   2.081   2.984 -0.0243 -1.9278 -0.5883
 3661SOL    HW211539   2.569   2.138   2.922  0.2874 -0.6018  1.1779
 3662SOL     OW11540   7.300   3.927   2.816  0.3759  0.1059  0.0281
 3662SOL    HW111541   7.293   3.954   2.725  0.1934  0.1492  0.0546
 3662SOL    HW211542   7.330   4.005   2.863  1.9691 -0.3189 -0.2229
 3663SOL     OW11543   7.608   7.161   6.665  0.1271 -0.1698 -0.3789
 3663SOL    HW111544   7.660   7.240   6.681 -0.9359  0.6759 -0.9043
 3663SOL    HW211545   7.518   7.193   6.663 -0.3344 -1.4390 -0.4289
 3664SOL     OW11546   6.630   1.128   0.421  0.1657  0.0495 -0.1779
 3664SOL    HW111547   6.586   1.194   0.368 -2.3070 -0.3938  1.1532
 3664SOL    HW211548   6.565   1.104   0.488  1.0336 -3.4689 -0.3811
 3665SOL     OW11549   2.324   3.980   0.653 -0.6317 -0.4999 -0.0870
 3665SOL    HW111550   2.415   3.997   0.627 -0.6487 -1.2266 -0.6898
 3665SOL    HW211551   2.293   3.915   0.589 -2.3190  1.4381 -1.3474
 3666SOL     OW11552   4.576   4.132   6.830 -0.2026 -0.1941  0.2539
 3666SOL    HW111553   4.487   4.161   6.851 -0.4097 -0.2014 -0.5846
 3666SOL    HW211554   4.630   4.210   6.843 -0.4150 -0.0394  0.2186
 3667SOL     OW11555   5.937   4.331   3.950  0.2313 -1.0188  0.4909
 3667SOL    HW111556   5.874   4.264   3.921  1.1978 -2.0103  0.5744
 3667SOL    HW211557   5.945   4.390   3.875  0.9643 -2.2468 -0.4397
 3668SOL     OW11558   2.402   6.316   0.634  0.1967  0.0755 -0.2293
 3668SOL    HW111559   2.468   6.281   0.573  1.4680  1.2437  0.4136
 3668SOL    HW211560   2.386   6.244   0.695  0.4138 -0.4314 -0.7556
 3669SOL     OW11561   5.089   7.287   3.266 -0.6445 -0.0975 -0.2196
 3669SOL    HW111562   5.148   7.328   3.329  1.8848  0.2651 -2.6338
 3669SOL    HW211563   5.069   7.356   3.203  0.6310 -1.4838 -2.2751
 3670SOL     OW11564   4.985   5.143   4.563  0.6075 -0.1808 -0.0324
 3670SOL    HW111565   4.954   5.234   4.563 -0.4710 -0.5269 -0.2783
 3670SOL    HW211566   5.008   5.126   4.472  3.1027  0.5459  0.3798
 3671SOL     OW11567   2.996   2.197   0.999 -0.3482  0.4522 -0.2641
 3671SOL    HW111568   2.976   2.155   1.083 -0.5702 -0.2342 -0.6501
 3671SOL    HW211569   3.074   2.151   0.967 -1.6898 -1.0534 -1.5949
 3672SOL     OW11570   0.668   6.550   1.424  0.3585  0.0746 -0.4791
 3672SOL    HW111571   0.697   6.573   1.513  0.1752  0.6425 -0.5645
 3672SOL    HW211572   0.734   6.590   1.367 -0.1233  0.6534 -0.6385
 3673SOL     OW11573   2.214   6.767   1.826 -0.2271 -0.0831 -0.4623
 3673SOL    HW111574   2.264   6.807   1.896 -0.1388 -1.6509  0.4021
 3673SOL    HW211575   2.277   6.713   1.779 -0.9681 -1.7447  0.3844
 3674SOL     OW11576   0.698   2.502   2.265  0.0797 -0.2912 -0.8969
 3674SOL    HW111577   0.688   2.412   2.233  0.4515 -0.4016 -0.7114
 3674SOL    HW211578   0.625   2.550   2.226 -0.8535 -0.9433 -0.0095
 3675SOL     OW11579   1.656   7.418   3.103 -0.0759  0.2055  0.6341
 3675SOL    HW111580   1.741   7.374   3.111  0.2588  0.6942 -0.0664
 3675SOL    HW211581   1.607   7.364   3.041 -0.5036 -0.3928  1.4728
 3676SOL     OW11582   1.398   5.929   7.317 -0.8133 -0.1009 -0.6893
 3676SOL    HW111583   1.489   5.943   7.291 -0.6563 -0.5608 -0.3970
 3676SOL    HW211584   1.347   5.975   7.250 -0.4436 -1.8486 -2.2604
 3677SOL     OW11585   7.381   3.822   2.020 -0.7579 -0.3018 -0.1533
 3677SOL    HW111586   7.466   3.778   2.010 -0.4255 -0.1617  1.6578
 3677SOL    HW211587   7.375   3.880   1.945  2.7025  2.7611  1.6424
 3678SOL     OW11588   5.090   6.212   3.065 -0.1300  0.3045 -0.2864
 3678SOL    HW111589   5.104   6.299   3.101  0.2275  0.2127 -0.1976
 3678SOL    HW211590   5.172   6.165   3.083  0.2021  0.3661 -1.5182
 3679SOL     OW11591   6.581   0.804   3.985 -0.1190  0.0584 -0.6672
 3679SOL    HW111592   6.538   0.753   4.054  0.8704  0.1982  0.0654
 3679SOL    HW211593   6.511   0.859   3.949 -0.6695 -0.0903  0.1529
 3680SOL     OW11594   0.653   3.910   0.174  0.4645 -1.2087  0.1558
 3680SOL    HW111595   0.563   3.902   0.145 -0.0056  0.5414  1.0315
 3680SOL    HW211596   0.692   3.825   0.153 -0.8654 -1.3815 -1.8963
 3681SOL     OW11597   7.068   5.210   0.965  0.2841  0.0751  0.1328
 3681SOL    HW111598   7.100   5.192   1.054 -0.1685  1.3889  0.5908
 3681SOL    HW211599   7.099   5.136   0.913  0.1106 -0.9938  1.4858
 3682SOL     OW11600   1.817   7.081   7.050 -0.7840  0.5235 -0.9136
 3682SOL    HW111601   1.738   7.135   7.054 -0.8926  0.2877  1.2506
 3682SOL    HW211602   1.786   6.992   7.062 -0.3250  0.2791 -1.5300
 3683SOL     OW11603   4.298   6.642   3.929  0.0125  0.2494  0.0565
 3683SOL    HW111604   4.298   6.691   4.012 -0.1696  0.9469 -0.3439
 3683SOL    HW211605   4.375   6.675   3.882  0.4879 -0.6110  0.2062
 3684SOL     OW11606   3.110   0.938   1.480  0.4602  0.1155  0.2938
 3684SOL    HW111607   3.176   0.889   1.530  0.0227 -1.2884 -0.4492
 3684SOL    HW211608   3.082   0.878   1.411  0.3266  1.6538 -1.0541
 3685SOL     OW11609   2.998   1.252   6.189 -0.0011  0.2218 -0.2743
 3685SOL    HW111610   3.085   1.267   6.151 -1.2666  2.0281 -2.7157
 3685SOL    HW211611   2.972   1.167   6.154  0.8381 -0.4501  0.6717
 3686SOL     OW11612   3.464   2.949   7.520  0.3252 -0.4165 -0.0717
 3686SOL    HW111613   3.407   2.877   7.548 -1.4230  0.3530 -1.4392
 3686SOL    HW211614   3.533   2.953   7.587 -1.1869 -1.4243  1.6263
 3687SOL     OW11615   6.087   5.317   3.076 -0.0919  0.2799  0.2183
 3687SOL    HW111616   6.105   5.411   3.080 -1.0630  0.4529  0.9398
 3687SOL    HW211617   6.125   5.282   3.157 -0.2898  0.1572  0.2591
 3688SOL     OW11618   5.612   3.574   2.474 -0.1580 -0.5082 -0.2557
 3688SOL    HW111619   5.588   3.643   2.413 -0.2664  0.7042  1.0951
 3688SOL    HW211620   5.674   3.615   2.534 -1.4927 -1.0554  1.5857
 3689SOL     OW11621   7.051   7.357   6.543 -0.6115 -0.0672 -1.0088
 3689SOL    HW111622   7.074   7.428   6.603  1.4986 -1.5617  0.0740
 3689SOL    HW211623   6.956   7.348   6.553 -0.7756  1.8523 -0.3754
 3690SOL     OW11624   3.395   2.264   6.409 -0.1050 -0.1855  0.6349
 3690SOL    HW111625   3.340   2.293   6.482 -1.1265 -2.5846  0.9001
 3690SOL    HW211626   3.480   2.305   6.425 -0.7125  0.4700  2.3713
 3691SOL     OW11627   3.637   0.877   0.541  0.1244 -0.2554  0.4056
 3691SOL    HW111628   3.644   0.796   0.492  0.8712 -1.5951  2.5941
 3691SOL    HW211629   3.725   0.916   0.536  0.3503 -0.6602  1.0639
 3692SOL     OW11630   6.062   5.631   3.347 -0.5371  0.2884 -0.0725
 3692SOL    HW111631   6.112   5.549   3.349 -0.2577  0.4283 -0.8494
 3692SOL    HW211632   6.129   5.700   3.356 -0.4078  0.5240 -2.2708
 3693SOL     OW11633   0.932   0.686   0.352  0.3479 -0.5019  0.3624
 3693SOL    HW111634   0.869   0.751   0.322  0.7381 -0.8177 -1.2592
 3693SOL    HW211635   0.989   0.734   0.412  1.8257  1.2438 -2.2457
 3694SOL     OW11636   7.502   0.391   3.945 -0.3868 -0.0519  0.1154
 3694SOL    HW111637   7.408   0.397   3.963 -0.7421 -1.7344 -0.9300
 3694SOL    HW211638   7.527   0.305   3.981  0.8665  0.5732  0.7898
 3695SOL     OW11639   0.713   1.639   2.562 -0.3979  0.1466  0.2173
 3695SOL    HW111640   0.625   1.650   2.525 -0.9576 -3.0442  0.3645
 3695SOL    HW211641   0.772   1.642   2.487 -1.0301 -1.3332 -0.3613
 3696SOL     OW11642   3.255   7.107   4.843 -0.3008  0.4220 -0.3951
 3696SOL    HW111643   3.298   7.034   4.799 -0.1962  0.3187 -0.1233
 3696SOL    HW211644   3.176   7.124   4.791 -1.6678 -1.5118  0.8790
 3697SOL     OW11645   6.597   0.137   5.391  0.5267  0.6858  0.8858
 3697SOL    HW111646   6.515   0.087   5.387  0.7097  0.3205  1.4639
 3697SOL    HW211647   6.637   0.126   5.305  0.5928 -0.2302  1.0211
 3698SOL     OW11648   4.767   0.382   2.979  0.5491  0.7143  0.1256
 3698SOL    HW111649   4.774   0.473   2.951 -2.1388  0.8243 -0.5078
 3698SOL    HW211650   4.770   0.387   3.075 -0.1590  1.5737  0.1243
 3699SOL     OW11651   5.889   7.599   1.310 -0.3213 -0.1799  0.2228
 3699SOL    HW111652   5.930   7.524   1.353 -0.5149 -0.0516  0.6395
 3699SOL    HW211653   5.797   7.593   1.336  0.1733  1.9291  2.8274
 3700SOL     OW11654   3.850   5.156   4.657  0.3823  0.1678  0.4888
 3700SOL    HW111655   3.813   5.193   4.737 -2.1664 -1.6190  0.2776
 3700SOL    HW211656   3.811   5.208   4.586 -0.9367 -1.0115  0.3054
 3701SOL     OW11657   5.545   6.188   3.992  0.2010  0.2482 -0.0803
 3701SOL    HW111658   5.603   6.151   3.926  2.1019  1.0450  1.0889
 3701SOL    HW211659   5.504   6.112   4.033  0.8396 -0.3435 -0.5274
 3702SOL     OW11660   1.189   3.955   4.970 -0.5931 -0.0972 -0.2870
 3702SOL    HW111661   1.256   3.997   5.024 -1.2956  1.7631 -0.7755
 3702SOL    HW211662   1.214   3.976   4.880 -1.4220 -0.0173 -0.5058
 3703SOL     OW11663   2.568   5.464   0.845 -0.0692 -1.2537 -0.1882
 3703SOL    HW111664   2.548   5.511   0.764  0.6834 -1.7069 -0.6458
 3703SOL    HW211665   2.633   5.399   0.820  0.6331 -0.9983  0.9074
 3704SOL     OW11666   5.455   5.078   7.574  0.5901  0.3483  0.3571
 3704SOL    HW111667   5.495   5.163   7.556 -0.1669  0.9310  1.3059
 3704SOL    HW211668   5.416   5.088   7.661  1.1410 -1.2173  0.8322
 3705SOL     OW11669   6.961   6.903   3.316  0.2160  0.6309  0.5682
 3705SOL    HW111670   7.005   6.828   3.277  0.3556  0.1471  1.6239
 3705SOL    HW211671   7.029   6.948   3.366 -0.1684  0.6808  1.0584
 3706SOL     OW11672   3.205   4.564   1.542  0.0645  0.1366  0.3321
 3706SOL    HW111673   3.292   4.598   1.523  0.2885 -0.3924  0.3845
 3706SOL    HW211674   3.202   4.479   1.499 -0.5707  0.3164 -0.0019
 3707SOL     OW11675   6.449   4.901   5.622  0.1149 -0.1205 -0.3938
 3707SOL    HW111676   6.396   4.898   5.543 -0.9608 -2.7881  0.3080
 3707SOL    HW211677   6.385   4.904   5.693  0.9280 -1.4022  0.4320
 3708SOL     OW11678   3.702   0.492   4.056  0.1790 -0.1881 -0.0457
 3708SOL    HW111679   3.664   0.424   4.112 -0.2486 -0.7535 -0.9867
 3708SOL    HW211680   3.797   0.478   4.063  0.1028 -0.7339 -0.0371
 3709SOL     OW11681   7.617   2.961   2.124  0.0885 -0.2257 -0.2796
 3709SOL    HW111682   7.625   3.056   2.128 -0.3884 -0.2322  1.7057
 3709SOL    HW211683   7.691   2.928   2.175  0.6924 -0.9643 -1.5926
 3710SOL     OW11684   2.948   1.794   2.381  0.3899  0.0138  0.5451
 3710SOL    HW111685   3.034   1.833   2.365  0.7442 -1.2174 -0.7924
 3710SOL    HW211686   2.964   1.700   2.376 -1.1442 -0.2208 -0.2739
 3711SOL     OW11687   5.288   3.274   3.589 -0.0596  0.2465 -0.0470
 3711SOL    HW111688   5.261   3.328   3.515  2.6630  1.9790  0.0880
 3711SOL    HW211689   5.256   3.320   3.667 -0.0327  0.2450 -0.0346
 3712SOL     OW11690   6.121   3.922   6.875  0.5364 -0.1489 -0.3396
 3712SOL    HW111691   6.096   3.930   6.967  0.3042 -0.5153 -0.3697
 3712SOL    HW211692   6.162   3.836   6.869  0.5799 -0.1118 -0.5736
 3713SOL     OW11693   7.169   2.946   5.441  0.1213 -0.6389 -0.6328
 3713SOL    HW111694   7.233   3.012   5.416  1.3105 -0.7338  1.8486
 3713SOL    HW211695   7.220   2.877   5.484 -1.5278 -0.9702  0.9452
 3714SOL     OW11696   1.990   5.607   1.842  0.4513  0.2655 -0.4668
 3714SOL    HW111697   1.914   5.562   1.805  0.3776  0.0518 -0.0714
 3714SOL    HW211698   1.984   5.696   1.809 -0.1551  0.3372 -0.1782
 3715SOL     OW11699   5.392   0.173   0.019 -0.1933  0.0850 -0.2246
 3715SOL    HW111700   5.349   0.116   0.083  2.7292 -2.0220  0.0367
 3715SOL    HW211701   5.334   0.169  -0.058 -2.1076  0.0711  1.1489
 3716SOL     OW11702   3.681   3.690   7.750 -0.1144 -0.4503  0.6449
 3716SOL    HW111703   3.606   3.738   7.784  0.9862  1.7567  0.1210
 3716SOL    HW211704   3.692   3.722   7.661  1.1303 -1.1013  0.5422
 3717SOL     OW11705   4.627   5.600   7.689  1.1796 -0.3712  0.4386
 3717SOL    HW111706   4.582   5.679   7.658  1.2417 -0.7480 -0.6800
 3717SOL    HW211707   4.559   5.533   7.694  1.3165 -0.5223  0.3174
 3718SOL     OW11708   7.478   4.374   5.935 -0.0158  0.1794 -0.2728
 3718SOL    HW111709   7.421   4.353   6.009  0.7374 -0.7678  0.0568
 3718SOL    HW211710   7.484   4.292   5.886  0.9675  0.2982 -0.3591
 3719SOL     OW11711   6.268   5.786   6.927  0.1165 -0.4849 -0.2260
 3719SOL    HW111712   6.218   5.779   7.009 -0.2884 -1.9050 -0.5539
 3719SOL    HW211713   6.334   5.717   6.934 -0.1138 -0.8187 -1.2150
 3720SOL     OW11714   6.040   0.189   0.013  0.4989 -0.1747  0.5043
 3720SOL    HW111715   6.032   0.142  -0.070  1.5006 -0.6699  0.6711
 3720SOL    HW211716   5.989   0.269   0.000  0.5204 -0.3112 -0.5340
 3721SOL     OW11717   6.288   1.879   1.124 -0.1432 -0.5158 -0.0273
 3721SOL    HW111718   6.375   1.917   1.114 -0.7687  0.9661 -0.0923
 3721SOL    HW211719   6.300   1.787   1.102  1.7249 -0.7287  1.5531
 3722SOL     OW11720   1.057   2.896   1.766  0.6172 -0.1384 -0.1749
 3722SOL    HW111721   1.076   2.983   1.801 -0.0838 -0.4550  1.0739
 3722SOL    HW211722   1.106   2.836   1.823  0.2379 -0.6261 -0.3513
 3723SOL     OW11723   1.491   6.570   3.749  0.3326 -0.1331 -0.9063
 3723SOL    HW111724   1.419   6.598   3.805 -0.6987 -0.8025 -1.8698
 3723SOL    HW211725   1.566   6.623   3.778 -1.3334  3.1565 -2.1254
 3724SOL     OW11726   5.950   1.763   7.213 -0.5035 -0.2881 -1.0146
 3724SOL    HW111727   6.039   1.764   7.247 -0.4221  2.7733 -0.9677
 3724SOL    HW211728   5.897   1.722   7.281  0.7171 -1.1971 -0.6004
 3725SOL     OW11729   3.946   3.840   1.124  0.1131  0.6473  0.2669
 3725SOL    HW111730   3.913   3.811   1.209 -2.4135 -0.6825 -1.0445
 3725SOL    HW211731   4.037   3.864   1.140  0.9494 -3.3072  2.5287
 3726SOL     OW11732   3.913   2.901   4.570 -0.2708 -0.2542 -0.4632
 3726SOL    HW111733   3.820   2.920   4.582 -0.3270 -1.6014  1.8629
 3726SOL    HW211734   3.916   2.837   4.499 -0.8931  1.1752 -1.8444
 3727SOL     OW11735   4.126   5.532   2.983 -0.0627 -0.6336 -0.2227
 3727SOL    HW111736   4.135   5.625   3.007  1.7005 -0.6846 -0.5645
 3727SOL    HW211737   4.094   5.490   3.063 -0.9136  0.2574 -0.0682
 3728SOL     OW11738   1.091   6.006   6.924  0.3139 -0.0155 -0.6233
 3728SOL    HW111739   1.025   6.059   6.880 -1.3661 -2.8487 -1.7172
 3728SOL    HW211740   1.042   5.947   6.981  2.2135  0.6705  1.9730
 3729SOL     OW11741   4.432   0.008   2.849  0.4817 -0.0129 -0.4473
 3729SOL    HW111742   4.500   0.014   2.782  0.4890  2.8484 -0.3182
 3729SOL    HW211743   4.479   0.017   2.932  0.1035  0.2186 -0.2578
 3730SOL     OW11744   7.647   6.341   3.058 -0.3481  0.3546  0.1371
 3730SOL    HW111745   7.743   6.339   3.061 -0.2285 -0.9759 -2.4236
 3730SOL    HW211746   7.620   6.327   3.149  1.8862 -0.2188  0.7718
 3731SOL     OW11747   4.001   1.506   7.663 -0.4393  0.6112 -0.3020
 3731SOL    HW111748   4.084   1.473   7.630 -0.4824  0.5776 -0.3768
 3731SOL    HW211749   3.976   1.443   7.731 -0.3166  0.7189 -0.1563
 3732SOL     OW11750   0.282   7.520   1.085  0.1902 -0.2878 -0.4807
 3732SOL    HW111751   0.333   7.513   1.004  2.1479 -0.3560  0.7012
 3732SOL    HW211752   0.334   7.577   1.141 -0.4499 -1.3349  1.2437
 3733SOL     OW11753   5.081   7.608   0.166  0.0776  0.3049  0.3333
 3733SOL    HW111754   5.151   7.563   0.214 -0.7098  0.6926  1.9113
 3733SOL    HW211755   5.013   7.622   0.231 -1.0441  0.8794 -0.9247
 3734SOL     OW11756   6.572   3.339   6.646 -0.0075  0.0512  0.4691
 3734SOL    HW111757   6.664   3.339   6.670 -0.4075  2.5360  2.3919
 3734SOL    HW211758   6.568   3.392   6.567  0.1329  0.7744  0.9357
 3735SOL     OW11759   4.298   3.151   5.216  0.1673  0.2076  0.5399
 3735SOL    HW111760   4.325   3.078   5.272 -0.0786 -0.7360 -0.5419
 3735SOL    HW211761   4.208   3.129   5.190 -0.4290  1.6022  1.3264
 3736SOL     OW11762   1.770   5.076   7.485 -0.0726 -0.5186  0.3286
 3736SOL    HW111763   1.844   5.071   7.425  0.4121  1.2797  0.7393
 3736SOL    HW211764   1.775   4.995   7.536  2.8309  0.4365  1.7448
 3737SOL     OW11765   1.075   2.560   5.059  0.6074 -0.0856  0.3942
 3737SOL    HW111766   1.104   2.470   5.073  1.6151  0.2412  0.4972
 3737SOL    HW211767   1.036   2.559   4.971  0.0555 -0.7485  0.6395
 3738SOL     OW11768   3.278   4.065   1.384 -0.5029  0.5741 -0.0508
 3738SOL    HW111769   3.185   4.053   1.365 -0.8046  2.5960  0.0033
 3738SOL    HW211770   3.323   4.012   1.317 -1.6585  1.7548 -1.8543
 3739SOL     OW11771   1.524   6.442   2.329 -0.3222 -0.6666 -0.4738
 3739SOL    HW111772   1.523   6.422   2.423  1.6343 -0.2083 -0.2999
 3739SOL    HW211773   1.544   6.358   2.287  1.7128 -0.3710 -0.2099
 3740SOL     OW11774   7.504   7.445   1.157 -0.9110 -0.5259 -0.3188
 3740SOL    HW111775   7.584   7.410   1.195 -1.2278 -1.4835 -0.5079
 3740SOL    HW211776   7.533   7.492   1.079 -0.4566 -0.1981  0.0467
 3741SOL     OW11777   7.213   0.801   7.672 -0.0340  0.5491  0.4602
 3741SOL    HW111778   7.178   0.804   7.760  0.9420  1.1735  0.8442
 3741SOL    HW211779   7.194   0.712   7.641 -2.7409  1.1233  0.2734
 3742SOL     OW11780   3.564   4.435   4.813  0.4924  0.3411  0.1989
 3742SOL    HW111781   3.478   4.469   4.788 -0.5022 -1.2070  1.3104
 3742SOL    HW211782   3.623   4.510   4.806 -0.7569  1.2260 -1.4475
 3743SOL     OW11783   0.307   2.696   5.221 -0.2890  0.8009  0.2713
 3743SOL    HW111784   0.218   2.668   5.240  0.0860 -0.6457  0.0118
 3743SOL    HW211785   0.312   2.698   5.125  0.0754  0.4273  0.2783
 3744SOL     OW11786   5.948   1.301   3.627  0.4541 -0.1322  0.1941
 3744SOL    HW111787   6.038   1.333   3.622  0.9508 -1.5998 -2.9636
 3744SOL    HW211788   5.894   1.377   3.603  1.1106  0.0185 -0.8670
 3745SOL     OW11789   7.744   1.834   4.256  0.2846 -0.6112  0.1005
 3745SOL    HW111790   7.659   1.869   4.282  0.2921 -0.9596  0.5987
 3745SOL    HW211791   7.806   1.905   4.278  0.0331  0.0179 -1.1202
 3746SOL     OW11792   7.048   1.858   7.543  0.2219 -0.1042 -0.1000
 3746SOL    HW111793   6.965   1.817   7.520  0.3951 -0.9592  0.7561
 3746SOL    HW211794   7.037   1.885   7.634  0.3555  1.1466 -0.4379
 3747SOL     OW11795   0.381   7.562   4.421 -0.0864 -0.2186 -0.0135
 3747SOL    HW111796   0.465   7.599   4.450 -0.4826 -0.5255  1.5878
 3747SOL    HW211797   0.404   7.476   4.387  0.3019 -0.1347  0.0287
 3748SOL     OW11798   6.558   6.424   4.750 -0.1540  0.0313  0.3389
 3748SOL    HW111799   6.555   6.379   4.666 -2.2871 -0.1184  0.4190
 3748SOL    HW211800   6.467   6.423   4.780 -0.0289  2.9820  1.1232
 3749SOL     OW11801   4.747   3.507   6.431  0.8107 -0.0824 -0.1086
 3749SOL    HW111802   4.821   3.511   6.492  0.5769 -0.2214  0.1819
 3749SOL    HW211803   4.750   3.592   6.385  0.0345  0.6865  1.2097
 3750SOL     OW11804   5.673   3.802   6.271  0.0151  0.2625  0.2231
 3750SOL    HW111805   5.629   3.730   6.315  0.3477  1.4801  2.7365
 3750SOL    HW211806   5.619   3.879   6.290  1.3410  1.1951  0.3662
 3751SOL     OW11807   5.058   4.385   4.799  0.0499 -0.1541  0.1641
 3751SOL    HW111808   5.097   4.298   4.787 -0.0200 -0.1020 -0.4562
 3751SOL    HW211809   4.966   4.373   4.776  0.2044  0.2613 -0.6956
 3752SOL     OW11810   7.743   7.615   5.818  0.1542 -0.3664  0.1524
 3752SOL    HW111811   7.756   7.571   5.902  1.4319  0.3500  0.3582
 3752SOL    HW211812   7.830   7.614   5.777 -0.2794  0.0072 -0.7958
 3753SOL     OW11813   7.117   4.801   6.623 -0.5655 -0.1042 -0.0494
 3753SOL    HW111814   7.176   4.768   6.556 -0.9749  0.0008 -0.4707
 3753SOL    HW211815   7.115   4.732   6.690  1.3123  0.5919  0.8027
 3754SOL     OW11816   2.527   3.473   3.514 -0.7907  0.0320 -0.3208
 3754SOL    HW111817   2.468   3.417   3.464 -0.6846  0.7419 -1.2711
 3754SOL    HW211818   2.512   3.561   3.479 -0.5236  0.5101  0.7297
 3755SOL     OW11819   6.651   1.265   5.234  0.0199 -0.0924  0.1279
 3755SOL    HW111820   6.743   1.240   5.226 -0.3257 -1.2102 -0.4719
 3755SOL    HW211821   6.634   1.262   5.328  0.1557 -1.6057  0.1333
 3756SOL     OW11822   1.287   5.192   4.471 -0.3258  0.3672 -0.2130
 3756SOL    HW111823   1.329   5.244   4.403 -0.1142  0.3698 -0.0815
 3756SOL    HW211824   1.357   5.173   4.533 -0.3555 -0.2636 -0.3725
 3757SOL     OW11825   3.854   3.429   1.843  0.0161 -0.0398 -0.3881
 3757SOL    HW111826   3.889   3.517   1.858 -0.0565 -0.1697  0.6734
 3757SOL    HW211827   3.824   3.401   1.930 -1.4752 -0.4612 -1.0114
 3758SOL     OW11828   6.176   2.030   2.637  0.2346 -0.3010 -0.3447
 3758SOL    HW111829   6.127   1.954   2.605  0.1336 -0.5032  0.2844
 3758SOL    HW211830   6.166   2.027   2.732  1.6434 -0.4525 -0.1858
 3759SOL     OW11831   7.583   3.852   4.706  0.1567  0.2385 -0.5745
 3759SOL    HW111832   7.547   3.800   4.778 -0.6682  1.7411  0.1277
 3759SOL    HW211833   7.661   3.894   4.742  0.0596  0.5511 -0.7224
 3760SOL     OW11834   2.619   1.760   2.293  0.2213  0.7375 -0.4831
 3760SOL    HW111835   2.588   1.845   2.323  0.2992  1.1061 -1.4137
 3760SOL    HW211836   2.688   1.781   2.229  0.8937 -0.0339 -0.0251
 3761SOL     OW11837   3.484   4.572   3.056  0.4685 -0.1108 -0.0717
 3761SOL    HW111838   3.492   4.666   3.068 -1.5371  0.3046 -1.5106
 3761SOL    HW211839   3.390   4.557   3.046  0.7797 -2.2012 -0.2944
 3762SOL     OW11840   7.369   7.170   3.363  0.0618 -0.4418 -0.7103
 3762SOL    HW111841   7.355   7.239   3.428 -0.9077 -1.8416  0.6311
 3762SOL    HW211842   7.463   7.150   3.370 -0.1445 -1.0135  0.7568
 3763SOL     OW11843   2.311   5.282   0.807 -0.1504 -0.1055 -0.0645
 3763SOL    HW111844   2.317   5.368   0.848  1.0780  0.7584 -1.8961
 3763SOL    HW211845   2.357   5.223   0.867 -1.3286  0.3963  1.3896
 3764SOL     OW11846   6.834   1.275   0.079  0.0064 -0.0313 -0.3043
 3764SOL    HW111847   6.758   1.327   0.107 -1.0835 -1.7589  0.1183
 3764SOL    HW211848   6.834   1.282  -0.017  0.2535  1.2079 -0.2297
 3765SOL     OW11849   4.782   3.689   6.096 -0.4460  0.0563 -0.0786
 3765SOL    HW111850   4.754   3.599   6.113 -1.1287  0.0796 -1.0538
 3765SOL    HW211851   4.802   3.691   6.003  0.0929  0.7854  0.0457
 3766SOL     OW11852   2.016   0.681   0.366 -0.1940 -0.0305 -0.4561
 3766SOL    HW111853   1.930   0.716   0.388  0.1170 -0.1007  0.9706
 3766SOL    HW211854   2.008   0.587   0.381 -0.2859 -0.2585 -1.7940
 3767SOL     OW11855   0.351   1.701   0.717  0.1451 -0.0894  0.1462
 3767SOL    HW111856   0.342   1.626   0.776  0.3212 -0.4931 -0.3275
 3767SOL    HW211857   0.314   1.670   0.634  0.0902  0.3983 -0.0114
 3768SOL     OW11858   5.805   0.998   6.115  0.0247  0.8044 -0.1417
 3768SOL    HW111859   5.795   1.059   6.042  1.4676  1.3059  0.0256
 3768SOL    HW211860   5.848   0.922   6.077  0.4937  0.9386  0.1046
 3769SOL     OW11861   0.080   1.708   7.476  0.0423  0.5222  0.2964
 3769SOL    HW111862   0.093   1.619   7.444 -0.7353  0.8478 -0.9704
 3769SOL    HW211863  -0.001   1.704   7.527 -0.6802  0.7582 -0.8155
 3770SOL     OW11864   2.742   0.034   2.563 -0.0733  0.6145  0.7365
 3770SOL    HW111865   2.652   0.020   2.592 -0.1687  2.1991  1.3060
 3770SOL    HW211866   2.735   0.040   2.467 -0.4014 -0.3276  0.6939
 3771SOL     OW11867   7.531   6.400   7.183  0.1337  0.2441 -0.0976
 3771SOL    HW111868   7.439   6.427   7.192  0.0472 -0.6576  2.2659
 3771SOL    HW211869   7.580   6.468   7.227  0.5261  0.1591 -0.3995
 3772SOL     OW11870   4.786   7.614   1.096 -0.0975 -0.2809 -0.5238
 3772SOL    HW111871   4.799   7.605   1.002 -0.6623  0.7543 -0.7174
 3772SOL    HW211872   4.762   7.706   1.109  4.0920  0.8309  1.1240
 3773SOL     OW11873   4.162   1.948   5.200 -0.4191  0.2129 -0.0500
 3773SOL    HW111874   4.125   1.925   5.115  0.2086 -2.6056  0.3546
 3773SOL    HW211875   4.101   1.910   5.264 -0.0154  0.8414  0.7301
 3774SOL     OW11876   2.048   0.140   0.709 -1.1478  0.3189 -0.3020
 3774SOL    HW111877   2.042   0.232   0.733  1.4219  0.2875  0.7470
 3774SOL    HW211878   2.135   0.131   0.671 -1.7813 -1.4828 -1.4482
 3775SOL     OW11879   2.997   0.086   3.640 -0.7606 -0.0853 -0.1151
 3775SOL    HW111880   3.082   0.077   3.597 -1.9628 -0.6079 -2.6063
 3775SOL    HW211881   2.966   0.173   3.614 -0.8439  0.2583  1.0890
 3776SOL     OW11882   3.380   1.570   3.503  0.3147 -0.0961  0.1646
 3776SOL    HW111883   3.335   1.634   3.558  1.0770  1.5522 -1.0469
 3776SOL    HW211884   3.400   1.497   3.562 -2.0491  0.0110  1.2101
 3777SOL     OW11885   6.448   7.376   3.244  0.4503  0.0857 -1.1313
 3777SOL    HW111886   6.359   7.403   3.221 -0.2773 -0.7645  0.6033
 3777SOL    HW211887   6.475   7.437   3.313  1.0885  0.0989 -1.3807
 3778SOL     OW11888   0.625   6.152   5.399  0.5249  0.0347 -0.6003
 3778SOL    HW111889   0.573   6.097   5.457  0.0697  1.0069 -0.0561
 3778SOL    HW211890   0.715   6.144   5.432  0.2436  0.7182  0.3689
 3779SOL     OW11891   4.139   6.264   0.451  0.1842 -0.1180 -0.8289
 3779SOL    HW111892   4.219   6.309   0.477  0.1507 -0.4829 -0.0681
 3779SOL    HW211893   4.082   6.270   0.528 -1.3271  1.8830 -1.9912
 3780SOL     OW11894   0.189   0.009   2.322 -0.3169  0.5743  0.5633
 3780SOL    HW111895   0.225  -0.064   2.372 -0.3627 -0.0440 -0.2725
 3780SOL    HW211896   0.094   0.004   2.335 -0.4077 -0.1440 -0.2954
 3781SOL     OW11897   4.225   4.622   7.662 -0.6278 -0.4409  0.1634
 3781SOL    HW111898   4.241   4.674   7.741 -1.7085 -0.3938  0.3666
 3781SOL    HW211899   4.169   4.678   7.608 -0.7472 -0.8898 -0.1812
 3782SOL     OW11900   5.093   0.873   0.417  1.0255 -0.1651 -0.0886
 3782SOL    HW111901   5.147   0.840   0.345  0.9229  0.0559 -0.2663
 3782SOL    HW211902   5.092   0.801   0.480  2.6249  0.3064  0.5247
 3783SOL     OW11903   1.246   2.018   0.295  0.0524 -0.1791  0.3489
 3783SOL    HW111904   1.311   1.948   0.291  0.0074 -0.2995  1.3192
 3783SOL    HW211905   1.233   2.032   0.389  0.2806  1.3300  0.1778
 3784SOL     OW11906   1.454   1.796   2.836  0.4456  0.3712 -0.2676
 3784SOL    HW111907   1.532   1.777   2.783  0.2861 -1.0803 -0.0022
 3784SOL    HW211908   1.404   1.858   2.783  2.3428  2.3480  0.0886
 3785SOL     OW11909   2.628   7.278   6.603  0.1469  0.1755  0.3286
 3785SOL    HW111910   2.556   7.341   6.604  0.5218  0.6106  1.0704
 3785SOL    HW211911   2.597   7.205   6.656  0.4912  0.6605  1.2249
 3786SOL     OW11912   3.593   3.611   6.548 -0.4122  0.1827 -0.7325
 3786SOL    HW111913   3.603   3.690   6.494  0.2802 -0.4111 -1.5085
 3786SOL    HW211914   3.646   3.628   6.626 -1.3235  1.0034 -0.2744
 3787SOL     OW11915   5.575   3.151   0.343 -0.4117  0.2348  0.2207
 3787SOL    HW111916   5.514   3.167   0.271 -1.0333 -0.9587  0.4617
 3787SOL    HW211917   5.523   3.165   0.422 -0.7426 -1.9519  0.4370
 3788SOL     OW11918   5.291   4.943   3.461 -0.4830  0.6656 -0.2390
 3788SOL    HW111919   5.251   4.861   3.433 -0.6971  0.3569  0.9454
 3788SOL    HW211920   5.284   5.000   3.384 -0.3880 -0.3876 -1.0548
 3789SOL     OW11921   6.842   0.781   3.036 -0.1382  0.5236  0.1772
 3789SOL    HW111922   6.889   0.761   2.955 -2.2073 -1.3087 -0.7038
 3789SOL    HW211923   6.896   0.743   3.105  0.6229  0.1931 -0.5720
 3790SOL     OW11924   1.611   3.801   6.938 -0.6694  0.4421 -0.5654
 3790SOL    HW111925   1.703   3.819   6.954 -0.4858  0.9770 -2.0780
 3790SOL    HW211926   1.566   3.833   7.016  0.2199  2.2050 -0.7313
 3791SOL     OW11927   5.221   1.089   1.763 -0.2885  0.0107 -0.0533
 3791SOL    HW111928   5.219   0.996   1.787  1.2586  0.1009  0.5143
 3791SOL    HW211929   5.167   1.094   1.684  0.1276 -1.4749 -0.4687
 3792SOL     OW11930   0.984   2.018   0.173 -0.3217 -0.0187 -0.7027
 3792SOL    HW111931   1.070   2.030   0.212 -1.1097  0.2670  1.0551
 3792SOL    HW211932   0.979   2.083   0.103 -0.0810  1.8117  0.9204
 3793SOL     OW11933   1.425   1.088   7.580 -0.4212  0.2339 -0.3901
 3793SOL    HW111934   1.472   1.118   7.502  0.6711  0.7343  0.4339
 3793SOL    HW211935   1.338   1.064   7.548  0.4576 -0.9730 -2.0006
 3794SOL     OW11936   3.578   4.011   5.619 -0.5058  0.4732 -0.2441
 3794SOL    HW111937   3.539   4.081   5.567  2.1769  1.9051 -0.5452
 3794SOL    HW211938   3.645   4.055   5.671  2.3542 -1.9769 -1.5328
 3795SOL     OW11939   3.891   6.634   5.804  0.1960  0.0021 -0.1316
 3795SOL    HW111940   3.811   6.680   5.831  0.0394 -0.4412  0.1575
 3795SOL    HW211941   3.867   6.542   5.803 -0.1541  0.0297 -2.8794
 3796SOL     OW11942   1.171   1.771   0.431 -0.1664  0.0815 -0.4013
 3796SOL    HW111943   1.077   1.753   0.429  0.0063 -1.4186  1.6615
 3796SOL    HW211944   1.190   1.809   0.345 -2.5568 -0.0397 -1.0516
 3797SOL     OW11945   2.490   6.448   5.769 -0.1764 -0.2424  0.5578
 3797SOL    HW111946   2.410   6.480   5.811 -0.6561 -3.2903  2.3239
 3797SOL    HW211947   2.460   6.409   5.687 -0.0774  0.8190  0.0005
 3798SOL     OW11948   2.925   7.109   1.934  0.2032  0.1915 -0.5560
 3798SOL    HW111949   2.993   7.049   1.903  1.4545  1.2483  0.0552
 3798SOL    HW211950   2.920   7.092   2.028 -0.5055  0.0152 -0.6193
 3799SOL     OW11951   2.343   2.869   7.425 -0.6416  0.0743  0.0139
 3799SOL    HW111952   2.363   2.847   7.516 -1.6326 -0.3675  0.1346
 3799SOL    HW211953   2.258   2.828   7.408 -0.2267 -0.3126 -1.2766
 3800SOL     OW11954   0.843   2.803   2.682 -0.2535 -0.4377 -0.6829
 3800SOL    HW111955   0.935   2.829   2.676 -0.2877 -0.6085 -2.4559
 3800SOL    HW211956   0.794   2.885   2.687  0.0136 -0.3501  1.6002
 3801SOL     OW11957   5.107   3.599   5.666 -0.0529  0.6885 -0.3525
 3801SOL    HW111958   5.143   3.610   5.754 -1.1087  0.1088  0.1670
 3801SOL    HW211959   5.139   3.675   5.618  0.8300  0.8308  0.4222
 3802SOL     OW11960   6.243   7.629   4.684  0.1055 -0.3624 -0.0703
 3802SOL    HW111961   6.200   7.587   4.610  0.2372 -0.9409  0.1734
 3802SOL    HW211962   6.171   7.665   4.736  0.0783  1.3633 -1.2263
 3803SOL     OW11963   5.910   4.771   4.501 -0.0924  0.2252  0.0824
 3803SOL    HW111964   5.971   4.845   4.498  0.1066  0.0556 -0.1327
 3803SOL    HW211965   5.924   4.733   4.588  1.5758 -1.0124 -0.6653
 3804SOL     OW11966   4.328   7.292   4.160 -0.2301  0.4820  0.0743
 3804SOL    HW111967   4.381   7.319   4.085  0.1527  2.3344  0.9472
 3804SOL    HW211968   4.283   7.212   4.130  3.5965 -1.7164 -0.4465
 3805SOL     OW11969   2.645   5.324   6.383 -0.0422  0.1891 -0.6888
 3805SOL    HW111970   2.684   5.363   6.461  1.1978  0.8103 -1.5948
 3805SOL    HW211971   2.663   5.230   6.391 -1.4219 -0.0129  0.5792
 3806SOL     OW11972   0.356   1.840   0.291 -0.3892  0.3170 -0.5961
 3806SOL    HW111973   0.352   1.934   0.311 -0.3978  0.3061 -0.5459
 3806SOL    HW211974   0.439   1.829   0.246  1.4284 -0.2374  2.5545
 3807SOL     OW11975   7.100   0.023   3.598 -0.1548 -0.1949 -0.1860
 3807SOL    HW111976   7.176  -0.015   3.554  0.7769 -0.0733  1.2453
 3807SOL    HW211977   7.035   0.035   3.528 -0.3126 -3.8224 -0.8340
 3808SOL     OW11978   3.047   2.966   3.688  0.3965 -0.6126  0.6837
 3808SOL    HW111979   3.132   2.932   3.715 -0.3399 -1.9743  1.3966
 3808SOL    HW211980   3.042   3.053   3.727  1.6252 -0.3433  0.2799
 3809SOL     OW11981   4.144   1.678   2.517 -0.2310  0.1022  0.3958
 3809SOL    HW111982   4.097   1.760   2.502 -1.3942 -0.6896 -0.4952
 3809SOL    HW211983   4.181   1.687   2.605 -1.3489  1.1013  0.7872
 3810SOL     OW11984   6.357   1.491   3.099  0.5735 -0.1519 -0.2126
 3810SOL    HW111985   6.338   1.584   3.082  0.4999 -0.1472 -0.1046
 3810SOL    HW211986   6.399   1.491   3.185 -0.0016 -0.2829  0.0743
 3811SOL     OW11987   1.886   7.678   6.156 -0.5266  0.3751 -0.0288
 3811SOL    HW111988   1.808   7.626   6.175  0.5354 -1.4365 -0.4782
 3811SOL    HW211989   1.943   7.664   6.231 -0.8923  2.3539  0.6924
 3812SOL     OW11990   4.707   0.551   0.042 -0.8252 -0.1677  0.0159
 3812SOL    HW111991   4.628   0.497   0.050  0.9856 -2.7757  2.6400
 3812SOL    HW211992   4.711   0.598   0.125  0.4346 -0.1638 -0.0395
 3813SOL     OW11993   5.994   0.239   6.485 -0.3070 -0.1839 -0.1146
 3813SOL    HW111994   5.944   0.189   6.421  0.3514  1.5050 -2.0756
 3813SOL    HW211995   5.945   0.230   6.566 -0.1065 -4.0617 -0.2722
 3814SOL     OW11996   1.453   4.010   5.653  0.2478  0.1130 -0.0325
 3814SOL    HW111997   1.358   4.020   5.647  0.2380  0.1862  0.2153
 3814SOL    HW211998   1.466   3.928   5.701  0.3364 -1.5646 -2.7549
 3815SOL     OW11999   2.363   6.960   5.559 -0.0273 -1.0381 -0.0453
 3815SOL    HW112000   2.274   6.993   5.572  0.1132 -0.7493  0.2104
 3815SOL    HW212001   2.397   6.946   5.647 -0.1873 -2.1854 -0.1496
 3816SOL     OW12002   1.563   5.869   6.729  0.0334  0.2561  0.7618
 3816SOL    HW112003   1.617   5.793   6.710 -1.1804 -0.7387  1.1585
 3816SOL    HW212004   1.580   5.929   6.656  0.5241 -0.6654  0.0959
 3817SOL     OW12005   1.803   1.165   4.357  0.2373  0.0075 -0.6323
 3817SOL    HW112006   1.794   1.149   4.451  1.2967  1.9678 -0.1411
 3817SOL    HW212007   1.732   1.115   4.317 -1.2283  0.3789  1.3637
 3818SOL     OW12008   0.281   4.678   2.526  0.5166  0.2594 -0.0763
 3818SOL    HW112009   0.374   4.702   2.526  0.5506  0.4472 -2.5731
 3818SOL    HW212010   0.235   4.761   2.527  0.3896  0.1880  0.1360
 3819SOL     OW12011   7.118   2.596   4.253 -0.3334 -0.3100  0.2559
 3819SOL    HW112012   7.036   2.623   4.294 -0.8273  0.0234 -0.8935
 3819SOL    HW212013   7.142   2.670   4.196  0.5888 -0.5416  0.3228
 3820SOL     OW12014   5.979   0.788   1.280 -0.1233  0.3920 -0.1097
 3820SOL    HW112015   6.033   0.843   1.223 -0.5657  0.2506 -0.6750
 3820SOL    HW212016   5.920   0.850   1.323  0.5438  0.5580  0.5832
 3821SOL     OW12017   7.394   4.248   1.257 -0.5518  0.0048 -0.0576
 3821SOL    HW112018   7.383   4.158   1.286 -0.7890 -0.7660 -2.3417
 3821SOL    HW212019   7.333   4.298   1.311 -1.3679 -1.3979  0.3643
 3822SOL     OW12020   0.195   2.189   2.117  0.3370  0.5857 -0.0623
 3822SOL    HW112021   0.128   2.144   2.066 -0.0725 -0.9170  1.7013
 3822SOL    HW212022   0.276   2.143   2.096  0.0195 -0.6478  1.2630
 3823SOL     OW12023   6.882   2.334   0.268 -0.1630 -0.2082  0.6370
 3823SOL    HW112024   6.806   2.278   0.253 -0.5229  0.0324  1.5222
 3823SOL    HW212025   6.918   2.304   0.351 -1.1154  1.6839  1.7928
 3824SOL     OW12026   4.047   4.011   7.439 -0.1566 -0.0691  0.2173
 3824SOL    HW112027   4.127   4.048   7.401 -0.6810 -0.4990 -1.3788
 3824SOL    HW212028   4.052   3.918   7.420 -0.1323 -0.4409  1.8501
 3825SOL     OW12029   2.900   0.466   7.149 -0.2627  0.3607 -0.0667
 3825SOL    HW112030   2.871   0.394   7.205  0.9302  0.3405  0.5508
 3825SOL    HW212031   2.875   0.439   7.060 -0.7335 -0.3402  0.2706
 3826SOL     OW12032   1.393   6.110   1.959  0.5634  0.7150  0.1802
 3826SOL    HW112033   1.368   6.186   2.012 -0.7997  0.0384  0.5750
 3826SOL    HW212034   1.420   6.147   1.876  0.3098  1.6612  0.5019
 3827SOL     OW12035   2.864   1.194   6.429  0.4475  0.0378  0.3800
 3827SOL    HW112036   2.874   1.278   6.474  2.5498 -0.3380  0.7165
 3827SOL    HW212037   2.906   1.207   6.344 -0.3591 -0.3184 -0.0876
 3828SOL     OW12038   3.548   5.277   4.754 -0.0593 -0.2175 -0.0428
 3828SOL    HW112039   3.555   5.345   4.687 -1.0100 -1.6290 -1.6407
 3828SOL    HW212040   3.455   5.269   4.771 -0.0892 -1.8889 -0.7668
 3829SOL     OW12041   0.335   7.673   1.796 -0.2976 -0.2397 -0.7267
 3829SOL    HW112042   0.356   7.693   1.887 -2.5619  0.0108 -0.2155
 3829SOL    HW212043   0.417   7.690   1.748  0.1091  2.6286  0.7908
 3830SOL     OW12044   2.836   0.583   4.015 -0.2241 -0.1520 -0.1020
 3830SOL    HW112045   2.800   0.670   4.034 -0.1138  0.2054 -1.4323
 3830SOL    HW212046   2.768   0.540   3.962 -0.4407 -1.0342  0.8619
 3831SOL     OW12047   3.431   1.882   5.889 -0.3165  0.1850 -0.0152
 3831SOL    HW112048   3.464   1.843   5.808  1.5794  0.6247  0.4759
 3831SOL    HW212049   3.415   1.974   5.865 -0.1466  0.2184 -0.0068
 3832SOL     OW12050   3.256   0.546   4.838 -0.1328 -0.7477  0.4638
 3832SOL    HW112051   3.200   0.623   4.841  2.0536  0.9294  0.4885
 3832SOL    HW212052   3.201   0.478   4.798 -2.1349  0.7652  0.4643
 3833SOL     OW12053   1.242   0.972   5.912 -0.6625  0.5794  0.2003
 3833SOL    HW112054   1.172   1.018   5.958 -0.5111  2.0744 -0.9569
 3833SOL    HW212055   1.282   1.040   5.857  1.6265 -0.2444  0.7440
 3834SOL     OW12056   4.119   3.915   2.823  0.0813 -0.2354 -0.1323
 3834SOL    HW112057   4.200   3.907   2.874 -0.5827 -0.8691  0.8683
 3834SOL    HW212058   4.107   4.010   2.813  1.4574 -0.1423 -1.1769
 3835SOL     OW12059   1.424   0.747   6.933  0.0762  0.0995 -0.4396
 3835SOL    HW112060   1.514   0.718   6.916  0.1827  0.8449 -1.2174
 3835SOL    HW212061   1.435   0.836   6.967 -0.4489  1.4041 -3.3534
 3836SOL     OW12062   0.896   5.277   1.576  0.0232 -0.1719 -0.1511
 3836SOL    HW112063   0.928   5.203   1.628  0.7443 -0.5522 -1.1277
 3836SOL    HW212064   0.801   5.272   1.585 -0.0347 -2.0540 -1.3102
 3837SOL     OW12065   1.409   3.556   1.475  0.2760  0.1055 -0.0343
 3837SOL    HW112066   1.356   3.527   1.401 -0.4861  2.0362 -0.3043
 3837SOL    HW212067   1.365   3.635   1.507  0.7195 -0.5180  2.3405
 3838SOL     OW12068   4.211   7.343   1.769  0.3114 -0.1927 -0.5805
 3838SOL    HW112069   4.136   7.354   1.711 -0.3340  2.4918  0.5993
 3838SOL    HW212070   4.286   7.371   1.718 -0.1121  1.1405 -0.5196
 3839SOL     OW12071   1.904   3.721   6.228 -0.2924 -0.4634  0.1300
 3839SOL    HW112072   1.921   3.814   6.245 -0.4384 -0.4019 -0.0480
 3839SOL    HW212073   1.816   3.707   6.262 -0.1661 -0.6014  0.3964
 3840SOL     OW12074   1.408   4.693   3.298 -0.2428 -0.1121  0.2668
 3840SOL    HW112075   1.385   4.654   3.383  0.4974 -1.1366  0.0174
 3840SOL    HW212076   1.478   4.636   3.264  0.2637  0.9517 -0.5099
 3841SOL     OW12077   5.432   1.562   5.555 -0.9999  0.0812 -0.1532
 3841SOL    HW112078   5.451   1.469   5.543 -0.4855  0.2307 -0.5531
 3841SOL    HW212079   5.451   1.579   5.647  0.2892  0.0928 -0.4053
 3842SOL     OW12080   3.020   0.382   2.790  0.0714  0.3721  0.2250
 3842SOL    HW112081   2.927   0.371   2.771  0.0216 -0.7183  1.0130
 3842SOL    HW212082   3.034   0.335   2.872  1.2740  0.7275  0.2531
 3843SOL     OW12083   7.277   5.813   4.344  0.1471  0.1016 -0.0667
 3843SOL    HW112084   7.363   5.845   4.373  0.0391  1.0949 -0.7923
 3843SOL    HW212085   7.221   5.821   4.421 -0.2134  2.9788 -0.5136
 3844SOL     OW12086   4.795   0.847   3.211 -0.1530  0.0885 -0.0146
 3844SOL    HW112087   4.796   0.786   3.137  0.9366  0.0416  0.0211
 3844SOL    HW212088   4.866   0.909   3.193  1.6600 -1.2214  1.9926
 3845SOL     OW12089   3.474   5.581   2.038  0.8926 -0.3809 -0.2831
 3845SOL    HW112090   3.557   5.562   1.995  2.0295  2.3001  0.5315
 3845SOL    HW212091   3.411   5.523   1.995  3.0306 -2.0289 -1.3653
 3846SOL     OW12092   1.009   6.607   2.554  0.0370 -0.5325 -0.4387
 3846SOL    HW112093   0.978   6.673   2.492  0.1156  0.1348  0.2071
 3846SOL    HW212094   0.981   6.640   2.640 -1.3670 -2.1806 -0.2255
 3847SOL     OW12095   7.117   0.376   1.948  0.8894 -0.3285 -0.1668
 3847SOL    HW112096   7.073   0.459   1.968  0.6401 -0.2745 -0.8942
 3847SOL    HW212097   7.063   0.309   1.990  1.1969 -0.1160  0.5883
 3848SOL     OW12098   6.908   4.022   7.092 -0.5549 -0.8012 -0.3768
 3848SOL    HW112099   6.932   4.013   7.184  0.4659 -4.0891 -0.8216
 3848SOL    HW212100   6.812   4.012   7.092 -0.8478  1.3737  0.4204
 3849SOL     OW12101   6.467   7.632   5.655 -0.5859  0.1276 -0.4918
 3849SOL    HW112102   6.508   7.719   5.654  2.0980 -1.0487 -0.6375
 3849SOL    HW212103   6.374   7.650   5.671 -0.1799  3.0251 -0.8210
 3850SOL     OW12104   4.355   3.872   3.749  0.0441  0.2055  0.0527
 3850SOL    HW112105   4.329   3.935   3.681 -0.6535 -0.3782 -0.2381
 3850SOL    HW212106   4.313   3.904   3.829  1.5818  1.3902  0.4408
 3851SOL     OW12107   6.664   3.178   2.951  0.2772 -0.3634  0.0164
 3851SOL    HW112108   6.681   3.095   2.996  2.1242 -0.2015 -0.3119
 3851SOL    HW212109   6.744   3.228   2.962 -0.5507  1.1135 -0.4134
 3852SOL     OW12110   0.202   2.081   6.522  0.0901  0.1335 -0.1875
 3852SOL    HW112111   0.142   2.122   6.460  0.0698 -3.1942 -2.6418
 3852SOL    HW212112   0.147   2.058   6.597 -0.9685  0.1869 -0.9252
 3853SOL     OW12113   0.589   3.917   4.409  0.1020  0.0973  0.2252
 3853SOL    HW112114   0.682   3.914   4.385 -0.4199 -2.7066 -2.0063
 3853SOL    HW212115   0.564   4.008   4.393  2.3973  0.9069  0.7693
 3854SOL     OW12116   2.677   3.320   6.173 -0.1036  0.7022 -0.1586
 3854SOL    HW112117   2.645   3.314   6.263 -1.9496 -2.2287 -0.9055
 3854SOL    HW212118   2.652   3.408   6.145 -1.3633  0.9254  1.5236
 3855SOL     OW12119   4.640   1.271   3.203 -0.5269  0.3003 -0.1773
 3855SOL    HW112120   4.620   1.186   3.164  2.0881 -0.7487  0.4807
 3855SOL    HW212121   4.659   1.250   3.295 -1.4395  1.8855  0.4033
 3856SOL     OW12122   4.082   3.136   4.507  0.0615 -0.5138 -0.0281
 3856SOL    HW112123   4.007   3.076   4.506 -1.6802  1.5593 -0.8785
 3856SOL    HW212124   4.094   3.160   4.416  2.8267 -1.9219 -0.1440
 3857SOL     OW12125   7.481   0.384   4.482  0.3750 -0.2471 -0.4065
 3857SOL    HW112126   7.422   0.362   4.555  1.9681 -0.7382  0.7831
 3857SOL    HW212127   7.561   0.335   4.501  0.9573 -0.0974 -2.3297
 3858SOL     OW12128   4.791   0.149   4.857 -0.3726  0.1186  0.3444
 3858SOL    HW112129   4.717   0.160   4.797 -0.3081 -1.2266 -0.0009
 3858SOL    HW212130   4.857   0.101   4.807 -1.1097 -2.9204  2.0084
 3859SOL     OW12131   0.690   3.908   5.086 -0.1396 -0.3923  0.1797
 3859SOL    HW112132   0.720   3.888   4.997  1.4279  1.7567  0.1348
 3859SOL    HW212133   0.675   4.002   5.085 -0.8631 -0.4575  2.0083
 3860SOL     OW12134   5.309   6.034   2.518 -0.1328 -0.2423 -0.0408
 3860SOL    HW112135   5.396   6.002   2.544 -1.1365 -2.7230  0.5458
 3860SOL    HW212136   5.293   5.993   2.433 -0.6730  0.3399 -0.2249
 3861SOL     OW12137   1.453   7.553   1.532  0.0877  0.2208 -0.0876
 3861SOL    HW112138   1.483   7.463   1.547  3.0250  0.9316 -0.9770
 3861SOL    HW212139   1.359   7.545   1.518  0.1199 -2.5961  0.6916
 3862SOL     OW12140   3.946   6.056   2.682 -0.5363 -0.2436  0.0028
 3862SOL    HW112141   3.996   6.138   2.685 -2.7332  1.1497  0.3016
 3862SOL    HW212142   4.001   5.998   2.629  0.8732  1.5572 -0.6494
 3863SOL     OW12143   3.466   2.929   5.259  0.2367 -0.2660 -0.2080
 3863SOL    HW112144   3.524   2.938   5.184  0.4373  1.5148  0.1223
 3863SOL    HW212145   3.515   2.967   5.332 -0.7786 -0.0362  0.3775
 3864SOL     OW12146   5.813   4.412   0.092  0.3090 -0.1031  0.4068
 3864SOL    HW112147   5.728   4.371   0.107  2.1925 -4.7051  0.2749
 3864SOL    HW212148   5.834   4.455   0.175 -1.8314  0.6539  0.6172
 3865SOL     OW12149   7.454   3.183   2.641 -0.6105  0.0189  0.3150
 3865SOL    HW112150   7.538   3.206   2.680 -0.5158  0.6119 -0.2341
 3865SOL    HW212151   7.412   3.267   2.622  0.3286 -0.1005 -3.0185
 3866SOL     OW12152   5.647   6.771   4.997  0.0200 -0.4527 -0.1692
 3866SOL    HW112153   5.562   6.810   5.018  0.4304 -0.0121  0.6857
 3866SOL    HW212154   5.695   6.771   5.079  2.0933  2.3373 -1.2481
 3867SOL     OW12155   4.480   5.302   1.781 -0.1164 -0.1665  0.2494
 3867SOL    HW112156   4.515   5.333   1.697  0.3166 -0.2952  0.3810
 3867SOL    HW212157   4.393   5.341   1.786 -0.5661 -0.9775 -0.7349
 3868SOL     OW12158   1.390   7.754   3.189  0.1010 -0.6785 -0.5465
 3868SOL    HW112159   1.355   7.761   3.100  1.8926  0.9215 -1.1895
 3868SOL    HW212160   1.485   7.746   3.177  0.3754 -0.4740  1.2172
 3869SOL     OW12161   1.622   2.954   7.067 -0.1642 -0.7358  0.3318
 3869SOL    HW112162   1.685   2.991   7.005  0.0277 -1.6517 -0.0363
 3869SOL    HW212163   1.536   2.980   7.032 -0.0184  0.8458  1.0418
 3870SOL     OW12164   0.254   1.826   2.221 -0.0544  0.5372 -0.1745
 3870SOL    HW112165   0.334   1.775   2.233 -0.7150 -0.5922 -0.4480
 3870SOL    HW212166   0.264   1.899   2.282  0.9425  0.1243  0.1888
 3871SOL     OW12167   3.744   2.357   6.128 -0.6191  0.0207  0.2207
 3871SOL    HW112168   3.688   2.280   6.140 -2.5788  1.4061  0.5234
 3871SOL    HW212169   3.734   2.380   6.036  0.3974 -0.3708 -0.0017
 3872SOL     OW12170   7.035   6.830   0.340 -0.0255 -0.2153  0.0907
 3872SOL    HW112171   7.025   6.908   0.285  2.4105  0.8078  0.9738
 3872SOL    HW212172   7.088   6.770   0.288  2.1469  0.6920  1.1167
 3873SOL     OW12173   3.723   6.987   0.090  0.1651  0.4007  0.0023
 3873SOL    HW112174   3.663   7.041   0.142  0.0171  2.3661 -2.0637
 3873SOL    HW212175   3.673   6.961   0.013  1.4604  0.7087 -0.9737
 3874SOL     OW12176   4.814   0.695   4.794 -0.7524 -0.1200  0.1201
 3874SOL    HW112177   4.820   0.790   4.784  0.8746 -0.2373 -0.3174
 3874SOL    HW212178   4.790   0.683   4.886  0.4550  0.7149  0.5848
 3875SOL     OW12179   6.770   1.155   6.367 -0.1895  0.4479 -0.0910
 3875SOL    HW112180   6.818   1.196   6.439 -1.6624  1.7210  0.1926
 3875SOL    HW212181   6.811   1.068   6.358  1.1684  0.9269  1.1027
 3876SOL     OW12182   1.899   0.767   2.663 -0.1796 -0.3915  0.0258
 3876SOL    HW112183   1.959   0.790   2.735  1.2788 -0.7503 -1.0310
 3876SOL    HW212184   1.909   0.673   2.652 -0.5541 -0.3726 -0.5214
 3877SOL     OW12185   6.344   6.629   5.002 -0.0354  0.1338 -0.1618
 3877SOL    HW112186   6.328   6.600   5.092 -0.8618  2.4432  0.5069
 3877SOL    HW212187   6.301   6.563   4.948  0.0081 -1.0111  1.1534
 3878SOL     OW12188   4.837   1.087   2.938 -0.1381 -0.5724  0.0163
 3878SOL    HW112189   4.752   1.102   2.978  0.2957  3.6051 -0.2129
 3878SOL    HW212190   4.893   1.058   3.010 -1.6503 -3.5870  0.1250
 3879SOL     OW12191   6.050   1.130   5.726  0.1525 -0.5362 -0.0610
 3879SOL    HW112192   6.002   1.180   5.660  0.1728 -0.2861  0.1154
 3879SOL    HW212193   6.031   1.038   5.704  0.7225 -0.4788 -0.8359
 3880SOL     OW12194   1.460   1.277   3.302  0.2096  0.6788 -0.0823
 3880SOL    HW112195   1.423   1.201   3.258  0.5657  1.4396 -1.7941
 3880SOL    HW212196   1.549   1.284   3.266  0.5621  1.2632  0.8745
 3881SOL     OW12197   7.357   3.586   3.465 -0.1463  0.0687  0.3907
 3881SOL    HW112198   7.381   3.671   3.502  0.0948 -0.5070  1.6164
 3881SOL    HW212199   7.268   3.598   3.433  0.6478  1.4019 -1.5217
 3882SOL     OW12200   7.075   6.250   7.075  0.2012 -0.2338  0.2222
 3882SOL    HW112201   7.046   6.297   6.998 -2.8374 -0.0522  1.3446
 3882SOL    HW212202   7.088   6.160   7.045 -0.0400  0.0181 -0.6561
 3883SOL     OW12203   4.133   4.843   5.200  0.2429  0.2091 -0.3397
 3883SOL    HW112204   4.192   4.848   5.125  0.4208 -0.8299 -0.2814
 3883SOL    HW212205   4.051   4.809   5.164 -0.2735  1.4344 -0.3781
 3884SOL     OW12206   4.006   3.328   5.083 -0.3011  0.3963 -0.5191
 3884SOL    HW112207   4.045   3.387   5.019  0.3106  0.9414  0.3347
 3884SOL    HW212208   3.923   3.300   5.043 -0.7137  2.0024 -0.8443
 3885SOL     OW12209   0.257   6.560   4.830  0.5617  0.0051 -0.9689
 3885SOL    HW112210   0.276   6.466   4.824 -0.8741 -0.2197 -2.7016
 3885SOL    HW212211   0.310   6.600   4.760  2.4151  0.7717  0.7633
 3886SOL     OW12212   6.449   2.842   2.633 -0.0535 -0.2971  0.4048
 3886SOL    HW112213   6.403   2.908   2.684  0.6441  0.9255 -0.4847
 3886SOL    HW212214   6.381   2.798   2.582 -0.3131  1.3186 -0.7136
 3887SOL     OW12215   7.259   5.126   4.352  0.0548  0.0305  0.5656
 3887SOL    HW112216   7.253   5.034   4.380 -1.3224 -0.6191 -1.6004
 3887SOL    HW212217   7.171   5.160   4.366  0.4695  0.9384  1.0172
 3888SOL     OW12218   4.338   4.682   1.247  0.1140 -0.5354 -0.3024
 3888SOL    HW112219   4.334   4.702   1.340 -1.4151 -0.3056 -0.3971
 3888SOL    HW212220   4.350   4.587   1.243  0.5278 -0.5038  0.1192
 3889SOL     OW12221   5.069   1.151   0.431  0.5008  0.3516  0.2562
 3889SOL    HW112222   5.033   1.083   0.488  1.5349  0.2137  0.7824
 3889SOL    HW212223   5.045   1.125   0.343 -2.2823  1.2485  0.6545
 3890SOL     OW12224   2.817   0.111   6.838  0.5774 -0.3343 -0.1390
 3890SOL    HW112225   2.809   0.047   6.909  0.0507 -0.2965 -0.1657
 3890SOL    HW212226   2.756   0.082   6.771  1.6040 -0.7854 -0.9101
 3891SOL     OW12227   6.166   0.607   1.571 -0.0951 -0.3141 -0.0628
 3891SOL    HW112228   6.261   0.604   1.568 -0.0355  1.5086 -2.1042
 3891SOL    HW212229   6.143   0.561   1.653  2.5490  0.2668  1.1000
 3892SOL     OW12230   6.164   5.658   1.108 -1.2779 -0.3336 -0.1283
 3892SOL    HW112231   6.194   5.747   1.090 -1.0614 -0.3959 -0.0743
 3892SOL    HW212232   6.140   5.623   1.022  0.7703 -1.0047 -0.4867
 3893SOL     OW12233   6.288   3.816   6.543  0.1105  0.2697 -0.6791
 3893SOL    HW112234   6.376   3.843   6.515  0.6315 -1.5444 -0.9158
 3893SOL    HW212235   6.249   3.896   6.579  1.2998  1.4784 -1.9191
 3894SOL     OW12236   0.884   0.018   6.514 -0.2507  0.3510 -0.0260
 3894SOL    HW112237   0.943   0.091   6.533  0.8128 -0.6870  0.8687
 3894SOL    HW212238   0.913  -0.051   6.574 -0.1132 -1.3782 -1.9921
 3895SOL     OW12239   0.208   7.617   7.262 -0.0505 -0.3324  0.2445
 3895SOL    HW112240   0.187   7.696   7.211 -0.7900 -1.4758 -1.2911
 3895SOL    HW212241   0.265   7.566   7.204  1.1659 -0.5399  1.5746
 3896SOL     OW12242   0.109   5.076   3.865  0.4721  0.0439  0.1717
 3896SOL    HW112243   0.146   5.142   3.924  0.8611 -0.0342  0.0179
 3896SOL    HW212244   0.176   5.008   3.860 -0.1659 -0.6373  0.7755
 3897SOL     OW12245   6.307   3.884   6.224 -1.1669  0.1487 -0.5631
 3897SOL    HW112246   6.290   3.848   6.312  2.6114 -0.0129  0.2610
 3897SOL    HW212247   6.352   3.813   6.178  1.9346  2.0109 -0.6224
 3898SOL     OW12248   4.250   6.014   7.363  0.2316  0.0433 -0.7426
 3898SOL    HW112249   4.194   5.947   7.324 -0.7943  0.8164 -0.6550
 3898SOL    HW212250   4.336   5.998   7.326  0.1577 -1.7101 -0.2227
 3899SOL     OW12251   5.643   0.725   5.806 -0.1125  0.2828  0.0632
 3899SOL    HW112252   5.715   0.666   5.784  0.5385  0.8972  0.4927
 3899SOL    HW212253   5.565   0.671   5.802  0.4161 -0.4812 -0.0670
 3900SOL     OW12254   5.218   4.468   3.488 -0.0759  0.3520 -0.1917
 3900SOL    HW112255   5.222   4.395   3.550  2.5856 -0.5452 -1.2633
 3900SOL    HW212256   5.165   4.535   3.532  1.4846 -0.3150  2.9480
 3901SOL     OW12257   0.864   3.086   2.702  0.0850  0.2872 -0.3024
 3901SOL    HW112258   0.941   3.074   2.647 -0.2000 -0.0175 -0.6332
 3901SOL    HW212259   0.880   3.169   2.748 -0.0711  1.0033 -1.4970
 3902SOL     OW12260   2.953   5.337   1.430  0.2503  0.5255 -0.2310
 3902SOL    HW112261   3.019   5.361   1.366  1.8035 -2.2288  0.1945
 3902SOL    HW212262   2.920   5.252   1.401 -0.6235  0.2393  1.4251
 3903SOL     OW12263   1.292   0.599   4.171 -0.1269  0.3602  0.4019
 3903SOL    HW112264   1.281   0.590   4.265  0.0708 -1.3294  0.2872
 3903SOL    HW212265   1.205   0.620   4.138 -0.2508  0.6679  0.9129
 3904SOL     OW12266   2.190   2.007   5.991  0.5697  0.2502 -0.4911
 3904SOL    HW112267   2.267   2.004   6.048 -0.1292 -0.3331  0.4471
 3904SOL    HW212268   2.212   1.949   5.918  0.1256 -1.8892  0.9698
 3905SOL     OW12269   6.971   4.142   1.683  0.1498  0.1978  0.2714
 3905SOL    HW112270   7.013   4.102   1.760 -0.4871  0.2588  0.6577
 3905SOL    HW212271   6.955   4.069   1.623 -0.1461  0.0149  0.5704
 3906SOL     OW12272   6.543   6.787   5.255 -0.2279  0.4288 -0.4243
 3906SOL    HW112273   6.506   6.874   5.243  2.2555  1.9833  1.8928
 3906SOL    HW212274   6.502   6.754   5.335 -1.1787 -0.6054 -1.3060
 3907SOL     OW12275   4.580   3.825   2.687 -0.3289  0.0908  0.2141
 3907SOL    HW112276   4.651   3.875   2.646  1.1823  0.2628  2.7925
 3907SOL    HW212277   4.592   3.735   2.656 -0.3982  0.5216 -1.1050
 3908SOL     OW12278   1.122   6.903   1.585 -0.1673 -0.4492 -0.5047
 3908SOL    HW112279   1.152   6.819   1.620  2.0483  0.4315 -0.1396
 3908SOL    HW212280   1.117   6.889   1.490 -1.6308 -1.4786 -0.3177
 3909SOL     OW12281   5.966   4.711   1.286 -0.6130  0.2213 -0.1979
 3909SOL    HW112282   5.896   4.714   1.352 -0.0834  0.0971  0.3882
 3909SOL    HW212283   6.024   4.783   1.311  0.2674 -0.6249  0.2610
 3910SOL     OW12284   0.948   1.093   7.577 -0.4685 -0.1266 -0.2296
 3910SOL    HW112285   1.009   1.024   7.552  1.4124  1.1330  0.6306
 3910SOL    HW212286   0.970   1.112   7.669 -0.2597  2.2379 -0.7196
 3911SOL     OW12287   2.292   4.682   0.092 -0.6257 -0.3298  0.0076
 3911SOL    HW112288   2.302   4.739   0.168  0.5820 -0.4427 -0.0491
 3911SOL    HW212289   2.237   4.732   0.032  1.3206  1.2968 -0.5201
 3912SOL     OW12290   2.189   6.525   4.079 -0.5678 -0.1817 -0.3850
 3912SOL    HW112291   2.242   6.566   4.011  0.5001  0.9735  1.0759
 3912SOL    HW212292   2.099   6.545   4.056 -0.3331 -1.0440 -2.2047
 3913SOL     OW12293   3.242   7.300   0.716 -0.1438 -0.3459 -0.3176
 3913SOL    HW112294   3.223   7.206   0.718 -0.4779 -0.2833  1.9204
 3913SOL    HW212295   3.333   7.307   0.744 -0.3654  0.0339  0.3301
 3914SOL     OW12296   4.576   6.979   0.468  0.1078  0.1219  0.7729
 3914SOL    HW112297   4.553   7.043   0.400 -2.6646 -1.4864  0.0296
 3914SOL    HW212298   4.671   6.969   0.461 -0.1018 -0.5689 -3.4936
 3915SOL     OW12299   2.094   7.058   7.064 -0.5897 -0.4221 -0.3581
 3915SOL    HW112300   2.090   6.962   7.070 -0.8918 -0.3284  1.8135
 3915SOL    HW212301   2.003   7.085   7.059 -0.5397 -0.2065 -0.0757
 3916SOL     OW12302   3.338   6.837   3.643 -0.1627  0.3113  0.2246
 3916SOL    HW112303   3.299   6.915   3.683  0.0356  0.8479 -0.5985
 3916SOL    HW212304   3.420   6.868   3.605 -1.1288  0.2181 -2.0754
 3917SOL     OW12305   1.623   0.144   7.608  0.3097  0.2281 -0.1410
 3917SOL    HW112306   1.639   0.076   7.674  0.4806 -1.2244 -1.6258
 3917SOL    HW212307   1.710   0.160   7.570  0.2093  1.0427 -0.0331
 3918SOL     OW12308   0.420   6.384   6.151 -0.5176  0.5270  0.1012
 3918SOL    HW112309   0.489   6.341   6.201 -0.2265  1.2998  0.3922
 3918SOL    HW212310   0.408   6.468   6.196 -1.2417  0.6428 -0.2951
 3919SOL     OW12311   5.569   5.955   3.207  0.1025 -0.2542 -0.0385
 3919SOL    HW112312   5.634   5.888   3.186  0.5639  0.4146 -0.8565
 3919SOL    HW212313   5.621   6.029   3.239 -0.0007  1.0480 -2.6366
 3920SOL     OW12314   4.000   0.145   3.231  0.1547  0.1181  0.1533
 3920SOL    HW112315   3.935   0.163   3.299  1.4738  1.1002  1.2241
 3920SOL    HW212316   4.083   0.138   3.279  0.9192 -0.5885 -1.2142
 3921SOL     OW12317   7.685   1.793   2.068  0.4648  0.2548  0.0258
 3921SOL    HW112318   7.716   1.826   2.153  1.7349  1.7050 -0.9548
 3921SOL    HW212319   7.764   1.768   2.021 -0.2461 -0.7395 -0.6818
 3922SOL     OW12320   4.447   5.801   0.905 -0.2999  0.1309  0.1477
 3922SOL    HW112321   4.436   5.895   0.892  0.7167  0.6797  2.5859
 3922SOL    HW212322   4.389   5.780   0.979  0.3881 -0.9000  0.4224
 3923SOL     OW12323   2.415   2.977   3.788 -0.3724  0.5426  0.2476
 3923SOL    HW112324   2.476   3.012   3.722  0.3034 -1.2014 -0.1114
 3923SOL    HW212325   2.420   3.039   3.861  3.5734 -0.5994  1.1639
 3924SOL     OW12326   1.504   6.242   5.042  0.3379 -0.3841 -0.6083
 3924SOL    HW112327   1.449   6.167   5.021 -0.7662  0.7722 -2.1473
 3924SOL    HW212328   1.578   6.206   5.091 -1.4269 -2.1026  0.9444
 3925SOL     OW12329   7.590   1.524   5.269 -0.2831  0.5098  0.2442
 3925SOL    HW112330   7.648   1.598   5.287  0.7805 -0.9610  3.6299
 3925SOL    HW212331   7.567   1.534   5.177  2.2773  3.2833 -0.2610
 3926SOL     OW12332   4.922   3.864   7.004 -0.0787 -1.0818 -0.2197
 3926SOL    HW112333   4.923   3.950   7.045  0.5566 -1.6083  0.9267
 3926SOL    HW212334   4.839   3.860   6.958  0.4907  0.6799 -1.4878
 3927SOL     OW12335   1.749   4.569   7.204  0.7151  0.4235  0.3604
 3927SOL    HW112336   1.677   4.564   7.267 -1.5470 -2.6521 -2.1064
 3927SOL    HW212337   1.710   4.610   7.127  1.3883 -1.5320 -1.1261
 3928SOL     OW12338   2.397   2.167   4.781  0.0969  0.0218 -0.2166
 3928SOL    HW112339   2.370   2.085   4.739 -3.0144  0.0888  1.3714
 3928SOL    HW212340   2.489   2.153   4.803  0.6069 -1.6998 -2.9491
 3929SOL     OW12341   0.964   5.987   2.733  0.2574  0.0579 -0.2766
 3929SOL    HW112342   0.969   5.950   2.822 -0.1523 -1.3620 -0.8100
 3929SOL    HW212343   0.884   6.039   2.733 -1.3996 -2.3387 -0.6213
 3930SOL     OW12344   4.283   7.477   0.274 -0.0084  0.3744  0.0143
 3930SOL    HW112345   4.291   7.448   0.183  0.3869  1.8899 -0.4744
 3930SOL    HW212346   4.192   7.458   0.297  0.1912 -1.0558 -0.3077
 3931SOL     OW12347   5.303   2.263   4.005  0.2911 -0.0518 -0.6362
 3931SOL    HW112348   5.342   2.348   3.985 -0.6095  0.1355 -1.7200
 3931SOL    HW212349   5.209   2.277   3.992 -0.0802 -0.6819  1.1754
 3932SOL     OW12350   2.442   2.705   5.581  0.2155  0.2833 -0.3003
 3932SOL    HW112351   2.460   2.787   5.628  0.4220  0.5222 -0.7960
 3932SOL    HW212352   2.346   2.699   5.581  0.2055  0.4237 -0.0909
 3933SOL     OW12353   2.262   1.045   3.742 -0.3808 -0.1319 -0.1572
 3933SOL    HW112354   2.263   1.140   3.733  1.2882 -0.0896  0.1992
 3933SOL    HW212355   2.181   1.026   3.790 -0.2385  1.1985  0.6615
 3934SOL     OW12356   7.304   1.294   0.521  0.0774 -0.3839  0.0722
 3934SOL    HW112357   7.256   1.240   0.459 -0.4563 -1.4464  1.3672
 3934SOL    HW212358   7.392   1.256   0.523  0.0085 -0.5394  0.1807
 3935SOL     OW12359   4.165   0.431   5.082  0.3219  0.2144  0.5569
 3935SOL    HW112360   4.144   0.471   4.998  0.6181 -0.4101  0.1750
 3935SOL    HW212361   4.206   0.501   5.133  2.0548  0.0838 -0.5728
 3936SOL     OW12362   0.149   0.953   6.346  0.5341  0.0984  0.1125
 3936SOL    HW112363   0.078   1.009   6.376 -1.5120 -1.1682 -2.0771
 3936SOL    HW212364   0.164   0.892   6.419 -0.9788  0.0543  0.4134
 3937SOL     OW12365   3.834   3.080   2.975  0.2577  0.0162  0.0973
 3937SOL    HW112366   3.807   3.108   2.887  1.1094 -0.8637 -0.4646
 3937SOL    HW212367   3.915   3.129   2.992  0.7591 -0.7113 -0.1326
 3938SOL     OW12368   4.309   4.108   3.932  0.4367 -0.4594 -0.0232
 3938SOL    HW112369   4.354   4.109   4.016  1.0723 -0.6000 -0.3594
 3938SOL    HW212370   4.282   4.199   3.918  0.5990 -0.3796  0.1865
 3939SOL     OW12371   5.876   7.614   2.294 -0.0623  0.0664 -0.0557
 3939SOL    HW112372   5.891   7.536   2.242 -0.6957 -0.4856  0.5590
 3939SOL    HW212373   5.949   7.617   2.356  0.5610  0.5919 -0.7921
 3940SOL     OW12374   3.932   1.601   1.346 -0.1657 -0.1961  0.1689
 3940SOL    HW112375   3.964   1.630   1.431 -0.4559 -2.5860  1.1690
 3940SOL    HW212376   3.842   1.573   1.362 -1.1822  1.8114 -1.5526
 3941SOL     OW12377   2.751   0.119   6.367  0.7880 -0.2113  0.4894
 3941SOL    HW112378   2.740   0.026   6.346 -1.2102  0.0915  0.0218
 3941SOL    HW212379   2.672   0.143   6.414  0.0251  1.8346 -1.6099
 3942SOL     OW12380   5.160   0.044   6.778 -0.1410 -0.3325 -0.3155
 3942SOL    HW112381   5.250   0.045   6.744 -0.9891  0.9673 -2.7950
 3942SOL    HW212382   5.121  -0.035   6.739  0.3901 -2.0576  2.3960
 3943SOL     OW12383   3.769   0.811   2.615  0.3243  1.2702  0.1625
 3943SOL    HW112384   3.712   0.888   2.613 -1.2922  0.1621  1.0840
 3943SOL    HW212385   3.773   0.787   2.708  1.0998  0.4333 -0.0746
 3944SOL     OW12386   4.698   2.221   6.581 -0.4653 -0.0851  0.0712
 3944SOL    HW112387   4.729   2.309   6.601  0.4147  0.1019 -1.8921
 3944SOL    HW212388   4.766   2.164   6.618 -0.1109  0.1529 -0.1954
 3945SOL     OW12389   1.675   2.711   0.995  0.3836 -0.0817  0.1935
 3945SOL    HW112390   1.746   2.648   0.983 -0.2386 -0.5975 -0.9901
 3945SOL    HW212391   1.601   2.673   0.947 -0.5790  0.6324  1.0606
 3946SOL     OW12392   0.173   0.086   7.443 -0.6294  0.6510 -0.4508
 3946SOL    HW112393   0.247   0.120   7.394  0.2312  0.9177  0.9674
 3946SOL    HW212394   0.154   0.001   7.403  0.3123  0.6670 -0.9556
 3947SOL     OW12395   3.418   3.724   3.676  0.1326  0.1237 -0.0469
 3947SOL    HW112396   3.324   3.705   3.670  0.4683 -1.1565 -1.6784
 3947SOL    HW212397   3.436   3.778   3.600  1.3657 -2.6637 -1.8725
 3948SOL     OW12398   6.226   0.518   3.511 -0.0441 -0.7045 -0.2107
 3948SOL    HW112399   6.196   0.550   3.426  0.4832 -1.2767 -0.6213
 3948SOL    HW212400   6.302   0.464   3.491 -0.1371 -1.1522  0.5886
 3949SOL     OW12401   4.714   3.032   4.213  0.1154 -0.7559  0.5376
 3949SOL    HW112402   4.770   3.065   4.283 -0.1005 -1.4096  1.0214
 3949SOL    HW212403   4.771   2.976   4.160  0.1322 -0.7240  0.5215
 3950SOL     OW12404   4.318   4.823   2.061  0.5327 -0.4856  0.3689
 3950SOL    HW112405   4.292   4.736   2.092 -2.5016 -1.2360 -3.5540
 3950SOL    HW212406   4.405   4.810   2.022 -0.3220 -2.1129 -1.1218
 3951SOL     OW12407   0.884   6.365   2.576 -0.6111 -0.1591 -0.5107
 3951SOL    HW112408   0.890   6.349   2.670  0.2911 -0.1087 -0.5492
 3951SOL    HW212409   0.906   6.458   2.566 -0.2171 -0.2817 -0.8141
 3952SOL     OW12410   3.412   3.376   4.394  0.8716  0.2446  0.0759
 3952SOL    HW112411   3.451   3.369   4.307  0.8252  0.6047  0.0247
 3952SOL    HW212412   3.328   3.420   4.380  0.4968 -0.4047  0.2005
 3953SOL     OW12413   0.647   2.361   3.910 -0.8464  0.3262  0.2663
 3953SOL    HW112414   0.635   2.294   3.978 -0.1036 -0.2232 -0.1191
 3953SOL    HW212415   0.579   2.425   3.927 -1.5385 -0.4938  0.6951
 3954SOL     OW12416   7.705   1.573   4.005  0.1698 -0.5978  0.3448
 3954SOL    HW112417   7.784   1.623   3.984 -1.3737  2.3266  1.0036
 3954SOL    HW212418   7.685   1.597   4.096  0.2356 -3.8394  1.3420
 3955SOL     OW12419   7.521   2.638   4.630 -0.0689 -0.3321  0.4879
 3955SOL    HW112420   7.578   2.657   4.705 -1.0957  1.4935  0.8643
 3955SOL    HW212421   7.539   2.708   4.567 -0.8417 -0.5591 -0.0066
 3956SOL     OW12422   5.417   1.855   2.782 -0.1265 -0.1789 -0.2041
 3956SOL    HW112423   5.487   1.822   2.838 -2.0293 -0.0667  2.4600
 3956SOL    HW212424   5.400   1.944   2.814 -1.4740 -0.2072 -0.7517
 3957SOL     OW12425   6.184   2.102   7.293 -0.0982 -0.0221 -0.3079
 3957SOL    HW112426   6.097   2.127   7.261 -0.7176 -0.0494  1.2449
 3957SOL    HW212427   6.193   2.010   7.270 -1.3247 -0.5595  1.1911
 3958SOL     OW12428   2.486   0.618   4.250 -0.0159 -0.5015  0.1864
 3958SOL    HW112429   2.446   0.702   4.225 -0.7492 -1.5608 -2.6920
 3958SOL    HW212430   2.569   0.641   4.290 -0.5467  1.6027  0.1906
 3959SOL     OW12431   6.192   5.459   0.866 -0.4848  0.4379  0.3682
 3959SOL    HW112432   6.153   5.400   0.802 -1.8429  2.4614 -0.7694
 3959SOL    HW212433   6.261   5.505   0.817 -0.2717  0.6830  0.8881
 3960SOL     OW12434   7.430   0.187   6.920  0.0358  0.0807  0.1518
 3960SOL    HW112435   7.363   0.153   6.978  0.3148  0.7131  0.8543
 3960SOL    HW212436   7.507   0.198   6.975  0.2834  0.7537 -0.3120
 3961SOL     OW12437   7.233   6.805   6.093 -0.0482 -0.8164  0.2119
 3961SOL    HW112438   7.241   6.716   6.127 -0.3084 -1.4903 -1.4404
 3961SOL    HW212439   7.176   6.849   6.157  1.2179 -1.3818  1.8031
 3962SOL     OW12440   5.734   4.321   5.611 -0.1815 -0.1306 -0.1169
 3962SOL    HW112441   5.818   4.275   5.618  0.6226  1.0828 -1.3528
 3962SOL    HW212442   5.737   4.386   5.682  0.0523  0.0882 -0.3231
 3963SOL     OW12443   5.696   3.153   6.531 -0.1634  0.0027  0.5414
 3963SOL    HW112444   5.727   3.237   6.498 -2.3356  0.2311 -1.1853
 3963SOL    HW212445   5.747   3.088   6.484  0.0338  0.3642  0.2478
 3964SOL     OW12446   7.727   1.504   7.020 -0.5512 -0.7723  0.2472
 3964SOL    HW112447   7.777   1.483   6.941 -0.8830 -0.2278 -0.1193
 3964SOL    HW212448   7.777   1.465   7.091  1.2560  1.0400  0.0713
 3965SOL     OW12449   3.113   1.874   4.154  0.0645  0.1272 -0.6068
 3965SOL    HW112450   3.057   1.875   4.232  0.5519  0.2721 -0.2522
 3965SOL    HW212451   3.154   1.960   4.153  1.4487 -0.4909  0.0081
 3966SOL     OW12452   7.304   1.011   1.921  0.2836  0.1602 -0.3552
 3966SOL    HW112453   7.294   1.081   1.985  0.6311  0.4414 -0.5999
 3966SOL    HW212454   7.397   1.016   1.895 -0.3350  1.6316 -2.6583
 3967SOL     OW12455   6.182   3.064   5.857  0.1845  0.3491 -0.3132
 3967SOL    HW112456   6.276   3.070   5.875  0.0022 -1.1399  1.4410
 3967SOL    HW212457   6.168   3.123   5.783  2.3366  1.2933 -0.0481
 3968SOL     OW12458   6.695   3.392   5.347  0.8994 -0.4481 -0.0709
 3968SOL    HW112459   6.740   3.381   5.263 -1.7869  2.2818 -2.0898
 3968SOL    HW212460   6.609   3.351   5.333  0.0639  0.8850  0.9712
 3969SOL     OW12461   0.049   7.736   2.698 -0.7571 -0.2493 -0.0915
 3969SOL    HW112462  -0.033   7.690   2.682 -1.2107  0.3456  0.4960
 3969SOL    HW212463   0.024   7.815   2.745  0.1376  0.0183 -0.0451
 3970SOL     OW12464   0.937   3.019   1.562  0.3785 -0.2521 -0.7610
 3970SOL    HW112465   0.933   3.114   1.557 -0.9791 -0.2615 -0.1356
 3970SOL    HW212466   0.964   3.001   1.652 -0.7746 -0.4682 -0.4476
 3971SOL     OW12467   3.897   2.525   6.367  0.4255 -0.4481 -0.1514
 3971SOL    HW112468   3.879   2.489   6.280  0.0412 -0.5715 -0.0275
 3971SOL    HW212469   3.898   2.620   6.354 -4.7666  0.0231  0.4719
 3972SOL     OW12470   4.440   3.798   1.067  0.4686  0.2042 -0.1995
 3972SOL    HW112471   4.391   3.730   1.113  1.0709  0.7934  1.3937
 3972SOL    HW212472   4.523   3.757   1.043  0.7536  0.3006  0.5892
 3973SOL     OW12473   6.707   5.448   7.465 -0.5339 -0.4696 -0.1602
 3973SOL    HW112474   6.730   5.508   7.536 -0.2083 -0.3425 -0.3697
 3973SOL    HW212475   6.620   5.477   7.437 -0.1458  0.2782 -0.6388
 3974SOL     OW12476   4.039   0.808   4.689  0.0715 -0.0293 -0.5772
 3974SOL    HW112477   4.089   0.889   4.680 -0.9884  0.6121 -0.9532
 3974SOL    HW212478   4.083   0.745   4.631  1.7242 -0.1594  0.7666
 3975SOL     OW12479   3.207   6.401   7.499 -0.1343  0.6915  0.4020
 3975SOL    HW112480   3.271   6.446   7.443 -0.8554 -0.0054 -1.0264
 3975SOL    HW212481   3.122   6.427   7.464 -0.6113  0.3587  1.2858
 3976SOL     OW12482   1.062   0.634   7.048 -0.6834 -0.3598 -0.1186
 3976SOL    HW112483   0.974   0.634   7.011  0.1403  0.0838 -2.2387
 3976SOL    HW212484   1.086   0.726   7.055 -0.5295 -0.4631  0.8498
 3977SOL     OW12485   4.750   6.083   0.689 -0.3440  0.0717  0.2391
 3977SOL    HW112486   4.773   6.170   0.655 -1.0527  0.1894  0.0356
 3977SOL    HW212487   4.777   6.085   0.781 -1.7478  1.0851  0.6758
 3978SOL     OW12488   4.624   3.881   7.664 -0.3388  0.3933  0.3100
 3978SOL    HW112489   4.566   3.829   7.608 -1.3650  1.2152  0.5782
 3978SOL    HW212490   4.705   3.830   7.669 -0.6134 -0.2136 -1.0336
 3979SOL     OW12491   0.746   0.482   5.923 -0.1139 -0.2973 -0.1416
 3979SOL    HW112492   0.677   0.535   5.964 -1.3279  0.0168 -2.4623
 3979SOL    HW212493   0.770   0.419   5.991 -1.8295  0.3487  1.1485
 3980SOL     OW12494   7.220   7.706   1.820 -0.6005  0.2817  0.6223
 3980SOL    HW112495   7.271   7.780   1.853 -0.0430  0.2839 -0.2096
 3980SOL    HW212496   7.132   7.720   1.854 -0.6590  1.6827 -0.0553
 3981SOL     OW12497   3.664   7.081   6.605 -0.3161  0.5451  0.2485
 3981SOL    HW112498   3.662   7.022   6.680 -1.8259 -0.7567 -0.7454
 3981SOL    HW212499   3.746   7.061   6.560  0.5925  1.3325  1.5044
 3982SOL     OW12500   6.847   1.741   0.594  1.0718 -0.2485 -0.5232
 3982SOL    HW112501   6.801   1.702   0.668  2.2623 -1.3687 -0.3318
 3982SOL    HW212502   6.894   1.815   0.631 -0.8646  1.2210 -0.8101
 3983SOL     OW12503   4.658   2.606   1.976 -0.1494  0.5335 -0.5923
 3983SOL    HW112504   4.629   2.533   1.922 -1.2695 -0.3005  1.0704
 3983SOL    HW212505   4.584   2.667   1.977 -0.2511  0.4026  0.2372
 3984SOL     OW12506   3.428   1.773   1.985 -0.0753 -0.1959 -0.0052
 3984SOL    HW112507   3.460   1.688   2.015  1.6176  0.1855 -0.6009
 3984SOL    HW212508   3.500   1.808   1.933 -1.0960  1.2188 -0.5139
 3985SOL     OW12509   6.849   1.232   7.536 -0.3194 -0.0899  0.0244
 3985SOL    HW112510   6.943   1.234   7.523 -0.2787 -2.0091 -0.2189
 3985SOL    HW212511   6.816   1.173   7.468 -1.4425 -1.1011  1.3798
 3986SOL     OW12512   1.162   1.223   2.107 -0.0953 -0.0094  0.1985
 3986SOL    HW112513   1.117   1.266   2.034  1.1126  3.4736  1.3380
 3986SOL    HW212514   1.241   1.186   2.069  0.0311  0.9099 -0.4567
 3987SOL     OW12515   3.223   3.816   4.225 -0.1531 -0.2051 -0.6663
 3987SOL    HW112516   3.220   3.833   4.319 -2.4554  1.5636 -0.9473
 3987SOL    HW212517   3.293   3.753   4.213  0.1658 -0.5065  2.2365
 3988SOL     OW12518   6.503   3.112   7.435  0.2647  0.5219  0.4260
 3988SOL    HW112519   6.586   3.122   7.481  0.7340 -2.1638  0.3508
 3988SOL    HW212520   6.513   3.030   7.385 -2.0137  0.7117 -0.4881
 3989SOL     OW12521   1.207   6.666   1.675 -0.0957  0.1033 -0.2116
 3989SOL    HW112522   1.295   6.641   1.705 -0.1262  1.0542  0.7378
 3989SOL    HW212523   1.148   6.609   1.725 -0.0391 -0.4289 -0.7364
 3990SOL     OW12524   1.563   5.377   5.588  0.3190 -0.2229 -0.1277
 3990SOL    HW112525   1.584   5.471   5.587  2.7367 -0.6803 -0.2283
 3990SOL    HW212526   1.543   5.356   5.497 -1.5228  0.3902  0.0900
 3991SOL     OW12527   1.342   0.527   4.502 -0.2259 -0.0526 -0.4691
 3991SOL    HW112528   1.276   0.594   4.484  0.3207  0.7746  0.5040
 3991SOL    HW212529   1.315   0.489   4.585  0.7387  0.5844  0.1516
 3992SOL     OW12530   4.708   2.811   5.524 -0.0551 -0.0120  0.0423
 3992SOL    HW112531   4.751   2.878   5.471  0.5486 -0.2274  0.2475
 3992SOL    HW212532   4.631   2.854   5.560  0.3105  0.5639  0.1466
 3993SOL     OW12533   3.049   2.057   2.801  0.0786 -0.2921  0.5685
 3993SOL    HW112534   3.130   2.005   2.800  1.2027  1.3699 -0.7329
 3993SOL    HW212535   3.004   2.033   2.720 -0.3679 -0.6573  0.9220
 3994SOL     OW12536   5.248   4.733   2.115  0.2258  0.0596 -0.5078
 3994SOL    HW112537   5.258   4.818   2.159  2.1529  0.1727 -1.0396
 3994SOL    HW212538   5.317   4.678   2.154 -0.3478 -0.9472 -0.8756
 3995SOL     OW12539   0.989   5.850   7.230  0.2856 -0.4234 -0.3722
 3995SOL    HW112540   0.963   5.775   7.178  2.7859 -0.9112 -1.0555
 3995SOL    HW212541   0.989   5.818   7.320  3.7048 -2.1671 -0.8243
 3996SOL     OW12542   4.251   1.761   3.018  0.4392  0.4061 -0.2628
 3996SOL    HW112543   4.205   1.688   3.058  3.4987 -1.1058  0.8313
 3996SOL    HW212544   4.264   1.734   2.927 -1.5008  1.2649 -0.8453
 3997SOL     OW12545   0.921   3.943   4.657  0.3795  0.1023  0.3751
 3997SOL    HW112546   0.862   3.932   4.583 -0.3889  1.8328  0.6834
 3997SOL    HW212547   0.908   4.034   4.685  0.5528 -0.5377  2.7233
 3998SOL     OW12548   3.571   6.761   4.996  0.2566  0.1862  0.3509
 3998SOL    HW112549   3.528   6.700   5.055  0.7753  0.1536  0.7037
 3998SOL    HW212550   3.523   6.753   4.914 -2.3088  2.2958  1.5054
 3999SOL     OW12551   0.788   2.625   0.737 -0.3312  0.1098  0.0423
 3999SOL    HW112552   0.771   2.574   0.816  0.3110  0.0885  0.1740
 3999SOL    HW212553   0.860   2.683   0.761  0.1424 -0.1772 -0.6384
 4000SOL     OW12554   4.883   0.949   4.900 -0.0055 -0.0382  0.1689
 4000SOL    HW112555   4.795   0.986   4.899 -0.7790 -1.7837  0.0954
 4000SOL    HW212556   4.888   0.900   4.982  0.4343 -0.9404 -0.3709
 4001SOL     OW12557   7.233   3.345   4.310  0.6479 -0.2803  0.0236
 4001SOL    HW112558   7.266   3.270   4.359 -0.6315 -0.4270  0.7197
 4001SOL    HW212559   7.141   3.351   4.336  0.4656  0.8913 -0.8281
 4002SOL     OW12560   0.094   7.455   6.151  0.0612  0.0462 -0.3077
 4002SOL    HW112561   0.011   7.491   6.121 -0.3689 -0.2690  0.4979
 4002SOL    HW212562   0.112   7.384   6.089  0.0076  0.4655 -0.8085
 4003SOL     OW12563   4.929   3.411   5.288 -0.2631 -0.5477  0.2296
 4003SOL    HW112564   4.931   3.430   5.381  0.6959 -1.5457  0.4333
 4003SOL    HW212565   5.001   3.349   5.274  0.5087  0.6223 -1.4042
 4004SOL     OW12566   1.974   1.993   0.948 -0.2826  0.1558 -0.3582
 4004SOL    HW112567   2.025   1.914   0.933 -1.2740 -0.6523  0.4008
 4004SOL    HW212568   1.895   1.981   0.895  0.0788  1.1971 -1.1866
 4005SOL     OW12569   4.579   2.782   4.226 -0.9329  0.5978 -0.1218
 4005SOL    HW112570   4.614   2.733   4.152 -0.7145 -1.0143  1.0000
 4005SOL    HW212571   4.601   2.873   4.207  2.5089 -0.1262 -0.2762
 4006SOL     OW12572   5.243   1.525   1.267 -0.8101 -0.1187 -0.0542
 4006SOL    HW112573   5.188   1.491   1.197 -1.2876  0.3936  0.0681
 4006SOL    HW212574   5.329   1.535   1.227 -1.3049  1.1364 -0.8754
 4007SOL     OW12575   5.847   0.381   1.619 -0.2647  0.4761  0.3889
 4007SOL    HW112576   5.821   0.354   1.707 -2.0569  0.8967  0.0300
 4007SOL    HW212577   5.785   0.336   1.561  1.0379  0.0076 -0.6976
 4008SOL     OW12578   0.214   1.371   1.335  0.1514  0.5447 -0.4378
 4008SOL    HW112579   0.296   1.383   1.381 -0.1165  2.4092 -0.3325
 4008SOL    HW212580   0.233   1.306   1.267  2.3559  2.4685 -1.8210
 4009SOL     OW12581   2.779   7.630   1.593  0.2083 -0.0348  0.1374
 4009SOL    HW112582   2.802   7.545   1.557  1.2791  1.3068 -2.5728
 4009SOL    HW212583   2.861   7.680   1.593 -0.5740  1.3294  0.7676
 4010SOL     OW12584   1.503   4.467   7.617  0.1876  0.6891 -0.0914
 4010SOL    HW112585   1.532   4.557   7.633  1.8796  0.1901 -0.0990
 4010SOL    HW212586   1.505   4.425   7.704 -0.0998  0.5317 -0.1604
 4011SOL     OW12587   2.982   7.663   2.696  0.3856  0.9113  0.6877
 4011SOL    HW112588   2.971   7.570   2.676  3.7355  0.0026  2.2115
 4011SOL    HW212589   2.957   7.709   2.616 -1.2300 -1.2826 -0.1566
 4012SOL     OW12590   7.258   2.093   3.295 -0.4686  0.2294  0.1247
 4012SOL    HW112591   7.190   2.089   3.227 -0.3717 -0.5900  0.0693
 4012SOL    HW212592   7.315   2.019   3.276 -0.7147 -0.3135  1.3905
 4013SOL     OW12593   3.549   6.717   2.316  0.7243 -0.6597  0.6055
 4013SOL    HW112594   3.471   6.666   2.340  0.5964 -0.6079  0.2992
 4013SOL    HW212595   3.517   6.808   2.314  0.2056 -0.8422 -1.8615
 4014SOL     OW12596   2.257   7.364   5.518 -0.6720  0.3833 -0.1685
 4014SOL    HW112597   2.202   7.413   5.579 -2.1674  1.5163 -2.2895
 4014SOL    HW212598   2.201   7.293   5.486  0.3760 -0.7231  0.3690
 4015SOL     OW12599   1.942   7.309   2.683  0.2871  0.5864 -0.0693
 4015SOL    HW112600   1.918   7.377   2.620  0.7659  0.5009 -0.3594
 4015SOL    HW212601   1.880   7.239   2.667 -0.8710  1.3505  0.9459
 4016SOL     OW12602   4.257   0.117   3.926  0.3561 -0.2436 -0.6925
 4016SOL    HW112603   4.326   0.106   3.992 -0.9160  1.2685  0.9856
 4016SOL    HW212604   4.176   0.093   3.971 -0.4020 -0.6695 -2.2004
 4017SOL     OW12605   1.842   2.627   3.105 -0.0497  0.2697  0.0469
 4017SOL    HW112606   1.753   2.660   3.099 -0.0282  0.1306 -2.3541
 4017SOL    HW212607   1.858   2.615   3.198 -1.7259  2.4450  0.6950
 4018SOL     OW12608   2.305   0.101   1.341 -0.4560 -0.2241 -0.0792
 4018SOL    HW112609   2.349   0.046   1.406  1.0994  0.1695 -0.7406
 4018SOL    HW212610   2.284   0.182   1.388  2.7073  0.9896 -0.5002
 4019SOL     OW12611   4.041   5.225   2.257  0.6423  0.2939 -0.3154
 4019SOL    HW112612   4.084   5.140   2.255 -0.6618 -0.3853 -0.1167
 4019SOL    HW212613   3.956   5.209   2.298  1.5038  2.2062  2.5139
 4020SOL     OW12614   0.772   1.227   2.646 -0.0477 -0.0956 -0.3351
 4020SOL    HW112615   0.860   1.221   2.683 -0.5803  0.4082  1.1157
 4020SOL    HW212616   0.751   1.137   2.620 -0.0794 -0.7870  1.8048
 4021SOL     OW12617   6.115   3.756   4.455  0.0860 -0.2647  0.1001
 4021SOL    HW112618   6.133   3.819   4.525 -3.4258  2.7990 -1.4360
 4021SOL    HW212619   6.045   3.701   4.489  1.4252 -1.8507  0.4798
 4022SOL     OW12620   0.394   5.085   4.274  0.0923 -0.4717 -0.3658
 4022SOL    HW112621   0.449   5.163   4.282  1.3119 -1.3323 -0.1663
 4022SOL    HW212622   0.397   5.044   4.360 -1.4591 -0.1727 -0.1387
 4023SOL     OW12623   7.567   2.239   1.610  0.1236 -0.1964 -0.6283
 4023SOL    HW112624   7.524   2.295   1.674 -0.2520 -0.7687 -0.3705
 4023SOL    HW212625   7.501   2.174   1.586  0.1933  0.1250 -1.7583
 4024SOL     OW12626   3.995   2.718   4.882 -0.3425  0.3922 -0.2881
 4024SOL    HW112627   3.909   2.734   4.921 -1.6618  0.2366 -2.9236
 4024SOL    HW212628   4.005   2.788   4.817  2.1778  1.2079  0.8606
 4025SOL     OW12629   1.474   2.930   5.863  0.4449 -0.4095 -0.5659
 4025SOL    HW112630   1.380   2.944   5.853  0.3796  0.4643  1.0613
 4025SOL    HW212631   1.497   2.977   5.942  2.2417 -0.7490 -0.8560
 4026SOL     OW12632   3.198   7.223   5.617  0.1228  0.0018 -0.5095
 4026SOL    HW112633   3.133   7.168   5.574  0.5668 -1.9050  1.0619
 4026SOL    HW212634   3.160   7.244   5.702  1.1169 -0.3536  0.0536
 4027SOL     OW12635   1.784   0.240   5.920 -0.2094  0.1701  0.2136
 4027SOL    HW112636   1.808   0.210   5.833  0.9710 -0.8883  0.8676
 4027SOL    HW212637   1.697   0.205   5.935 -0.5006  0.5306 -0.6066
 4028SOL     OW12638   1.807   1.646   0.061  0.5597 -0.0011 -0.1356
 4028SOL    HW112639   1.803   1.640   0.156 -1.2167  0.6359 -0.1233
 4028SOL    HW212640   1.783   1.737   0.042  1.2369 -0.0221 -1.1808
 4029SOL     OW12641   4.014   0.242   0.942  0.1172  0.3553  0.3361
 4029SOL    HW112642   4.074   0.293   0.996  0.4867  0.7274 -0.4044
 4029SOL    HW212643   4.057   0.157   0.933  2.3690  1.6016 -2.9897
 4030SOL     OW12644   2.501   4.795   7.506 -0.2431  0.0891  0.0379
 4030SOL    HW112645   2.417   4.751   7.499  0.2066 -0.7375 -0.4319
 4030SOL    HW212646   2.525   4.815   7.415  0.6293 -0.8159  0.0486
 4031SOL     OW12647   3.721   1.811   0.412 -0.3817  0.1637  0.2400
 4031SOL    HW112648   3.798   1.867   0.401  0.5296 -1.1254 -0.1489
 4031SOL    HW212649   3.739   1.759   0.490 -0.6699 -0.4358 -0.0823
 4032SOL     OW12650   1.195   4.513   2.632 -0.0514 -0.5869  0.3376
 4032SOL    HW112651   1.268   4.466   2.673 -0.6081 -2.3254 -0.5623
 4032SOL    HW212652   1.160   4.451   2.568  0.5619  1.8379 -2.5904
 4033SOL     OW12653   2.493   4.165   1.860  0.6351 -0.7523 -0.3016
 4033SOL    HW112654   2.541   4.172   1.942  0.3958 -0.9731 -0.1393
 4033SOL    HW212655   2.438   4.244   1.859  0.3409 -0.9522 -0.0534
 4034SOL     OW12656   4.617   0.438   6.307 -0.0228  0.0999 -0.4104
 4034SOL    HW112657   4.554   0.369   6.329  0.1700  0.2754  0.7529
 4034SOL    HW212658   4.691   0.422   6.366  0.6402  0.4458 -1.1271
 4035SOL     OW12659   0.900   5.329   0.247  0.4061  0.1795 -0.0413
 4035SOL    HW112660   0.816   5.369   0.223  0.1412  0.0470  0.6451
 4035SOL    HW212661   0.920   5.365   0.334  0.2215 -1.0705  0.5393
 4036SOL     OW12662   3.960   0.484   1.254 -0.0226 -0.4734  0.1271
 4036SOL    HW112663   3.948   0.439   1.338 -0.7420 -0.4883  0.0184
 4036SOL    HW212664   3.872   0.490   1.217  0.3310 -0.7519 -0.7775
 4037SOL     OW12665   6.270   1.299   2.629 -0.0084  0.3025 -0.6353
 4037SOL    HW112666   6.288   1.207   2.649  1.4576  0.1303 -2.3985
 4037SOL    HW212667   6.213   1.296   2.552  1.1969  0.8317 -1.5750
 4038SOL     OW12668   6.887   4.532   3.984  1.0976 -0.4183  0.1481
 4038SOL    HW112669   6.811   4.484   4.015  0.5784  0.3046  0.0157
 4038SOL    HW212670   6.921   4.576   4.062  1.0165 -0.2494  0.0884
 4039SOL     OW12671   6.177   5.347   0.588 -0.6226  0.1715  0.4549
 4039SOL    HW112672   6.125   5.283   0.540 -0.1497 -0.3006  0.5656
 4039SOL    HW212673   6.196   5.415   0.523 -0.2809 -0.2949  0.0593
 4040SOL     OW12674   6.439   6.672   4.349  0.3801 -0.7728 -0.4929
 4040SOL    HW112675   6.454   6.716   4.432  1.1102 -1.4848 -0.2309
 4040SOL    HW212676   6.520   6.622   4.333  0.8996  0.5705 -2.4021
 4041SOL     OW12677   5.925   5.314   2.266  0.4854  0.6779  0.4640
 4041SOL    HW112678   5.900   5.388   2.321  0.2312  1.3713 -0.5477
 4041SOL    HW212679   6.018   5.301   2.284 -0.0709 -0.5758  2.7078
 4042SOL     OW12680   5.379   0.916   6.760  0.3619  0.0096 -0.1663
 4042SOL    HW112681   5.297   0.909   6.711 -0.1215 -0.8055  0.7315
 4042SOL    HW212682   5.441   0.862   6.711 -0.2731 -1.2838  0.4148
 4043SOL     OW12683   4.802   7.071   2.723  0.2682 -0.2887 -0.2363
 4043SOL    HW112684   4.887   7.115   2.723  0.4824 -0.6507 -1.7674
 4043SOL    HW212685   4.816   6.993   2.777  0.9841 -0.4799 -0.6878
 4044SOL     OW12686   6.790   6.189   7.215  0.3905  0.2433  0.1151
 4044SOL    HW112687   6.814   6.119   7.154 -0.7374 -0.7937  0.8241
 4044SOL    HW212688   6.721   6.238   7.169 -0.4845 -0.5591  0.5596
 4045SOL     OW12689   1.977   5.327   4.321  0.3997 -0.2085  0.1869
 4045SOL    HW112690   2.026   5.311   4.401 -0.2394 -1.9113  0.2650
 4045SOL    HW212691   2.040   5.371   4.263  1.8502 -1.7513  0.5137
 4046SOL     OW12692   0.145   2.857   7.439  0.1948 -0.1491  0.5079
 4046SOL    HW112693   0.217   2.883   7.497 -0.9331  0.4190  1.6822
 4046SOL    HW212694   0.066   2.876   7.488 -0.9384  2.6514 -2.0966
 4047SOL     OW12695   2.580   2.706   7.074 -0.2224  0.1477  0.0803
 4047SOL    HW112696   2.536   2.663   7.000  0.6309 -3.3989  1.4154
 4047SOL    HW212697   2.659   2.743   7.036 -0.7736  0.1700 -1.1139
 4048SOL     OW12698   0.976   6.275   2.146  0.2498 -0.4518  0.2990
 4048SOL    HW112699   0.973   6.216   2.222 -1.5078 -0.5168  0.2188
 4048SOL    HW212700   1.018   6.224   2.078  2.8411 -0.0377  1.4802
 4049SOL     OW12701   5.786   6.882   1.735  0.6731 -0.2480 -0.1669
 4049SOL    HW112702   5.773   6.834   1.653 -3.6342  1.5276 -0.7856
 4049SOL    HW212703   5.800   6.813   1.801  1.8663 -1.8450 -1.9798
 4050SOL     OW12704   5.755   1.292   4.973  0.5477  0.0089  0.1611
 4050SOL    HW112705   5.662   1.275   4.988  0.3442 -0.4658 -1.4067
 4050SOL    HW212706   5.756   1.378   4.931  1.0343  1.0342  2.1591
 4051SOL     OW12707   5.444   3.757   5.958  0.0248  0.0396 -0.2301
 4051SOL    HW112708   5.537   3.743   5.977 -0.1317 -2.6298 -1.0436
 4051SOL    HW212709   5.440   3.848   5.927  2.1174  0.6395  1.0382
 4052SOL     OW12710   0.318   7.240   4.876 -1.0020 -0.2934 -0.0100
 4052SOL    HW112711   0.242   7.193   4.843 -0.3110 -1.4593  0.0270
 4052SOL    HW212712   0.313   7.231   4.971 -0.8965 -0.2268  0.0026
 4053SOL     OW12713   5.650   1.158   4.701 -0.1661  0.5705 -0.0006
 4053SOL    HW112714   5.707   1.220   4.748  1.0901 -1.7965  1.8320
 4053SOL    HW212715   5.710   1.106   4.648 -0.8478 -0.6177  0.3581
 4054SOL     OW12716   6.497   7.743   0.293 -0.4425 -0.0779 -0.2385
 4054SOL    HW112717   6.479   7.682   0.222  1.1275 -0.7879 -0.0624
 4054SOL    HW212718   6.459   7.826   0.264 -0.4098 -0.5243 -1.6040
 4055SOL     OW12719   4.856   0.436   1.246  0.1885  0.0976  0.3649
 4055SOL    HW112720   4.946   0.469   1.244  0.7496 -1.3552 -0.9269
 4055SOL    HW212721   4.863   0.352   1.291 -0.2064 -0.7584 -1.0935
 4056SOL     OW12722   2.149   0.062   6.119  0.1350 -0.6126 -0.1545
 4056SOL    HW112723   2.069   0.069   6.171 -0.6869  1.1120 -1.5268
 4056SOL    HW212724   2.118   0.039   6.031  0.9696  1.3866 -1.0270
 4057SOL     OW12725   1.457   5.700   6.064 -0.2298 -0.4128 -0.6917
 4057SOL    HW112726   1.454   5.795   6.062 -0.8218 -0.3497  1.0379
 4057SOL    HW212727   1.550   5.678   6.069 -0.0938  0.0750 -1.0942
 4058SOL     OW12728   6.832   4.212   5.004 -0.1692 -0.0477  0.3003
 4058SOL    HW112729   6.812   4.135   5.057 -0.3156  1.4954  2.6183
 4058SOL    HW212730   6.855   4.280   5.067 -0.7158  2.0354 -1.6046
 4059SOL     OW12731   4.640   2.142   3.331 -0.2560  1.0307 -0.5257
 4059SOL    HW112732   4.553   2.134   3.292 -0.6817  0.1167  0.5533
 4059SOL    HW212733   4.692   2.074   3.287 -0.5482  0.4658 -0.0170
 4060SOL     OW12734   6.108   6.039   6.250 -0.2759  0.3083  0.2108
 4060SOL    HW112735   6.112   5.944   6.257  2.4910  0.3169 -0.0935
 4060SOL    HW212736   6.156   6.070   6.327 -0.4208  1.4329 -0.1332
 4061SOL     OW12737   5.648   0.073   6.096  0.5412 -0.4992  0.2285
 4061SOL    HW112738   5.612  -0.009   6.131 -2.9673  0.5012 -0.6047
 4061SOL    HW212739   5.660   0.129   6.173 -0.0445 -0.7788  0.5311
 4062SOL     OW12740   1.266   2.434   3.628 -0.0243  0.2299  0.1378
 4062SOL    HW112741   1.315   2.475   3.699  1.8722 -0.0132 -0.9877
 4062SOL    HW212742   1.328   2.428   3.556 -2.6147  3.1396 -2.6302
 4063SOL     OW12743   5.208   7.002   6.657  0.1781 -0.1579 -0.0642
 4063SOL    HW112744   5.132   7.060   6.652  0.0975 -0.3199 -0.7297
 4063SOL    HW212745   5.275   7.054   6.702 -0.6073 -0.3290  1.3657
 4064SOL     OW12746   2.990   6.396   5.587  0.2075  0.6108 -0.1145
 4064SOL    HW112747   2.941   6.452   5.527  0.1903  0.8912  0.1581
 4064SOL    HW212748   3.047   6.344   5.530 -1.9845 -1.3696 -0.6548
 4065SOL     OW12749   6.910   1.738   5.034  0.4179  0.2904  0.6188
 4065SOL    HW112750   6.876   1.648   5.037  0.9067  0.0516 -0.5639
 4065SOL    HW212751   6.968   1.739   4.958  0.1196  1.7169  0.3868
 4066SOL     OW12752   0.859   7.476   6.062 -0.0906 -0.0262 -0.0497
 4066SOL    HW112753   0.799   7.551   6.071  0.9537  0.8514 -0.1599
 4066SOL    HW212754   0.937   7.503   6.111  0.4887 -0.8459 -0.5138
 4067SOL     OW12755   6.287   6.264   6.675  0.2664  0.0860 -0.4382
 4067SOL    HW112756   6.257   6.333   6.733  1.6444  0.3697 -0.0348
 4067SOL    HW212757   6.305   6.190   6.733  1.6649  0.3766 -0.4522
 4068SOL     OW12758   6.073   0.689   2.283 -0.4458  0.3777  0.3562
 4068SOL    HW112759   6.083   0.616   2.344  0.0722  0.4415  0.3514
 4068SOL    HW212760   5.982   0.684   2.254 -0.7188  0.3942  1.1908
 4069SOL     OW12761   3.191   5.154   2.705 -0.5134 -0.5366  0.1207
 4069SOL    HW112762   3.156   5.162   2.794 -0.5877 -1.5000  0.1842
 4069SOL    HW212763   3.277   5.115   2.717  0.6549  1.7938 -0.0413
 4070SOL     OW12764   0.127   0.083   7.115 -0.0663  0.9418  0.5992
 4070SOL    HW112765   0.094   0.172   7.132 -3.1242  0.0661 -0.1173
 4070SOL    HW212766   0.107   0.068   7.023  0.3431 -0.5287  0.7366
 4071SOL     OW12767   7.538   7.463   1.877  0.2074 -0.3621  0.0418
 4071SOL    HW112768   7.602   7.526   1.843 -1.4426  0.8205 -1.0380
 4071SOL    HW212769   7.590   7.400   1.927  2.0651  1.1571  0.1261
 4072SOL     OW12770   3.576   7.411   4.966  0.5363 -0.3491 -0.0425
 4072SOL    HW112771   3.540   7.388   4.880  0.6203  0.6764 -0.3662
 4072SOL    HW212772   3.522   7.361   5.028 -0.2523 -0.2515 -0.6271
 4073SOL     OW12773   1.737   6.364   4.015 -0.1397  0.1136  0.0490
 4073SOL    HW112774   1.712   6.298   3.950 -0.8273 -0.0642  0.4799
 4073SOL    HW212775   1.808   6.413   3.974 -1.1541  0.5814 -1.1991
 4074SOL     OW12776   1.735   6.955   3.656 -0.2012 -0.4480 -1.1485
 4074SOL    HW112777   1.678   7.003   3.715 -1.2349 -1.6921 -1.1011
 4074SOL    HW212778   1.696   6.966   3.569  0.6814  0.4286 -1.4636
 4075SOL     OW12779   0.728   1.618   5.423  0.1148 -0.3470 -0.0973
 4075SOL    HW112780   0.800   1.579   5.473 -0.0500  1.0259  1.2768
 4075SOL    HW212781   0.770   1.687   5.371 -0.0598 -0.2070 -0.0514
 4076SOL     OW12782   1.671   3.223   4.688  0.4943 -0.5890 -0.5776
 4076SOL    HW112783   1.727   3.171   4.745  1.5401 -1.2232 -2.1349
 4076SOL    HW212784   1.674   3.179   4.604  1.3840  1.9291 -1.9769
 4077SOL     OW12785   7.635   1.368   4.389  0.0691 -0.7025 -0.0452
 4077SOL    HW112786   7.692   1.444   4.373 -0.8105 -0.2498 -1.2050
 4077SOL    HW212787   7.548   1.397   4.359 -0.5974 -1.6626  0.9035
 4078SOL     OW12788   3.350   2.784   6.472  0.7966 -0.0964  0.4468
 4078SOL    HW112789   3.289   2.723   6.432  0.6792 -0.3820  1.0489
 4078SOL    HW212790   3.317   2.871   6.449  0.5958 -0.2558  0.1345
 4079SOL     OW12791   4.295   2.397   2.834 -0.3175  0.3162 -0.1527
 4079SOL    HW112792   4.344   2.316   2.821 -0.7459  0.1120 -0.5011
 4079SOL    HW212793   4.360   2.466   2.824 -0.2341  0.0846 -1.3993
 4080SOL     OW12794   3.940   1.039   6.210 -0.2345  0.2286  0.2838
 4080SOL    HW112795   3.956   1.031   6.116 -0.5723  0.3601  0.2142
 4080SOL    HW212796   3.851   1.005   6.223 -0.0416 -0.1565  0.6145
 4081SOL     OW12797   3.303   4.950   2.286  0.3457 -0.1478 -0.1485
 4081SOL    HW112798   3.208   4.964   2.281  0.2434 -0.0249  1.4955
 4081SOL    HW212799   3.313   4.855   2.291  0.3279 -0.1717 -0.5461
 4082SOL     OW12800   2.775   0.312   7.730 -0.1891  0.0815  0.2345
 4082SOL    HW112801   2.844   0.324   7.794  0.7628 -0.3202 -0.6832
 4082SOL    HW212802   2.798   0.231   7.684 -1.7518 -0.5507  0.4892
 4083SOL     OW12803   5.505   5.971   0.035 -0.6502  0.1004  0.4427
 4083SOL    HW112804   5.534   5.912   0.105 -0.6790 -0.4747 -0.0207
 4083SOL    HW212805   5.573   5.963  -0.033 -0.5140  0.8085  0.4819
 4084SOL     OW12806   6.132   4.414   4.132 -0.4632  0.7620 -0.6416
 4084SOL    HW112807   6.068   4.417   4.061 -0.3065  1.6976 -0.7620
 4084SOL    HW212808   6.103   4.342   4.187 -3.2307  2.7554  0.7652
 4085SOL     OW12809   6.429   5.717   1.972 -0.6315  0.8375  0.0382
 4085SOL    HW112810   6.396   5.656   1.906 -0.0695 -0.4136  0.8717
 4085SOL    HW212811   6.352   5.742   2.024 -0.7998  0.5278 -0.0641
 4086SOL     OW12812   2.281   0.257   2.970 -0.2493  0.3836 -0.2714
 4086SOL    HW112813   2.298   0.163   2.975  3.3245  0.8021 -1.3863
 4086SOL    HW212814   2.276   0.276   2.876  0.4194  1.4514 -0.1152
 4087SOL     OW12815   6.049   7.134   3.096  0.4319 -0.0511  0.4681
 4087SOL    HW112816   6.051   7.222   3.134  0.8970 -0.0186  0.3791
 4087SOL    HW212817   6.135   7.098   3.115  0.9426  0.2222 -1.1142
 4088SOL     OW12818   1.790   3.883   5.158 -0.1446  0.4294  0.5916
 4088SOL    HW112819   1.776   3.972   5.189 -2.2279 -0.3685  2.1313
 4088SOL    HW212820   1.850   3.844   5.221  1.6962  0.9959 -0.7083
 4089SOL     OW12821   2.199   4.717   0.465  0.4659 -0.5600  0.4822
 4089SOL    HW112822   2.268   4.660   0.498  1.8339  1.5855  1.5855
 4089SOL    HW212823   2.128   4.709   0.529  1.0379 -0.3374  1.1643
 4090SOL     OW12824   3.910   2.811   6.303  0.3941 -0.1206  0.8503
 4090SOL    HW112825   3.906   2.778   6.213  1.6643  0.5317  0.5367
 4090SOL    HW212826   3.873   2.899   6.299 -0.1123 -0.3134  1.1007
 4091SOL     OW12827   1.903   2.530   1.037  0.5523  0.6260  0.2759
 4091SOL    HW112828   1.917   2.440   1.006 -0.0328  0.1881  1.2399
 4091SOL    HW212829   1.980   2.578   1.007  0.7993 -0.1604 -0.3869
 4092SOL     OW12830   1.719   0.748   1.892  0.7636 -0.6659 -0.0162
 4092SOL    HW112831   1.749   0.814   1.955  1.0821  1.4986 -2.2724
 4092SOL    HW212832   1.772   0.763   1.814 -1.5138 -1.2994 -1.7999
 4093SOL     OW12833   2.109   2.851   4.123  0.2491  0.1896 -0.1250
 4093SOL    HW112834   2.196   2.870   4.087 -0.0460  1.1553 -0.3407
 4093SOL    HW212835   2.127   2.823   4.213  0.7562  0.8182 -0.0240
 4094SOL     OW12836   1.387   5.124   2.871 -0.6720  0.2489 -0.5008
 4094SOL    HW112837   1.372   5.056   2.806 -0.9739  0.8239 -1.0533
 4094SOL    HW212838   1.303   5.168   2.879 -0.8634 -0.3474  0.9224
 4095SOL     OW12839   6.365   1.053   6.417 -0.3185 -0.0991 -0.0981
 4095SOL    HW112840   6.420   0.975   6.427  1.6144  1.2812  0.6190
 4095SOL    HW212841   6.416   1.110   6.360 -1.7094  0.6561 -0.6179
 4096SOL     OW12842   1.386   1.264   0.696 -0.2652 -0.5292 -0.4305
 4096SOL    HW112843   1.453   1.259   0.764  0.3744 -0.7006 -1.0594
 4096SOL    HW212844   1.431   1.237   0.616 -0.6263  1.0220 -1.1959
 4097SOL     OW12845   5.284   5.817   3.012  0.0373  0.0134  0.3994
 4097SOL    HW112846   5.262   5.816   2.919  0.7354 -0.6691  0.2257
 4097SOL    HW212847   5.204   5.789   3.056  0.6746 -3.2380 -0.2650
 4098SOL     OW12848   2.784   0.162   4.237  0.0211  0.4966  0.1941
 4098SOL    HW112849   2.714   0.197   4.183  0.9395  2.4242  0.1671
 4098SOL    HW212850   2.745   0.088   4.283 -2.2134  1.8874  0.6517
 4099SOL     OW12851   5.998   6.915   6.268 -0.0195  0.0296  0.8598
 4099SOL    HW112852   5.990   6.846   6.203  0.8579 -1.5143  2.2977
 4099SOL    HW212853   5.997   6.996   6.218  1.0875 -1.1053 -1.1180
 4100SOL     OW12854   7.685   2.144   1.844 -0.5702 -0.3068  0.1523
 4100SOL    HW112855   7.641   2.161   1.761 -1.0773 -0.0351  0.4711
 4100SOL    HW212856   7.717   2.229   1.873 -0.2280 -0.4298  0.1497
 4101SOL     OW12857   4.978   6.591   3.382  0.2711  0.0318  0.0263
 4101SOL    HW112858   4.939   6.507   3.357 -0.0780  0.6364 -1.5792
 4101SOL    HW212859   5.042   6.610   3.313  1.5694  0.3061  1.2533
 4102SOL     OW12860   5.729   2.214   6.725 -0.7241 -0.0199 -0.2318
 4102SOL    HW112861   5.802   2.210   6.787 -1.5766 -0.5984  0.7772
 4102SOL    HW212862   5.682   2.294   6.748 -1.7205 -0.8348  0.7076
 4103SOL     OW12863   1.442   4.735   5.072  0.4986 -0.2111 -0.2731
 4103SOL    HW112864   1.348   4.749   5.087 -0.4746 -1.3364 -4.2451
 4103SOL    HW212865   1.478   4.822   5.058  0.5808  0.4254  2.9949
 4104SOL     OW12866   6.579   4.002   1.316 -0.2483  0.7079 -0.3133
 4104SOL    HW112867   6.497   4.020   1.270 -1.1157 -1.2004  0.4092
 4104SOL    HW212868   6.603   3.914   1.289 -0.3028 -0.1234  2.1118
 4105SOL     OW12869   2.764   2.359   2.731  0.5667  0.2911  0.2786
 4105SOL    HW112870   2.752   2.319   2.817  0.8166 -1.4680 -0.4578
 4105SOL    HW212871   2.715   2.441   2.735 -1.3332 -0.8260  1.3637
 4106SOL     OW12872   1.508   5.242   1.096  0.2227 -0.2701  0.1774
 4106SOL    HW112873   1.484   5.334   1.087  0.6999 -0.1660 -0.0303
 4106SOL    HW212874   1.424   5.196   1.105  0.0318  0.3595  1.9194
 4107SOL     OW12875   7.740   1.913   0.999 -0.4625  0.6699  0.7955
 4107SOL    HW112876   7.672   1.974   1.029  0.2966  1.3267  1.2038
 4107SOL    HW212877   7.813   1.927   1.058  0.2203  0.3247  0.0497
 4108SOL     OW12878   5.492   3.912   1.444  0.1154  0.1135  0.0937
 4108SOL    HW112879   5.566   3.855   1.465  1.2523  2.3205  2.6425
 4108SOL    HW212880   5.438   3.911   1.523 -0.8790  1.0581 -0.5472
 4109SOL     OW12881   2.391   0.230   1.645 -0.4448  0.7735  0.3648
 4109SOL    HW112882   2.471   0.193   1.681  0.1477  1.1346 -0.5322
 4109SOL    HW212883   2.324   0.163   1.659 -0.0990  0.6665  1.5484
 4110SOL     OW12884   5.631   1.831   2.258 -0.3604 -0.6293  0.3303
 4110SOL    HW112885   5.722   1.854   2.240 -0.5569  0.9675  1.2589
 4110SOL    HW212886   5.580   1.890   2.202 -0.8586  0.5255  1.9541
 4111SOL     OW12887   7.388   1.386   0.121 -0.1955 -0.6554  0.3790
 4111SOL    HW112888   7.316   1.340   0.164  0.1151 -0.7407  0.8138
 4111SOL    HW212889   7.431   1.318   0.068  1.4569 -1.3912  2.5191
 4112SOL     OW12890   5.423   0.185   5.993 -0.5884  0.0289  0.5568
 4112SOL    HW112891   5.377   0.142   5.921  0.7781 -1.2118  0.3749
 4112SOL    HW212892   5.506   0.138   6.000 -0.5692  0.2771  2.7663
 4113SOL     OW12893   4.596   4.622   5.562 -0.9003 -0.0838  0.5548
 4113SOL    HW112894   4.590   4.669   5.478 -1.3956 -0.6689  0.2547
 4113SOL    HW212895   4.506   4.595   5.580 -0.8239  0.2008  1.3805
 4114SOL     OW12896   2.101   0.133   2.151 -0.0381 -0.3142  0.6474
 4114SOL    HW112897   2.141   0.174   2.227  0.6069  0.1315  0.0835
 4114SOL    HW212898   2.131   0.186   2.077 -2.8277  0.9362  0.3114
 4115SOL     OW12899   0.129   5.082   0.717  0.5578  0.2400  0.0463
 4115SOL    HW112900   0.135   5.132   0.799 -2.2791 -0.3803  0.7309
 4115SOL    HW212901   0.134   5.149   0.648  0.6669  1.0361  0.8068
 4116SOL     OW12902   7.163   3.193   3.010 -0.0893 -0.4053 -0.1168
 4116SOL    HW112903   7.216   3.138   2.952  0.3768 -0.3157  0.2151
 4116SOL    HW212904   7.150   3.139   3.088 -0.3669 -0.3706 -0.1391
 4117SOL     OW12905   6.676   5.365   1.488 -0.3378  0.0349 -0.1876
 4117SOL    HW112906   6.709   5.286   1.444 -0.7881 -0.4984  0.4045
 4117SOL    HW212907   6.736   5.378   1.561  0.5343  1.0415 -1.0376
 4118SOL     OW12908   5.520   4.684   1.425 -0.0459  0.3713  0.5015
 4118SOL    HW112909   5.444   4.668   1.480 -0.1951 -0.2100  0.1348
 4118SOL    HW212910   5.487   4.680   1.335  0.2586  0.9681  0.3542
 4119SOL     OW12911   6.761   5.253   0.123 -0.5524 -0.1871  0.1091
 4119SOL    HW112912   6.754   5.348   0.121 -1.5303 -0.2218 -2.4820
 4119SOL    HW212913   6.745   5.226   0.032  0.8800 -2.7497  0.5162
 4120SOL     OW12914   2.746   2.500   5.999  0.0227 -0.4400  0.1108
 4120SOL    HW112915   2.796   2.556   6.059 -1.2454  0.3994  0.4064
 4120SOL    HW212916   2.681   2.457   6.054 -2.4583  1.8035 -0.8417
 4121SOL     OW12917   0.466   7.203   3.483 -0.4681 -0.5347  0.0987
 4121SOL    HW112918   0.525   7.143   3.438 -1.0442 -0.0710 -1.3413
 4121SOL    HW212919   0.472   7.284   3.433  0.1230  0.5658  1.8800
 4122SOL     OW12920   5.995   2.868   0.203  0.2914 -0.1342 -0.2251
 4122SOL    HW112921   6.023   2.945   0.153 -0.9089  0.7197  0.3665
 4122SOL    HW212922   6.003   2.795   0.141  0.5826  0.6065 -1.0846
 4123SOL     OW12923   6.955   1.784   1.111  0.0572 -0.2519  0.5280
 4123SOL    HW112924   6.885   1.813   1.053 -1.2018 -1.2238  1.5054
 4123SOL    HW212925   7.033   1.829   1.078 -0.3025 -1.7015 -2.7145
 4124SOL     OW12926   0.852   1.742   7.390 -0.0485  0.2934 -0.4086
 4124SOL    HW112927   0.764   1.755   7.426 -0.3263 -0.1734 -0.9111
 4124SOL    HW212928   0.844   1.766   7.298  0.7119  1.6856 -0.1297
 4125SOL     OW12929   7.707   0.272   1.836 -0.1449  0.1956 -0.2566
 4125SOL    HW112930   7.786   0.314   1.870 -0.4472 -0.9680  2.1428
 4125SOL    HW212931   7.645   0.344   1.824  0.7229  0.9219 -0.5046
 4126SOL     OW12932   0.703   1.960   3.135  0.6935  0.1125  0.3624
 4126SOL    HW112933   0.616   1.968   3.094  0.6919 -1.4478 -0.0064
 4126SOL    HW212934   0.700   2.020   3.209  0.0027  1.5715 -0.7813
 4127SOL     OW12935   0.868   6.219   0.910  0.1415 -0.2829 -0.4599
 4127SOL    HW112936   0.829   6.132   0.922  0.6660 -0.2409  2.0324
 4127SOL    HW212937   0.962   6.205   0.920  0.3269  0.4182 -1.1645
 4128SOL     OW12938   1.989   2.705   5.041  0.4617 -0.6668  0.0691
 4128SOL    HW112939   1.977   2.787   4.993 -0.7835 -0.6761  0.3362
 4128SOL    HW212940   1.944   2.719   5.124 -1.1612 -2.1518 -0.4981
 4129SOL     OW12941   0.142   2.761   0.804  0.2318  0.0466 -0.2604
 4129SOL    HW112942   0.064   2.744   0.858  0.3894 -0.0662 -0.0665
 4129SOL    HW212943   0.211   2.781   0.867  0.2143  0.7613 -0.4576
 4130SOL     OW12944   4.489   6.219   4.299 -0.5250  0.4004 -0.2032
 4130SOL    HW112945   4.507   6.279   4.227  0.9758 -1.6458 -1.6567
 4130SOL    HW212946   4.520   6.265   4.377 -0.6801  2.0284 -1.0571
 4131SOL     OW12947   0.024   6.851   0.393  0.1671 -0.2052 -0.4332
 4131SOL    HW112948   0.068   6.778   0.437  0.2343  0.0461 -0.0820
 4131SOL    HW212949   0.060   6.851   0.305 -2.3680 -2.8370 -1.6226
 4132SOL     OW12950   0.712   6.355   3.827  0.2629  0.0232  0.0832
 4132SOL    HW112951   0.746   6.271   3.798 -0.6252 -0.4416  0.3408
 4132SOL    HW212952   0.697   6.343   3.921 -2.4194 -0.4744 -0.3239
 4133SOL     OW12953   1.528   3.829   1.558  0.5140 -0.2993  0.0031
 4133SOL    HW112954   1.476   3.898   1.518  0.8947 -0.1553 -0.2487
 4133SOL    HW212955   1.480   3.805   1.637 -0.2776 -0.6224 -0.5580
 4134SOL     OW12956   6.107   0.258   3.468 -0.2287  0.5847 -0.0024
 4134SOL    HW112957   6.127   0.334   3.522 -0.4001  0.4731  0.2211
 4134SOL    HW212958   6.147   0.184   3.514 -0.4451  0.4777  0.0157
 4135SOL     OW12959   7.699   3.302   7.663 -0.2194  0.3664  0.1384
 4135SOL    HW112960   7.789   3.327   7.683  0.6080 -1.7540 -0.6057
 4135SOL    HW212961   7.681   3.343   7.578  0.9318 -1.0268 -0.8325
 4136SOL     OW12962   4.722   5.505   1.224 -0.4965  0.0984  0.2171
 4136SOL    HW112963   4.629   5.512   1.242 -0.3967  0.5087  0.5858
 4136SOL    HW212964   4.764   5.521   1.308 -0.1680 -3.4964  0.8584
 4137SOL     OW12965   4.102   3.896   2.175  0.6033 -0.1375  0.0485
 4137SOL    HW112966   4.056   3.908   2.259 -1.7438  0.3033 -1.2262
 4137SOL    HW212967   4.098   3.802   2.159 -0.4307 -0.0385 -0.3337
 4138SOL     OW12968   6.171   7.067   0.386  0.0311  0.3076 -0.6559
 4138SOL    HW112969   6.172   7.125   0.462  1.9055  0.8728 -1.0722
 4138SOL    HW212970   6.103   7.103   0.329 -1.1814  0.0577  0.5686
 4139SOL     OW12971   6.608   4.699   0.834  0.2759  0.1671 -0.2951
 4139SOL    HW112972   6.525   4.651   0.837  0.8506 -1.0115 -1.7757
 4139SOL    HW212973   6.596   4.773   0.894 -1.3703 -0.7004  0.5019
 4140SOL     OW12974   0.899   3.623   2.842 -0.2107  0.5831 -0.3378
 4140SOL    HW112975   0.914   3.717   2.827 -0.2491  0.8455  1.1113
 4140SOL    HW212976   0.897   3.615   2.938 -1.1113 -0.7577 -0.4588
 4141SOL     OW12977   2.035   5.620   4.905 -0.2133 -0.0489  0.0243
 4141SOL    HW112978   2.005   5.537   4.941  1.0981  0.0345  1.4197
 4141SOL    HW212979   1.957   5.676   4.902 -0.5415 -0.3389  1.9948
 4142SOL     OW12980   3.000   0.662   5.309 -0.0243 -0.1882  0.3417
 4142SOL    HW112981   2.941   0.699   5.243  0.3130 -0.9042 -0.3727
 4142SOL    HW212982   2.969   0.699   5.392  0.5524  2.0590 -0.3559
 4143SOL     OW12983   3.433   5.073   1.738 -0.2813  0.2473  0.7602
 4143SOL    HW112984   3.516   5.122   1.741 -0.7373  1.0382  0.9144
 4143SOL    HW212985   3.435   5.027   1.654  1.1046 -1.1989  1.5234
 4144SOL     OW12986   2.373   1.729   6.205 -0.2383  0.1916  0.0145
 4144SOL    HW112987   2.292   1.712   6.156  0.6671  1.3711 -1.9898
 4144SOL    HW212988   2.376   1.824   6.216  0.1747  0.0466  1.3960
 4145SOL     OW12989   0.141   7.473   2.862 -0.2275 -0.1233  0.7168
 4145SOL    HW112990   0.122   7.537   2.793  3.0046  0.6576  0.4305
 4145SOL    HW212991   0.070   7.409   2.854 -1.8351  1.7149 -1.0576
 4146SOL     OW12992   6.390   6.540   3.751  0.0825 -0.4136  0.0334
 4146SOL    HW112993   6.422   6.450   3.756 -0.4804 -0.5871  0.7426
 4146SOL    HW212994   6.461   6.593   3.788  0.7754 -0.4563 -1.1787
 4147SOL     OW12995   6.133   5.359   7.125 -0.3085 -0.0727 -0.1470
 4147SOL    HW112996   6.077   5.328   7.196 -1.6600 -0.4523 -1.3152
 4147SOL    HW212997   6.159   5.447   7.150 -1.4106  0.0907  0.4482
 4148SOL     OW12998   5.764   1.932   1.297 -0.4782 -0.6997  0.0466
 4148SOL    HW112999   5.674   1.959   1.316 -0.1247  1.4370 -0.9715
 4148SOL    HW213000   5.813   1.957   1.376 -0.4917 -0.1209 -0.1204
 4149SOL     OW13001   3.384   3.237   1.939  0.2797  0.0127  0.0190
 4149SOL    HW113002   3.377   3.323   1.898  0.0425 -0.0692 -0.1153
 4149SOL    HW213003   3.420   3.254   2.026 -0.1451  0.2899  0.1449
 4150SOL     OW13004   2.933   3.286   6.971  0.0997 -0.8481 -0.0753
 4150SOL    HW113005   2.976   3.315   7.051  0.4809 -2.2401  0.2540
 4150SOL    HW213006   2.860   3.347   6.959  1.5914  1.0064 -0.1453
 4151SOL     OW13007   7.474   3.720   4.186 -0.0510 -0.1357 -0.8017
 4151SOL    HW113008   7.480   3.626   4.168 -2.2404 -0.4785 -0.1186
 4151SOL    HW213009   7.506   3.729   4.276 -0.5961 -0.3750 -0.5780
 4152SOL     OW13010   7.104   4.366   6.907 -0.3004  0.1036 -0.0487
 4152SOL    HW113011   7.082   4.326   6.991 -2.0169 -1.6634 -1.2424
 4152SOL    HW213012   7.054   4.315   6.843  2.0682  0.4270 -2.3136
 4153SOL     OW13013   5.485   6.899   1.201 -0.5389 -0.1038 -0.5299
 4153SOL    HW113014   5.485   6.928   1.292 -0.0446 -1.2571 -0.1387
 4153SOL    HW213015   5.578   6.901   1.176 -0.3348 -2.2828 -0.1383
 4154SOL     OW13016   1.501   7.374   0.678  0.1714 -0.6421 -0.6439
 4154SOL    HW113017   1.466   7.404   0.594  1.8685  1.1330 -0.7686
 4154SOL    HW213018   1.591   7.405   0.679  0.4285 -1.3361  1.5081
 4155SOL     OW13019   3.166   5.736   3.897  0.1768 -0.1190 -0.1405
 4155SOL    HW113020   3.164   5.644   3.926 -1.3245 -0.2662 -0.6277
 4155SOL    HW213021   3.219   5.734   3.817 -0.1786 -0.6469 -0.3751
 4156SOL     OW13022   3.403   2.577   4.039  0.0310  0.1969 -0.2614
 4156SOL    HW113023   3.403   2.543   3.949  1.5699  1.6646 -0.8724
 4156SOL    HW213024   3.486   2.547   4.076 -0.0801  0.5450  0.2863
 4157SOL     OW13025   0.296   2.837   6.007  0.1349  0.2937  0.0967
 4157SOL    HW113026   0.386   2.869   6.003  0.0783  0.9382  2.3379
 4157SOL    HW213027   0.303   2.748   6.043 -0.1560  1.0766  2.2763
 4158SOL     OW13028   6.984   1.038   6.776 -0.2807 -0.0402  0.4362
 4158SOL    HW113029   7.043   0.963   6.771  1.9109  1.6445 -0.2837
 4158SOL    HW213030   6.999   1.087   6.695 -0.2533  2.1607  1.6897
 4159SOL     OW13031   3.427   6.489   6.439  0.4471  0.5432 -0.6470
 4159SOL    HW113032   3.377   6.474   6.519  0.0103 -1.9409 -1.2859
 4159SOL    HW213033   3.370   6.541   6.383  0.1648  1.0394  0.1027
 4160SOL     OW13034   0.012   7.545   1.027  0.4015 -0.1728  0.0452
 4160SOL    HW113035   0.023   7.557   0.933 -1.1670 -0.4624 -0.1992
 4160SOL    HW213036   0.098   7.515   1.057  1.2764  1.0675 -1.0729
 4161SOL     OW13037   6.360   1.725   2.433  0.2035 -0.2259  0.0330
 4161SOL    HW113038   6.338   1.818   2.430 -0.9998 -0.5177 -1.4185
 4161SOL    HW213039   6.429   1.719   2.499  1.0791  1.8470 -0.6095
 4162SOL     OW13040   2.343   2.438   5.444 -0.2006  0.5472  0.3270
 4162SOL    HW113041   2.363   2.527   5.473  1.7369  1.0016 -2.0379
 4162SOL    HW213042   2.415   2.415   5.385 -1.5274 -1.9309 -0.4926
 4163SOL     OW13043   5.695   0.562   5.368 -0.1139 -0.3807 -0.3242
 4163SOL    HW113044   5.737   0.643   5.397  1.6691  0.3252 -4.2510
 4163SOL    HW213045   5.606   0.567   5.404  0.4654  2.4157  1.0204
 4164SOL     OW13046   3.486   0.071   3.530  0.0673  0.0540 -0.3292
 4164SOL    HW113047   3.519   0.092   3.442  1.3974 -1.1484 -0.1667
 4164SOL    HW213048   3.550   0.111   3.589  1.2333 -2.1532  0.0005
 4165SOL     OW13049   6.703   1.902   3.205  0.1416 -0.0357  0.2282
 4165SOL    HW113050   6.643   1.976   3.197 -1.9670 -1.6742 -0.2006
 4165SOL    HW213051   6.683   1.864   3.290  0.9472 -0.3303  0.2924
 4166SOL     OW13052   4.126   3.587   4.288  0.4605  0.0067 -0.5683
 4166SOL    HW113053   4.130   3.670   4.335 -1.5326 -0.2085  0.1146
 4166SOL    HW213054   4.217   3.563   4.272  1.3917 -0.2252  3.7760
 4167SOL     OW13055   6.584   7.719   2.280 -0.0701  0.1797  0.5566
 4167SOL    HW113056   6.591   7.668   2.200  1.4345  2.3449 -0.7913
 4167SOL    HW213057   6.577   7.810   2.251  0.5365  1.0488  2.8584
 4168SOL     OW13058   2.233   2.310   1.155  0.6320  0.4373  0.1385
 4168SOL    HW113059   2.221   2.218   1.178  2.4026  0.1124 -0.0409
 4168SOL    HW213060   2.158   2.331   1.100 -0.0044 -0.7789  0.4846
 4169SOL     OW13061   3.108   6.820   2.231 -1.0765  0.3153 -0.3272
 4169SOL    HW113062   3.030   6.790   2.278 -0.3779  0.5611  1.0296
 4169SOL    HW213063   3.169   6.747   2.238  0.4503  1.7383  2.5616
 4170SOL     OW13064   6.377   4.525   3.207  0.4792  0.2855  0.2110
 4170SOL    HW113065   6.286   4.503   3.228 -0.2645  1.2605 -1.6998
 4170SOL    HW213066   6.391   4.489   3.120  2.0104 -0.0018  0.5453
 4171SOL     OW13067   7.206   4.695   6.238  0.4808  0.6367  0.9011
 4171SOL    HW113068   7.230   4.621   6.294  1.2864  2.0094  2.4666
 4171SOL    HW213069   7.284   4.713   6.186  0.0026 -0.1231 -0.1036
 4172SOL     OW13070   2.487   7.265   0.110 -0.7702  0.4943 -0.0092
 4172SOL    HW113071   2.497   7.245   0.017 -0.9485 -1.2105  0.2941
 4172SOL    HW213072   2.403   7.226   0.133 -1.4627  2.2476  0.5503
 4173SOL     OW13073   6.179   2.795   1.189 -0.2128 -0.0212  0.2346
 4173SOL    HW113074   6.209   2.885   1.192  1.4220 -0.4797 -1.1464
 4173SOL    HW213075   6.161   2.778   1.097  1.2941 -1.6285  0.1833
 4174SOL     OW13076   1.182   2.222   1.618 -0.6798 -0.3917 -0.0793
 4174SOL    HW113077   1.167   2.143   1.567  0.8222 -0.5734 -0.2827
 4174SOL    HW213078   1.277   2.228   1.626 -0.8074  0.8121  0.8533
 4175SOL     OW13079   1.767   5.030   3.657  0.2555  0.3955 -0.0340
 4175SOL    HW113080   1.702   5.033   3.586  0.4933  1.9557 -0.2181
 4175SOL    HW213081   1.715   5.036   3.737  0.1970  3.6653 -0.2133
 4176SOL     OW13082   0.278   1.341   4.478  0.4062  0.4601  0.0256
 4176SOL    HW113083   0.356   1.288   4.457  0.1781  0.3321 -0.5336
 4176SOL    HW213084   0.262   1.324   4.570  0.8466  0.2228  0.0631
 4177SOL     OW13085   6.782   7.701   0.683 -0.4195  0.2673  0.2744
 4177SOL    HW113086   6.708   7.673   0.629 -1.6726  1.0602  1.4910
 4177SOL    HW213087   6.835   7.622   0.695 -1.7804 -0.6537  0.4310
 4178SOL     OW13088   7.413   0.149   5.746 -0.2630  0.7528 -0.5226
 4178SOL    HW113089   7.500   0.151   5.787 -1.0622  2.0444  1.2389
 4178SOL    HW213090   7.431   0.128   5.654  1.5815 -2.9142  0.4665
 4179SOL     OW13091   1.015   3.237   5.409  0.1367 -0.3091 -0.3751
 4179SOL    HW113092   0.968   3.154   5.399  0.8512 -0.6423 -1.0780
 4179SOL    HW213093   0.949   3.304   5.390  0.0562 -0.7880 -1.9669
 4180SOL     OW13094   7.597   7.328   5.272  0.0352 -0.6513 -0.6322
 4180SOL    HW113095   7.677   7.329   5.220  0.9725 -0.2729  0.7356
 4180SOL    HW213096   7.577   7.235   5.286  1.0948 -0.7699  0.2242
 4181SOL     OW13097   0.752   1.091   2.238 -0.3734  0.2995  0.0381
 4181SOL    HW113098   0.811   1.066   2.308  0.1654  1.5067  0.0368
 4181SOL    HW213099   0.719   1.177   2.264 -2.3985 -0.4754  0.2047
 4182SOL     OW13100   1.632   1.336   2.446  0.3115  0.2145  0.0550
 4182SOL    HW113101   1.725   1.348   2.429  0.0795  0.0393 -1.5516
 4182SOL    HW213102   1.589   1.390   2.380 -0.7405  0.7278  1.1237
 4183SOL     OW13103   2.521   3.649   4.277 -0.3701  0.4292  0.6917
 4183SOL    HW113104   2.514   3.669   4.184  0.7595 -2.0774 -0.0024
 4183SOL    HW213105   2.515   3.735   4.320  0.4240  1.7933 -1.7407
 4184SOL     OW13106   6.146   2.368   7.008  0.2243 -0.0533 -1.0363
 4184SOL    HW113107   6.115   2.446   7.055  0.3856 -1.5073  1.7330
 4184SOL    HW213108   6.237   2.358   7.035  0.6880 -0.3407 -2.6324
 4185SOL     OW13109   0.939   2.519   4.488  0.3821  0.4825  0.2221
 4185SOL    HW113110   0.970   2.520   4.579 -1.3806  0.4820  0.8580
 4185SOL    HW213111   0.844   2.512   4.495 -0.1162  3.6578 -1.5706
 4186SOL     OW13112   7.433   3.184   0.812  0.3812 -0.5869  0.3041
 4186SOL    HW113113   7.487   3.223   0.880  0.9047 -1.3300  0.3272
 4186SOL    HW213114   7.486   3.189   0.732  0.0673 -0.3878  0.1043
 4187SOL     OW13115   1.282   6.573   4.886  0.7474  0.7835 -0.0496
 4187SOL    HW113116   1.200   6.609   4.850 -0.1752  0.6447  1.8112
 4187SOL    HW213117   1.268   6.478   4.887  0.6232  0.8059  0.9547
 4188SOL     OW13118   6.522   3.783   5.016  0.2895  0.5861 -0.4202
 4188SOL    HW113119   6.568   3.807   4.936  0.2311  2.2030  0.0022
 4188SOL    HW213120   6.590   3.787   5.084  0.4688 -1.3248 -0.4315
 4189SOL     OW13121   2.952   4.596   5.920 -0.0871 -0.3338 -0.1045
 4189SOL    HW113122   2.958   4.685   5.954 -0.2866 -0.1474 -0.5588
 4189SOL    HW213123   2.968   4.540   5.997 -0.1706  0.0877  0.2221
 4190SOL     OW13124   3.835   1.994   3.405 -0.1878  0.2166  0.0786
 4190SOL    HW113125   3.816   1.999   3.499  1.6272 -0.6287  0.5371
 4190SOL    HW213126   3.898   2.064   3.390  0.7543 -0.6604 -0.1505
 4191SOL     OW13127   6.475   1.408   1.682  0.0150 -0.7465 -0.1630
 4191SOL    HW113128   6.510   1.339   1.625  2.2989  0.3595 -0.2269
 4191SOL    HW213129   6.541   1.477   1.677 -1.5020  0.8432  1.0396
 4192SOL     OW13130   6.506   2.621   6.994  0.4755  0.2122  0.3302
 4192SOL    HW113131   6.543   2.709   6.984  0.4627  0.1935  0.1177
 4192SOL    HW213132   6.564   2.578   7.057 -0.0092  0.6493  1.0904
 4193SOL     OW13133   7.075   7.401   2.592  0.5250 -0.8233 -0.1899
 4193SOL    HW113134   7.081   7.457   2.514 -0.0290  1.3546  1.2466
 4193SOL    HW213135   6.983   7.404   2.616  0.8246 -0.7896  1.0138
 4194SOL     OW13136   3.387   6.866   1.781 -0.1616  0.4602 -0.3660
 4194SOL    HW113137   3.375   6.959   1.803  0.7138  0.6165 -0.4984
 4194SOL    HW213138   3.482   6.855   1.775 -0.2036 -0.6928  0.6636
 4195SOL     OW13139   4.952   4.776   4.373 -0.5984  0.2443 -0.5199
 4195SOL    HW113140   5.026   4.724   4.343 -1.7622 -1.0064 -1.3571
 4195SOL    HW213141   4.974   4.801   4.463  1.1667  0.6009 -1.0159
 4196SOL     OW13142   6.610   6.026   1.882 -0.1990  0.2456  0.7309
 4196SOL    HW113143   6.658   6.080   1.943  1.0220 -1.5066  1.4089
 4196SOL    HW213144   6.575   5.954   1.935  0.3689 -0.9911 -0.5002
 4197SOL     OW13145   4.652   5.908   4.951 -0.0297  0.4468 -0.2809
 4197SOL    HW113146   4.561   5.938   4.949 -0.4122 -0.2695  2.4716
 4197SOL    HW213147   4.696   5.970   5.010  0.7258 -0.4983  0.1715
 4198SOL     OW13148   0.611   1.033   1.171 -0.2725  0.0780 -0.0973
 4198SOL    HW113149   0.666   1.106   1.143 -0.1853  0.1299  0.2146
 4198SOL    HW213150   0.576   0.997   1.089 -0.4014  0.5334 -0.2424
 4199SOL     OW13151   4.477   5.061   1.029 -0.0670  0.6365 -0.0628
 4199SOL    HW113152   4.497   5.083   0.939  0.9371  1.3276  0.3194
 4199SOL    HW213153   4.514   4.973   1.042 -1.3586 -0.0317 -0.6792
 4200SOL     OW13154   4.911   1.469   3.811  0.6307  0.1354 -0.0054
 4200SOL    HW113155   4.840   1.443   3.753  0.7601 -0.6943  0.1909
 4200SOL    HW213156   4.867   1.501   3.890  0.4736 -0.6957  0.2490
 4201SOL     OW13157   2.578   4.931   7.274  0.2527 -0.0531 -0.5132
 4201SOL    HW113158   2.665   4.971   7.263  1.2557 -1.1775  2.3233
 4201SOL    HW213159   2.520   5.005   7.290  0.9745  0.6326 -0.9653
 4202SOL     OW13160   0.954   3.603   3.733  0.3589 -0.3000  0.0417
 4202SOL    HW113161   0.915   3.622   3.648 -2.6507  0.8063  1.5355
 4202SOL    HW213162   0.889   3.632   3.797  3.1666  0.5362  2.8103
 4203SOL     OW13163   3.024   5.235   0.695  0.1836  0.4556  0.1581
 4203SOL    HW113164   3.044   5.325   0.722 -2.4307  1.3060 -0.4544
 4203SOL    HW213165   2.990   5.244   0.607  0.1256 -1.2014 -0.0095
 4204SOL     OW13166   5.496   0.976   4.850  0.6084  0.8726 -0.6646
 4204SOL    HW113167   5.535   1.006   4.768  0.0272 -0.9278 -1.6642
 4204SOL    HW213168   5.567   0.928   4.893  0.4841  0.4882 -0.8778
 4205SOL     OW13169   1.085   2.984   5.097 -0.4981 -0.2170  0.1734
 4205SOL    HW113170   0.989   2.985   5.087 -0.4105  0.3905 -0.6673
 4205SOL    HW213171   1.119   2.997   5.009  0.3831 -1.1402  0.3596
 4206SOL     OW13172   5.030   1.248   5.837  0.2805  0.0800  0.1208
 4206SOL    HW113173   5.087   1.279   5.767  0.2824  0.3110  0.2235
 4206SOL    HW213174   4.942   1.276   5.811  0.4742  1.5748  0.9805
 4207SOL     OW13175   5.425   2.632   4.523 -0.0536 -0.4703  0.3626
 4207SOL    HW113176   5.381   2.610   4.441 -0.1202  1.5218 -0.1693
 4207SOL    HW213177   5.505   2.580   4.522  0.0893 -0.2506 -1.1148
 4208SOL     OW13178   2.923   5.642   5.268  0.1736 -0.8739 -0.3229
 4208SOL    HW113179   2.881   5.592   5.338  2.7224 -1.7905  0.6727
 4208SOL    HW213180   2.972   5.577   5.218  0.7373  0.1714 -1.1757
 4209SOL     OW13181   5.412   7.723   7.315  0.6841  0.0850  0.1277
 4209SOL    HW113182   5.387   7.692   7.228  0.3822 -0.2194  0.3261
 4209SOL    HW213183   5.460   7.805   7.298  0.4744  0.1160 -0.3108
 4210SOL     OW13184   3.979   0.327   0.154 -0.1142  0.1464  0.0167
 4210SOL    HW113185   3.995   0.260   0.221 -1.4286  0.5710  0.7710
 4210SOL    HW213186   3.918   0.285   0.093 -0.2133  0.3423 -0.0181
 4211SOL     OW13187   7.279   6.331   7.237  0.1211  0.2778 -0.2315
 4211SOL    HW113188   7.227   6.346   7.317  0.9791 -2.4955  0.9649
 4211SOL    HW213189   7.215   6.300   7.173 -0.3967  1.4637 -0.3267
 4212SOL     OW13190   6.407   4.942   1.036  0.6482  0.1191 -0.0619
 4212SOL    HW113191   6.501   4.924   1.041  0.4182 -1.0048  0.7325
 4212SOL    HW213192   6.393   5.014   1.098  1.0234  0.4834 -0.3961
 4213SOL     OW13193   7.005   3.221   2.295  0.0181 -0.2732 -0.6546
 4213SOL    HW113194   6.994   3.224   2.391 -0.5042  0.0401 -0.7161
 4213SOL    HW213195   6.959   3.142   2.268  0.9133 -0.8368 -0.5643
 4214SOL     OW13196   0.725   0.025   0.589  0.6194  0.1266  0.0090
 4214SOL    HW113197   0.779   0.094   0.552 -1.6772  1.5719 -0.8862
 4214SOL    HW213198   0.680  -0.014   0.514 -0.6646 -0.0090  0.8159
 4215SOL     OW13199   6.258   6.801   4.149 -0.0763 -0.1158 -0.2443
 4215SOL    HW113200   6.291   6.882   4.109 -0.6921  1.2233  1.7818
 4215SOL    HW213201   6.333   6.766   4.197  0.1634 -0.7358 -1.0430
 4216SOL     OW13202   7.358   3.772   0.113 -0.2887 -0.2309  0.1284
 4216SOL    HW113203   7.330   3.846   0.166  1.8754  0.6379  0.1258
 4216SOL    HW213204   7.348   3.801   0.023  0.2373 -0.0716  0.1220
 4217SOL     OW13205   2.035   5.225   3.034  0.4335  0.2544  0.2164
 4217SOL    HW113206   2.010   5.204   2.944 -0.1276  0.5631  0.2932
 4217SOL    HW213207   2.095   5.299   3.026 -0.3802  0.9254  0.1379
 4218SOL     OW13208   2.603   0.988   2.840  0.4270  0.0844 -0.0051
 4218SOL    HW113209   2.573   0.994   2.750  1.0235  1.9518 -0.1130
 4218SOL    HW213210   2.633   1.076   2.862  4.9141 -1.3022  0.4123
 4219SOL     OW13211   7.421   0.379   7.699 -0.9422  0.6299 -0.1428
 4219SOL    HW113212   7.474   0.420   7.767 -1.4157  2.0116 -0.5765
 4219SOL    HW213213   7.413   0.288   7.727 -0.4411  0.9748  1.2154
 4220SOL     OW13214   6.452   2.522   5.558  0.0385  0.4816  0.4944
 4220SOL    HW113215   6.517   2.535   5.627  0.6425  1.5214 -0.2448
 4220SOL    HW213216   6.370   2.555   5.596 -0.1198 -0.8823  1.4446
 4221SOL     OW13217   6.921   3.143   7.378  0.6838  0.5629  0.3558
 4221SOL    HW113218   6.997   3.141   7.436 -0.0426  1.0696  1.3743
 4221SOL    HW213219   6.847   3.161   7.437 -0.0087  1.7451 -0.8208
 4222SOL     OW13220   4.013   6.611   0.097  0.4182 -0.1154 -0.7052
 4222SOL    HW113221   4.046   6.527   0.127 -0.7949  0.2423  1.8685
 4222SOL    HW213222   3.928   6.620   0.141  0.9390  2.8652 -0.1362
 4223SOL     OW13223   3.092   4.844   4.628 -0.2808 -0.1669  0.2716
 4223SOL    HW113224   3.088   4.749   4.614  0.9778 -0.5349  2.0556
 4223SOL    HW213225   3.030   4.859   4.700  0.3720  0.1767  0.7673
 4224SOL     OW13226   6.750   2.912   0.290  0.5566 -0.2571 -0.1752
 4224SOL    HW113227   6.821   2.974   0.311  0.4334  0.1508 -0.9083
 4224SOL    HW213228   6.774   2.832   0.336  0.6208  0.3895  0.9651
 4225SOL     OW13229   7.008   0.025   6.210 -0.0370  0.0520  0.4158
 4225SOL    HW113230   6.987   0.118   6.217  0.0627  0.1044  0.0535
 4225SOL    HW213231   7.102   0.021   6.227 -0.3345 -0.2034  2.2258
 4226SOL     OW13232   1.049   6.558   6.792 -0.3361  0.2140  0.2089
 4226SOL    HW113233   1.084   6.469   6.799 -0.0548  0.2146 -1.0781
 4226SOL    HW213234   0.954   6.546   6.787 -0.2377 -0.1351 -1.3686
 4227SOL     OW13235   6.004   2.108   1.523  0.0386 -0.2990 -0.1233
 4227SOL    HW113236   6.045   2.085   1.440 -1.2599  0.6582 -1.0771
 4227SOL    HW213237   6.019   2.203   1.531  1.0104 -0.5460  1.2437
 4228SOL     OW13238   6.193   0.319   3.982  0.0950  0.5578  0.4564
 4228SOL    HW113239   6.194   0.231   3.944 -0.3358  0.3322  0.9517
 4228SOL    HW213240   6.239   0.374   3.918 -0.0262  0.0607 -0.0619
 4229SOL     OW13241   6.765   2.388   6.061  0.3050 -0.1069  0.0985
 4229SOL    HW113242   6.816   2.375   5.981 -0.1264  0.0974 -0.2145
 4229SOL    HW213243   6.754   2.300   6.097 -0.8713 -0.4077 -0.9225
 4230SOL     OW13244   1.284   7.632   6.459 -0.5145  0.0748 -0.2012
 4230SOL    HW113245   1.359   7.590   6.502 -1.4376  0.1691  1.6284
 4230SOL    HW213246   1.244   7.562   6.407 -0.8042 -0.8084  1.1350
 4231SOL     OW13247   0.504   5.488   1.194  0.6574 -0.1333 -0.0816
 4231SOL    HW113248   0.414   5.520   1.198  0.2608 -1.3453  2.1813
 4231SOL    HW213249   0.553   5.549   1.249  1.1939  0.3082 -1.0168
 4232SOL     OW13250   5.673   3.879   5.671 -0.1642  0.4916  0.0433
 4232SOL    HW113251   5.728   3.826   5.614 -0.9891  0.1445 -0.4278
 4232SOL    HW213252   5.736   3.927   5.726  0.6027 -1.0829  0.6112
 4233SOL     OW13253   3.811   6.364   4.172 -0.0388 -0.3764  0.1542
 4233SOL    HW113254   3.832   6.371   4.078 -0.2649 -1.0537  0.0429
 4233SOL    HW213255   3.853   6.282   4.199 -0.6260 -0.5820  0.4583
 4234SOL     OW13256   2.616   4.607   3.467  0.2883 -0.2797  0.1213
 4234SOL    HW113257   2.674   4.593   3.542  0.9967 -1.5320 -0.6191
 4234SOL    HW213258   2.534   4.637   3.505  0.3562 -1.6951  1.4828
 4235SOL     OW13259   3.092   5.429   2.284 -0.4357  0.9270 -0.2506
 4235SOL    HW113260   3.048   5.512   2.265 -0.6525  0.6143 -1.1297
 4235SOL    HW213261   3.120   5.438   2.375  0.5245  2.4102 -0.6529
 4236SOL     OW13262   1.086   0.742   0.832  0.4861  0.5886 -0.4265
 4236SOL    HW113263   1.037   0.705   0.759  0.9424  0.8857 -0.8836
 4236SOL    HW213264   1.094   0.669   0.894 -0.2717  0.4581 -0.4768
 4237SOL     OW13265   5.804   0.756   2.154  0.2714  0.4811 -0.0679
 4237SOL    HW113266   5.749   0.705   2.212  1.7906 -2.0848 -0.7223
 4237SOL    HW213267   5.761   0.750   2.068  0.6475 -0.0596 -0.2238
 4238SOL     OW13268   7.721   5.108   6.362  0.1825 -0.1275 -0.6111
 4238SOL    HW113269   7.802   5.132   6.318 -1.0660  1.0249 -2.4002
 4238SOL    HW213270   7.692   5.029   6.316 -0.4704  0.3429 -1.0195
 4239SOL     OW13271   2.609   4.770   0.638 -0.4222  0.3409 -1.0512
 4239SOL    HW113272   2.556   4.756   0.716  0.4802  1.8947 -0.1003
 4239SOL    HW213273   2.590   4.695   0.582  0.3916 -1.9460  1.4939
 4240SOL     OW13274   3.452   2.328   2.965  0.2572  0.5340  1.0984
 4240SOL    HW113275   3.458   2.236   2.941  0.3451  0.8720 -0.3098
 4240SOL    HW213276   3.502   2.336   3.046 -0.2364 -0.7478  1.5568
 4241SOL     OW13277   3.016   3.655   1.604  0.3156 -0.1792  0.1557
 4241SOL    HW113278   2.924   3.631   1.614  0.0099  0.3996 -1.0129
 4241SOL    HW213279   3.017   3.750   1.614  0.7135 -0.1336 -0.2829
 4242SOL     OW13280   2.912   3.677   7.124  0.4330  0.7841  0.7467
 4242SOL    HW113281   2.998   3.653   7.158  0.3764 -0.4370  0.0981
 4242SOL    HW213282   2.872   3.594   7.099 -0.1971  1.4737 -0.6849
 4243SOL     OW13283   7.481   2.280   3.911  0.7142 -0.4407  0.1192
 4243SOL    HW113284   7.429   2.309   3.986 -0.8334 -0.1756 -1.0227
 4243SOL    HW213285   7.511   2.361   3.870  0.9300 -0.5738  0.0124
 4244SOL     OW13286   5.174   0.082   7.524 -0.0098 -0.4558 -0.7000
 4244SOL    HW113287   5.218   0.001   7.550  0.4279  0.5423  2.0082
 4244SOL    HW213288   5.227   0.116   7.452  1.3045 -1.3208 -0.1835
 4245SOL     OW13289   7.644   1.826   5.873  0.2314 -0.6686 -0.1472
 4245SOL    HW113290   7.556   1.797   5.851 -0.2287  1.0388 -0.6851
 4245SOL    HW213291   7.701   1.756   5.840 -0.7429 -0.3968 -2.5911
 4246SOL     OW13292   6.184   7.404   3.822 -0.2918 -0.2844 -0.0756
 4246SOL    HW113293   6.126   7.473   3.854 -1.2146 -0.5600 -1.1342
 4246SOL    HW213294   6.207   7.431   3.733  1.9528  0.2795  0.6077
 4247SOL     OW13295   1.356   1.539   6.905  0.3107  0.0541 -0.0288
 4247SOL    HW113296   1.343   1.575   6.817  1.2692 -0.4453 -0.3848
 4247SOL    HW213297   1.386   1.614   6.957 -2.7891  1.0114  0.5805
 4248SOL     OW13298   5.406   2.975   1.294 -0.3562 -0.3148 -0.4545
 4248SOL    HW113299   5.326   2.997   1.247 -0.2004  2.8447  0.5403
 4248SOL    HW213300   5.475   2.977   1.227 -0.6656  0.2763 -0.7598
 4249SOL     OW13301   5.499   3.304   6.663 -0.0251  0.2249 -0.5476
 4249SOL    HW113302   5.558   3.235   6.632 -1.1153 -0.7011 -0.6463
 4249SOL    HW213303   5.489   3.363   6.589  0.5286  0.2194 -0.6285
 4250SOL     OW13304   0.761   3.422   7.149  0.3109  0.1100 -0.1679
 4250SOL    HW113305   0.818   3.393   7.220  1.0394  0.0804 -0.7611
 4250SOL    HW213306   0.699   3.482   7.192  0.3091 -0.4380  0.6125
 4251SOL     OW13307   4.386   5.306   7.156 -0.0294 -0.7321 -0.1266
 4251SOL    HW113308   4.398   5.269   7.069  0.8799 -0.6451 -0.0491
 4251SOL    HW213309   4.428   5.391   7.152 -0.7190 -0.3660  0.1624
 4252SOL     OW13310   2.164   6.105   7.487 -0.2436 -0.4277 -0.1813
 4252SOL    HW113311   2.073   6.112   7.514  0.0141 -0.0541  0.6280
 4252SOL    HW213312   2.161   6.099   7.392 -1.1002 -0.2401 -0.1712
 4253SOL     OW13313   2.938   3.274   3.334 -0.2048 -0.0346  0.5224
 4253SOL    HW113314   2.983   3.339   3.390 -0.5332 -0.5954  1.4557
 4253SOL    HW213315   2.995   3.198   3.337 -0.0419  0.0576 -0.2186
 4254SOL     OW13316   2.936   2.718   7.384 -0.2142 -0.4636 -0.0068
 4254SOL    HW113317   2.983   2.794   7.348  0.0010 -0.8604 -0.5743
 4254SOL    HW213318   3.002   2.671   7.434  0.0397 -1.0946 -0.9159
 4255SOL     OW13319   0.867   3.900   4.373  0.4052 -0.2690  0.5060
 4255SOL    HW113320   0.896   3.810   4.359  1.8075  0.1163  0.7712
 4255SOL    HW213321   0.943   3.954   4.352 -0.7033  0.9340 -0.6167
 4256SOL     OW13322   0.541   3.661   6.934 -0.3059  0.4370  0.3538
 4256SOL    HW113323   0.588   3.688   7.012  0.7746 -0.8465  0.1835
 4256SOL    HW213324   0.602   3.603   6.888 -1.0368  0.8991 -1.2759
 4257SOL     OW13325   4.260   5.294   3.612 -0.1815 -0.0221  0.0904
 4257SOL    HW113326   4.296   5.331   3.693 -0.4411 -0.8997  0.6245
 4257SOL    HW213327   4.334   5.249   3.571  0.2513  1.4461 -0.8011
 4258SOL     OW13328   5.117   0.516   2.991  0.3874 -0.1106 -0.3676
 4258SOL    HW113329   5.163   0.471   3.062 -0.9312 -0.0204  0.5775
 4258SOL    HW213330   5.103   0.604   3.024 -1.7761 -0.5474  0.0209
 4259SOL     OW13331   7.294   0.858   5.565  0.1396 -0.4375 -0.2730
 4259SOL    HW113332   7.284   0.816   5.651  0.2734 -0.0696 -0.0780
 4259SOL    HW213333   7.388   0.865   5.552  0.1178  0.4858  0.0307
 4260SOL     OW13334   5.276   5.649   1.572 -0.0420  0.1159 -0.0800
 4260SOL    HW113335   5.191   5.677   1.540  0.7223 -0.8163 -3.3157
 4260SOL    HW213336   5.333   5.725   1.560 -0.2409  0.5818  1.6273
 4261SOL     OW13337   5.284   0.430   4.279 -0.0894  0.1581 -0.1346
 4261SOL    HW113338   5.299   0.335   4.273  1.0883  0.4204 -2.8831
 4261SOL    HW213339   5.372   0.468   4.276 -0.5642  1.3802  0.6749
 4262SOL     OW13340   5.637   3.695   1.531 -0.3745 -0.4014  0.1631
 4262SOL    HW113341   5.719   3.723   1.573 -0.2497  0.5789 -0.7041
 4262SOL    HW213342   5.641   3.599   1.531  0.1670 -0.3934  1.3014
 4263SOL     OW13343   2.065   3.534   4.155 -0.0543 -0.1076  0.6238
 4263SOL    HW113344   2.022   3.595   4.095  0.9855  1.3112  1.2483
 4263SOL    HW213345   2.105   3.590   4.221  2.6665 -1.2889  0.1285
 4264SOL     OW13346   2.561   6.514   4.561 -0.3693  0.2032 -0.2543
 4264SOL    HW113347   2.482   6.474   4.524 -0.8368 -0.1574  1.0432
 4264SOL    HW213348   2.580   6.461   4.638  1.8026 -0.3807 -1.1300
 4265SOL     OW13349   2.128   7.643   0.332  0.2160  0.1772 -0.0096
 4265SOL    HW113350   2.112   7.733   0.301 -1.9489  0.2481  1.1214
 4265SOL    HW213351   2.148   7.594   0.253  0.4279  1.4611 -0.7866
 4266SOL     OW13352   1.972   7.597   4.314 -0.9920 -0.4615  0.4328
 4266SOL    HW113353   1.938   7.614   4.401 -2.1613 -0.9874  0.1017
 4266SOL    HW213354   2.063   7.569   4.328 -2.2495 -4.5822  1.9209
 4267SOL     OW13355   1.502   4.616   7.335 -0.1206  0.8715  0.3070
 4267SOL    HW113356   1.430   4.641   7.277 -0.9968 -0.7632  0.6247
 4267SOL    HW213357   1.478   4.652   7.420  0.5124  2.1397 -0.0314
 4268SOL     OW13358   2.487   5.956   4.828 -0.0429 -0.0182  0.4746
 4268SOL    HW113359   2.415   5.967   4.767 -0.4470  0.1035  0.9644
 4268SOL    HW213360   2.539   5.884   4.792  0.1319  0.5296 -0.3906
 4269SOL     OW13361   7.026   1.048   2.890 -0.2623  0.4208  0.0879
 4269SOL    HW113362   7.097   1.100   2.851  0.5551 -1.8779 -1.7096
 4269SOL    HW213363   7.054   0.957   2.881 -3.6470 -0.6608 -1.2665
 4270SOL     OW13364   7.155   2.234   7.365  0.5140  0.1921 -0.5897
 4270SOL    HW113365   7.182   2.143   7.354  0.3925  0.1193 -0.2850
 4270SOL    HW213366   7.142   2.244   7.460 -2.8139 -0.4275 -0.8747
 4271SOL     OW13367   1.707   4.387   4.464  0.3281  0.4211 -0.0724
 4271SOL    HW113368   1.698   4.329   4.540 -0.8340  0.5087 -0.1183
 4271SOL    HW213369   1.641   4.455   4.478 -2.1003 -1.1957 -2.5923
 4272SOL     OW13370   3.880   0.778   0.127 -0.3314  0.1924  0.1987
 4272SOL    HW113371   3.878   0.852   0.187 -2.6279  0.1617  0.2482
 4272SOL    HW213372   3.844   0.705   0.177  2.3703 -1.2076  0.3269
 4273SOL     OW13373   1.979   3.101   3.079 -0.3691 -0.5561 -0.0557
 4273SOL    HW113374   1.914   3.104   3.149 -0.3134 -0.9517  0.0166
 4273SOL    HW213375   1.930   3.079   3.000 -0.7692  1.9313 -0.5744
 4274SOL     OW13376   6.944   5.712   1.071 -0.0967  0.5476  0.0892
 4274SOL    HW113377   6.901   5.756   1.144 -0.6773  1.3125 -0.6950
 4274SOL    HW213378   6.875   5.702   1.005  0.2720 -0.6393 -0.1503
 4275SOL     OW13379   5.508   6.503   3.694  0.0920  0.6470 -0.6060
 4275SOL    HW113380   5.453   6.435   3.735  0.4395  0.6779 -0.0721
 4275SOL    HW213381   5.449   6.578   3.683  0.0621  0.7511  0.1508
 4276SOL     OW13382   4.294   0.122   5.290  0.6021  0.1748 -0.1048
 4276SOL    HW113383   4.364   0.065   5.258 -0.4305 -0.6960 -0.9425
 4276SOL    HW213384   4.242   0.141   5.211 -0.6722 -0.0536  0.6513
 4277SOL     OW13385   6.991   1.347   3.839 -0.1078 -0.3237 -0.3155
 4277SOL    HW113386   7.007   1.441   3.848 -2.0830  0.0976 -0.7353
 4277SOL    HW213387   7.046   1.320   3.765 -0.6715  0.8289 -1.1751
 4278SOL     OW13388   3.636   7.635   2.969  0.1611 -0.4124  0.0417
 4278SOL    HW113389   3.554   7.639   2.920 -0.3569  0.1770  0.9313
 4278SOL    HW213390   3.686   7.712   2.940 -0.7378  0.7399  1.4275
 4279SOL     OW13391   7.445   5.613   1.033  0.1580  0.2016 -0.3158
 4279SOL    HW113392   7.406   5.534   1.071  1.1571  0.6734  1.8559
 4279SOL    HW213393   7.374   5.677   1.032 -0.2686 -0.2713 -0.6842
 4280SOL     OW13394   5.935   0.755   6.911  0.2282 -0.1477 -0.4507
 4280SOL    HW113395   5.946   0.730   6.819 -0.9460  0.6868 -0.8378
 4280SOL    HW213396   5.981   0.687   6.960  1.2678 -0.3475 -1.6715
 4281SOL     OW13397   5.357   5.828   1.895 -0.4553  0.2097 -0.3230
 4281SOL    HW113398   5.311   5.829   1.979 -0.1711  1.1836 -0.1612
 4281SOL    HW213399   5.295   5.867   1.834  0.2656  1.9248 -0.0185
 4282SOL     OW13400   7.285   2.508   3.653 -0.0898  0.0020  0.0206
 4282SOL    HW113401   7.294   2.451   3.576 -0.0162  1.3755 -1.0253
 4282SOL    HW213402   7.237   2.454   3.716  1.4363 -1.8052 -0.2615
 4283SOL     OW13403   1.403   3.591   3.176  0.0848  0.1648  0.3759
 4283SOL    HW113404   1.327   3.533   3.178  0.5647 -0.4619  0.6858
 4283SOL    HW213405   1.401   3.630   3.089  0.1641 -0.8765 -0.1111
 4284SOL     OW13406   2.887   3.307   0.851 -0.5227  0.2492 -0.1143
 4284SOL    HW113407   2.795   3.289   0.871 -0.2753 -0.1919  0.6509
 4284SOL    HW213408   2.935   3.236   0.892  0.0480 -0.5793 -2.1094
 4285SOL     OW13409   3.399   4.412   6.401 -0.2848 -0.4742  0.3840
 4285SOL    HW113410   3.400   4.317   6.407  0.5515 -0.6015 -1.1313
 4285SOL    HW213411   3.468   4.433   6.338 -1.6518  1.0011 -0.7190
 4286SOL     OW13412   6.012   6.701   3.488 -0.6093  0.3799 -0.6935
 4286SOL    HW113413   6.077   6.770   3.500 -1.5830  1.4774 -1.4168
 4286SOL    HW213414   5.986   6.676   3.576  2.3650 -1.7190 -0.2698
 4287SOL     OW13415   7.587   7.191   1.997 -0.2566  0.2312 -0.4529
 4287SOL    HW113416   7.571   7.162   1.907 -0.4210  2.0931 -1.0500
 4287SOL    HW213417   7.505   7.171   2.043 -0.4377 -0.0484 -0.8888
 4288SOL     OW13418   1.978   4.668   4.873  0.2402  0.1389 -0.1380
 4288SOL    HW113419   1.883   4.671   4.874  0.1639 -0.0739 -2.2231
 4288SOL    HW213420   2.003   4.738   4.813  1.3077 -0.8227 -0.8574
 4289SOL     OW13421   3.963   5.733   3.248  0.4604 -0.3815 -0.5343
 4289SOL    HW113422   3.950   5.785   3.327  0.8922 -1.8156  0.5135
 4289SOL    HW213423   3.877   5.693   3.232  0.7984 -1.4612  0.2415
 4290SOL     OW13424   0.951   5.640   2.827  0.3311 -0.1980  0.5503
 4290SOL    HW113425   0.960   5.684   2.743 -2.0381 -0.2766  0.1707
 4290SOL    HW213426   0.971   5.548   2.809  0.7256 -0.0603  0.2849
 4291SOL     OW13427   0.994   4.980   1.926  0.1794  0.0090 -0.2736
 4291SOL    HW113428   1.029   4.894   1.947  1.2969  0.7209  0.9802
 4291SOL    HW213429   1.041   5.040   1.984 -0.9225  1.4118 -0.7530
 4292SOL     OW13430   6.049   4.815   3.771  0.2649  0.2718  0.1304
 4292SOL    HW113431   6.042   4.741   3.711 -1.0466  0.6448 -0.2181
 4292SOL    HW213432   6.139   4.813   3.802  0.2185 -1.5628  0.2522
 4293SOL     OW13433   7.091   5.833   2.094 -0.0719  0.3071 -0.1664
 4293SOL    HW113434   7.156   5.816   2.162  0.3275  1.6019 -0.1932
 4293SOL    HW213435   7.048   5.749   2.080  2.8971 -1.1241 -1.5328
 4294SOL     OW13436   2.308   7.547   3.834  0.4173 -0.3679  0.6255
 4294SOL    HW113437   2.256   7.467   3.832  0.0391 -0.1659  1.6278
 4294SOL    HW213438   2.309   7.573   3.926 -1.1615  1.8512  0.1077
 4295SOL     OW13439   1.912   1.273   1.728  0.6441  0.5821 -0.5459
 4295SOL    HW113440   1.997   1.296   1.765  0.8784 -1.5808  0.3774
 4295SOL    HW213441   1.924   1.185   1.692 -1.1200  0.3395 -0.6447
 4296SOL     OW13442   0.009   3.823   6.206 -0.2793 -0.1797  0.0748
 4296SOL    HW113443   0.097   3.843   6.239  0.5864 -0.0894 -2.0968
 4296SOL    HW213444  -0.028   3.908   6.182 -0.8427 -0.2479  0.6890
 4297SOL     OW13445   2.362   3.246   4.280 -0.0315 -1.0912  0.2351
 4297SOL    HW113446   2.391   3.252   4.371 -0.9394 -1.1685  0.5319
 4297SOL    HW213447   2.268   3.262   4.283  0.2806  1.5128 -0.9778
 4298SOL     OW13448   5.239   3.854   6.949  0.3854  0.2723 -0.2009
 4298SOL    HW113449   5.247   3.948   6.962 -0.3533  0.1279  1.5230
 4298SOL    HW213450   5.150   3.842   6.917  0.3229  0.1190  0.0286
 4299SOL     OW13451   0.058   6.770   0.135  0.0209 -0.2989  0.1005
 4299SOL    HW113452   0.152   6.759   0.150  0.1310 -1.1638 -1.1029
 4299SOL    HW213453   0.050   6.784   0.041 -0.8965  1.7825  0.4291
 4300SOL     OW13454   0.784   5.924   3.209  0.4828  0.0075  0.3633
 4300SOL    HW113455   0.770   5.874   3.128 -0.4868  0.5691  0.1694
 4300SOL    HW213456   0.697   5.955   3.233  0.8809  0.4943  1.2068
 4301SOL     OW13457   2.629   1.929   0.194  0.5405  0.1044  0.2671
 4301SOL    HW113458   2.665   1.858   0.247  2.3007 -0.3206 -1.3702
 4301SOL    HW213459   2.639   2.007   0.248  1.7377 -0.3994  0.8045
 4302SOL     OW13460   7.358   1.587   7.717  0.4511 -0.0120  0.4682
 4302SOL    HW113461   7.382   1.671   7.757 -0.0381  0.4503 -0.1840
 4302SOL    HW213462   7.398   1.521   7.774  2.4215  0.6919 -0.0146
 4303SOL     OW13463   3.931   7.568   3.830 -0.1669 -0.0461 -0.3089
 4303SOL    HW113464   4.006   7.584   3.886 -0.7860 -1.7181  1.1127
 4303SOL    HW213465   3.967   7.567   3.741  0.8752  2.4417  0.0022
 4304SOL     OW13466   1.632   0.134   6.531 -0.0411  0.1762  0.1081
 4304SOL    HW113467   1.565   0.177   6.584 -0.2029  0.9694 -0.7121
 4304SOL    HW213468   1.591   0.123   6.445  0.8978  0.7667 -0.4360
 4305SOL     OW13469   4.580   3.208   2.526  0.2712 -0.5862  0.2618
 4305SOL    HW113470   4.563   3.182   2.435  3.2003 -0.4873 -0.4165
 4305SOL    HW213471   4.499   3.251   2.554 -0.4527  0.1583 -2.5955
 4306SOL     OW13472   1.062   6.221   2.847  0.5255 -0.2215 -0.3510
 4306SOL    HW113473   1.049   6.147   2.788  0.6692 -0.6598  0.1590
 4306SOL    HW213474   1.108   6.184   2.922  1.0650  0.4863 -0.3187
 4307SOL     OW13475   4.245   1.145   7.591 -0.0291  0.1267  0.4886
 4307SOL    HW113476   4.312   1.105   7.646 -0.4166 -1.6476 -0.2405
 4307SOL    HW213477   4.169   1.087   7.599  0.0154 -0.4517 -2.1310
 4308SOL     OW13478   2.300   5.830   7.523 -0.1071  0.1332 -0.2559
 4308SOL    HW113479   2.378   5.876   7.554 -0.1873  0.4417 -0.5070
 4308SOL    HW213480   2.290   5.858   7.432 -1.2567  1.1243  0.1487
 4309SOL     OW13481   2.684   3.515   5.511 -0.2555 -0.4021  0.4682
 4309SOL    HW113482   2.680   3.588   5.449 -0.6860  0.1002  1.0833
 4309SOL    HW213483   2.729   3.445   5.463 -1.1601 -0.2468 -0.6319
 4310SOL     OW13484   2.887   2.364   1.355 -0.2043  0.2265  0.9989
 4310SOL    HW113485   2.854   2.365   1.445  1.0891  0.3795  1.4823
 4310SOL    HW213486   2.838   2.433   1.312 -2.1050 -0.9848  1.0930
 4311SOL     OW13487   3.762   3.618   2.454 -0.5157  0.2444 -0.1386
 4311SOL    HW113488   3.842   3.607   2.505 -1.4342  0.9916  1.5256
 4311SOL    HW213489   3.739   3.529   2.426  0.7937  0.0016 -0.5209
 4312SOL     OW13490   6.993   3.551   0.784  0.1242 -0.2425  0.0489
 4312SOL    HW113491   7.001   3.475   0.726  1.6264  0.4095 -0.6427
 4312SOL    HW213492   6.952   3.618   0.730  0.6598  0.0651  0.0119
 4313SOL     OW13493   3.658   2.240   1.608  0.4215 -0.3631  0.0169
 4313SOL    HW113494   3.714   2.166   1.584  0.6725 -0.0554 -0.3509
 4313SOL    HW213495   3.682   2.310   1.547 -0.2684 -0.1834 -0.0674
 4314SOL     OW13496   2.073   0.063   2.840 -0.1877  0.1364  0.3525
 4314SOL    HW113497   2.080   0.106   2.755 -2.0241 -1.7628 -0.8325
 4314SOL    HW213498   2.143  -0.003   2.840  0.0275  0.3622  0.4701
 4315SOL     OW13499   4.201   5.200   0.754  0.0985 -0.3666  0.3030
 4315SOL    HW113500   4.111   5.167   0.746 -0.3319  0.8758 -0.2203
 4315SOL    HW213501   4.235   5.156   0.832 -0.7169 -1.3889  0.1160
 4316SOL     OW13502   4.831   7.068   2.294  0.3550  0.2097 -0.1560
 4316SOL    HW113503   4.790   7.146   2.333 -0.6774 -0.2255 -0.3213
 4316SOL    HW213504   4.765   7.035   2.233  1.3417  0.0119 -1.1529
 4317SOL     OW13505   2.376   0.051   3.753  0.2154  0.2134  0.1816
 4317SOL    HW113506   2.350  -0.038   3.774 -0.5375  0.1197 -1.0239
 4317SOL    HW213507   2.465   0.043   3.718  0.0478 -0.1118 -0.1816
 4318SOL     OW13508   4.240   0.912   0.632  0.5039  0.1758  0.1335
 4318SOL    HW113509   4.262   0.927   0.540  0.2764  0.7123  0.1649
 4318SOL    HW213510   4.325   0.900   0.675  0.7224  1.7441  0.1704
 4319SOL     OW13511   5.263   1.193   1.229  0.2206 -0.0277  0.0166
 4319SOL    HW113512   5.224   1.241   1.156 -0.7844  2.0326  1.7778
 4319SOL    HW213513   5.337   1.247   1.255  0.3516 -0.5489  0.7292
 4320SOL     OW13514   7.500   3.181   4.205 -0.3198 -0.8094  0.2896
 4320SOL    HW113515   7.454   3.203   4.124 -0.1415  1.7348  0.7875
 4320SOL    HW213516   7.462   3.098   4.232 -1.4928 -0.9420 -1.5880
 4321SOL     OW13517   7.398   7.316   3.632  0.4789 -0.3016  0.5352
 4321SOL    HW113518   7.367   7.251   3.694  0.2984 -1.1072 -0.3722
 4321SOL    HW213519   7.338   7.390   3.643 -0.8886 -1.2602 -0.1486
 4322SOL     OW13520   5.926   3.190   2.974 -0.1381 -0.2991  0.0616
 4322SOL    HW113521   6.015   3.198   2.941  0.7487 -2.5637  1.6177
 4322SOL    HW213522   5.933   3.206   3.068 -2.0724  3.0524 -0.2268
 4323SOL     OW13523   5.533   6.730   2.587  0.0688 -0.5748 -0.0329
 4323SOL    HW113524   5.585   6.675   2.645  0.7757 -0.3146 -0.4076
 4323SOL    HW213525   5.487   6.669   2.531 -2.5941 -0.9792  2.3604
 4324SOL     OW13526   5.656   7.590   1.425  0.0879  0.0220  0.3081
 4324SOL    HW113527   5.623   7.671   1.386  1.4655 -0.5303 -2.2242
 4324SOL    HW213528   5.578   7.543   1.454 -1.1016  0.3964 -2.0542
 4325SOL     OW13529   7.576   6.469   2.111  0.9779  0.7857 -0.3816
 4325SOL    HW113530   7.568   6.505   2.200  0.1366  1.5118 -0.7465
 4325SOL    HW213531   7.624   6.536   2.063  1.7305  0.2468 -0.4152
 4326SOL     OW13532   0.342   3.533   5.140 -0.2628 -0.0018  0.1390
 4326SOL    HW113533   0.337   3.521   5.235  0.0888  0.3492  0.2062
 4326SOL    HW213534   0.397   3.462   5.109 -1.6498 -1.0453 -0.0042
 4327SOL     OW13535   1.089   2.141   1.973 -0.1261  0.3973  0.3798
 4327SOL    HW113536   1.054   2.226   1.998 -1.0395 -0.4729  2.2446
 4327SOL    HW213537   1.175   2.161   1.935 -0.6931  2.1959 -0.0602
 4328SOL     OW13538   0.040   1.091   5.536  0.2790 -0.2242  1.0302
 4328SOL    HW113539  -0.033   1.136   5.580  0.0112  0.8192 -0.3908
 4328SOL    HW213540   0.003   1.060   5.454  1.0839 -0.9968  0.9447
 4329SOL     OW13541   6.782   5.738   4.699 -0.2299 -0.3074 -0.2243
 4329SOL    HW113542   6.724   5.767   4.769 -0.1965 -0.9633  0.0770
 4329SOL    HW213543   6.748   5.781   4.621  0.4900  1.4597  0.3715
 4330SOL     OW13544   3.670   6.931   4.546 -0.0286 -0.4660  0.3503
 4330SOL    HW113545   3.602   6.889   4.495 -0.2811  0.3432  0.0057
 4330SOL    HW213546   3.698   6.864   4.609  0.2656 -1.4564 -0.8044
 4331SOL     OW13547   3.261   6.367   6.161 -0.5649 -0.2531  0.4442
 4331SOL    HW113548   3.185   6.347   6.215 -2.0761  1.8005 -0.7606
 4331SOL    HW213549   3.260   6.301   6.092 -0.3656 -1.1092  1.2455
 4332SOL     OW13550   7.294   1.729   5.262 -0.1983  0.3225  0.0206
 4332SOL    HW113551   7.343   1.647   5.268 -0.3617  0.2701  0.7024
 4332SOL    HW213552   7.357   1.796   5.287 -0.1315  0.3889 -0.3115
 4333SOL     OW13553   1.202   6.097   7.198  0.2375  0.1444  0.5031
 4333SOL    HW113554   1.145   6.075   7.124  0.5777 -0.4719  0.4179
 4333SOL    HW213555   1.149   6.080   7.276  0.6438 -1.5199  0.4588
 4334SOL     OW13556   4.494   7.580   6.885 -0.2671  0.1777 -0.1170
 4334SOL    HW113557   4.520   7.536   6.804 -2.1182 -1.6597  0.1973
 4334SOL    HW213558   4.420   7.635   6.861  0.1085  0.7808  0.0775
 4335SOL     OW13559   2.302   7.198   1.607  0.1453 -0.4623 -0.0721
 4335SOL    HW113560   2.382   7.239   1.639  0.6939  0.0373 -1.9826
 4335SOL    HW213561   2.232   7.248   1.648  0.8205  0.7258 -0.3161
 4336SOL     OW13562   3.353   5.404   2.213 -0.4104 -0.4965 -0.4712
 4336SOL    HW113563   3.406   5.473   2.175  0.9883 -1.5384 -0.4838
 4336SOL    HW213564   3.265   5.441   2.219 -0.0810  0.6316 -2.1782
 4337SOL     OW13565   2.302   4.776   1.746  0.2041  0.4749 -0.1641
 4337SOL    HW113566   2.378   4.723   1.767  0.3294  0.9213  0.5552
 4337SOL    HW213567   2.322   4.814   1.660  1.1814  1.2578  0.3900
 4338SOL     OW13568   6.433   3.793   3.628 -0.1962  0.3305 -0.0092
 4338SOL    HW113569   6.506   3.849   3.599 -1.1824  0.8625 -1.6039
 4338SOL    HW213570   6.371   3.853   3.668 -0.0339 -0.0522  0.8522
 4339SOL     OW13571   2.691   0.535   0.617 -0.0647 -0.0347 -0.0226
 4339SOL    HW113572   2.757   0.473   0.647 -1.5759 -0.8242  1.9096
 4339SOL    HW213573   2.707   0.614   0.668  0.3659  0.3547 -0.7412
 4340SOL     OW13574   7.105   5.080   3.008 -0.6441 -0.2757 -0.0380
 4340SOL    HW113575   7.184   5.084   3.062 -0.4917  0.2428 -0.2929
 4340SOL    HW213576   7.064   4.997   3.032  0.2840 -0.8395 -0.3457
 4341SOL     OW13577   1.886   4.679   7.411  0.5242  0.2277  0.0678
 4341SOL    HW113578   1.981   4.684   7.399  0.3178  0.8108 -1.6652
 4341SOL    HW213579   1.852   4.663   7.323 -1.0628  1.2105  0.4607
 4342SOL     OW13580   5.203   4.655   5.121  0.5728  0.1958 -0.4966
 4342SOL    HW113581   5.155   4.728   5.160 -0.4177 -0.7411  0.0981
 4342SOL    HW213582   5.148   4.625   5.049  0.3742 -0.7242  0.0266
 4343SOL     OW13583   3.736   3.574   6.778 -0.1071  0.1458 -0.4277
 4343SOL    HW113584   3.689   3.560   6.860 -0.4490  0.2477 -0.6071
 4343SOL    HW213585   3.813   3.625   6.804  0.9961 -1.7299  0.1834
 4344SOL     OW13586   7.146   1.517   5.967 -0.2691  0.3591 -0.2428
 4344SOL    HW113587   7.163   1.468   5.887 -2.7260  0.2532 -0.7857
 4344SOL    HW213588   7.197   1.471   6.034 -1.2370 -2.0368 -1.0182
 4345SOL     OW13589   5.365   3.489   0.162 -0.5020  0.2528  0.4113
 4345SOL    HW113590   5.306   3.470   0.089 -2.7285 -1.5010  2.5018
 4345SOL    HW213591   5.341   3.577   0.190 -0.2320  0.5954 -0.4036
 4346SOL     OW13592   0.318   0.825   5.456  0.0891 -0.4457 -0.1733
 4346SOL    HW113593   0.397   0.874   5.481 -1.1021  1.4273  0.1554
 4346SOL    HW213594   0.304   0.847   5.364 -0.1177 -0.6690 -0.1969
 4347SOL     OW13595   0.871   6.408   5.620  0.6211 -0.0370 -0.5816
 4347SOL    HW113596   0.778   6.384   5.625  0.2475  1.2544 -1.0290
 4347SOL    HW213597   0.890   6.446   5.706  0.6172  0.1216 -0.6518
 4348SOL     OW13598   6.807   7.330   4.280  0.2110 -0.1744  0.0983
 4348SOL    HW113599   6.770   7.269   4.343 -2.1704  1.7950  0.7480
 4348SOL    HW213600   6.789   7.290   4.195 -2.3481  0.0614  0.4622
 4349SOL     OW13601   5.638   3.050   1.151  0.5249 -0.7769  0.7406
 4349SOL    HW113602   5.637   3.079   1.242  4.1642  0.1240  0.6403
 4349SOL    HW213603   5.730   3.031   1.133  0.2589  0.8091 -3.2706
 4350SOL     OW13604   7.222   0.378   3.495 -0.0351 -0.7838 -0.5806
 4350SOL    HW113605   7.187   0.334   3.572 -0.5039  0.0963 -0.2753
 4350SOL    HW213606   7.309   0.406   3.520 -0.6193  0.5354  0.0605
 4351SOL     OW13607   5.630   5.828   0.646  0.3111 -0.3670  0.2019
 4351SOL    HW113608   5.672   5.907   0.679  0.7172 -0.2187 -0.6357
 4351SOL    HW213609   5.679   5.756   0.686  0.9554 -0.1927 -0.2549
 4352SOL     OW13610   3.828   7.615   1.506  0.1376 -0.0410  0.0717
 4352SOL    HW113611   3.734   7.630   1.489  0.3013  1.3235  0.2433
 4352SOL    HW213612   3.859   7.571   1.427 -0.9550 -1.9773  0.6613
 4353SOL     OW13613   3.238   4.714   2.005 -0.4080 -0.3021 -0.4260
 4353SOL    HW113614   3.249   4.626   1.968  0.1003  0.7071 -2.8444
 4353SOL    HW213615   3.288   4.712   2.087  1.4710 -1.6389 -1.5230
 4354SOL     OW13616   5.712   1.036   0.333  0.5297 -0.5660  0.3850
 4354SOL    HW113617   5.792   1.063   0.377  0.0913  0.0612  0.8212
 4354SOL    HW213618   5.721   1.069   0.243  0.7433 -0.4723  0.4418
 4355SOL     OW13619   0.730   4.199   3.351 -0.4017  0.6064 -0.4608
 4355SOL    HW113620   0.736   4.289   3.384  1.3782  0.1324  0.6840
 4355SOL    HW213621   0.817   4.182   3.314 -0.6774 -0.6789 -0.5553
 4356SOL     OW13622   2.276   3.945   2.165 -0.3656 -0.1495  0.0036
 4356SOL    HW113623   2.347   3.940   2.228 -0.8571  0.5665  0.6302
 4356SOL    HW213624   2.318   3.926   2.081  0.3597 -0.7695  0.4886
 4357SOL     OW13625   2.303   3.730   0.872  0.0070  0.3868  0.3946
 4357SOL    HW113626   2.226   3.732   0.815  0.4971  0.4979 -0.2830
 4357SOL    HW213627   2.271   3.759   0.957 -1.2209 -1.8847  0.7822
 4358SOL     OW13628   3.380   4.344   6.048  0.3260  0.2851  0.2520
 4358SOL    HW113629   3.464   4.319   6.085 -0.1623  0.0654  1.2539
 4358SOL    HW213630   3.359   4.428   6.090 -0.4646 -0.2081  0.8952
 4359SOL     OW13631   4.428   6.457   1.424 -0.5162 -0.6900  0.0710
 4359SOL    HW113632   4.440   6.430   1.333  0.4601  0.0093 -0.0197
 4359SOL    HW213633   4.509   6.432   1.468 -0.3441  0.3838  0.3944
 4360SOL     OW13634   0.689   4.448   2.968 -0.1299  0.7778  0.2580
 4360SOL    HW113635   0.682   4.353   2.964 -2.0410  0.9269 -1.4083
 4360SOL    HW213636   0.599   4.479   2.976  0.3836  2.4593  0.0324
 4361SOL     OW13637   4.667   1.298   2.515  0.1403 -0.2376  0.0958
 4361SOL    HW113638   4.704   1.384   2.492 -1.1356  0.7950  1.6379
 4361SOL    HW213639   4.734   1.235   2.488  0.8734  1.1804 -1.6057
 4362SOL     OW13640   4.964   5.826   0.657 -0.1513 -0.3500  0.7439
 4362SOL    HW113641   5.009   5.910   0.652 -0.5843 -0.1281  0.4947
 4362SOL    HW213642   4.880   5.846   0.698 -0.6571 -0.4908 -0.2008
 4363SOL     OW13643   4.278   7.234   2.591  0.0458  0.2222 -0.9927
 4363SOL    HW113644   4.369   7.253   2.570  0.5695  0.4897  1.2188
 4363SOL    HW213645   4.261   7.148   2.552  1.5615 -0.2648 -0.6342
 4364SOL     OW13646   5.301   0.791   2.897 -0.0590 -0.2930  0.7813
 4364SOL    HW113647   5.332   0.753   2.815  0.3499  1.3485  0.1317
 4364SOL    HW213648   5.368   0.855   2.920 -1.5837  1.3897  0.7935
 4365SOL     OW13649   4.396   2.108   1.300 -0.1673 -0.2230 -0.1351
 4365SOL    HW113650   4.306   2.099   1.330  0.1045 -1.7161  0.2790
 4365SOL    HW213651   4.440   2.155   1.371 -0.7256  1.0477 -0.5972
 4366SOL     OW13652   6.195   0.256   5.765 -0.6535 -0.0105 -0.5361
 4366SOL    HW113653   6.287   0.232   5.759 -0.3186  0.5583  1.5452
 4366SOL    HW213654   6.196   0.352   5.766 -1.1934 -0.0080  0.2974
 4367SOL     OW13655   4.072   7.575   4.270 -0.2300  0.1943 -0.4403
 4367SOL    HW113656   3.985   7.615   4.258  0.4666  1.6969 -0.6811
 4367SOL    HW213657   4.124   7.643   4.312  0.4602 -1.1871  1.0735
 4368SOL     OW13658   1.591   3.297   1.330 -0.3625 -0.0191  0.3598
 4368SOL    HW113659   1.514   3.269   1.280 -1.5581 -0.0886  2.1278
 4368SOL    HW213660   1.570   3.386   1.358 -0.1180 -0.2942  1.4477
 4369SOL     OW13661   3.348   3.489   0.563 -0.0572 -0.0877  1.1504
 4369SOL    HW113662   3.436   3.520   0.586  0.2100 -1.1363  1.6247
 4369SOL    HW213663   3.361   3.442   0.481 -0.0808 -0.6427  1.4610
 4370SOL     OW13664   0.547   1.587   3.348 -0.1782  0.0519  0.8411
 4370SOL    HW113665   0.575   1.611   3.436  0.8943 -1.8064  1.0607
 4370SOL    HW213666   0.557   1.491   3.345 -2.6181 -0.2245 -0.4725
 4371SOL     OW13667   2.975   2.220   3.071  0.7355  0.7685  0.4857
 4371SOL    HW113668   2.995   2.261   2.987 -0.0448  0.9014  0.3499
 4371SOL    HW213669   3.060   2.208   3.113  1.0187  2.1528  0.3581
 4372SOL     OW13670   4.647   1.140   3.438 -0.1914 -0.3378 -0.0975
 4372SOL    HW113671   4.728   1.136   3.489 -0.3641  0.0040  0.2113
 4372SOL    HW213672   4.609   1.053   3.446  1.0109 -1.0632 -1.7076
 4373SOL     OW13673   3.712   2.012   3.137  0.3884 -0.0815 -0.4094
 4373SOL    HW113674   3.725   1.920   3.115 -1.5696 -0.7020  0.8014
 4373SOL    HW213675   3.744   2.020   3.227 -1.1114 -0.0552  0.1514
 4374SOL     OW13676   7.317   0.907   6.397 -0.2887  0.3414  0.6844
 4374SOL    HW113677   7.275   0.822   6.408 -0.7167  0.2874 -1.0904
 4374SOL    HW213678   7.410   0.886   6.385 -0.4152  0.0999  0.0954
 4375SOL     OW13679   1.003   6.078   4.899  0.1337 -0.4446 -0.1195
 4375SOL    HW113680   0.975   6.169   4.899  0.2957 -0.3797  1.0814
 4375SOL    HW213681   0.972   6.043   4.815  0.0615  0.7015 -0.5823
 4376SOL     OW13682   1.289   4.900   3.426 -0.0584  0.5352  0.4730
 4376SOL    HW113683   1.346   4.835   3.383 -1.6008 -0.3139 -0.3674
 4376SOL    HW213684   1.231   4.931   3.356 -1.3646  0.5481  1.5229
 4377SOL     OW13685   2.751   3.657   7.437  0.2406 -0.6058 -0.4180
 4377SOL    HW113686   2.832   3.606   7.440 -1.2416 -3.0765 -0.1583
 4377SOL    HW213687   2.688   3.600   7.393 -1.6871  0.7372  0.4637
 4378SOL     OW13688   5.175   6.932   2.428  0.0792  0.0611 -0.4154
 4378SOL    HW113689   5.111   6.969   2.489 -1.2329  1.1139 -2.3175
 4378SOL    HW213690   5.189   7.001   2.363  0.7342 -1.3025 -1.7899
 4379SOL     OW13691   6.720   6.969   2.922 -0.3894 -0.3374 -0.0966
 4379SOL    HW113692   6.625   6.981   2.919 -0.0670  2.8842 -0.7761
 4379SOL    HW213693   6.744   6.981   3.014 -0.5262  0.3878 -0.1480
 4380SOL     OW13694   1.894   6.949   6.013  0.0347 -0.8688  0.0756
 4380SOL    HW113695   1.986   6.956   6.038 -0.0574 -0.9667  0.4637
 4380SOL    HW213696   1.894   6.897   5.933  0.4944  1.0226 -1.2081
 4381SOL     OW13697   4.828   4.699   5.708 -0.9164  0.5801 -0.2707
 4381SOL    HW113698   4.849   4.622   5.761  0.3760  0.0292 -1.5138
 4381SOL    HW213699   4.778   4.664   5.634 -1.4839  1.1377 -0.1572
 4382SOL     OW13700   0.146   1.747   3.024 -0.0196  0.2427  0.3932
 4382SOL    HW113701   0.210   1.706   2.966 -0.2582 -0.7038  0.7821
 4382SOL    HW213702   0.066   1.696   3.012  0.2056 -0.6552  2.3018
 4383SOL     OW13703   5.168   2.817   7.164  0.4157 -0.9311  0.2579
 4383SOL    HW113704   5.134   2.798   7.251 -0.4504  0.3646  0.2237
 4383SOL    HW213705   5.098   2.867   7.121  0.7800 -1.6143 -1.2190
 4384SOL     OW13706   2.446   2.756   0.954  0.6042  0.3720 -0.6351
 4384SOL    HW113707   2.367   2.734   1.003  0.5422  0.3236 -0.7550
 4384SOL    HW213708   2.435   2.849   0.933  0.5549  0.3524 -0.6963
 4385SOL     OW13709   1.733   2.542   1.695 -0.7339  0.6521  0.2835
 4385SOL    HW113710   1.754   2.481   1.624 -1.6063 -0.1808  0.7003
 4385SOL    HW213711   1.756   2.494   1.775  0.3597  1.6307  0.5631
 4386SOL     OW13712   3.616   6.698   3.963 -0.0122 -0.0069 -0.5657
 4386SOL    HW113713   3.637   6.792   3.964 -0.0581  0.1378 -3.8263
 4386SOL    HW213714   3.701   6.654   3.968  0.0630  0.2104  0.1667
 4387SOL     OW13715   1.563   7.028   5.865 -0.0730 -0.3190  0.6238
 4387SOL    HW113716   1.525   7.044   5.952  1.9445 -2.9732  2.1202
 4387SOL    HW213717   1.533   6.940   5.842  2.6790 -1.3221  0.5750
 4388SOL     OW13718   4.452   3.632   4.748  0.3536 -0.3060 -0.1404
 4388SOL    HW113719   4.510   3.578   4.803 -0.4961  0.4198  1.5150
 4388SOL    HW213720   4.370   3.583   4.744 -0.6016  1.0238  1.8026
 4389SOL     OW13721   3.605   5.347   7.324  0.5504  0.3672  0.9364
 4389SOL    HW113722   3.594   5.261   7.364  0.0528 -0.2518 -0.4645
 4389SOL    HW213723   3.698   5.368   7.336  0.4415  0.1469  2.2496
 4390SOL     OW13724   4.035   5.318   7.056  0.2318  0.1216 -0.6454
 4390SOL    HW113725   4.065   5.232   7.084 -1.9614 -0.4596  0.1097
 4390SOL    HW213726   3.961   5.338   7.113 -0.2354  1.8490 -1.7731
 4391SOL     OW13727   6.470   6.143   3.091 -0.2791  0.8015  0.5679
 4391SOL    HW113728   6.526   6.164   3.166 -0.7850  1.3050  0.8088
 4391SOL    HW213729   6.485   6.050   3.075  0.3102  0.8358  0.8949
 4392SOL     OW13730   7.452   5.318   0.369 -0.5848  0.2196  0.3108
 4392SOL    HW113731   7.478   5.304   0.278 -0.6134 -1.7435  0.5596
 4392SOL    HW213732   7.411   5.405   0.369  1.6031  1.3502 -1.0281
 4393SOL     OW13733   1.343   4.175   4.058  0.0445 -0.7240 -0.2747
 4393SOL    HW113734   1.289   4.139   3.988 -1.2621 -0.2122  0.4397
 4393SOL    HW213735   1.293   4.250   4.092  0.8545 -0.6806  0.8984
 4394SOL     OW13736   3.940   6.350   3.269  0.7293 -0.5045 -0.4475
 4394SOL    HW113737   4.026   6.344   3.228  0.7904 -2.7819 -0.1169
 4394SOL    HW213738   3.879   6.325   3.199  0.2427  1.5474 -0.8181
 4395SOL     OW13739   1.942   4.895   2.350  0.5436  0.4163 -0.0843
 4395SOL    HW113740   1.938   4.852   2.435  1.8832 -1.4852 -0.9157
 4395SOL    HW213741   1.852   4.922   2.332  0.0085 -0.3401  1.3436
 4396SOL     OW13742   0.542   0.770   4.431  0.3507 -0.2331  0.6013
 4396SOL    HW113743   0.592   0.696   4.396 -0.1481  0.6351 -2.1284
 4396SOL    HW213744   0.488   0.731   4.501  0.7182 -2.2749 -0.1873
 4397SOL     OW13745   5.963   4.820   7.224  0.1672  0.2800 -0.2457
 4397SOL    HW113746   5.996   4.909   7.233  2.1545 -0.5535  1.4409
 4397SOL    HW213747   6.034   4.771   7.184 -0.5043 -0.7678 -0.2086
 4398SOL     OW13748   4.569   6.044   5.422 -0.4975  0.6022  0.0753
 4398SOL    HW113749   4.489   6.065   5.470 -0.8129  0.4163 -0.3667
 4398SOL    HW213750   4.617   6.127   5.418 -1.5042  1.1517 -1.2248
 4399SOL     OW13751   6.829   1.451   4.480 -0.1127 -0.0523  0.1999
 4399SOL    HW113752   6.907   1.428   4.531 -0.2569  0.1621  0.5192
 4399SOL    HW213753   6.851   1.534   4.438 -0.2467  0.1186  0.4638
 4400SOL     OW13754   1.856   3.288   3.445  0.2589 -0.1633 -0.2671
 4400SOL    HW113755   1.777   3.341   3.447  1.6952  2.0771  1.0100
 4400SOL    HW213756   1.869   3.261   3.536  1.4136  0.2230 -0.3081
 4401SOL     OW13757   1.400   0.580   5.751 -0.1644 -0.7225 -0.2687
 4401SOL    HW113758   1.433   0.615   5.668  1.1983  1.0201  0.9442
 4401SOL    HW213759   1.468   0.518   5.778  0.9007  0.8667  0.9026
 4402SOL     OW13760   1.384   1.791   3.847 -0.1911  0.3622  0.0003
 4402SOL    HW113761   1.401   1.884   3.864  0.5591 -0.0200  1.4887
 4402SOL    HW213762   1.400   1.781   3.754  0.2119  1.6303 -0.0914
 4403SOL     OW13763   7.730   7.523   1.449 -0.2189  0.4836  0.7441
 4403SOL    HW113764   7.746   7.585   1.520  0.9082 -1.6640  2.5126
 4403SOL    HW213765   7.775   7.443   1.477 -0.6331 -0.7857 -1.9389
 4404SOL     OW13766   2.390   7.614   6.747  0.6849  0.3726  0.7538
 4404SOL    HW113767   2.302   7.651   6.738  0.5800  0.6483  2.4966
 4404SOL    HW213768   2.420   7.602   6.657 -1.6197 -0.9488  0.0751
 4405SOL     OW13769   2.761   6.568   1.740 -0.5598 -0.0536 -0.4787
 4405SOL    HW113770   2.727   6.568   1.651  1.9815  2.7077 -1.6150
 4405SOL    HW213771   2.848   6.528   1.733 -1.0841 -1.6326  1.2016
 4406SOL     OW13772   0.308   0.732   3.526  0.5414 -0.0756 -0.2313
 4406SOL    HW113773   0.229   0.707   3.478  0.2514 -0.3732  0.3850
 4406SOL    HW213774   0.325   0.822   3.498  2.4812 -1.3049 -3.6785
 4407SOL     OW13775   3.692   6.365   1.450  0.3038 -0.1044  0.1022
 4407SOL    HW113776   3.621   6.430   1.454  0.5959  0.1899  0.5817
 4407SOL    HW213777   3.648   6.285   1.422 -0.4261 -0.1912  1.4102
 4408SOL     OW13778   4.273   3.089   0.667  0.4541  0.3787 -0.3681
 4408SOL    HW113779   4.331   3.091   0.591 -0.0058 -2.4132 -0.8837
 4408SOL    HW213780   4.198   3.036   0.640 -0.0337 -0.1397  1.7930
 4409SOL     OW13781   5.433   2.190   2.364 -0.3185 -0.0929 -0.2403
 4409SOL    HW113782   5.514   2.139   2.357  0.8032  1.0343  2.8636
 4409SOL    HW213783   5.404   2.200   2.273  1.2590 -3.2054 -1.2398
 4410SOL     OW13784   2.075   3.974   3.076 -0.2492 -0.8765  0.1872
 4410SOL    HW113785   1.984   3.983   3.105  0.1562 -0.1001  1.2641
 4410SOL    HW213786   2.114   3.913   3.138  0.9679  1.7767  2.1883
 4411SOL     OW13787   0.370   1.122   0.553 -0.3361 -0.0624  0.0642
 4411SOL    HW113788   0.361   1.216   0.537  1.1496  0.1783  0.4512
 4411SOL    HW213789   0.341   1.110   0.643  0.5455  0.2409  0.4039
 4412SOL     OW13790   4.704   5.115   4.947  0.3937 -0.2279 -0.4558
 4412SOL    HW113791   4.661   5.048   4.894  1.5246 -2.0791  0.8753
 4412SOL    HW213792   4.650   5.121   5.026  0.8069 -0.2403 -0.1690
 4413SOL     OW13793   0.757   6.215   0.634  0.4626 -0.2091  0.8421
 4413SOL    HW113794   0.738   6.218   0.540  2.6942  0.3775  0.3446
 4413SOL    HW213795   0.797   6.129   0.648  1.3076  0.1877  0.9602
 4414SOL     OW13796   2.300   0.101   7.660  0.2343  0.0076  0.7165
 4414SOL    HW113797   2.245   0.035   7.619  3.1626 -1.4751 -1.1164
 4414SOL    HW213798   2.316   0.067   7.748 -0.8479 -0.0503  0.9102
 4415SOL     OW13799   6.203   0.324   0.933  0.2293  0.4094 -0.0170
 4415SOL    HW113800   6.296   0.305   0.945 -0.0735 -0.0892  1.9994
 4415SOL    HW213801   6.195   0.418   0.946  0.6304  0.6986 -1.7118
 4416SOL     OW13802   4.322   1.720   3.358  0.1024 -0.1596  0.4685
 4416SOL    HW113803   4.272   1.643   3.385  0.3232  0.3968  2.6469
 4416SOL    HW213804   4.408   1.686   3.334 -0.3888 -0.7809 -0.4696
 4417SOL     OW13805   4.910   4.037   6.080 -0.5902  0.1438  0.1886
 4417SOL    HW113806   4.874   4.118   6.118 -0.7911 -0.9327  2.4600
 4417SOL    HW213807   4.916   4.055   5.986 -0.9216  2.6734  0.5833
 4418SOL     OW13808   0.634   1.435   2.752  0.1558  0.1832 -0.4363
 4418SOL    HW113809   0.659   1.510   2.699  1.7332 -0.8297 -1.2221
 4418SOL    HW213810   0.692   1.364   2.723  1.7111 -0.2601  3.1448
 4419SOL     OW13811   0.012   7.671   4.607 -0.2302 -0.3230 -0.0237
 4419SOL    HW113812  -0.025   7.677   4.520  0.3092 -0.1061 -0.2464
 4419SOL    HW213813   0.040   7.579   4.616 -0.0112 -0.2748 -0.1998
 4420SOL     OW13814   1.247   0.973   4.587  0.0642  0.0173  0.2434
 4420SOL    HW113815   1.314   0.905   4.593  1.1825  0.9341 -1.2231
 4420SOL    HW213816   1.291   1.047   4.546 -2.4096 -0.1353 -3.0615
 4421SOL     OW13817   1.333   6.623   0.667 -0.2518 -0.2590  0.2983
 4421SOL    HW113818   1.385   6.672   0.731  1.7192 -2.5163  0.5792
 4421SOL    HW213819   1.261   6.682   0.643 -0.4451  1.1051  3.7405
 4422SOL     OW13820   6.316   0.800   7.288 -0.1724  0.0035 -0.4352
 4422SOL    HW113821   6.357   0.725   7.333 -3.1949 -2.6425 -1.7699
 4422SOL    HW213822   6.339   0.788   7.196  0.1135  1.3280 -0.5484
 4423SOL     OW13823   2.910   4.993   5.703  0.2175 -0.0131 -0.2299
 4423SOL    HW113824   2.977   5.031   5.646 -0.6042  1.5563 -0.2172
 4423SOL    HW213825   2.948   4.997   5.791  0.9154 -1.0952 -0.4666
 4424SOL     OW13826   6.353   0.791   6.557  0.1822 -0.4091  0.4216
 4424SOL    HW113827   6.439   0.797   6.514  0.4387  3.8472  1.0983
 4424SOL    HW213828   6.369   0.822   6.646 -1.9321 -0.4451  0.8588
 4425SOL     OW13829   3.170   4.853   7.400  0.3604 -0.2955  0.5875
 4425SOL    HW113830   3.188   4.945   7.418  1.6067 -0.6438  1.2850
 4425SOL    HW213831   3.155   4.814   7.486  1.8479 -1.1055  0.5299
 4426SOL     OW13832   7.071   6.183   2.566 -0.1830  0.0602  0.1356
 4426SOL    HW113833   7.037   6.245   2.502 -0.9516 -0.7390 -0.2437
 4426SOL    HW213834   7.166   6.195   2.563 -0.3592  1.9573  0.8352
 4427SOL     OW13835   4.119   0.929   1.924  0.0006  0.4272  0.9320
 4427SOL    HW113836   4.097   0.969   1.840 -1.1563 -1.6002  0.1954
 4427SOL    HW213837   4.038   0.933   1.974  0.0979 -0.2090  1.1496
 4428SOL     OW13838   5.279   1.797   2.009 -0.1099  0.2996 -0.2953
 4428SOL    HW113839   5.226   1.764   1.937  1.4896  0.7241 -1.7323
 4428SOL    HW213840   5.306   1.719   2.057 -1.5154  0.0433  0.1034
 4429SOL     OW13841   0.597   6.869   2.271 -0.3150 -0.2232 -0.1485
 4429SOL    HW113842   0.546   6.852   2.192  0.0017  0.4469 -0.4982
 4429SOL    HW213843   0.535   6.910   2.331 -0.9504 -2.0193  0.5096
 4430SOL     OW13844   4.491   5.898   2.040 -0.4430 -0.1868  0.4808
 4430SOL    HW113845   4.555   5.832   2.066  1.4555  1.5229  0.3394
 4430SOL    HW213846   4.435   5.909   2.117  1.0712  0.1348  1.5684
 4431SOL     OW13847   7.137   0.675   6.165  0.2265  0.8217  0.3146
 4431SOL    HW113848   7.052   0.716   6.146 -0.0916  0.4505  0.9114
 4431SOL    HW213849   7.200   0.727   6.115 -0.4165  0.7356 -0.6262
 4432SOL     OW13850   7.118   4.019   5.151 -0.0530 -0.3290 -0.0488
 4432SOL    HW113851   7.023   4.034   5.148 -0.4040 -1.9322  1.3879
 4432SOL    HW213852   7.128   3.929   5.118  1.1314  0.2953 -1.4711
 4433SOL     OW13853   3.116   1.651   1.910 -0.0759  0.7365  0.1009
 4433SOL    HW113854   3.104   1.563   1.943 -0.2776  0.5059 -0.5613
 4433SOL    HW213855   3.158   1.640   1.824 -3.4632  0.9855 -1.7787
 4434SOL     OW13856   1.738   2.261   7.092 -0.0557  0.6412  0.1206
 4434SOL    HW113857   1.733   2.356   7.087 -0.2035  0.5952 -0.8941
 4434SOL    HW213858   1.675   2.236   7.159 -0.5246  1.2213 -0.0985
 4435SOL     OW13859   3.522   3.486   6.285  0.2012  0.3502  0.0389
 4435SOL    HW113860   3.547   3.555   6.224 -1.2019  0.6937 -0.1692
 4435SOL    HW213861   3.514   3.529   6.369  0.1650  0.2743  0.0748
 4436SOL     OW13862   1.987   0.352   1.175 -0.0466  0.1707 -0.0894
 4436SOL    HW113863   1.993   0.445   1.196 -0.2860  0.3592 -0.8311
 4436SOL    HW213864   2.023   0.308   1.252  0.1910  0.8791  0.2138
 4437SOL     OW13865   1.100   7.512   3.091 -0.5563  0.0285  0.4071
 4437SOL    HW113866   1.067   7.599   3.067 -0.0363 -0.2299 -1.3632
 4437SOL    HW213867   1.025   7.468   3.130 -1.5568  0.4135 -0.9873
 4438SOL     OW13868   4.211   6.537   3.444 -0.8317 -0.4159 -0.3137
 4438SOL    HW113869   4.187   6.495   3.361 -0.3917  0.6358 -0.9985
 4438SOL    HW213870   4.175   6.625   3.437  0.6055  0.2129 -0.0913
 4439SOL     OW13871   4.348   2.111   1.708 -0.8065  0.5045  0.3944
 4439SOL    HW113872   4.414   2.045   1.685 -0.1264  1.3428 -0.1124
 4439SOL    HW213873   4.284   2.106   1.636  0.0887  1.4871 -0.5087
 4440SOL     OW13874   2.657   6.996   1.893 -0.3027 -0.1917 -0.7790
 4440SOL    HW113875   2.746   7.030   1.897 -0.4459  0.2161 -0.9998
 4440SOL    HW213876   2.611   7.057   1.835 -0.4476 -1.0189 -1.5576
 4441SOL     OW13877   4.483   1.479   1.656 -0.4973  0.3902 -0.3756
 4441SOL    HW113878   4.492   1.485   1.751  0.0339 -1.1742 -0.2962
 4441SOL    HW213879   4.560   1.523   1.622  0.1614 -0.4406 -0.0149
 4442SOL     OW13880   6.952   1.259   6.533  0.3586  0.6281 -0.2262
 4442SOL    HW113881   6.983   1.307   6.610 -0.5325  1.8968 -0.6368
 4442SOL    HW213882   7.033   1.226   6.493  0.9462  1.2278  0.4160
 4443SOL     OW13883   3.303   5.563   1.106  0.3638  0.1965 -0.2290
 4443SOL    HW113884   3.242   5.635   1.120 -0.4276 -0.3660 -0.7295
 4443SOL    HW213885   3.373   5.578   1.170 -0.6273  0.4755  0.8044
 4444SOL     OW13886   2.767   2.433   1.597 -0.0749  0.4344 -0.1417
 4444SOL    HW113887   2.762   2.527   1.580 -1.4868  0.3540 -0.2829
 4444SOL    HW213888   2.682   2.410   1.635 -1.2998 -1.4383 -3.5778
 4445SOL     OW13889   6.352   7.109   3.432 -0.0375 -0.2217  0.7222
 4445SOL    HW113890   6.418   7.147   3.375 -0.5797 -1.2424 -0.6533
 4445SOL    HW213891   6.400   7.044   3.484  0.2750  0.0055  0.7212
 4446SOL     OW13892   1.682   1.049   6.793  0.3072 -0.4278 -0.0012
 4446SOL    HW113893   1.610   0.993   6.764  0.1674 -0.5080  0.5015
 4446SOL    HW213894   1.661   1.135   6.755 -0.6129 -0.1895  1.0094
 4447SOL     OW13895   3.926   1.333   3.797 -0.5266  0.2369 -0.1008
 4447SOL    HW113896   3.866   1.387   3.847 -0.0847  1.1917 -0.5852
 4447SOL    HW213897   4.005   1.328   3.850 -0.5827  0.0246 -0.0352
 4448SOL     OW13898   5.745   4.749   6.835  0.2942  0.0560  0.2596
 4448SOL    HW113899   5.712   4.833   6.865  1.0071  0.7728 -0.8619
 4448SOL    HW213900   5.707   4.738   6.747 -0.0010 -0.9264  0.4919
 4449SOL     OW13901   7.459   7.590   7.175  0.2145 -0.2699 -0.4782
 4449SOL    HW113902   7.477   7.498   7.158  0.3143 -0.5466  0.9617
 4449SOL    HW213903   7.508   7.637   7.107  1.5132 -1.2312 -0.2521
 4450SOL     OW13904   2.314   5.385   2.007  0.5965 -0.2015 -0.2457
 4450SOL    HW113905   2.279   5.418   1.924  0.9223  0.2508 -0.2116
 4450SOL    HW213906   2.245   5.402   2.070 -0.2163 -1.8061 -0.6577
 4451SOL     OW13907   7.604   1.158   4.017  0.0403  0.3718  0.7041
 4451SOL    HW113908   7.604   1.074   3.971 -1.2002 -0.0016  1.3586
 4451SOL    HW213909   7.696   1.171   4.042  0.2112 -0.9207  0.8263
 4452SOL     OW13910   4.563   5.383   0.640 -0.2968 -0.9859  0.4837
 4452SOL    HW113911   4.536   5.454   0.582  1.7356  0.0176  0.6858
 4452SOL    HW213912   4.495   5.379   0.707 -1.2144 -0.2618 -0.3817
 4453SOL     OW13913   6.918   5.092   5.988  0.8841 -0.6272  0.3559
 4453SOL    HW113914   7.010   5.067   5.989  0.7262 -1.2638  1.9748
 4453SOL    HW213915   6.900   5.121   6.077 -0.6626 -1.2226  0.2673
 4454SOL     OW13916   1.847   5.870   4.595  0.4609 -0.2862 -0.2705
 4454SOL    HW113917   1.751   5.878   4.592  0.4503 -0.1481  0.3025
 4454SOL    HW213918   1.862   5.778   4.614  0.3994 -0.0203  1.1615
 4455SOL     OW13919   1.697   6.135   3.493 -0.5720  0.2695  0.3093
 4455SOL    HW113920   1.670   6.071   3.428 -1.9377  1.2168 -0.0885
 4455SOL    HW213921   1.618   6.185   3.512  0.5117  2.0442  0.3607
 4456SOL     OW13922   4.012   1.281   5.182  0.0206 -0.4620 -0.0200
 4456SOL    HW113923   4.093   1.328   5.205  1.1900 -1.7055 -1.4164
 4456SOL    HW213924   3.957   1.290   5.260  0.8031  1.8486  0.3591
 4457SOL     OW13925   2.299   2.179   3.401  0.4605 -0.4054  0.6532
 4457SOL    HW113926   2.215   2.209   3.436  0.2509 -0.1563 -0.0549
 4457SOL    HW213927   2.360   2.250   3.424  0.2614 -0.1021  0.2511
 4458SOL     OW13928   4.902   5.592   3.590  0.4293  0.0508 -0.1571
 4458SOL    HW113929   4.908   5.650   3.514  0.0702  0.7651  0.3576
 4458SOL    HW213930   4.814   5.606   3.625  1.2511  1.2240  1.5774
 4459SOL     OW13931   6.337   3.414   6.800 -0.0264 -0.1361 -0.2739
 4459SOL    HW113932   6.363   3.333   6.844 -0.5164 -0.5663 -0.7727
 4459SOL    HW213933   6.393   3.419   6.723 -1.1227 -0.8777 -1.1536
 4460SOL     OW13934   4.533   4.903   0.109  0.1846 -0.0658 -0.6260
 4460SOL    HW113935   4.550   4.948   0.192 -1.4064 -2.3320  1.0706
 4460SOL    HW213936   4.617   4.864   0.085  0.3167 -0.8441  0.9356
 4461SOL     OW13937   0.488   7.496   7.699 -0.3036 -0.4469  0.3617
 4461SOL    HW113938   0.469   7.407   7.730 -1.1701  0.1971  1.7492
 4461SOL    HW213939   0.463   7.495   7.607  0.9879 -2.0076 -0.0324
 4462SOL     OW13940   7.718   4.751   3.043  0.1835  0.0462 -0.2691
 4462SOL    HW113941   7.637   4.704   3.062 -0.4664  1.2402  0.0167
 4462SOL    HW213942   7.711   4.777   2.951 -0.8309  2.0795  0.3148
 4463SOL     OW13943   0.369   0.043   2.051 -0.2333 -0.0459  0.8115
 4463SOL    HW113944   0.403   0.132   2.057 -0.5291  0.1382 -0.1137
 4463SOL    HW213945   0.326   0.028   2.135 -0.4523  0.7971  0.8527
 4464SOL     OW13946   2.632   4.041   6.881  0.5709  0.4510 -0.1836
 4464SOL    HW113947   2.619   3.958   6.927 -1.2379  1.0780  0.5567
 4464SOL    HW213948   2.614   4.021   6.790  0.3407 -0.0192 -0.0375
 4465SOL     OW13949   4.807   4.195   6.500 -0.0521  0.0064  0.1163
 4465SOL    HW113950   4.733   4.179   6.442 -0.3609  1.6980 -0.0055
 4465SOL    HW213951   4.820   4.112   6.547 -1.7652 -0.4375 -0.1421
 4466SOL     OW13952   6.800   1.963   0.937 -0.0947 -0.3128  0.2911
 4466SOL    HW113953   6.821   2.056   0.937 -1.0760 -0.0733  1.2822
 4466SOL    HW213954   6.849   1.927   0.863 -1.0086  1.2992 -1.1640
 4467SOL     OW13955   3.830   4.598   2.015  0.2745  0.0294 -0.5674
 4467SOL    HW113956   3.840   4.626   2.106 -2.7031  1.6798 -0.6110
 4467SOL    HW213957   3.893   4.526   2.005  2.5180  1.4473  1.9914
 4468SOL     OW13958   7.197   6.266   3.548 -0.5550 -0.0744 -0.4458
 4468SOL    HW113959   7.220   6.358   3.555  1.7062 -0.6263  0.4429
 4468SOL    HW213960   7.150   6.258   3.465 -1.4733  1.9644 -0.1699
 4469SOL     OW13961   3.052   1.534   2.456  0.3005 -0.1645 -0.4768
 4469SOL    HW113962   3.101   1.544   2.374  0.1722 -2.9526 -1.0045
 4469SOL    HW213963   3.117   1.503   2.519  0.5778  2.7343  0.8141
 4470SOL     OW13964   7.724   0.844   2.525  0.0830 -0.0008  0.2465
 4470SOL    HW113965   7.745   0.754   2.502 -1.5267 -0.3145 -0.0657
 4470SOL    HW213966   7.691   0.840   2.615  1.0221  0.4466  0.6301
 4471SOL     OW13967   0.741   6.402   2.319  0.1091 -0.2248 -0.3718
 4471SOL    HW113968   0.747   6.338   2.249  0.4268 -0.3873 -0.2003
 4471SOL    HW213969   0.805   6.372   2.384  3.7334  2.6709 -2.2095
 4472SOL     OW13970   3.363   6.251   6.728  0.1318  0.4553  0.4308
 4472SOL    HW113971   3.351   6.346   6.728  0.1228  0.7802 -4.9692
 4472SOL    HW213972   3.448   6.238   6.686 -1.2285 -1.7999 -1.9029
 4473SOL     OW13973   0.583   2.204   7.633  0.6047 -0.2255 -0.1848
 4473SOL    HW113974   0.548   2.285   7.596 -1.7590 -0.8266  0.5457
 4473SOL    HW213975   0.519   2.179   7.700  2.9535 -0.9920  1.9164
 4474SOL     OW13976   7.564   7.519   3.484 -0.0467 -0.0986  0.1729
 4474SOL    HW113977   7.609   7.551   3.562  2.3750 -2.4830 -0.1326
 4474SOL    HW213978   7.513   7.444   3.514 -0.3283 -0.0953 -0.2831
 4475SOL     OW13979   7.638   5.292   6.544  0.4947 -0.3945  0.1474
 4475SOL    HW113980   7.663   5.235   6.471 -0.3228 -1.0823  0.4047
 4475SOL    HW213981   7.620   5.377   6.502 -1.6466 -1.2202 -0.7180
 4476SOL     OW13982   5.894   1.029   3.595  0.5663 -0.4920  0.4384
 4476SOL    HW113983   5.908   1.123   3.592  1.7705 -0.6146  1.3175
 4476SOL    HW213984   5.802   1.019   3.620 -0.3016  0.3938 -2.0363
 4477SOL     OW13985   0.799   2.771   5.719  0.0093 -0.1294 -0.2028
 4477SOL    HW113986   0.710   2.748   5.745  0.2047 -0.9540 -0.2421
 4477SOL    HW213987   0.836   2.689   5.686  1.7169 -0.5166  2.3793
 4478SOL     OW13988   1.318   4.495   0.559 -0.1567 -0.2389  0.2368
 4478SOL    HW113989   1.297   4.410   0.519 -2.7058 -0.6134  2.0712
 4478SOL    HW213990   1.271   4.559   0.506  0.5520 -0.1459 -0.2802
 4479SOL     OW13991   4.739   0.760   2.233 -0.2292 -0.3492 -0.0268
 4479SOL    HW113992   4.694   0.774   2.150 -0.4293  0.7084  0.2522
 4479SOL    HW213993   4.698   0.681   2.269 -0.1842 -0.7784 -0.8938
 4480SOL     OW13994   6.829   6.511   5.397  0.2839 -0.2528 -0.2209
 4480SOL    HW113995   6.749   6.542   5.355  0.7010  0.4648 -0.5156
 4480SOL    HW213996   6.893   6.581   5.380  1.1391 -1.0954 -0.5204
 4481SOL     OW13997   5.390   3.394   1.383  0.3836  0.2130  0.1779
 4481SOL    HW113998   5.390   3.437   1.298 -1.1282  0.3046  0.1947
 4481SOL    HW213999   5.303   3.354   1.390 -0.2289  1.7416  2.4092
 4482SOL     OW14000   2.419   3.195   4.560  0.0544  0.2346 -0.8202
 4482SOL    HW114001   2.460   3.228   4.640  1.3908  0.3905 -1.5395
 4482SOL    HW214002   2.478   3.125   4.529 -0.9468 -0.4828 -1.1512
 4483SOL     OW14003   3.184   5.968   6.464 -0.3780  0.1138  0.1924
 4483SOL    HW114004   3.121   6.011   6.521 -0.6319  0.3326 -0.2436
 4483SOL    HW214005   3.226   6.039   6.416 -0.0359 -0.0527  0.2382
 4484SOL     OW14006   5.624   6.881   3.427 -0.1720 -0.6608 -0.5754
 4484SOL    HW114007   5.622   6.976   3.419 -2.1027 -0.6841 -0.8129
 4484SOL    HW214008   5.705   6.855   3.384  0.4198  0.8676 -0.4425
 4485SOL     OW14009   3.113   2.480   3.989  0.8101 -0.3072 -0.2879
 4485SOL    HW114010   3.172   2.553   3.973  0.7402  0.0215  0.8342
 4485SOL    HW214011   3.165   2.417   4.040  0.7228 -0.8252 -0.8229
 4486SOL     OW14012   3.558   0.619   6.660  0.1766 -0.4617  0.1155
 4486SOL    HW114013   3.620   0.578   6.720 -0.5743  0.7154  1.7915
 4486SOL    HW214014   3.478   0.567   6.669  0.3263 -0.8189 -0.5676
 4487SOL     OW14015   0.497   0.650   4.012  0.3258  0.0066 -0.1415
 4487SOL    HW114016   0.544   0.603   4.081 -1.9778 -0.6718  1.0452
 4487SOL    HW214017   0.517   0.600   3.932 -0.1338 -1.5990  0.6972
 4488SOL     OW14018   7.467   1.855   6.790  0.2283 -0.1978  0.4920
 4488SOL    HW114019   7.481   1.948   6.810  1.0129 -0.2648  0.3050
 4488SOL    HW214020   7.476   1.811   6.874  0.3744 -0.1556  0.4990
 4489SOL     OW14021   7.645   6.496   0.687 -0.4635 -0.3711 -0.4674
 4489SOL    HW114022   7.602   6.566   0.734 -0.8111  0.0863 -1.4417
 4489SOL    HW214023   7.673   6.435   0.755  0.8420  1.2348  0.4926
 4490SOL     OW14024   4.671   0.161   5.897  0.0268  0.5318 -0.1737
 4490SOL    HW114025   4.607   0.224   5.863  0.6239  1.2551  0.0124
 4490SOL    HW214026   4.685   0.188   5.988 -0.5361 -0.5571  0.2556
 4491SOL     OW14027   7.227   3.535   0.946  0.0774 -0.1668  0.0403
 4491SOL    HW114028   7.158   3.537   0.880 -1.1578 -0.0614  1.2890
 4491SOL    HW214029   7.216   3.451   0.990 -0.1303  0.4129  1.1269
 4492SOL     OW14030   6.249   5.525   0.140 -0.2715 -0.7505 -1.0125
 4492SOL    HW114031   6.294   5.447   0.173  1.3053  0.8817  1.0581
 4492SOL    HW214032   6.312   5.564   0.078  1.8575  1.9376  2.4383
 4493SOL     OW14033   1.345   4.595   3.829 -0.1946  0.2659 -0.0032
 4493SOL    HW114034   1.272   4.621   3.885 -0.9221  0.1126 -0.8581
 4493SOL    HW214035   1.421   4.594   3.887 -0.7352  1.1396  0.7456
 4494SOL     OW14036   5.795   5.049   1.184 -0.1724 -0.2027  0.2236
 4494SOL    HW114037   5.750   4.968   1.160  1.1897 -1.1751  0.8145
 4494SOL    HW214038   5.797   5.048   1.280 -0.1832  0.5597  0.2377
 4495SOL     OW14039   0.941   2.233   4.591 -0.1385  0.0006  0.0696
 4495SOL    HW114040   0.898   2.286   4.523 -2.9539 -2.6022 -0.4035
 4495SOL    HW214041   0.973   2.156   4.545  1.3681 -0.0856  1.1710
 4496SOL     OW14042   2.553   1.021   2.583  0.2752 -0.0631 -0.3397
 4496SOL    HW114043   2.577   0.931   2.558  0.9601 -0.2200  0.8026
 4496SOL    HW214044   2.584   1.074   2.509  1.8140 -0.5599 -0.1064
 4497SOL     OW14045   6.300   2.941   1.740 -0.5672 -0.6005 -0.3485
 4497SOL    HW114046   6.360   2.937   1.665 -0.4239  1.5045 -0.4090
 4497SOL    HW214047   6.297   3.034   1.764 -1.1297 -1.1118  1.8505
 4498SOL     OW14048   2.138   6.877   6.098 -0.4864 -0.4815  0.4037
 4498SOL    HW114049   2.151   6.791   6.059  1.0242 -0.7356  1.3748
 4498SOL    HW214050   2.209   6.931   6.062 -1.9462  0.6611 -0.9131
 4499SOL     OW14051   5.643   0.880   3.672  0.3082  0.3560  0.5563
 4499SOL    HW114052   5.678   0.816   3.735 -1.6543 -0.4587  0.8869
 4499SOL    HW214053   5.625   0.828   3.593  1.8666  1.1928 -0.3993
 4500SOL     OW14054   2.637   5.892   1.124  0.0356 -0.0245 -0.2697
 4500SOL    HW114055   2.608   5.858   1.039  0.1022 -1.7518  0.3586
 4500SOL    HW214056   2.634   5.816   1.182  1.3270  0.8072  0.9407
 4501SOL     OW14057   0.636   4.193   7.085 -0.4617  0.1508 -0.0108
 4501SOL    HW114058   0.558   4.138   7.090  0.6390 -1.3774  1.0513
 4501SOL    HW214059   0.682   4.165   7.006 -0.0800 -0.2114  0.3378
 4502SOL     OW14060   3.815   6.302   3.858 -0.3560 -0.1808  0.9105
 4502SOL    HW114061   3.720   6.306   3.865 -0.5931 -0.7405 -1.4055
 4502SOL    HW214062   3.841   6.391   3.831 -0.2518 -0.1356  1.1530
 4503SOL     OW14063   0.652   4.288   5.959  0.1723  0.5418 -0.2118
 4503SOL    HW114064   0.656   4.315   6.050  0.4251 -0.0903 -0.0274
 4503SOL    HW214065   0.715   4.345   5.914  3.6279 -2.1101  0.8121
 4504SOL     OW14066   2.921   1.806   1.674  0.2797  0.2208  0.2030
 4504SOL    HW114067   2.893   1.717   1.652  0.2991  0.1225  0.5671
 4504SOL    HW214068   2.914   1.810   1.770 -0.3499  0.8164  0.1394
 4505SOL     OW14069   6.350   3.798   7.564 -0.1352  1.0351 -0.6327
 4505SOL    HW114070   6.398   3.867   7.609  0.0316  1.6204 -1.6876
 4505SOL    HW214071   6.415   3.729   7.550  0.1753  1.4303 -1.2008
 4506SOL     OW14072   3.283   3.467   2.698  0.3625 -0.0830 -0.2686
 4506SOL    HW114073   3.358   3.500   2.748  0.2657 -1.6556  0.9839
 4506SOL    HW214074   3.217   3.537   2.704  1.5548  1.1663 -1.0892
 4507SOL     OW14075   7.241   3.980   2.556  0.0094  0.2729  0.1537
 4507SOL    HW114076   7.180   3.910   2.532  1.1336 -0.6895  0.0419
 4507SOL    HW214077   7.307   3.979   2.488  1.6491 -0.5478  1.6811
 4508SOL     OW14078   2.240   3.095   6.656  0.1067  0.5182 -0.3292
 4508SOL    HW114079   2.215   3.098   6.748  2.6699  0.9975  0.4023
 4508SOL    HW214080   2.201   3.174   6.618 -1.4631  0.0202  0.1508
 4509SOL     OW14081   7.611   3.306   1.016  0.2028  0.1975 -0.5003
 4509SOL    HW114082   7.706   3.312   1.026  0.3444 -0.5257 -1.3222
 4509SOL    HW214083   7.584   3.392   0.985  0.2156  1.3136  2.3217
 4510SOL     OW14084   4.824   3.703   7.729  0.4467 -0.4239  0.4415
 4510SOL    HW114085   4.806   3.609   7.725  2.0382 -0.7475  0.2396
 4510SOL    HW214086   4.899   3.715   7.671  0.5401  0.9092  0.8107
 4511SOL     OW14087   5.762   7.565   4.020  0.3265  0.3868 -0.3678
 4511SOL    HW114088   5.744   7.634   4.083  0.3955  0.6658 -0.6517
 4511SOL    HW214089   5.683   7.560   3.965 -0.0284 -0.3544  0.1940
 4512SOL     OW14090   1.374   3.414   5.916  0.0139 -0.9186 -0.4271
 4512SOL    HW114091   1.431   3.485   5.946 -0.0562 -0.7694 -0.6444
 4512SOL    HW214092   1.285   3.447   5.928 -0.0070 -0.5352 -1.5559
 4513SOL     OW14093   5.168   3.700   0.045 -0.0278 -0.3422  0.2556
 4513SOL    HW114094   5.214   3.706  -0.039  2.9795 -0.1497  1.7573
 4513SOL    HW214095   5.138   3.609   0.050  1.6011 -0.9531 -0.2261
 4514SOL     OW14096   7.015   2.359   3.412 -0.5309  0.2612  0.0013
 4514SOL    HW114097   7.093   2.416   3.410 -0.4203  0.1077 -0.1709
 4514SOL    HW214098   7.051   2.270   3.410 -0.6337  0.1240  2.2341
 4515SOL     OW14099   1.628   0.947   0.244  0.1029  0.2854  0.4050
 4515SOL    HW114100   1.597   0.909   0.162  0.1706  0.1007  0.4651
 4515SOL    HW214101   1.661   1.033   0.219  1.4491 -0.3310 -0.0119
 4516SOL     OW14102   1.940   7.617   5.913 -0.1071  0.2491  0.1392
 4516SOL    HW114103   1.896   7.653   5.990  0.8426 -0.8895  1.2621
 4516SOL    HW214104   1.996   7.548   5.948 -0.1139 -0.7163 -1.6623
 4517SOL     OW14105   2.835   1.547   3.594  0.1599 -0.6579 -0.2273
 4517SOL    HW114106   2.801   1.580   3.511 -0.7545 -0.5817  0.1639
 4517SOL    HW214107   2.885   1.468   3.570 -1.1356 -1.3539 -0.7326
 4518SOL     OW14108   4.347   5.865   6.536  0.4827 -0.6366  0.3863
 4518SOL    HW114109   4.253   5.877   6.550  0.3505 -0.6575 -0.4612
 4518SOL    HW214110   4.381   5.843   6.623 -0.2795 -0.5433  0.7172
 4519SOL     OW14111   5.104   6.763   1.209 -0.3347 -0.3537 -0.6576
 4519SOL    HW114112   5.170   6.803   1.153 -0.2029 -2.3602 -2.0387
 4519SOL    HW214113   5.021   6.802   1.180 -0.0854 -0.0977 -1.0317
 4520SOL     OW14114   5.147   0.354   2.119  0.0255 -0.5085  0.3643
 4520SOL    HW114115   5.195   0.296   2.178  0.3004 -0.1281  0.5157
 4520SOL    HW214116   5.202   0.431   2.111 -0.7010  0.0702  0.7846
 4521SOL     OW14117   1.996   6.011   4.138 -0.4983 -0.5358 -0.1736
 4521SOL    HW114118   1.914   5.966   4.118 -0.8862 -0.9510  2.1126
 4521SOL    HW214119   2.023   6.048   4.054 -1.9822 -2.0496 -1.4054
 4522SOL     OW14120   7.240   1.601   3.370 -0.5771  0.5085 -0.0889
 4522SOL    HW114121   7.210   1.513   3.345  0.0220  0.3731 -0.3652
 4522SOL    HW214122   7.335   1.598   3.355 -0.4502  0.9770  0.5849
 4523SOL     OW14123   5.958   2.676   3.537  0.0922  0.1134 -0.0929
 4523SOL    HW114124   5.936   2.662   3.629  0.0491 -0.2107 -0.1501
 4523SOL    HW214125   5.891   2.737   3.506  0.4691  0.7124  0.2430
 4524SOL     OW14126   2.070   5.643   3.737  0.2458  0.1320 -0.2938
 4524SOL    HW114127   2.036   5.649   3.648 -0.3125  1.1921 -0.0236
 4524SOL    HW214128   2.004   5.593   3.784 -1.1125  2.2997  0.2620
 4525SOL     OW14129   6.599   6.444   4.091  0.1274  0.1577  0.0418
 4525SOL    HW114130   6.627   6.466   4.180  0.2507  0.4768 -0.0775
 4525SOL    HW214131   6.675   6.405   4.050 -0.5815 -2.2136  0.8304
 4526SOL     OW14132   3.591   3.579   0.657  0.3045 -0.0340  0.0600
 4526SOL    HW114133   3.683   3.572   0.684  0.8149  0.2673 -1.4854
 4526SOL    HW214134   3.578   3.673   0.643 -0.1914 -0.0996  0.0645
 4527SOL     OW14135   2.453   2.405   2.559 -0.1528 -0.3568  0.5683
 4527SOL    HW114136   2.477   2.478   2.502 -1.5862  0.1980  0.6505
 4527SOL    HW214137   2.481   2.327   2.511 -1.2052  0.1014 -0.8461
 4528SOL     OW14138   0.600   2.057   3.808 -0.4956  0.2681  0.4403
 4528SOL    HW114139   0.646   2.138   3.785 -0.0714  0.1427  0.8352
 4528SOL    HW214140   0.508   2.083   3.814 -0.2191  1.0008  1.8142
 4529SOL     OW14141   2.934   0.767   5.063 -0.2134 -0.4544 -0.9480
 4529SOL    HW114142   2.867   0.830   5.038  0.6420  1.3081  0.9035
 4529SOL    HW214143   2.998   0.770   4.992 -0.7933 -0.1632 -1.4590
 4530SOL     OW14144   5.211   1.866   6.550  0.2312 -0.0116 -0.0359
 4530SOL    HW114145   5.259   1.929   6.603  0.1468  0.6118 -0.6802
 4530SOL    HW214146   5.140   1.836   6.607  0.4080  0.3063  0.3556
 4531SOL     OW14147   2.032   1.936   3.250  0.6437 -0.2174 -0.4830
 4531SOL    HW114148   2.080   1.985   3.182 -0.9642 -0.3950 -1.8198
 4531SOL    HW214149   1.948   1.915   3.209 -0.8142  0.5242  1.9048
 4532SOL     OW14150   5.042   0.322   3.481  0.8348 -0.5469  0.5836
 4532SOL    HW114151   5.054   0.247   3.424 -1.3539 -0.3323 -0.2501
 4532SOL    HW214152   5.077   0.396   3.431 -0.1699 -0.5133 -0.1038
 4533SOL     OW14153   0.439   0.901   0.318 -0.2170  0.4054 -0.0157
 4533SOL    HW114154   0.412   0.867   0.403  1.8173  0.0973  0.5552
 4533SOL    HW214155   0.433   0.826   0.259 -0.5316  0.3275  0.1147
 4534SOL     OW14156   0.544   6.581   5.277  0.2064 -0.0085 -0.7135
 4534SOL    HW114157   0.601   6.658   5.278 -0.3368  0.3976 -0.1043
 4534SOL    HW214158   0.603   6.508   5.262  1.2505  0.1311  2.0537
 4535SOL     OW14159   1.161   7.424   4.332 -0.5998  0.1185  0.1802
 4535SOL    HW114160   1.163   7.454   4.423 -0.9916  1.0385 -0.0984
 4535SOL    HW214161   1.207   7.492   4.283 -2.2627  0.7418 -0.5851
 4536SOL     OW14162   5.684   6.810   0.200  0.0462  0.1882 -0.0756
 4536SOL    HW114163   5.664   6.779   0.112  0.8657  1.4260 -0.7298
 4536SOL    HW214164   5.723   6.735   0.244 -2.7424 -1.2506  0.1353
 4537SOL     OW14165   6.099   1.404   3.086 -0.2479 -0.0545  0.0574
 4537SOL    HW114166   6.080   1.345   3.013  1.7682 -2.2741  1.1942
 4537SOL    HW214167   6.194   1.405   3.092 -0.1052  3.9689 -0.2738
 4538SOL     OW14168   5.624   3.312   3.516  0.5815 -0.2471 -0.9559
 4538SOL    HW114169   5.533   3.340   3.529  0.4205 -0.9841 -0.4745
 4538SOL    HW214170   5.651   3.357   3.436 -0.5969 -0.9765 -1.7883
 4539SOL     OW14171   0.201   2.805   4.601  0.8096 -0.0624  0.0257
 4539SOL    HW114172   0.169   2.808   4.691  0.7585  0.0919  0.0033
 4539SOL    HW214173   0.268   2.738   4.602  0.8375 -0.0338  0.1890
 4540SOL     OW14174   0.098   3.653   1.700  0.3169  0.5148 -0.2324
 4540SOL    HW114175   0.065   3.704   1.625  0.3778  2.9228  1.2929
 4540SOL    HW214176   0.044   3.573   1.700  0.1048  0.5824 -2.6160
 4541SOL     OW14177   6.909   2.183   4.284  0.0520  0.2859 -0.2868
 4541SOL    HW114178   6.826   2.227   4.264  0.0326  0.5237  0.3141
 4541SOL    HW214179   6.965   2.252   4.320  0.1861 -0.0784  0.2038
 4542SOL     OW14180   2.603   5.584   5.221 -0.1364 -0.0751 -0.1759
 4542SOL    HW114181   2.619   5.630   5.303  0.1131 -1.2032  0.4186
 4542SOL    HW214182   2.650   5.636   5.155  0.9534 -0.0188  0.6271
 4543SOL     OW14183   3.359   6.361   1.331 -0.5349  0.7753  0.0160
 4543SOL    HW114184   3.266   6.382   1.333 -0.6899  0.1199  0.0892
 4543SOL    HW214185   3.403   6.442   1.356 -1.1434  0.7557  1.2172
 4544SOL     OW14186   1.193   6.008   5.372  1.0217  0.4553 -0.8845
 4544SOL    HW114187   1.158   5.969   5.452  0.6092  0.9130 -0.8359
 4544SOL    HW214188   1.125   5.993   5.307  0.8905  1.0367 -0.8799
 4545SOL     OW14189   6.226   4.106   3.162  0.3435  0.3565 -0.0530
 4545SOL    HW114190   6.307   4.138   3.125 -1.5631  3.7271 -1.7985
 4545SOL    HW214191   6.166   4.098   3.088 -0.8457 -2.7385  1.0497
 4546SOL     OW14192   4.833   0.422   3.592  0.2970 -0.2851 -0.3439
 4546SOL    HW114193   4.916   0.391   3.555  1.1278  0.7210  0.5807
 4546SOL    HW214194   4.818   0.506   3.548  0.5639  0.2469  0.5549
 4547SOL     OW14195   1.721   6.414   1.284  0.9871 -0.3569 -0.5003
 4547SOL    HW114196   1.634   6.415   1.246  1.6583 -2.3736 -2.2580
 4547SOL    HW214197   1.728   6.498   1.329 -0.0961  2.0424 -4.3602
 4548SOL     OW14198   5.870   6.386   1.536 -0.2155  0.0714  0.5230
 4548SOL    HW114199   5.908   6.347   1.458 -0.1474  2.2705 -0.6231
 4548SOL    HW214200   5.777   6.394   1.515 -0.0089  1.7517  0.1467
 4549SOL     OW14201   0.644   2.688   1.033 -0.0308 -0.4035 -0.0778
 4549SOL    HW114202   0.652   2.669   1.126 -1.6324 -1.8302 -0.1855
 4549SOL    HW214203   0.672   2.608   0.989 -1.6487 -0.6646 -0.7124
 4550SOL     OW14204   5.484   5.040   5.357  0.1192  0.5837 -0.3057
 4550SOL    HW114205   5.568   4.994   5.358 -0.5702 -0.7257 -0.8201
 4550SOL    HW214206   5.479   5.082   5.443 -0.0828 -1.9256  0.9955
 4551SOL     OW14207   3.859   6.392   2.218 -0.1528  0.2335  0.4172
 4551SOL    HW114208   3.879   6.394   2.311 -0.4465  0.2375  0.4805
 4551SOL    HW214209   3.830   6.481   2.198  1.4224  0.6982 -0.0216
 4552SOL     OW14210   6.620   7.254   1.927  0.3698 -0.1217  0.2856
 4552SOL    HW114211   6.635   7.167   1.890 -0.6873 -0.1208 -0.1856
 4552SOL    HW214212   6.555   7.240   1.995 -1.1622  0.5324 -0.9894
 4553SOL     OW14213   4.345   5.540   5.062  0.1768 -0.2903 -0.5358
 4553SOL    HW114214   4.437   5.523   5.041  0.6027  1.0043  0.1573
 4553SOL    HW214215   4.348   5.582   5.148 -1.1728 -1.4289  0.0968
 4554SOL     OW14216   1.567   1.274   0.926  0.0412  0.0741 -0.4341
 4554SOL    HW114217   1.592   1.206   0.989  0.3817  0.4724 -0.1347
 4554SOL    HW214218   1.550   1.351   0.980 -0.2016  0.2669 -0.7855
 4555SOL     OW14219   4.933   0.112   1.049 -0.6149  0.4268 -0.2707
 4555SOL    HW114220   4.937   0.120   0.954 -0.2493  1.0404 -0.2077
 4555SOL    HW214221   5.001   0.049   1.071 -0.3745  0.6489 -0.3754
 4556SOL     OW14222   3.957   0.621   2.210 -0.1049 -0.2738 -0.4394
 4556SOL    HW114223   4.031   0.636   2.151  1.4391 -3.4957  0.4413
 4556SOL    HW214224   3.958   0.696   2.269  1.3717  0.6113 -1.5277
 4557SOL     OW14225   4.141   3.616   0.196  0.1064 -0.1307  0.1944
 4557SOL    HW114226   4.220   3.668   0.184 -0.8213  1.3034  0.0518
 4557SOL    HW214227   4.092   3.628   0.114  0.2204 -1.8920 -0.1647
 4558SOL     OW14228   6.798   3.796   2.374 -0.5383 -0.0315  0.0482
 4558SOL    HW114229   6.882   3.808   2.418 -0.5443 -0.1407  0.0891
 4558SOL    HW214230   6.802   3.709   2.336  0.2643  0.7916 -1.9143
 4559SOL     OW14231   5.634   7.343   5.155 -0.9075 -0.0865  0.3475
 4559SOL    HW114232   5.620   7.249   5.154 -1.2152 -0.0480  0.6420
 4559SOL    HW214233   5.729   7.354   5.144 -0.9827 -0.3892 -0.6897
 4560SOL     OW14234   5.376   0.987   3.218 -0.2034  0.2003 -0.2311
 4560SOL    HW114235   5.367   1.023   3.307 -0.4937 -0.2449 -0.0780
 4560SOL    HW214236   5.395   0.894   3.231 -2.2274 -0.3165 -0.6318
 4561SOL     OW14237   5.883   2.159   3.740  0.3283  0.0503 -0.0326
 4561SOL    HW114238   5.843   2.131   3.658 -0.0224 -0.6731  0.3808
 4561SOL    HW214239   5.972   2.123   3.737  1.0703  1.8392 -1.0478
 4562SOL     OW14240   2.117   5.404   3.466  0.6225  0.2662  0.6943
 4562SOL    HW114241   2.204   5.414   3.503  1.6829  1.7304 -1.9004
 4562SOL    HW214242   2.116   5.464   3.391 -2.0013 -0.9893 -0.4171
 4563SOL     OW14243   5.939   1.408   7.272 -0.2981  0.4668 -0.3570
 4563SOL    HW114244   5.920   1.322   7.312 -0.4828  0.5970 -0.1607
 4563SOL    HW214245   5.931   1.392   7.178 -1.6921  0.5678 -0.2866
 4564SOL     OW14246   1.811   1.793   3.613 -0.4674  0.0288 -0.0598
 4564SOL    HW114247   1.869   1.852   3.565  1.7091 -1.7995  0.2000
 4564SOL    HW214248   1.852   1.783   3.699  0.4470 -3.3682 -0.7267
 4565SOL     OW14249   0.212   3.166   7.229 -0.0293 -0.6282 -0.4389
 4565SOL    HW114250   0.252   3.120   7.303 -0.3237 -1.4103 -0.7503
 4565SOL    HW214251   0.210   3.100   7.159 -0.6970 -0.2135 -0.8156
 4566SOL     OW14252   1.226   3.924   6.159  0.4136 -0.4622  0.0487
 4566SOL    HW114253   1.289   3.948   6.227 -0.4733  0.1421  0.6790
 4566SOL    HW214254   1.225   3.999   6.099  0.3672 -0.5090 -0.0095
 4567SOL     OW14255   3.348   0.900   4.005 -0.6705  0.9537  0.1911
 4567SOL    HW114256   3.356   0.805   4.015 -1.2608  0.8517 -0.2687
 4567SOL    HW214257   3.437   0.933   4.017 -0.6556  0.4712  1.6488
 4568SOL     OW14258   1.285   1.680   3.048 -0.4634  0.4509 -0.2856
 4568SOL    HW114259   1.345   1.682   2.973 -0.8196 -0.6161 -0.6248
 4568SOL    HW214260   1.198   1.674   3.009 -0.5477 -2.8279  0.1106
 4569SOL     OW14261   2.497   5.668   6.470  0.1033 -0.4171  0.7949
 4569SOL    HW114262   2.506   5.708   6.556  1.7347 -1.2915  1.0773
 4569SOL    HW214263   2.542   5.728   6.410 -1.6935  0.5882  0.3596
 4570SOL     OW14264   4.985   6.957   0.050  0.1939 -0.8609 -0.1037
 4570SOL    HW114265   4.959   6.934  -0.039  0.4439  1.7313 -0.9182
 4570SOL    HW214266   5.075   6.924   0.058  0.5534 -0.1688 -1.1988
 4571SOL     OW14267   7.047   1.419   7.454 -0.3026 -0.1960 -0.0283
 4571SOL    HW114268   7.077   1.506   7.478 -0.3022  0.1734 -1.3313
 4571SOL    HW214269   7.125   1.375   7.421 -0.3882 -0.5627  0.2473
 4572SOL     OW14270   3.233   2.745   4.548  0.2263  0.0905 -0.1060
 4572SOL    HW114271   3.148   2.727   4.587  0.1132  1.2356  0.2063
 4572SOL    HW214272   3.235   2.690   4.469 -0.0634 -1.2821  0.7965
 4573SOL     OW14273   1.124   0.051   2.185  0.0108 -0.0301  0.0798
 4573SOL    HW114274   1.096   0.038   2.095 -2.3743  0.4239  0.6850
 4573SOL    HW214275   1.183  -0.022   2.203 -1.9503 -1.9372 -0.8881
 4574SOL     OW14276   3.428   6.459   0.859  0.3833 -0.1388 -0.0612
 4574SOL    HW114277   3.485   6.532   0.886 -0.9746  0.6839  0.7424
 4574SOL    HW214278   3.462   6.432   0.774  0.6569  1.7553 -0.6029
 4575SOL     OW14279   3.478   5.229   2.008 -0.4722  0.2399 -0.7285
 4575SOL    HW114280   3.431   5.269   2.081  1.6180 -1.1353  1.4994
 4575SOL    HW214281   3.514   5.303   1.959  1.3706  1.2636  1.9435
 4576SOL     OW14282   2.973   1.513   1.109 -0.0183 -0.0934 -0.6144
 4576SOL    HW114283   2.965   1.607   1.122 -0.5048 -0.4864  2.5615
 4576SOL    HW214284   3.067   1.497   1.102  0.1949  0.4556  0.7698
 4577SOL     OW14285   0.415   3.390   0.538 -0.1535 -0.3697  0.1810
 4577SOL    HW114286   0.479   3.384   0.467  0.4863  0.6800  0.6425
 4577SOL    HW214287   0.468   3.383   0.618 -0.3724  2.0282  0.6006
 4578SOL     OW14288   5.364   4.035   3.354 -0.3282  0.3764  0.1766
 4578SOL    HW114289   5.397   4.108   3.302  1.4118  1.2986  2.3836
 4578SOL    HW214290   5.443   3.992   3.388 -1.3532 -0.7403  1.2761
 4579SOL     OW14291   1.891   3.727   1.073  0.0639 -0.4390  0.2614
 4579SOL    HW114292   1.865   3.815   1.047 -0.8570 -0.7160  0.1985
 4579SOL    HW214293   1.856   3.717   1.162  3.4803  0.6348  1.9127
 4580SOL     OW14294   4.567   2.907   1.516 -0.0794 -0.2742 -0.3298
 4580SOL    HW114295   4.649   2.873   1.552  0.3689 -0.0861 -1.1448
 4580SOL    HW214296   4.514   2.829   1.498  0.1001 -0.4209 -0.2200
 4581SOL     OW14297   5.464   5.135   5.034  0.1050 -0.8476  0.2893
 4581SOL    HW114298   5.403   5.064   5.016 -0.3548 -0.1514 -1.0143
 4581SOL    HW214299   5.467   5.141   5.129 -2.5861 -0.2929  0.3993
 4582SOL     OW14300   1.007   2.016   4.185 -0.4967 -0.3693 -0.8281
 4582SOL    HW114301   1.005   2.111   4.193 -0.0606 -0.3322 -1.1497
 4582SOL    HW214302   0.934   1.996   4.127 -0.2811 -0.1865 -1.1659
 4583SOL     OW14303   4.193   4.243   7.363 -0.1385  0.2611  0.2792
 4583SOL    HW114304   4.282   4.277   7.375 -0.3027  0.2467  1.6277
 4583SOL    HW214305   4.153   4.304   7.301  1.0027 -0.1094 -0.8634
 4584SOL     OW14306   2.944   0.624   4.272  0.6510 -0.3978  0.2818
 4584SOL    HW114307   3.027   0.671   4.261  0.7928 -0.5843  0.5451
 4584SOL    HW214308   2.915   0.604   4.183  0.3069  0.6769  0.1325
 4585SOL     OW14309   7.428   2.729   6.632 -0.0017 -0.2670 -0.0692
 4585SOL    HW114310   7.395   2.757   6.718  1.3061  1.1115  0.0303
 4585SOL    HW214311   7.362   2.669   6.600 -1.4126  0.5521  1.1378
 4586SOL     OW14312   4.454   1.042   4.418  0.0832 -0.2836 -0.2450
 4586SOL    HW114313   4.542   1.079   4.411 -0.2119  0.3809 -0.6234
 4586SOL    HW214314   4.443   0.992   4.337 -1.3288  2.9368 -2.2486
 4587SOL     OW14315   6.826   7.750   4.019  0.6406 -0.3450 -0.5694
 4587SOL    HW114316   6.750   7.788   3.976  0.3909 -0.3156 -0.1156
 4587SOL    HW214317   6.878   7.712   3.948 -0.3334 -1.3058 -0.7910
 4588SOL     OW14318   7.632   5.704   3.393  0.7844  0.5419  0.0145
 4588SOL    HW114319   7.546   5.663   3.380  1.5773 -1.0367 -0.5685
 4588SOL    HW214320   7.614   5.783   3.444 -0.8990 -0.2503  0.7150
 4589SOL     OW14321   2.884   0.346   5.524  0.5101  0.6391  0.2164
 4589SOL    HW114322   2.837   0.429   5.517  0.5281  0.5575 -1.1991
 4589SOL    HW214323   2.824   0.289   5.573  1.4505  2.0920  3.2920
 4590SOL     OW14324   7.106   2.371   4.377 -0.0673  0.1021  0.1717
 4590SOL    HW114325   7.194   2.373   4.414  0.5298 -0.4998 -1.1373
 4590SOL    HW214326   7.107   2.438   4.309 -1.0015  0.8768  0.8880
 4591SOL     OW14327   4.437   7.374   2.915  0.7419 -0.2281 -0.6711
 4591SOL    HW114328   4.344   7.393   2.908  0.8641  0.5481 -0.3444
 4591SOL    HW214329   4.443   7.279   2.918 -0.1418 -0.2686  0.6027
 4592SOL     OW14330   6.058   4.859   4.114 -0.3515  0.7208 -0.0204
 4592SOL    HW114331   6.133   4.919   4.112  1.2109 -1.1341 -1.7714
 4592SOL    HW214332   6.038   4.842   4.022 -1.7133 -0.2739  0.4266
 4593SOL     OW14333   5.862   2.929   3.777 -0.0319  0.0392 -0.2298
 4593SOL    HW114334   5.796   2.876   3.732  1.0055 -1.9942  0.5398
 4593SOL    HW214335   5.911   2.972   3.707 -0.4564 -0.5766 -0.9123
 4594SOL     OW14336   3.223   6.712   6.859  0.0391  0.1140 -0.5462
 4594SOL    HW114337   3.233   6.787   6.918  2.7916 -0.2166 -0.4632
 4594SOL    HW214338   3.259   6.742   6.776 -1.8254 -0.1375 -1.5048
 4595SOL     OW14339   6.762   3.146   6.926  0.7537  0.3247  0.4080
 4595SOL    HW114340   6.847   3.164   6.966  1.6471 -1.5380 -0.4790
 4595SOL    HW214341   6.763   3.196   6.844  0.8561  0.5649  0.5550
 4596SOL     OW14342   6.017   2.600   2.331  0.6408  0.4300 -0.7752
 4596SOL    HW114343   5.942   2.654   2.354  0.4999 -0.0901  0.0123
 4596SOL    HW214344   5.986   2.510   2.343  1.4655  0.2144 -0.1869
 4597SOL     OW14345   3.897   5.415   7.308  0.3601 -0.0825 -0.1922
 4597SOL    HW114346   3.877   5.507   7.288 -0.0804 -0.0198  0.5064
 4597SOL    HW214347   3.916   5.414   7.401  1.7610 -0.4811 -0.4698
 4598SOL     OW14348   1.359   0.840   3.054 -0.0101 -0.2073 -0.2368
 4598SOL    HW114349   1.455   0.845   3.056  0.0849 -0.0400 -2.7336
 4598SOL    HW214350   1.329   0.929   3.073  0.4787  0.4948 -2.4356
 4599SOL     OW14351   2.387   0.302   3.893 -0.2402 -0.2840  0.1072
 4599SOL    HW114352   2.301   0.329   3.926 -0.5354  1.0018 -1.5667
 4599SOL    HW214353   2.371   0.218   3.851 -0.8787  0.2840 -0.8345
 4600SOL     OW14354   1.378   4.505   3.580 -0.2549 -0.9917 -0.1615
 4600SOL    HW114355   1.387   4.410   3.586  0.4553 -0.8960  0.3647
 4600SOL    HW214356   1.339   4.531   3.664  1.0920 -0.6439  0.3716
 4601SOL     OW14357   7.311   0.171   1.943 -1.2037 -0.4796 -0.3088
 4601SOL    HW114358   7.252   0.233   1.986 -0.5571 -0.7121  0.9638
 4601SOL    HW214359   7.373   0.226   1.896  0.5172  0.0118  2.3189
 4602SOL     OW14360   4.705   0.596   5.453 -0.0401 -0.0644  0.5312
 4602SOL    HW114361   4.670   0.677   5.415 -0.7082 -1.4940 -2.0995
 4602SOL    HW214362   4.778   0.572   5.396  2.1842  0.1908  3.0386
 4603SOL     OW14363   5.281   3.503   2.293 -0.1790  0.1431 -0.3798
 4603SOL    HW114364   5.332   3.584   2.285  0.5696 -0.3867 -1.1130
 4603SOL    HW214365   5.310   3.448   2.220 -0.5985 -0.8304  0.1595
 4604SOL     OW14366   3.741   0.651   3.844  0.1060  0.1699  0.0310
 4604SOL    HW114367   3.738   0.631   3.938  2.1249 -0.0691  0.1034
 4604SOL    HW214368   3.709   0.740   3.837 -0.3421  0.0906  0.9131
 4605SOL     OW14369   5.951   7.739   1.094 -0.0614 -0.2598 -0.1240
 4605SOL    HW114370   5.936   7.666   1.153  0.6494 -0.5498 -0.2930
 4605SOL    HW214371   6.019   7.708   1.034 -0.0206  0.4026 -0.4303
 4606SOL     OW14372   7.097   3.873   6.189 -0.0894  0.0545  0.4652
 4606SOL    HW114373   7.182   3.859   6.230 -0.2287 -0.4317  0.5866
 4606SOL    HW214374   7.081   3.795   6.137 -0.5390  0.0703  0.5759
 4607SOL     OW14375   3.513   2.260   5.509 -0.8128 -0.6839  0.4234
 4607SOL    HW114376   3.504   2.327   5.578 -0.1490  2.6187 -2.4262
 4607SOL    HW214377   3.424   2.248   5.476 -0.5850  1.2016 -1.0287
 4608SOL     OW14378   0.294   3.660   2.875  0.3954 -0.0374 -0.0712
 4608SOL    HW114379   0.199   3.657   2.866  0.5049  0.4341 -1.7097
 4608SOL    HW214380   0.309   3.706   2.957 -0.7972  1.4736 -0.6538
 4609SOL     OW14381   2.098   6.012   2.576  0.4318  0.6950  0.3783
 4609SOL    HW114382   2.021   5.996   2.631 -1.3084 -0.9806 -2.3050
 4609SOL    HW214383   2.143   6.084   2.619 -2.1514  1.1818  2.5789
 4610SOL     OW14384   2.485   5.480   3.231  0.5216 -0.1574 -0.0670
 4610SOL    HW114385   2.576   5.467   3.202  0.1826  1.4938 -2.0500
 4610SOL    HW214386   2.473   5.575   3.233 -0.9270 -0.3311  1.0059
 4611SOL     OW14387   2.832   6.793   7.247  0.5404  0.4542 -0.1401
 4611SOL    HW114388   2.809   6.703   7.226  2.7469 -0.3602  0.6247
 4611SOL    HW214389   2.779   6.814   7.324 -1.1153  0.3940 -1.2165
 4612SOL     OW14390   5.663   7.480   6.510  0.2911 -0.0676 -0.1545
 4612SOL    HW114391   5.666   7.440   6.423 -0.7768  0.1019 -0.2834
 4612SOL    HW214392   5.716   7.422   6.565  0.8729 -0.2438 -0.8842
 4613SOL     OW14393   7.155   0.900   1.728 -0.1076 -0.0905  0.5226
 4613SOL    HW114394   7.201   0.936   1.803  0.3098 -1.0412  0.7468
 4613SOL    HW214395   7.221   0.849   1.681 -0.2527  0.8537 -0.7526
 4614SOL     OW14396   0.608   0.929   3.367 -0.2670  0.1180  0.2602
 4614SOL    HW114397   0.632   0.866   3.435 -0.1724 -0.3679 -0.2162
 4614SOL    HW214398   0.512   0.938   3.375 -0.1235  1.0544  1.2938
 4615SOL     OW14399   3.810   7.656   3.240 -0.6579  0.1905  0.2019
 4615SOL    HW114400   3.852   7.737   3.210  0.8907 -0.6346  0.0431
 4615SOL    HW214401   3.820   7.595   3.167 -2.5769  0.0716 -0.0153
 4616SOL     OW14402   3.017   2.015   1.534  0.2173 -0.2258  0.1215
 4616SOL    HW114403   2.975   1.946   1.585 -0.4634 -0.3435 -0.5842
 4616SOL    HW214404   3.109   1.987   1.527  0.0146 -0.9061  0.0990
 4617SOL     OW14405   6.862   6.032   4.689 -0.1741  0.0145  0.5107
 4617SOL    HW114406   6.831   5.949   4.726 -2.4609  0.2265 -0.7142
 4617SOL    HW214407   6.869   6.091   4.764  1.5195 -1.2264  1.4074
 4618SOL     OW14408   4.226   3.442   1.921  0.3411 -0.8159  0.5060
 4618SOL    HW114409   4.217   3.506   1.850  0.6114 -1.2367  0.0816
 4618SOL    HW214410   4.246   3.494   1.998 -0.2924 -0.3208  0.3451
 4619SOL     OW14411   5.127   2.118   0.803  0.5257  0.0283  0.3158
 4619SOL    HW114412   5.152   2.202   0.766  0.8623 -0.0485  0.3735
 4619SOL    HW214413   5.206   2.064   0.799  0.5002 -0.0614  0.9143
 4620SOL     OW14414   1.112   4.521   1.298 -0.0496  0.0605 -0.4934
 4620SOL    HW114415   1.082   4.496   1.211 -0.4558 -0.0595 -0.3207
 4620SOL    HW214416   1.207   4.510   1.295 -0.1896 -1.2079 -0.5175
 4621SOL     OW14417   0.314   5.426   0.623 -0.4000  0.5183  0.1183
 4621SOL    HW114418   0.337   5.376   0.701 -0.4516  1.2380  0.6050
 4621SOL    HW214419   0.233   5.387   0.592  0.6002 -1.0050 -0.6856
 4622SOL     OW14420   0.146   1.529   4.951  0.1810 -0.2170  0.7828
 4622SOL    HW114421   0.158   1.616   4.912 -1.9985 -0.4696 -0.6124
 4622SOL    HW214422   0.053   1.510   4.940 -0.0699 -1.4324  3.9207
 4623SOL     OW14423   3.472   2.083   3.766  0.3294 -0.1241 -0.3210
 4623SOL    HW114424   3.392   2.119   3.805  0.1430 -0.7160 -0.1563
 4623SOL    HW214425   3.447   2.060   3.676  0.0911 -1.0627 -0.0216
 4624SOL     OW14426   0.856   2.829   5.286 -0.1284  0.8571 -0.5382
 4624SOL    HW114427   0.932   2.782   5.253  0.6694  2.1571 -0.6527
 4624SOL    HW214428   0.795   2.761   5.315  1.5112 -0.2157  0.5464
 4625SOL     OW14429   3.893   4.934   3.681 -0.4462  0.3776 -0.2481
 4625SOL    HW114430   3.972   4.898   3.722  2.8438  2.4834 -4.0119
 4625SOL    HW214431   3.827   4.866   3.694  2.0422 -1.7827  2.7212
 4626SOL     OW14432   5.348   2.779   7.501  0.7233  0.0927 -0.0073
 4626SOL    HW114433   5.354   2.711   7.568  0.2078 -0.2982 -0.3532
 4626SOL    HW214434   5.380   2.858   7.545 -0.4391  0.0398  0.9836
 4627SOL     OW14435   3.355   6.190   6.389  0.1971 -0.6224 -0.3846
 4627SOL    HW114436   3.404   6.218   6.466  0.5401 -0.6131 -0.6090
 4627SOL    HW214437   3.351   6.267   6.332 -0.6568 -0.4186 -0.0749
 4628SOL     OW14438   4.996   2.969   6.790  0.1339  0.5660  0.0119
 4628SOL    HW114439   4.981   3.056   6.827  1.2021  0.2434  1.2946
 4628SOL    HW214440   4.957   2.910   6.853 -0.0327  0.0871 -0.5364
 4629SOL     OW14441   4.116   0.624   4.535  0.3473  0.5443 -0.2080
 4629SOL    HW114442   4.151   0.668   4.458  1.6869 -0.2547 -0.0861
 4629SOL    HW214443   4.098   0.535   4.506 -0.3083  0.5731  0.0949
 4630SOL     OW14444   4.662   3.319   5.292 -0.6416  0.4870  0.1973
 4630SOL    HW114445   4.652   3.258   5.219  2.2547 -0.2510  0.2924
 4630SOL    HW214446   4.744   3.364   5.274 -0.9913  1.9185  1.8886
 4631SOL     OW14447   3.400   3.082   6.014  0.1368 -0.3347  0.0695
 4631SOL    HW114448   3.418   3.130   6.094  0.3428 -1.4111  0.6833
 4631SOL    HW214449   3.315   3.116   5.984 -0.0069 -0.0253  0.8158
 4632SOL     OW14450   1.249   0.533   4.959  0.3627  0.5446  0.0193
 4632SOL    HW114451   1.225   0.509   4.869  1.0807 -1.3207  0.2810
 4632SOL    HW214452   1.168   0.520   5.009  1.0056 -3.1222  0.4197
 4633SOL     OW14453   2.603   6.375   3.669 -0.3833 -0.0939  0.6235
 4633SOL    HW114454   2.688   6.404   3.635 -0.4822  1.1784  1.3836
 4633SOL    HW214455   2.557   6.341   3.593 -0.5808  2.6047 -0.5738
 4634SOL     OW14456   6.079   5.498   2.134  0.0575 -0.1538 -0.0656
 4634SOL    HW114457   6.112   5.477   2.046 -2.1625  0.2878 -1.0602
 4634SOL    HW214458   6.013   5.431   2.151 -0.8263  0.8393  0.4862
 4635SOL     OW14459   5.750   7.133   1.441  0.4585 -0.5906 -0.4303
 4635SOL    HW114460   5.793   7.080   1.508 -1.3012  0.7496  1.9356
 4635SOL    HW214461   5.821   7.183   1.401  1.6206 -1.6834  0.1733
 4636SOL     OW14462   4.496   4.385   7.295  0.4653  0.2242 -0.1464
 4636SOL    HW114463   4.491   4.415   7.385 -1.5700  0.3302 -0.2465
 4636SOL    HW214464   4.456   4.455   7.244 -0.6639 -0.8721 -0.8385
 4637SOL     OW14465   0.133   2.563   3.140 -0.4876 -0.1171  0.3733
 4637SOL    HW114466   0.195   2.633   3.120 -0.9388  0.6568  1.5165
 4637SOL    HW214467   0.158   2.491   3.083  2.1886 -0.2568  1.5920
 4638SOL     OW14468   0.426   6.364   2.680 -0.2520  0.1551  0.4287
 4638SOL    HW114469   0.495   6.413   2.724  1.5960 -1.2555 -0.7447
 4638SOL    HW214470   0.441   6.380   2.587 -0.7906 -1.1078  0.1087
 4639SOL     OW14471   4.332   2.984   7.432 -1.1816  0.0358  0.3248
 4639SOL    HW114472   4.339   2.953   7.522 -1.6076 -0.1555  0.2927
 4639SOL    HW214473   4.393   3.058   7.427 -0.1751 -0.7614  0.4120
 4640SOL     OW14474   7.214   0.811   4.577  1.0715  0.5203  0.7119
 4640SOL    HW114475   7.222   0.724   4.538  0.0130  0.0917  1.4047
 4640SOL    HW214476   7.121   0.819   4.599  1.4536  1.1603  2.1857
 4641SOL     OW14477   7.325   2.666   6.028  0.2826  0.2431 -0.5944
 4641SOL    HW114478   7.336   2.572   6.041 -0.7085  0.1408 -0.4066
 4641SOL    HW214479   7.414   2.701   6.029  0.7516 -0.8128 -1.6230
 4642SOL     OW14480   2.567   3.536   5.747 -0.4174  0.2483  0.4237
 4642SOL    HW114481   2.584   3.629   5.764 -0.4989  0.3032  0.1977
 4642SOL    HW214482   2.603   3.521   5.660 -0.6374  0.1265  0.3559
 4643SOL     OW14483   6.399   6.704   6.056 -0.2216 -0.0531  0.0911
 4643SOL    HW114484   6.365   6.722   5.968 -0.5072  1.6885  0.5032
 4643SOL    HW214485   6.407   6.791   6.096  0.7782 -0.7435  1.4692
 4644SOL     OW14486   3.922   5.710   0.017 -0.3878 -0.6113  0.0323
 4644SOL    HW114487   3.978   5.685   0.090 -0.9985 -1.5149  0.1988
 4644SOL    HW214488   3.981   5.716  -0.058 -0.0448 -1.4757  0.2230
 4645SOL     OW14489   3.835   5.671   7.240  0.0788 -0.0235 -0.4336
 4645SOL    HW114490   3.911   5.728   7.250 -0.5005  0.6556  0.2213
 4645SOL    HW214491   3.760   5.729   7.248 -0.5231 -0.8061 -0.2462
 4646SOL     OW14492   6.542   4.972   7.217  0.1579  0.0793 -0.0309
 4646SOL    HW114493   6.449   4.954   7.234  0.6357 -1.5351  1.0891
 4646SOL    HW214494   6.543   5.060   7.180 -1.7634  0.3714  0.5183
 4647SOL     OW14495   3.103   4.979   0.786  0.1164 -0.0587  0.1903
 4647SOL    HW114496   3.084   5.072   0.772 -0.5683 -0.1572  0.3958
 4647SOL    HW214497   3.017   4.939   0.799  0.4979 -0.3889  2.0721
 4648SOL     OW14498   0.361   1.302   6.548 -0.2501  0.1908  0.6774
 4648SOL    HW114499   0.304   1.378   6.553  0.2410  0.5807  0.4270
 4648SOL    HW214500   0.369   1.284   6.454 -0.0663  0.0613  0.7168
 4649SOL     OW14501   3.097   3.841   6.712 -0.1537  0.0141  0.5233
 4649SOL    HW114502   3.025   3.840   6.774  1.8723 -0.9444  3.0395
 4649SOL    HW214503   3.147   3.919   6.734  1.0123 -0.7397  0.6648
 4650SOL     OW14504   4.572   1.067   3.013 -0.1283 -0.1508  0.3268
 4650SOL    HW114505   4.506   1.092   2.949 -0.7026  2.1217  1.7179
 4650SOL    HW214506   4.585   0.973   2.998 -0.0012  0.2817 -3.2836
 4651SOL     OW14507   4.887   1.827   1.561 -0.1905 -0.7983 -0.3186
 4651SOL    HW114508   4.954   1.789   1.505 -0.9438 -0.3117 -1.6044
 4651SOL    HW214509   4.843   1.892   1.506  0.6687  1.5701  1.6160
 4652SOL     OW14510   3.031   1.066   5.189 -0.3344  0.2619  0.1652
 4652SOL    HW114511   2.959   1.020   5.146 -1.1229  0.0500  1.6635
 4652SOL    HW214512   3.103   1.062   5.126 -0.2287 -3.3087  0.3198
 4653SOL     OW14513   5.338   1.987   1.155 -0.6876  0.2564 -0.4677
 4653SOL    HW114514   5.402   2.009   1.223 -1.5594 -1.2082  0.8843
 4653SOL    HW214515   5.255   2.017   1.191 -1.0777 -0.0127 -1.1445
 4654SOL     OW14516   3.274   6.716   6.158  0.2287  0.1213  0.1382
 4654SOL    HW114517   3.251   6.648   6.222  2.0048 -0.1374  0.5657
 4654SOL    HW214518   3.291   6.669   6.077  2.6058 -0.1848  0.7207
 4655SOL     OW14519   1.656   7.505   2.726 -0.3313  0.3062  0.3028
 4655SOL    HW114520   1.739   7.524   2.771  0.6047 -0.6745 -0.9264
 4655SOL    HW214521   1.597   7.575   2.754  1.2372  1.6737  0.3463
 4656SOL     OW14522   3.931   6.064   0.695  0.3381  0.3090 -0.1490
 4656SOL    HW114523   3.886   5.999   0.748  0.5863  0.5459  0.3568
 4656SOL    HW214524   3.963   6.016   0.619 -0.8910  0.1640 -0.5919
 4657SOL     OW14525   5.333   3.694   6.507 -0.0229  1.0108  0.0968
 4657SOL    HW114526   5.401   3.667   6.569 -1.4927 -1.0399  0.9364
 4657SOL    HW214527   5.304   3.780   6.539  1.2007  1.2959  0.5125
 4658SOL     OW14528   4.069   2.845   5.516 -0.0619  0.4017  0.1965
 4658SOL    HW114529   4.051   2.804   5.601  0.1883  0.0208  0.0701
 4658SOL    HW214530   4.152   2.806   5.489 -0.6765 -0.2916 -0.7327
 4659SOL     OW14531   7.623   3.005   4.986  0.3237 -0.6447 -0.1383
 4659SOL    HW114532   7.670   3.041   4.911 -1.8652  2.4713 -0.1985
 4659SOL    HW214533   7.683   3.017   5.060  2.7148 -4.2087 -1.2346
 4660SOL     OW14534   1.563   1.581   5.940 -0.3773 -0.0651 -0.1383
 4660SOL    HW114535   1.600   1.667   5.961 -0.3313  0.0961 -0.8645
 4660SOL    HW214536   1.480   1.601   5.896 -1.9574 -0.4170  2.4573
 4661SOL     OW14537   0.080   1.449   7.368  0.6055 -0.1849 -0.1973
 4661SOL    HW114538  -0.015   1.442   7.369  0.4768  1.2472  0.1528
 4661SOL    HW214539   0.111   1.359   7.357 -0.7348 -0.9581  1.8257
 4662SOL     OW14540   4.510   4.102   7.352 -0.1199  0.5885  0.0077
 4662SOL    HW114541   4.516   4.192   7.319 -0.5064  0.0894 -1.4809
 4662SOL    HW214542   4.558   4.104   7.435 -0.0080  2.1349 -0.0633
 4663SOL     OW14543   6.155   1.989   3.813 -0.2207  0.2890  0.6358
 4663SOL    HW114544   6.137   1.910   3.863  2.6573 -0.6913  0.3607
 4663SOL    HW214545   6.186   1.957   3.728 -0.9363  1.7910 -0.2344
 4664SOL     OW14546   6.583   7.236   5.877  0.3347 -0.2105 -0.4359
 4664SOL    HW114547   6.652   7.302   5.868  0.1774 -0.0106 -0.2146
 4664SOL    HW214548   6.591   7.206   5.968  1.5325 -1.7709 -1.0244
 4665SOL     OW14549   2.505   6.703   6.055 -0.2924 -0.4941  0.2021
 4665SOL    HW114550   2.418   6.668   6.035 -0.2455 -1.3481  1.3415
 4665SOL    HW214551   2.518   6.680   6.147  0.5451  0.9212  0.4533
 4666SOL     OW14552   2.535   5.226   0.585  0.3243 -0.3814  0.0069
 4666SOL    HW114553   2.484   5.151   0.556  0.3478 -0.9617  1.3928
 4666SOL    HW214554   2.483   5.265   0.655  0.9377  0.1089  0.1985
 4667SOL     OW14555   3.823   6.143   7.134  0.1191  0.1900 -0.3494
 4667SOL    HW114556   3.896   6.109   7.083  0.2266 -1.8854  1.0622
 4667SOL    HW214557   3.864   6.202   7.198  0.4251 -0.0899 -0.2862
 4668SOL     OW14558   1.286   2.043   2.775  0.3373 -0.9106  0.5231
 4668SOL    HW114559   1.287   2.094   2.856 -0.4994  1.0769 -0.6281
 4668SOL    HW214560   1.362   2.075   2.726 -0.4183 -0.4777 -0.3840
 4669SOL     OW14561   6.583   1.301   7.621  0.5589  0.0173  0.2576
 4669SOL    HW114562   6.549   1.355   7.549  2.3529  0.2218 -0.4885
 4669SOL    HW214563   6.673   1.280   7.595  1.6692  1.0169  2.9173
 4670SOL     OW14564   5.551   4.415   0.478 -0.4114  0.0487  0.6519
 4670SOL    HW114565   5.541   4.489   0.418 -0.9535 -0.5178  0.0182
 4670SOL    HW214566   5.632   4.373   0.450 -2.3496 -2.2898 -2.1306
 4671SOL     OW14567   5.564   7.321   1.835 -0.1392 -0.0494  0.3375
 4671SOL    HW114568   5.581   7.238   1.792 -0.5579  0.5791 -1.0982
 4671SOL    HW214569   5.473   7.316   1.862  0.1787 -0.5234  1.3873
 4672SOL     OW14570   3.341   7.170   3.250 -0.0538 -0.7922 -0.0474
 4672SOL    HW114571   3.410   7.234   3.264  0.7463 -1.3645 -1.1417
 4672SOL    HW214572   3.268   7.220   3.213 -0.1916 -0.2069  0.9895
 4673SOL     OW14573   3.847   4.704   1.022 -0.7914  0.3521  0.6881
 4673SOL    HW114574   3.939   4.703   1.047 -0.8916  1.2807  1.1073
 4673SOL    HW214575   3.802   4.746   1.095 -1.4155  0.8443  0.0360
 4674SOL     OW14576   5.604   3.660   4.542  0.7095  0.5478 -0.5895
 4674SOL    HW114577   5.532   3.720   4.520  0.9587  1.2444  0.4113
 4674SOL    HW214578   5.586   3.634   4.633  2.2030  1.4685  0.0076
 4675SOL     OW14579   3.742   1.720   3.131  0.4208  0.7365  0.2797
 4675SOL    HW114580   3.703   1.684   3.211  0.4101 -0.2762 -0.1632
 4675SOL    HW214581   3.821   1.667   3.118 -0.6912 -0.5983 -1.5388
 4676SOL     OW14582   1.081   5.216   7.495  0.2835 -0.1340  0.1236
 4676SOL    HW114583   1.088   5.252   7.584  2.0752 -0.0255 -0.0357
 4676SOL    HW214584   1.024   5.277   7.449  2.8726  2.3843 -0.0081
 4677SOL     OW14585   0.720   2.029   4.100  0.2016 -0.5001 -0.3732
 4677SOL    HW114586   0.712   2.015   4.006 -1.3027 -0.5784 -0.2576
 4677SOL    HW214587   0.657   2.098   4.120  0.5097 -0.4720  0.5885
 4678SOL     OW14588   2.167   6.926   1.591 -0.3856  0.2207  0.3530
 4678SOL    HW114589   2.155   6.911   1.684  1.1924 -2.0660  0.2573
 4678SOL    HW214590   2.079   6.948   1.559 -0.9403  1.1223  2.3306
 4679SOL     OW14591   3.723   5.772   2.596 -0.0777  0.2585 -0.0335
 4679SOL    HW114592   3.728   5.835   2.668 -0.1516  1.5608 -1.1200
 4679SOL    HW214593   3.788   5.706   2.617 -1.2593 -0.3273  2.0656
 4680SOL     OW14594   3.632   3.446   3.402 -0.4051  0.2907 -0.3974
 4680SOL    HW114595   3.713   3.419   3.358 -1.5010  0.6837 -2.8086
 4680SOL    HW214596   3.616   3.535   3.371 -2.5254 -0.3117 -1.1844
 4681SOL     OW14597   0.183   2.987   0.045  0.2065  0.1850 -0.1816
 4681SOL    HW114598   0.093   2.990   0.013  0.1490 -1.5784 -0.2733
 4681SOL    HW214599   0.187   2.908   0.100  1.9622 -0.3777 -1.0381
 4682SOL     OW14600   1.468   6.500   0.023  0.8489 -0.0531  0.4595
 4682SOL    HW114601   1.528   6.493   0.098  1.1192  2.8321  0.6144
 4682SOL    HW214602   1.523   6.532  -0.048  0.1264 -0.5729 -0.3454
 4683SOL     OW14603   1.247   6.068   4.529  0.1389  0.1900 -0.3203
 4683SOL    HW114604   1.315   6.085   4.464  0.4060  1.8102  0.3240
 4683SOL    HW214605   1.290   6.085   4.613 -1.4400  3.1521  0.0430
 4684SOL     OW14606   6.122   0.962   2.461  0.3675  0.3196  0.0502
 4684SOL    HW114607   6.167   0.899   2.517 -1.9339 -0.3074  1.2896
 4684SOL    HW214608   6.084   0.909   2.391  3.8745  1.1690 -2.7812
 4685SOL     OW14609   2.078   1.369   6.823  0.2381 -0.2287 -0.0833
 4685SOL    HW114610   2.120   1.353   6.907 -1.7971 -0.8268  0.8898
 4685SOL    HW214611   2.032   1.452   6.834  0.7636  0.2019 -0.9760
 4686SOL     OW14612   0.049   6.480   6.913  0.0076  0.6901  0.3608
 4686SOL    HW114613   0.140   6.509   6.917 -0.1132  0.9206  3.1140
 4686SOL    HW214614  -0.002   6.554   6.945 -0.8724 -0.4077  1.6016
 4687SOL     OW14615   3.589   7.275   7.130  0.2001  0.0739  0.5294
 4687SOL    HW114616   3.495   7.280   7.118  0.4034  0.7372 -0.9684
 4687SOL    HW214617   3.616   7.363   7.156  0.6400  0.4050 -0.9944
 4688SOL     OW14618   5.907   5.762   4.488 -0.3955 -0.1959 -0.8758
 4688SOL    HW114619   5.912   5.842   4.540  1.2864  0.1948 -1.5648
 4688SOL    HW214620   5.928   5.691   4.550 -0.1383  0.0812 -0.6444
 4689SOL     OW14621   6.996   3.877   2.975 -0.0754  0.1158  0.1378
 4689SOL    HW114622   6.999   3.797   2.921 -0.7539  1.4324 -1.9925
 4689SOL    HW214623   7.065   3.865   3.040  1.2506 -1.3153 -1.4322
 4690SOL     OW14624   6.165   0.036   6.699 -0.1881 -0.3200 -0.3615
 4690SOL    HW114625   6.158  -0.056   6.676 -0.9203  0.1027 -1.9812
 4690SOL    HW214626   6.127   0.083   6.624  0.6998  1.3190  0.1488
 4691SOL     OW14627   3.973   1.912   7.132  0.2108  0.0078  0.0882
 4691SOL    HW114628   3.965   1.834   7.186  0.5801  0.0867  0.2597
 4691SOL    HW214629   3.888   1.921   7.089 -0.9862  1.3451  2.5440
 4692SOL     OW14630   4.168   0.114   4.605 -0.2891  0.5573 -0.3706
 4692SOL    HW114631   4.085   0.066   4.604  0.2205 -0.3462 -1.3066
 4692SOL    HW214632   4.210   0.091   4.522  1.1469  0.5694  0.3236
 4693SOL     OW14633   4.862   1.751   2.624 -0.0576 -0.2508 -0.2519
 4693SOL    HW114634   4.938   1.780   2.674 -0.0319  1.5590 -1.2354
 4693SOL    HW214635   4.803   1.714   2.689  0.8704  0.0781  0.8022
 4694SOL     OW14636   5.113   4.321   6.190 -0.2800  0.0790  0.2436
 4694SOL    HW114637   5.025   4.295   6.162 -0.6658  1.2938  0.2784
 4694SOL    HW214638   5.103   4.338   6.284  0.3088 -1.0109  0.5302
 4695SOL     OW14639   0.328   0.985   3.413 -0.5943 -0.1285  0.7271
 4695SOL    HW114640   0.261   0.995   3.480 -1.7003  1.5872 -0.5308
 4695SOL    HW214641   0.280   0.997   3.330  1.0755  0.0823 -0.2473
 4696SOL     OW14642   5.952   5.115   3.273 -0.2061  0.7774 -0.0067
 4696SOL    HW114643   5.941   5.085   3.363  1.5316  2.7130  0.9184
 4696SOL    HW214644   6.004   5.046   3.231 -0.3844  0.2178  0.6695
 4697SOL     OW14645   7.518   1.571   0.344  0.3220  0.2199 -0.2179
 4697SOL    HW114646   7.578   1.501   0.319 -0.8254 -0.5876 -0.7936
 4697SOL    HW214647   7.483   1.602   0.261 -2.3590 -1.4331  0.1865
 4698SOL     OW14648   3.740   0.212   7.192  0.7473  0.0986 -0.4888
 4698SOL    HW114649   3.794   0.147   7.146  0.7977 -1.1341  1.2173
 4698SOL    HW214650   3.650   0.191   7.164  0.8190 -0.3043 -0.4229
 4699SOL     OW14651   6.412   4.398   2.970 -0.2118  0.5499  0.0210
 4699SOL    HW114652   6.405   4.309   2.937  1.2872  0.3275  0.2300
 4699SOL    HW214653   6.443   4.450   2.895  0.2885  0.6150  0.2674
 4700SOL     OW14654   7.346   3.585   7.617  0.4242 -0.0936 -0.8062
 4700SOL    HW114655   7.368   3.557   7.528  0.5007  0.0923 -0.8462
 4700SOL    HW214656   7.322   3.677   7.608  0.6254 -0.0196 -0.6035
 4701SOL     OW14657   5.984   7.469   3.629  0.1098 -0.0310 -0.8085
 4701SOL    HW114658   6.026   7.516   3.701 -0.2278  2.4835 -2.1586
 4701SOL    HW214659   6.009   7.517   3.550  0.0907 -2.4178 -2.3686
 4702SOL     OW14660   6.698   6.954   4.279  0.1406 -0.1722  0.1816
 4702SOL    HW114661   6.606   6.967   4.256  0.0911 -0.6776  0.0911
 4702SOL    HW214662   6.720   7.032   4.330 -0.5080 -0.3276  0.7226
 4703SOL     OW14663   7.183   4.238   2.633 -0.2131 -0.6199 -0.3288
 4703SOL    HW114664   7.261   4.256   2.581 -0.9938 -0.6620 -1.5464
 4703SOL    HW214665   7.173   4.143   2.631 -0.0126 -0.6557  0.2536
 4704SOL     OW14666   5.512   2.144   3.455 -0.0360 -0.2721  0.9238
 4704SOL    HW114667   5.444   2.142   3.387  0.1385 -0.3818  0.7523
 4704SOL    HW214668   5.463   2.142   3.537 -0.2134 -2.7529  0.8283
 4705SOL     OW14669   0.079   2.649   4.390  0.2899 -0.4657 -0.0808
 4705SOL    HW114670   0.115   2.687   4.310  0.6444 -0.9028 -0.1352
 4705SOL    HW214671   0.099   2.714   4.458 -0.0457 -0.0759 -0.3492
 4706SOL     OW14672   5.228   5.066   1.765  0.3218 -0.7183  0.2253
 4706SOL    HW114673   5.317   5.076   1.733 -0.2019 -1.8477 -1.7998
 4706SOL    HW214674   5.188   5.004   1.704 -2.5844  1.6032 -0.4581
 4707SOL     OW14675   1.954   0.909   7.560 -0.1903 -0.3012  0.1655
 4707SOL    HW114676   1.927   0.878   7.647  0.2000  0.3130  0.5153
 4707SOL    HW214677   1.955   1.004   7.568 -0.2324 -0.2358 -0.5415
 4708SOL     OW14678   1.637   2.055   3.547 -0.1042 -0.6776 -0.2734
 4708SOL    HW114679   1.625   1.960   3.557 -1.0122 -0.4441  1.2484
 4708SOL    HW214680   1.719   2.074   3.593 -1.2309 -0.4273  1.7774
 4709SOL     OW14681   1.631   0.981   4.255  0.0509 -0.1194 -0.2500
 4709SOL    HW114682   1.547   0.938   4.237 -0.9509  1.5518  0.2099
 4709SOL    HW214683   1.666   1.003   4.168 -0.6463  0.3655 -0.4140
 4710SOL     OW14684   2.108   3.425   5.299  0.1085 -0.0716 -0.3061
 4710SOL    HW114685   2.093   3.402   5.391  1.2669 -0.0991 -0.1038
 4710SOL    HW214686   2.188   3.478   5.301 -0.8453  1.4808 -1.0961
 4711SOL     OW14687   6.553   0.607   1.262  0.3450  0.7841 -0.4099
 4711SOL    HW114688   6.470   0.561   1.245 -1.6770  3.8735  0.2560
 4711SOL    HW214689   6.605   0.592   1.183 -1.5710  0.1230 -1.6202
 4712SOL     OW14690   0.275   3.325   1.866  0.0048 -0.2697  0.6480
 4712SOL    HW114691   0.235   3.276   1.937 -1.8377 -0.1497 -0.2439
 4712SOL    HW214692   0.329   3.391   1.909 -1.8003  0.4099  2.0016
 4713SOL     OW14693   7.368   5.915   1.359 -0.1500 -0.1702  0.3859
 4713SOL    HW114694   7.346   6.007   1.372 -0.3586  0.2443 -2.3408
 4713SOL    HW214695   7.310   5.886   1.288  2.6454 -1.1974 -1.6803
 4714SOL     OW14696   0.566   3.053   1.717  0.2686 -0.0358  0.1673
 4714SOL    HW114697   0.602   2.994   1.650 -1.9829 -1.4346  0.0836
 4714SOL    HW214698   0.544   2.996   1.790 -1.0215  0.8556  0.5012
 4715SOL     OW14699   6.603   5.368   6.617  0.0176 -1.0691  0.2487
 4715SOL    HW114700   6.515   5.391   6.647  1.2234  1.2127  2.3335
 4715SOL    HW214701   6.612   5.415   6.534 -0.3401 -0.4310  0.5654
 4716SOL     OW14702   3.209   0.595   6.519  0.3498  0.0157  0.1209
 4716SOL    HW114703   3.270   0.554   6.580  1.1957 -1.3955 -1.5650
 4716SOL    HW214704   3.243   0.572   6.432 -2.2792 -0.3965 -0.9033
 4717SOL     OW14705   2.386   5.833   0.648  0.0077  0.3985 -0.4649
 4717SOL    HW114706   2.447   5.759   0.649 -0.4052  0.0050 -2.1491
 4717SOL    HW214707   2.422   5.892   0.582  0.7726  2.1338  1.3965
 4718SOL     OW14708   6.679   5.738   0.890 -0.1236 -0.4619  0.4524
 4718SOL    HW114709   6.597   5.785   0.903 -1.0973 -2.3716  1.6802
 4718SOL    HW214710   6.653   5.651   0.861  1.3717 -1.4682  1.9162
 4719SOL     OW14711   1.519   6.316   3.613  0.0675 -0.0228 -0.3637
 4719SOL    HW114712   1.525   6.406   3.645 -0.0991 -0.2893  0.4519
 4719SOL    HW214713   1.536   6.263   3.690  0.3892 -0.6931 -0.8897
 4720SOL     OW14714   7.138   7.699   3.042 -0.2566 -0.0308  0.0688
 4720SOL    HW114715   7.200   7.637   3.079  1.8700  2.2529  0.6128
 4720SOL    HW214716   7.101   7.655   2.965 -1.2586 -3.0837  2.1433
 4721SOL     OW14717   0.606   3.660   3.455 -0.4451  0.3336  0.0240
 4721SOL    HW114718   0.545   3.622   3.392 -1.0549  0.0009  0.8073
 4721SOL    HW214719   0.562   3.739   3.487 -0.0407  0.6249 -0.1139
 4722SOL     OW14720   6.412   5.967   6.566  0.2932  0.4397 -0.3906
 4722SOL    HW114721   6.380   6.042   6.515  1.2437  1.7162  0.8235
 4722SOL    HW214722   6.494   5.942   6.522  0.3151  0.5348 -0.4046
 4723SOL     OW14723   3.162   5.732   5.898 -0.1414  0.2435  0.2232
 4723SOL    HW114724   3.183   5.817   5.858 -2.3477  0.0052 -1.6709
 4723SOL    HW214725   3.070   5.717   5.875  0.0462 -2.4476  0.9150
 4724SOL     OW14726   1.292   4.705   7.174 -0.5067  0.7093  0.2266
 4724SOL    HW114727   1.276   4.613   7.151  1.2720  0.0163  1.4483
 4724SOL    HW214728   1.244   4.755   7.109 -3.4374 -1.0446  0.8607
 4725SOL     OW14729   4.193   4.466   1.776 -0.0987 -0.0066  0.4012
 4725SOL    HW114730   4.097   4.469   1.774 -0.0646  1.6248 -0.9540
 4725SOL    HW214731   4.217   4.422   1.695  0.3102  0.5961  0.1875
 4726SOL     OW14732   5.251   3.178   3.035  0.1979 -0.6864  0.0727
 4726SOL    HW114733   5.297   3.115   2.980 -0.2550 -1.2306  0.3019
 4726SOL    HW214734   5.163   3.141   3.046 -0.2332  0.2379 -0.1971
 4727SOL     OW14735   2.339   3.561   7.544 -0.3703 -0.2349 -0.2820
 4727SOL    HW114736   2.429   3.539   7.567  0.3448  2.2006 -0.4131
 4727SOL    HW214737   2.299   3.588   7.626 -0.7772 -0.7176 -0.3245
 4728SOL     OW14738   5.863   7.250   3.501  0.3219  0.4551 -0.2299
 4728SOL    HW114739   5.892   7.330   3.545 -0.3496  0.8474 -0.4814
 4728SOL    HW214740   5.903   7.179   3.551 -1.2796  0.8320  1.7118
 4729SOL     OW14741   6.372   6.103   1.688  0.4922 -0.5806 -0.3481
 4729SOL    HW114742   6.344   6.082   1.777  0.0466  0.5799 -0.1934
 4729SOL    HW214743   6.463   6.072   1.684  0.3582 -1.0958  0.3455
 4730SOL     OW14744   4.665   3.387   7.312 -0.0345 -0.1448  0.4478
 4730SOL    HW114745   4.734   3.335   7.272 -0.1962  0.2572 -0.3761
 4730SOL    HW214746   4.675   3.474   7.274 -0.8551 -0.0269  0.4690
 4731SOL     OW14747   7.582   7.283   6.375  0.6946  0.5356 -0.0283
 4731SOL    HW114748   7.487   7.294   6.378  0.2217 -2.4762  0.0754
 4731SOL    HW214749   7.609   7.280   6.466  0.9953  1.8703 -0.0597
 4732SOL     OW14750   3.538   6.181   1.243 -0.2140  0.6422  0.6548
 4732SOL    HW114751   3.474   6.245   1.274 -1.6025 -0.3980  0.0326
 4732SOL    HW214752   3.591   6.229   1.179 -0.9354  1.2846  0.5241
 4733SOL     OW14753   0.026   0.345   6.405 -0.2542 -0.0683 -0.2126
 4733SOL    HW114754  -0.036   0.418   6.401  0.5974  0.6285 -1.3515
 4733SOL    HW214755  -0.016   0.275   6.355 -1.0741 -0.3829  0.8840
 4734SOL     OW14756   2.109   1.582   2.645  0.0538 -0.1394  0.1896
 4734SOL    HW114757   2.078   1.671   2.659 -0.0888  0.2026 -2.0303
 4734SOL    HW214758   2.198   1.582   2.678  1.2486  1.8157 -2.7122
 4735SOL     OW14759   4.076   5.604   4.906  0.3832 -0.6538  0.1241
 4735SOL    HW114760   4.106   5.572   4.821 -0.5295  0.5426 -0.6845
 4735SOL    HW214761   4.151   5.654   4.940  0.4112 -0.2916 -0.4521
 4736SOL     OW14762   2.072   1.547   0.048  0.1553 -0.2082 -0.2611
 4736SOL    HW114763   2.084   1.465   0.096 -0.3029 -0.0419  0.1488
 4736SOL    HW214764   1.977   1.560   0.046 -0.0380 -1.2638 -3.0410
 4737SOL     OW14765   4.026   3.223   4.762 -0.0420 -0.1949  0.6005
 4737SOL    HW114766   4.004   3.191   4.675 -1.6925  0.9653  0.5395
 4737SOL    HW214767   4.002   3.152   4.821 -3.7426  0.7820  0.4886
 4738SOL     OW14768   0.007   2.887   5.359  0.5480  0.0466  0.0684
 4738SOL    HW114769   0.045   2.799   5.352  2.3118  0.5818  2.0026
 4738SOL    HW214770  -0.086   2.871   5.377  0.9636 -1.4555  1.0761
 4739SOL     OW14771   4.029   6.728   5.577 -0.5107 -0.5435 -0.5791
 4739SOL    HW114772   3.962   6.682   5.628  1.3567 -0.8155  1.8119
 4739SOL    HW214773   4.101   6.665   5.570  0.6383  0.7091 -0.4522
 4740SOL     OW14774   2.493   1.602   7.248 -0.1096  0.4502  0.3651
 4740SOL    HW114775   2.422   1.657   7.283 -0.9758 -0.1269 -0.4467
 4740SOL    HW214776   2.461   1.512   7.259 -0.2808  0.2315 -1.5773
 4741SOL     OW14777   0.587   0.437   0.486  0.5493  0.4956 -0.0242
 4741SOL    HW114778   0.614   0.383   0.561  0.6091 -0.2459 -0.5658
 4741SOL    HW214779   0.508   0.481   0.515 -0.7301 -1.5273 -0.2616
 4742SOL     OW14780   2.140   3.000   1.603 -0.8671 -0.2662 -0.0884
 4742SOL    HW114781   2.129   2.918   1.554 -0.0278  0.1969 -1.0917
 4742SOL    HW214782   2.219   3.039   1.567 -1.0938  0.8519  0.5778
 4743SOL     OW14783   3.285   2.860   6.733 -0.2995  0.5087 -0.1981
 4743SOL    HW114784   3.190   2.855   6.725 -0.2494  1.0652 -1.4707
 4743SOL    HW214785   3.317   2.782   6.688 -0.1385  0.6123 -0.2629
 4744SOL     OW14786   1.433   1.993   7.402  0.7543  0.2891 -0.0959
 4744SOL    HW114787   1.443   1.898   7.407 -1.0079  0.0887  0.3129
 4744SOL    HW214788   1.469   2.026   7.484 -3.2163 -0.5477  2.2233
 4745SOL     OW14789   4.172   5.573   7.032 -0.2915  0.5094 -0.1038
 4745SOL    HW114790   4.116   5.502   7.002  0.2486 -0.2476  0.6578
 4745SOL    HW214791   4.249   5.568   6.976 -0.1350  0.3243  0.1286
 4746SOL     OW14792   5.903   0.392   2.528 -0.2425 -0.4332  0.5384
 4746SOL    HW114793   5.923   0.305   2.562 -1.6584 -1.0683 -0.1478
 4746SOL    HW214794   5.807   0.396   2.528 -0.2344  1.8006  2.1835
 4747SOL     OW14795   7.479   3.492   2.132  0.0279  0.3979 -0.3211
 4747SOL    HW114796   7.451   3.493   2.223  2.4320 -3.0155  0.6263
 4747SOL    HW214797   7.549   3.557   2.127 -0.2594  0.7485  0.1721
 4748SOL     OW14798   6.243   6.542   7.745 -0.0700 -0.1356  0.0885
 4748SOL    HW114799   6.164   6.489   7.755  0.6329 -1.8029 -2.2470
 4748SOL    HW214800   6.227   6.596   7.667  0.3115  1.0814  0.8201
 4749SOL     OW14801   7.604   5.098   0.468  0.1989  0.2075  0.0899
 4749SOL    HW114802   7.603   5.045   0.388 -0.7580  0.4610 -0.0805
 4749SOL    HW214803   7.553   5.175   0.446  0.7598  0.7489  0.6502
 4750SOL     OW14804   0.662   0.242   2.203 -0.5021 -0.4899 -0.0386
 4750SOL    HW114805   0.609   0.231   2.282  0.8398  1.6107  1.2591
 4750SOL    HW214806   0.752   0.245   2.235  0.0129  1.5354 -1.4566
 4751SOL     OW14807   1.133   2.390   6.645 -0.0043  0.1870 -0.3560
 4751SOL    HW114808   1.053   2.428   6.610 -0.1373  0.9297  0.6838
 4751SOL    HW214809   1.158   2.323   6.582 -1.1850  0.2607 -0.9262
 4752SOL     OW14810   6.377   6.052   6.838 -0.2560 -0.4050 -0.6249
 4752SOL    HW114811   6.399   6.013   6.754 -3.2013 -0.3453 -1.5038
 4752SOL    HW214812   6.363   5.978   6.896  1.1330 -0.4490 -0.2926
 4753SOL     OW14813   0.955   7.704   4.543 -0.0611  0.0152  0.0288
 4753SOL    HW114814   0.919   7.790   4.565  1.0339  0.5499 -0.1686
 4753SOL    HW214815   0.972   7.709   4.449  0.6451 -0.1533  0.1399
 4754SOL     OW14816   4.535   4.614   6.106 -0.1084  0.4855 -0.3126
 4754SOL    HW114817   4.567   4.704   6.099 -0.5773  0.6376 -0.5939
 4754SOL    HW214818   4.577   4.579   6.185 -0.6764  1.2740  0.3601
 4755SOL     OW14819   7.214   5.812   3.753 -0.3538 -0.4653 -0.0065
 4755SOL    HW114820   7.163   5.846   3.827 -0.7213 -2.6412  0.8148
 4755SOL    HW214821   7.263   5.739   3.790  1.2417 -0.1757 -1.4387
 4756SOL     OW14822   2.014   4.352   6.137  0.2769 -0.1972 -0.8855
 4756SOL    HW114823   1.944   4.297   6.101  0.5930 -0.9531 -0.3713
 4756SOL    HW214824   1.968   4.418   6.190 -0.1444  0.4535 -2.0121
 4757SOL     OW14825   7.202   4.182   5.662  0.0697 -0.0947 -0.1101
 4757SOL    HW114826   7.161   4.136   5.589 -1.1938 -0.2449  0.6738
 4757SOL    HW214827   7.129   4.213   5.715  0.9611  0.0737  1.0567
 4758SOL     OW14828   4.086   1.005   6.928  0.3280 -0.6667 -0.1264
 4758SOL    HW114829   4.025   0.959   6.986 -1.1588  1.0717 -0.2200
 4758SOL    HW214830   4.173   0.985   6.964 -0.5075  0.0579  2.5672
 4759SOL     OW14831   7.587   6.945   3.625 -0.1918  0.0880  0.2296
 4759SOL    HW114832   7.614   7.034   3.645 -0.0867  0.4307 -1.2922
 4759SOL    HW214833   7.598   6.938   3.530 -0.3705 -1.4882  0.3069
 4760SOL     OW14834   2.086   6.658   5.025  0.3081  0.1608 -0.2451
 4760SOL    HW114835   2.008   6.617   5.064  0.6258  0.8365  1.1981
 4760SOL    HW214836   2.159   6.613   5.067  0.6745  0.6000 -0.4112
 4761SOL     OW14837   1.455   5.930   5.406  0.1929 -0.8202 -0.1155
 4761SOL    HW114838   1.372   5.959   5.369  1.8394  4.4470 -0.6075
 4761SOL    HW214839   1.442   5.934   5.501 -0.0820  0.4320 -0.1886
 4762SOL     OW14840   2.027   5.197   4.620  0.1540 -0.0087  0.1759
 4762SOL    HW114841   2.100   5.136   4.627 -1.3857 -1.9682  0.1658
 4762SOL    HW214842   1.983   5.192   4.705  1.0065  2.5751  0.8666
 4763SOL     OW14843   0.263   0.905   2.498  0.6046  0.5507  0.9134
 4763SOL    HW114844   0.171   0.930   2.503  0.9278  1.8609  0.5755
 4763SOL    HW214845   0.262   0.824   2.447 -0.4598 -0.1524  1.9860
 4764SOL     OW14846   3.493   4.769   1.810  0.0731 -0.2628  0.5606
 4764SOL    HW114847   3.456   4.842   1.858  0.9077  0.3415  0.3136
 4764SOL    HW214848   3.496   4.697   1.873  0.4564  0.2995  1.1983
 4765SOL     OW14849   7.441   0.683   5.120 -0.2452 -0.2599  0.0187
 4765SOL    HW114850   7.512   0.618   5.113  1.4961  1.5851 -0.3280
 4765SOL    HW214851   7.469   0.755   5.063 -2.5681  0.4355 -0.3346
 4766SOL     OW14852   2.361   7.069   4.729 -0.1828 -0.0338  0.2108
 4766SOL    HW114853   2.378   6.988   4.778  2.2662 -0.2877 -0.8978
 4766SOL    HW214854   2.292   7.045   4.667  0.3244 -1.2175  0.0761
 4767SOL     OW14855   4.554   0.483   1.510 -0.8044 -0.2470  0.6120
 4767SOL    HW114856   4.649   0.476   1.520 -0.7858 -1.3866 -0.2252
 4767SOL    HW214857   4.529   0.555   1.569  0.3099 -1.2214  2.3443
 4768SOL     OW14858   5.246   0.067   1.599 -0.1554  0.4197  0.6415
 4768SOL    HW114859   5.330   0.026   1.620  0.5006  1.4945  0.2297
 4768SOL    HW214860   5.215   0.020   1.522  0.9642  1.1685 -0.2964
 4769SOL     OW14861   2.988   1.921   1.976 -0.1166 -0.1128 -0.4256
 4769SOL    HW114862   3.031   1.941   2.059  0.4514 -0.9835 -0.4985
 4769SOL    HW214863   3.059   1.926   1.911 -0.6923  1.3353 -1.0017
 4770SOL     OW14864   2.808   2.909   2.000 -0.0054 -0.0196  0.1701
 4770SOL    HW114865   2.755   2.829   2.003 -1.5547  0.9853  1.8082
 4770SOL    HW214866   2.893   2.881   1.968 -1.1421 -1.9463 -1.3539
 4771SOL     OW14867   3.152   6.724   0.239  0.1831 -0.0208  0.3454
 4771SOL    HW114868   3.078   6.712   0.298 -0.4732 -0.1647 -0.4892
 4771SOL    HW214869   3.228   6.694   0.289 -0.4301 -0.6216  0.9301
 4772SOL     OW14870   6.119   7.404   5.966  0.2561  0.4619 -0.1564
 4772SOL    HW114871   6.214   7.414   5.958  0.4746 -1.6794 -0.8823
 4772SOL    HW214872   6.105   7.310   5.973 -1.7335  0.8215  1.6889
 4773SOL     OW14873   4.712   2.785   3.149  0.0323 -0.1978  0.3408
 4773SOL    HW114874   4.738   2.726   3.078 -1.3430 -1.0584  0.5127
 4773SOL    HW214875   4.707   2.871   3.109 -2.2480 -0.9088 -1.0366
 4774SOL     OW14876   6.329   0.440   5.412  0.1079  0.5655  0.4484
 4774SOL    HW114877   6.298   0.362   5.365 -0.7948  1.0618  0.1993
 4774SOL    HW214878   6.424   0.439   5.400  0.2572 -1.0738  1.3420
 4775SOL     OW14879   1.564   0.609   3.495  0.3036  0.1090 -0.0797
 4775SOL    HW114880   1.499   0.680   3.494 -1.0205 -1.0511  0.9221
 4775SOL    HW214881   1.524   0.540   3.442  0.0404 -1.1622  1.7049
 4776SOL     OW14882   5.865   1.943   6.810  0.0693 -0.2911 -0.1217
 4776SOL    HW114883   5.942   1.993   6.834 -1.6080  1.3422  2.3996
 4776SOL    HW214884   5.863   1.871   6.874  0.4790 -1.4806 -1.3953
 4777SOL     OW14885   7.550   5.871   5.140  0.3201 -0.1535  0.2682
 4777SOL    HW114886   7.643   5.889   5.134  0.1367  0.4054 -1.9653
 4777SOL    HW214887   7.512   5.949   5.180  0.5786  0.6246 -0.9464
 4778SOL     OW14888   6.211   0.569   6.616 -0.2525  0.0579 -0.4745
 4778SOL    HW114889   6.216   0.664   6.603 -1.7961  0.1029 -1.0155
 4778SOL    HW214890   6.130   0.543   6.571  0.1957 -1.5380 -0.4319
 4779SOL     OW14891   2.831   1.214   1.887 -0.3567 -0.2352 -0.3254
 4779SOL    HW114892   2.861   1.174   1.806  0.4904  0.9954 -0.6513
 4779SOL    HW214893   2.747   1.255   1.865  0.4388  1.1331 -0.9368
 4780SOL     OW14894   1.925   4.670   7.751  0.6112  0.1707 -0.0518
 4780SOL    HW114895   1.904   4.585   7.713  1.5796  0.9109 -2.4311
 4780SOL    HW214896   1.961   4.650   7.837 -0.7314 -1.6753  0.1332
 4781SOL     OW14897   3.991   1.551   3.143 -0.5963 -0.9143  0.4044
 4781SOL    HW114898   3.936   1.496   3.198 -1.7656 -0.0376  0.1631
 4781SOL    HW214899   4.013   1.626   3.198  0.2862 -1.1976  0.4593
 4782SOL     OW14900   6.742   5.272   1.781 -0.6686  0.3297 -0.5828
 4782SOL    HW114901   6.827   5.261   1.823 -0.6746  0.5590 -0.5120
 4782SOL    HW214902   6.705   5.183   1.777 -2.2183  0.6269  3.1111
 4783SOL     OW14903   7.527   1.676   3.372  0.0246 -0.1298 -0.3244
 4783SOL    HW114904   7.487   1.725   3.444  3.6430  1.8753  0.5748
 4783SOL    HW214905   7.514   1.731   3.295  0.0139 -0.1063 -0.3057
 4784SOL     OW14906   2.313   6.104   0.781  0.1711  0.3202 -0.0394
 4784SOL    HW114907   2.336   6.096   0.873 -3.4020 -0.0667  0.9437
 4784SOL    HW214908   2.283   6.017   0.756 -0.5914  0.8559 -1.0565
 4785SOL     OW14909   5.039   5.288   7.582 -0.3109  0.1892 -0.3039
 4785SOL    HW114910   5.126   5.324   7.600 -0.2750 -0.3105  0.6266
 4785SOL    HW214911   4.979   5.341   7.635 -0.1881 -1.4196  1.5764
 4786SOL     OW14912   6.903   3.691   3.685 -0.3546 -0.3443 -0.4579
 4786SOL    HW114913   6.927   3.754   3.618  2.0219 -1.5721 -0.8590
 4786SOL    HW214914   6.814   3.663   3.661  0.1594 -0.2210 -2.7042
 4787SOL     OW14915   0.832   1.065   3.282 -0.4394 -0.3084  0.6627
 4787SOL    HW114916   0.813   1.150   3.243 -0.1523 -0.4077  0.3042
 4787SOL    HW214917   0.747   1.032   3.311 -0.5426  0.1371  0.8838
 4788SOL     OW14918   5.054   3.968   5.089 -0.2375  0.0746 -0.0856
 4788SOL    HW114919   4.968   3.967   5.129  0.4393 -0.8872  1.4383
 4788SOL    HW214920   5.079   4.061   5.086 -0.3633  0.1854  1.6622
 4789SOL     OW14921   4.658   0.453   5.144  0.5936  0.2993 -0.4357
 4789SOL    HW114922   4.736   0.399   5.154  0.8157  0.2410 -2.1571
 4789SOL    HW214923   4.628   0.435   5.054 -0.8465  1.0444 -0.1315
 4790SOL     OW14924   1.044   3.216   0.355 -0.9011 -0.3046 -0.2068
 4790SOL    HW114925   0.970   3.252   0.307  0.8373 -0.1526 -2.9584
 4790SOL    HW214926   1.017   3.220   0.447 -3.3550  1.8695 -0.9130
 4791SOL     OW14927   7.511   0.697   5.955  0.0915  0.0365  0.1087
 4791SOL    HW114928   7.569   0.767   5.924  1.2864 -0.4780  1.1016
 4791SOL    HW214929   7.506   0.636   5.881  0.6787  0.1849 -0.0604
 4792SOL     OW14930   4.173   3.565   7.041  0.3629 -0.1766  0.3557
 4792SOL    HW114931   4.263   3.558   7.073  0.2718  0.6787  0.8246
 4792SOL    HW214932   4.178   3.632   6.972 -0.1037  0.6568  1.1223
 4793SOL     OW14933   4.048   4.889   0.112 -0.0938 -0.1887 -0.2657
 4793SOL    HW114934   3.993   4.910   0.036  0.4040  1.5944 -0.1771
 4793SOL    HW214935   4.042   4.966   0.169 -0.7230 -1.6133  1.7029
 4794SOL     OW14936   5.061   2.307   2.196  0.0183  0.5029  0.3416
 4794SOL    HW114937   5.047   2.260   2.278  0.8063 -0.7605 -0.2241
 4794SOL    HW214938   5.106   2.244   2.139  1.4734  2.0628 -0.3101
 4795SOL     OW14939   6.033   7.426   2.626 -0.3160  0.2297 -0.1085
 4795SOL    HW114940   5.941   7.400   2.629 -0.3224  0.3400  1.1667
 4795SOL    HW214941   6.080   7.346   2.599 -0.6771 -0.1545  0.3767
 4796SOL     OW14942   1.693   0.623   1.301 -0.1688  0.0514  1.0663
 4796SOL    HW114943   1.736   0.661   1.224  1.2348 -2.1401  0.6876
 4796SOL    HW214944   1.762   0.619   1.367 -0.6954 -0.3955  1.6004
 4797SOL     OW14945   0.693   1.757   3.831 -0.3780  0.8924  0.0634
 4797SOL    HW114946   0.719   1.800   3.912  2.3640  0.3514 -0.4218
 4797SOL    HW214947   0.754   1.791   3.765  1.0518 -2.5512 -0.6211
 4798SOL     OW14948   0.025   1.052   2.354  0.1461 -0.1908 -0.2013
 4798SOL    HW114949  -0.003   0.985   2.416  1.1774 -0.3539  0.1204
 4798SOL    HW214950  -0.053   1.072   2.302 -1.0990  0.8499  1.9427
 4799SOL     OW14951   0.083   0.692   3.906 -0.2866 -0.1518  0.0576
 4799SOL    HW114952   0.015   0.718   3.969 -0.8656 -3.4700  1.0056
 4799SOL    HW214953   0.141   0.635   3.956 -0.0524 -1.9062 -2.0439
 4800SOL     OW14954   2.892   4.845   6.411 -0.2910  0.2189  0.5752
 4800SOL    HW114955   2.847   4.854   6.494  0.2895  0.6400  0.8531
 4800SOL    HW214956   2.886   4.752   6.390  2.0548 -0.4904  2.5487
 4801SOL     OW14957   4.053   6.662   2.985 -0.2851 -0.3381 -0.4628
 4801SOL    HW114958   4.101   6.710   2.917  3.4283  0.0260  2.1199
 4801SOL    HW214959   4.074   6.570   2.967 -1.0572 -0.4337 -0.9481
 4802SOL     OW14960   4.477   7.630   4.925 -0.9699 -0.1334 -0.2059
 4802SOL    HW114961   4.547   7.566   4.940 -0.8788 -0.3123 -1.3656
 4802SOL    HW214962   4.508   7.710   4.969 -0.1032 -0.2485 -0.5958
 4803SOL     OW14963   7.286   4.183   1.658 -0.0899 -0.0629  0.1028
 4803SOL    HW114964   7.210   4.189   1.715 -0.9385 -0.9595 -0.9077
 4803SOL    HW214965   7.252   4.194   1.570  0.8381 -1.1955 -0.4277
 4804SOL     OW14966   4.376   3.415   3.814  0.4276  0.2067 -0.5000
 4804SOL    HW114967   4.393   3.323   3.792 -0.7633  0.2068 -1.5451
 4804SOL    HW214968   4.292   3.413   3.859  0.5409  0.7492 -0.2673
 4805SOL     OW14969   0.801   6.556   6.153 -0.4757  0.3861  0.4021
 4805SOL    HW114970   0.732   6.520   6.208 -0.8676  1.5999  0.7309
 4805SOL    HW214971   0.764   6.636   6.116  0.0546  0.0158 -1.0256
 4806SOL     OW14972   3.000   4.351   7.603  0.4819  0.3154 -0.0919
 4806SOL    HW114973   2.916   4.337   7.648  0.9015 -0.7966  0.3778
 4806SOL    HW214974   2.992   4.439   7.564 -1.4974 -0.3651 -1.3903
 4807SOL     OW14975   2.969   6.652   6.762 -0.3286 -0.1121 -0.0377
 4807SOL    HW114976   3.050   6.687   6.800 -1.3929  1.2922  1.0388
 4807SOL    HW214977   2.967   6.686   6.673 -0.7209  1.5889  0.5900
 4808SOL     OW14978   1.752   2.456   7.577  0.3507  0.1403 -0.1242
 4808SOL    HW114979   1.840   2.417   7.582  0.8142  1.2674  1.3946
 4808SOL    HW214980   1.705   2.416   7.650 -0.1499  0.1587 -0.4347
 4809SOL     OW14981   3.348   2.544   6.126  0.1538  0.3093 -0.8026
 4809SOL    HW114982   3.408   2.603   6.079  2.0305 -0.2371  0.8099
 4809SOL    HW214983   3.386   2.457   6.115 -0.9118 -0.2017 -0.5703
 4810SOL     OW14984   1.481   2.607   7.345  0.0925  0.2860 -0.1253
 4810SOL    HW114985   1.467   2.614   7.250  0.1286 -1.7828 -0.3247
 4810SOL    HW214986   1.525   2.522   7.357  1.1939  1.0405  1.6482
 4811SOL     OW14987   5.458   0.563   7.106 -0.0881  0.2611 -0.1583
 4811SOL    HW114988   5.382   0.569   7.048  0.2609  1.7572 -0.4988
 4811SOL    HW214989   5.529   0.531   7.050 -0.2202 -0.1848 -0.0754
 4812SOL     OW14990   1.442   2.544   0.585 -0.3646 -0.3444  0.2764
 4812SOL    HW114991   1.485   2.459   0.593  2.6506  1.0210 -0.1117
 4812SOL    HW214992   1.466   2.575   0.497 -0.1304  1.5276  0.9615
 4813SOL     OW14993   3.778   4.527   7.719 -0.4879  0.4640  0.2212
 4813SOL    HW114994   3.692   4.566   7.703 -2.0131 -1.6293  2.6418
 4813SOL    HW214995   3.804   4.491   7.634 -1.8590  1.3757 -0.6260
 4814SOL     OW14996   1.795   1.768   5.459  0.0695 -0.4161 -0.1161
 4814SOL    HW114997   1.713   1.765   5.509  0.1826  1.2108  0.2290
 4814SOL    HW214998   1.775   1.721   5.377 -0.4512 -2.1402  0.9436
 4815SOL     OW14999   3.867   4.362   4.705 -0.2903  0.2742 -0.3530
 4815SOL    HW115000   3.815   4.430   4.748  1.3450  1.6669 -0.4886
 4815SOL    HW215001   3.958   4.386   4.722  0.3662 -0.9399 -1.8609
 4816SOL     OW15002   4.628   7.614   0.110  0.9624 -0.1093  0.2482
 4816SOL    HW115003   4.659   7.695   0.149 -0.1140  0.0594  0.7897
 4816SOL    HW215004   4.645   7.624   0.016  1.3750  0.4957  0.3849
 4817SOL     OW15005   7.132   7.031   1.734 -0.3279 -0.1276 -0.3634
 4817SOL    HW115006   7.089   7.081   1.804 -0.6122 -1.9649  0.8379
 4817SOL    HW215007   7.200   7.090   1.702  2.3002 -0.4048  3.9807
 4818SOL     OW15008   5.835   3.120   0.431 -0.6406  0.2014 -0.1394
 4818SOL    HW115009   5.743   3.130   0.404 -0.3546 -0.1149 -1.3227
 4818SOL    HW215010   5.882   3.106   0.349  0.5408  0.8257  0.4093
 4819SOL     OW15011   3.345   3.482   2.384 -0.0434 -0.1527 -0.0522
 4819SOL    HW115012   3.392   3.543   2.441  0.1181  1.2107 -1.5490
 4819SOL    HW215013   3.258   3.473   2.423  0.1298  0.5991  0.5169
 4820SOL     OW15014   2.738   0.346   0.956  0.5312 -0.0095  0.9468
 4820SOL    HW115015   2.726   0.275   1.020 -1.1856 -0.2762  0.3666
 4820SOL    HW215016   2.658   0.398   0.962 -0.0352 -0.4729 -1.4619
 4821SOL     OW15017   6.268   3.950   3.766 -0.6331  0.0918 -0.0593
 4821SOL    HW115018   6.203   3.917   3.703 -1.4021 -0.9045  1.2091
 4821SOL    HW215019   6.223   4.021   3.813 -0.3211  0.3276 -0.1114
 4822SOL     OW15020   4.182   3.170   2.027 -0.0706 -0.3138 -0.5194
 4822SOL    HW115021   4.261   3.118   2.043 -0.3063 -0.2359  1.0617
 4822SOL    HW215022   4.215   3.256   2.002  0.3212 -0.9408 -2.3202
 4823SOL     OW15023   0.088   5.641   4.542 -0.5260 -0.3769 -0.2153
 4823SOL    HW115024   0.120   5.551   4.532 -1.0356 -0.7284  1.0115
 4823SOL    HW215025   0.027   5.636   4.616  0.3927  1.2193  0.7126
 4824SOL     OW15026   1.574   2.044   7.649 -0.4640 -0.2487  0.1545
 4824SOL    HW115027   1.634   2.117   7.632 -0.6220 -0.2337 -0.3561
 4824SOL    HW215028   1.616   1.995   7.721 -0.2309  0.1962  0.3238
 4825SOL     OW15029   7.031   5.756   0.635  0.2441 -0.4489  0.7413
 4825SOL    HW115030   6.978   5.816   0.688  0.2853 -0.7529  1.1219
 4825SOL    HW215031   6.976   5.739   0.558  0.0157 -0.3342  0.8757
 4826SOL     OW15032   2.658   6.117   5.728  0.2437  0.3603 -0.3345
 4826SOL    HW115033   2.586   6.140   5.669  0.1117 -0.6123 -0.5715
 4826SOL    HW215034   2.710   6.054   5.679  0.9592  0.6322  0.0478
 4827SOL     OW15035   5.595   5.887   7.459  0.5947  0.3045  0.6872
 4827SOL    HW115036   5.539   5.965   7.452  1.4410  0.7622 -1.4634
 4827SOL    HW215037   5.684   5.921   7.454  0.9914 -0.7313  0.5909
 4828SOL     OW15038   0.240   1.296   3.623 -0.0542 -0.4934  0.0953
 4828SOL    HW115039   0.179   1.356   3.665 -1.3510 -0.7491 -1.3299
 4828SOL    HW215040   0.313   1.289   3.684 -0.2903  1.7933  0.7294
 4829SOL     OW15041   7.230   7.375   7.405 -0.0698  0.1977  0.0331
 4829SOL    HW115042   7.172   7.344   7.475  0.1541  1.7036  0.9391
 4829SOL    HW215043   7.177   7.438   7.357 -0.0307 -0.4089 -0.8311
 4830SOL     OW15044   1.810   5.644   3.541  0.9480  0.3787  0.5528
 4830SOL    HW115045   1.823   5.549   3.543 -0.0055  0.2430  0.9569
 4830SOL    HW215046   1.864   5.674   3.468  2.3922 -0.2785  1.3184
 4831SOL     OW15047   5.565   6.699   7.670  0.3964 -0.6334 -0.2052
 4831SOL    HW115048   5.549   6.627   7.732  0.2095 -1.0980 -0.7783
 4831SOL    HW215049   5.607   6.657   7.595 -0.3248 -0.2713 -0.8364
 4832SOL     OW15050   5.775   4.109   6.323 -0.0735  0.1851  0.1439
 4832SOL    HW115051   5.829   4.075   6.251  1.2860  1.4824  0.4994
 4832SOL    HW215052   5.696   4.056   6.321  0.6678 -0.9289 -1.2329
 4833SOL     OW15053   7.089   3.791   5.660  0.3819  0.0547 -0.9168
 4833SOL    HW115054   7.100   3.832   5.575 -1.6115  0.5758 -0.9765
 4833SOL    HW215055   7.053   3.705   5.641  0.6235 -0.1163 -0.6193
 4834SOL     OW15056   4.728   3.771   1.215  0.6004 -0.8009 -0.0223
 4834SOL    HW115057   4.720   3.855   1.170  0.3703 -1.5455 -1.4335
 4834SOL    HW215058   4.656   3.770   1.277  0.0591 -0.3300 -0.6331
 4835SOL     OW15059   7.015   6.901   7.719  0.1625 -0.4005  0.2328
 4835SOL    HW115060   7.068   6.855   7.784  1.3620  0.9271  0.2449
 4835SOL    HW215061   6.941   6.842   7.702  0.7159 -1.5194  1.5247
 4836SOL     OW15062   6.043   4.823   6.794  0.2102 -0.3611  0.0022
 4836SOL    HW115063   5.976   4.826   6.726  0.7184  0.7199 -0.4799
 4836SOL    HW215064   6.051   4.730   6.816 -2.7643 -0.4055  1.4535
 4837SOL     OW15065   1.100   6.555   7.646 -0.3107 -0.5573  0.0902
 4837SOL    HW115066   1.133   6.573   7.734 -0.1150  0.3070 -0.1518
 4837SOL    HW215067   1.069   6.464   7.650  2.2712 -1.4899  0.2591
 4838SOL     OW15068   2.452   6.198   1.816  0.5172 -0.0229 -0.6388
 4838SOL    HW115069   2.424   6.289   1.823  0.0306 -0.0599 -1.7721
 4838SOL    HW215070   2.545   6.202   1.791  0.3005  0.1937 -1.4500
 4839SOL     OW15071   5.033   6.359   0.668 -0.1242  0.8606 -0.5269
 4839SOL    HW115072   4.948   6.320   0.652 -0.1652  0.8621 -0.3251
 4839SOL    HW215073   5.032   6.381   0.762  1.3155 -2.1207  0.3124
 4840SOL     OW15074   5.858   4.668   4.955 -1.1432 -0.1179  0.2296
 4840SOL    HW115075   5.825   4.712   4.877  1.1577 -0.4295 -1.0168
 4840SOL    HW215076   5.919   4.731   4.994 -0.5325 -0.8332  0.4490
 4841SOL     OW15077   1.378   3.983   4.379 -0.4753  0.1420  0.2368
 4841SOL    HW115078   1.324   3.907   4.400 -0.5410 -0.0327 -0.5364
 4841SOL    HW215079   1.375   3.989   4.284  1.9622 -0.6923  0.0503
 4842SOL     OW15080   7.169   3.817   1.485 -0.1835  0.2377  0.4066
 4842SOL    HW115081   7.151   3.803   1.578 -2.4977  0.2482  0.0095
 4842SOL    HW215082   7.258   3.782   1.473  0.0606 -0.0247  2.5423
 4843SOL     OW15083   2.148   1.620   6.129  0.1262  0.0749 -0.5217
 4843SOL    HW115084   2.064   1.666   6.129  1.2646  2.2813  0.1317
 4843SOL    HW215085   2.159   1.591   6.039 -1.5437 -0.7268 -0.5106
 4844SOL     OW15086   2.981   3.945   6.322 -0.4058 -0.1809  0.0508
 4844SOL    HW115087   2.964   4.008   6.251  0.0046  0.2224  0.3081
 4844SOL    HW215088   3.011   3.998   6.395  0.1365 -0.6906  0.2114
 4845SOL     OW15089   5.693   6.234   3.283  0.1985  0.1970 -0.2982
 4845SOL    HW115090   5.716   6.309   3.339 -2.5121  0.2495  0.9112
 4845SOL    HW215091   5.749   6.244   3.206  2.9731  1.0280  1.6530
 4846SOL     OW15092   2.206   5.113   4.842  0.4395  0.4588 -0.3012
 4846SOL    HW115093   2.276   5.085   4.784  0.4911 -0.9528  0.3986
 4846SOL    HW215094   2.229   5.077   4.927 -0.7758  0.5502  0.0893
 4847SOL     OW15095   5.889   6.603   1.264  0.6759  0.0323 -0.1522
 4847SOL    HW115096   5.895   6.634   1.354 -0.0136 -0.5212  0.0951
 4847SOL    HW215097   5.896   6.683   1.211  1.4297  0.3192  0.3724
 4848SOL     OW15098   0.243   2.087   5.871  0.4181  0.3607  0.3260
 4848SOL    HW115099   0.209   2.037   5.798  1.0428 -0.1645  0.3851
 4848SOL    HW215100   0.336   2.097   5.852  1.4273 -2.7637  2.6522
 4849SOL     OW15101   0.690   4.414   2.654  0.0632 -0.3872  0.2497
 4849SOL    HW115102   0.646   4.431   2.738  1.1261 -0.0761  0.7658
 4849SOL    HW215103   0.776   4.456   2.664 -0.5282  1.4968 -1.7568
 4850SOL     OW15104   5.464   3.244   0.110 -0.1688  0.0437 -0.0210
 4850SOL    HW115105   5.422   3.327   0.132 -1.0387 -0.2678 -0.4498
 4850SOL    HW215106   5.456   3.237   0.015  1.2149  0.1496 -0.1613
 4851SOL     OW15107   6.588   3.454   0.313  0.1729 -0.2971 -0.5081
 4851SOL    HW115108   6.502   3.492   0.294  1.0947  0.8412 -2.8212
 4851SOL    HW215109   6.582   3.364   0.278 -0.7450 -1.0286  1.4034
 4852SOL     OW15110   4.482   5.351   4.366  0.3318  0.4188 -0.2117
 4852SOL    HW115111   4.408   5.332   4.308  0.2783 -0.3155  0.0826
 4852SOL    HW215112   4.558   5.354   4.307  0.0120  1.8073 -0.6088
 4853SOL     OW15113   5.381   2.219   1.832  0.0759  0.2299 -0.1049
 4853SOL    HW115114   5.335   2.200   1.751 -0.3049 -2.0432  0.5766
 4853SOL    HW215115   5.467   2.178   1.822  0.8938  1.8855 -0.1980
 4854SOL     OW15116   4.977   5.028   1.317  0.4603  0.0395  0.0871
 4854SOL    HW115117   5.035   5.105   1.313  1.5027 -0.7797 -2.1319
 4854SOL    HW215118   4.941   5.021   1.229  0.2527 -1.9094  0.2942
 4855SOL     OW15119   3.320   7.392   2.101  0.1495 -0.0018 -0.2251
 4855SOL    HW115120   3.253   7.432   2.156  1.9190  1.9288  0.6452
 4855SOL    HW215121   3.326   7.449   2.025  0.6549 -0.2916 -0.4046
 4856SOL     OW15122   4.257   0.008   0.909 -0.2108 -0.0116  0.0655
 4856SOL    HW115123   4.348   0.000   0.936 -0.5397 -1.6804  0.8224
 4856SOL    HW215124   4.247  -0.056   0.838 -0.4979  1.0856 -0.9304
 4857SOL     OW15125   3.331   7.718   1.582  0.1582  0.0849  0.0915
 4857SOL    HW115126   3.271   7.662   1.632  0.6507 -0.7123 -0.1969
 4857SOL    HW215127   3.382   7.657   1.529  0.9968  0.7768  0.0856
 4858SOL     OW15128   3.628   1.057   2.664 -0.2858  0.1993 -0.0544
 4858SOL    HW115129   3.568   0.983   2.679  0.8836 -0.9098 -0.6833
 4858SOL    HW215130   3.572   1.134   2.672 -1.8405 -0.7946 -0.7862
 4859SOL     OW15131   5.243   5.637   3.868 -0.2773 -0.4619  0.1987
 4859SOL    HW115132   5.212   5.709   3.813  1.5490  0.2582  0.0473
 4859SOL    HW215133   5.191   5.561   3.841 -0.2649  0.1541 -1.6703
 4860SOL     OW15134   1.075   3.409   3.880 -0.4818  0.0247 -0.4396
 4860SOL    HW115135   1.006   3.404   3.946  0.3457  0.3284  0.4701
 4860SOL    HW215136   1.042   3.471   3.815 -0.8964  0.4675  0.1863
 4861SOL     OW15137   0.695   2.547   7.520 -0.3488  0.7446  0.4860
 4861SOL    HW115138   0.768   2.486   7.520 -0.0236  1.1269  0.9270
 4861SOL    HW215139   0.621   2.496   7.555 -0.1797  0.4886  0.4686
 4862SOL     OW15140   2.356   3.017   2.134 -0.3602  0.1293 -0.8869
 4862SOL    HW115141   2.444   3.052   2.117 -0.3803  1.0942  0.7247
 4862SOL    HW215142   2.370   2.923   2.143  0.6435  0.3280 -0.0914
 4863SOL     OW15143   4.876   0.155   7.435 -0.6592  0.0546 -0.0375
 4863SOL    HW115144   4.870   0.196   7.349 -0.4709 -1.6914 -0.9225
 4863SOL    HW215145   4.954   0.196   7.475  0.7075 -0.8086 -1.6837
 4864SOL     OW15146   4.536   3.329   6.424  0.0320 -0.4386  0.0106
 4864SOL    HW115147   4.588   3.250   6.408  1.4814  0.4438  0.1324
 4864SOL    HW215148   4.601   3.396   6.443 -1.1169  0.9725 -0.8534
 4865SOL     OW15149   1.748   1.547   1.695  0.0095  0.3167 -0.0916
 4865SOL    HW115150   1.744   1.560   1.790  2.0572 -0.5162  0.1596
 4865SOL    HW215151   1.807   1.473   1.683 -0.5408  0.1237 -2.0262
 4866SOL     OW15152   0.961   2.463   7.593 -0.3008 -0.0012  0.0156
 4866SOL    HW115153   1.045   2.489   7.554 -0.1455 -1.7442 -0.9162
 4866SOL    HW215154   0.964   2.499   7.682  0.6245  1.5409 -0.5976
 4867SOL     OW15155   4.476   5.815   4.345 -0.4054  0.2833  0.0602
 4867SOL    HW115156   4.404   5.753   4.333  0.0456 -0.9328  2.7569
 4867SOL    HW215157   4.435   5.892   4.385 -0.2422 -0.5499  1.9357
 4868SOL     OW15158   7.303   6.369   4.462 -0.3988  0.0215 -0.0442
 4868SOL    HW115159   7.388   6.348   4.424 -0.0126  0.7863  0.3793
 4868SOL    HW215160   7.320   6.443   4.519 -1.3878  0.2951 -0.0899
 4869SOL     OW15161   5.436   4.958   2.828  0.1013  0.5578  0.8378
 4869SOL    HW115162   5.346   4.958   2.796 -0.3327 -1.6476  1.9301
 4869SOL    HW215163   5.446   5.045   2.868 -2.1749  0.2072  2.3516
 4870SOL     OW15164   3.209   6.737   4.045  0.2091 -0.5042 -0.0739
 4870SOL    HW115165   3.261   6.803   3.999 -0.8387  0.6074  0.3049
 4870SOL    HW215166   3.235   6.746   4.137 -1.3110  0.7348  0.2717
 4871SOL     OW15167   4.340   7.210   5.109 -0.4407 -0.1639 -0.1068
 4871SOL    HW115168   4.305   7.298   5.119 -0.4860 -0.4085  2.4976
 4871SOL    HW215169   4.399   7.216   5.033 -1.4909  1.7193 -0.8316
 4872SOL     OW15170   0.997   6.292   1.470  0.1646  0.4132  0.2149
 4872SOL    HW115171   0.946   6.264   1.394 -0.5148 -0.0030  0.8069
 4872SOL    HW215172   0.992   6.388   1.467  0.1400  0.4022 -0.2596
 4873SOL     OW15173   4.821   7.108   4.023 -0.8378 -0.2568  0.0158
 4873SOL    HW115174   4.800   7.081   4.112  1.2135  0.1096  0.6644
 4873SOL    HW215175   4.792   7.199   4.018 -2.2932 -0.7059 -0.2086
 4874SOL     OW15176   7.182   0.355   0.155 -0.2033  0.5567  0.1606
 4874SOL    HW115177   7.274   0.329   0.148 -0.4630 -0.9340  1.6436
 4874SOL    HW215178   7.138   0.310   0.082  0.1400  0.8351 -0.2233
 4875SOL     OW15179   5.229   3.419   3.370  0.0311 -0.0062 -0.4931
 4875SOL    HW115180   5.156   3.480   3.356 -1.3136 -1.7185 -1.3283
 4875SOL    HW215181   5.282   3.428   3.291  0.1126  0.4107 -0.3974
 4876SOL     OW15182   4.931   3.485   1.117  0.6532  0.2411  0.4416
 4876SOL    HW115183   4.906   3.413   1.174 -0.7218  1.3850  1.3670
 4876SOL    HW215184   4.859   3.493   1.055  1.9717 -0.7612 -1.3169
 4877SOL     OW15185   5.940   0.545   6.450  0.7024  0.2012  0.0778
 4877SOL    HW115186   5.980   0.595   6.378 -0.2571  1.3229  0.3005
 4877SOL    HW215187   5.963   0.454   6.431  0.9241  0.5310 -1.3628
 4878SOL     OW15188   3.192   3.195   2.262 -0.9512 -0.2378  0.3770
 4878SOL    HW115189   3.184   3.209   2.356 -0.6661 -0.0903  0.3795
 4878SOL    HW215190   3.102   3.200   2.229 -1.4566 -3.1087  1.0211
 4879SOL     OW15191   5.621   4.088   6.681  0.4293 -0.4684 -0.0870
 4879SOL    HW115192   5.587   4.041   6.604 -2.5961 -0.2551  0.9620
 4879SOL    HW215193   5.561   4.162   6.692  1.8699  0.5371  1.4485
 4880SOL     OW15194   6.512   7.406   0.227  0.4913 -0.7099 -0.1953
 4880SOL    HW115195   6.485   7.486   0.181  1.5778  0.1073  0.5394
 4880SOL    HW215196   6.432   7.373   0.267 -0.6346 -1.7803 -3.0849
 4881SOL     OW15197   3.556   2.875   2.961  0.3640  0.2314  0.1735
 4881SOL    HW115198   3.489   2.870   3.029 -0.3221 -1.6180 -0.5754
 4881SOL    HW215199   3.547   2.962   2.924 -0.5629  0.5590  1.1381
 4882SOL     OW15200   5.654   0.397   3.784 -0.2042 -0.1909  0.4062
 4882SOL    HW115201   5.706   0.412   3.705 -1.0539 -3.9462 -1.0718
 4882SOL    HW215202   5.569   0.437   3.765 -0.8943 -2.2915 -1.3572
 4883SOL     OW15203   3.251   6.262   0.367  0.3507 -0.1698  0.3748
 4883SOL    HW115204   3.212   6.250   0.454  0.4761 -1.4649  0.2801
 4883SOL    HW215205   3.178   6.256   0.306  0.2923  0.5103  0.3797
 4884SOL     OW15206   6.822   1.773   6.486  0.1260 -0.1110  0.3807
 4884SOL    HW115207   6.865   1.858   6.495  0.2364 -0.0965 -0.2972
 4884SOL    HW215208   6.891   1.709   6.502 -0.3691 -0.1268  3.1225
 4885SOL     OW15209   1.148   7.516   1.066 -0.3561  0.0252  0.3702
 4885SOL    HW115210   1.084   7.575   1.029  0.2810 -0.5823 -1.8430
 4885SOL    HW215211   1.183   7.468   0.991  2.4847  0.1416  1.4889
 4886SOL     OW15212   0.339   5.867   2.658 -0.0932 -0.5202 -0.2931
 4886SOL    HW115213   0.303   5.780   2.641  0.5299 -0.6716 -0.9171
 4886SOL    HW215214   0.379   5.893   2.575 -2.2971  1.3819 -0.8483
 4887SOL     OW15215   0.172   7.111   2.358 -0.1731  0.3422 -0.5246
 4887SOL    HW115216   0.187   7.205   2.368  1.2360  0.1922 -0.9881
 4887SOL    HW215217   0.152   7.100   2.265  1.9308 -0.0537 -0.9745
 4888SOL     OW15218   6.661   4.354   1.495 -0.0873  0.0479  0.1664
 4888SOL    HW115219   6.659   4.372   1.401 -0.5652 -1.8484 -0.2287
 4888SOL    HW215220   6.588   4.405   1.531 -1.7368 -1.4021 -0.9738
 4889SOL     OW15221   1.763   1.041   6.388  0.5260 -0.0284  0.4217
 4889SOL    HW115222   1.857   1.044   6.407  0.5795  1.0107  0.0586
 4889SOL    HW215223   1.757   0.994   6.305  0.9867  2.0658 -0.8797
 4890SOL     OW15224   6.837   7.745   4.587  0.0869 -0.4578 -0.2954
 4890SOL    HW115225   6.821   7.655   4.560  1.1086 -0.8934  0.4812
 4890SOL    HW215226   6.926   7.764   4.556 -0.0672  0.2423 -0.3366
 4891SOL     OW15227   0.288   4.245   1.430 -0.0272  0.6504  0.5017
 4891SOL    HW115228   0.278   4.329   1.385 -0.2391  0.0736 -0.5876
 4891SOL    HW215229   0.336   4.191   1.368 -0.5641 -0.2632  0.8598
 4892SOL     OW15230   7.683   4.802   6.235 -0.2806  1.2288  0.5118
 4892SOL    HW115231   7.652   4.720   6.196 -0.8156  1.7367 -0.1539
 4892SOL    HW215232   7.774   4.783   6.260  0.2966  1.0265 -1.4988
 4893SOL     OW15233   4.495   0.481   1.892  0.1774  0.3034  0.2958
 4893SOL    HW115234   4.588   0.504   1.889  0.2348  0.0540  0.0875
 4893SOL    HW215235   4.457   0.530   1.819  0.4327 -0.8162 -0.6203
 4894SOL     OW15236   1.592   6.983   4.206  0.2355  0.1045  0.2901
 4894SOL    HW115237   1.535   6.920   4.160  0.8248  0.5331 -1.0900
 4894SOL    HW215238   1.536   7.060   4.219  0.5050  0.6014 -1.2424
 4895SOL     OW15239   7.057   6.997   4.803 -0.0572 -0.3350 -0.9170
 4895SOL    HW115240   7.071   7.059   4.875 -0.1537 -1.2405 -0.1108
 4895SOL    HW215241   7.125   6.930   4.815  0.2500 -0.2420 -1.9699
 4896SOL     OW15242   5.035   1.871   2.807 -0.1308  0.9181  0.3949
 4896SOL    HW115243   5.125   1.877   2.838 -0.2316 -0.3173  1.0134
 4896SOL    HW215244   4.992   1.813   2.870  0.0093 -2.9946 -2.7134
 4897SOL     OW15245   6.806   6.520   1.574 -0.2368 -0.0159 -0.0170
 4897SOL    HW115246   6.794   6.453   1.506 -2.3776  1.7628 -1.5288
 4897SOL    HW215247   6.882   6.570   1.544 -0.7128  0.2926 -0.7477
 4898SOL     OW15248   3.236   0.139   0.061 -0.1703  0.2507  0.6219
 4898SOL    HW115249   3.224   0.146   0.155  0.9400  0.9268  0.7360
 4898SOL    HW215250   3.275   0.222   0.035  0.6057 -0.3522 -0.2432
 4899SOL     OW15251   3.284   1.397   7.432 -0.4917  0.3874  0.4144
 4899SOL    HW115252   3.193   1.381   7.405 -0.8352 -1.5663  2.4777
 4899SOL    HW215253   3.276   1.456   7.507  0.0845  1.3385 -0.2481
 4900SOL     OW15254   1.956   7.039   6.792  0.1211  0.9876 -0.0144
 4900SOL    HW115255   1.912   7.062   6.874  0.9540  0.3150  0.6377
 4900SOL    HW215256   1.907   7.086   6.725 -2.1652 -0.3922  0.5714
 4901SOL     OW15257   6.196   2.797   1.923  0.2794  0.5858 -0.3561
 4901SOL    HW115258   6.114   2.842   1.943 -1.2456 -1.7744 -0.8597
 4901SOL    HW215259   6.240   2.854   1.859 -1.3036  1.5671 -0.6347
 4902SOL     OW15260   2.855   6.081   4.629 -0.3283  0.2277  0.2235
 4902SOL    HW115261   2.909   6.133   4.689 -1.3184 -0.4231  1.7481
 4902SOL    HW215262   2.821   6.145   4.566 -0.8779  1.3199  1.5707
 4903SOL     OW15263   1.789   7.350   3.623  0.1076 -0.3218  0.0385
 4903SOL    HW115264   1.845   7.383   3.693 -0.3829 -0.1564  0.3584
 4903SOL    HW215265   1.706   7.398   3.633 -0.2109 -0.8084 -0.2111
 4904SOL     OW15266   2.725   1.491   2.632 -0.1262  0.3005 -0.2312
 4904SOL    HW115267   2.767   1.465   2.550  0.0085  0.3455 -0.1772
 4904SOL    HW215268   2.795   1.482   2.698 -0.5892 -1.1135  0.1189
 4905SOL     OW15269   1.250   3.076   6.302  1.5283  0.4123 -0.3421
 4905SOL    HW115270   1.225   3.071   6.395  1.1937 -0.8885 -0.4928
 4905SOL    HW215271   1.166   3.086   6.256  1.5815 -0.2437 -0.5876
 4906SOL     OW15272   5.776   3.474   1.957  0.1321  0.1542  0.5885
 4906SOL    HW115273   5.757   3.390   1.999  0.8701 -0.2989  0.0473
 4906SOL    HW215274   5.807   3.451   1.869 -0.4054  1.0325  0.1500
 4907SOL     OW15275   5.184   4.443   7.402  0.4308  0.4163 -0.5860
 4907SOL    HW115276   5.111   4.496   7.369 -0.9813 -1.2573 -0.3014
 4907SOL    HW215277   5.195   4.471   7.493  1.0490  1.5830 -0.9963
 4908SOL     OW15278   2.304   0.141   0.605 -0.3949 -0.1366  0.1289
 4908SOL    HW115279   2.362   0.069   0.626 -0.6399 -0.6726 -0.9764
 4908SOL    HW215280   2.362   0.212   0.579 -0.1088  0.3759  1.9782
 4909SOL     OW15281   3.591   1.414   5.094  0.3576 -0.4692 -0.0478
 4909SOL    HW115282   3.528   1.462   5.147  2.4519  0.5496  1.6582
 4909SOL    HW215283   3.583   1.323   5.123 -0.2046 -0.3419  0.2146
 4910SOL     OW15284   1.189   2.234   6.430  0.6468 -0.6925 -0.0644
 4910SOL    HW115285   1.267   2.184   6.408 -1.2696 -3.2503 -1.5703
 4910SOL    HW215286   1.166   2.279   6.349 -1.0942 -2.4817 -0.6416
 4911SOL     OW15287   3.328   3.294   7.465  0.3483  0.5248  0.2179
 4911SOL    HW115288   3.356   3.301   7.374  0.4762  1.1240  0.3002
 4911SOL    HW215289   3.350   3.205   7.490  1.0283  0.5950 -0.1006
 4912SOL     OW15290   2.284   5.096   4.459 -0.2735 -0.0173 -0.4076
 4912SOL    HW115291   2.229   5.026   4.425 -0.3980  0.9588 -2.3775
 4912SOL    HW215292   2.334   5.126   4.383  1.9653  0.0756  1.0138
 4913SOL     OW15293   3.879   6.410   1.944 -0.2846 -0.4987 -0.8022
 4913SOL    HW115294   3.917   6.442   2.026 -0.9298 -1.3166 -0.1556
 4913SOL    HW215295   3.825   6.482   1.913  3.0262  1.4112 -2.6860
 4914SOL     OW15296   0.807   6.798   4.789  0.1980  0.3827 -0.1110
 4914SOL    HW115297   0.771   6.711   4.806  1.8226 -0.3088 -0.0599
 4914SOL    HW215298   0.734   6.858   4.806 -1.3123 -1.0264 -1.3035
 4915SOL     OW15299   0.068   6.706   1.252 -0.0526 -0.1212 -0.2208
 4915SOL    HW115300  -0.007   6.693   1.195 -0.5432 -1.0351  0.6021
 4915SOL    HW215301   0.102   6.792   1.228 -1.0215  0.0603 -0.9897
 4916SOL     OW15302   6.301   1.417   5.163  0.5161 -0.3121  0.4098
 4916SOL    HW115303   6.348   1.493   5.197  0.3198 -0.0520  0.1041
 4916SOL    HW215304   6.327   1.345   5.220 -0.8191  0.3640  1.9678
 4917SOL     OW15305   0.243   5.753   6.039 -0.1488  0.0785  0.7718
 4917SOL    HW115306   0.170   5.718   6.090  0.2443 -1.4568  0.3529
 4917SOL    HW215307   0.211   5.752   5.948  0.2362 -0.1915  0.6366
 4918SOL     OW15308   6.384   6.116   7.195 -0.1741 -0.4192 -0.1474
 4918SOL    HW115309   6.411   6.024   7.202  0.3270 -0.2316  0.4752
 4918SOL    HW215310   6.423   6.158   7.272 -0.0934  0.3913 -0.6232
 4919SOL     OW15311   7.555   2.915   6.945  0.0881 -0.0779 -0.1136
 4919SOL    HW115312   7.606   2.853   6.893  0.4197  0.2231 -0.1437
 4919SOL    HW215313   7.464   2.893   6.924  0.1567 -1.3502  0.7804
 4920SOL     OW15314   6.501   0.006   2.007  0.3985  0.1025  0.2021
 4920SOL    HW115315   6.558   0.076   2.040  0.6211 -0.1604  0.3787
 4920SOL    HW215316   6.475   0.036   1.920  0.2782  0.5281  0.3849
 4921SOL     OW15317   7.699   2.992   4.182  0.2826 -0.1019 -0.9566
 4921SOL    HW115318   7.780   2.999   4.234 -0.4172 -0.4297  0.2187
 4921SOL    HW215319   7.667   3.082   4.176  0.6787  0.0155 -1.3346
 4922SOL     OW15320   2.808   5.220   1.711 -0.4118 -0.7115  0.6427
 4922SOL    HW115321   2.722   5.259   1.694  0.1228 -0.4763 -1.8448
 4922SOL    HW215322   2.838   5.188   1.626  2.4056  0.1142  1.1978
 4923SOL     OW15323   6.179   1.059   7.282  0.4226 -0.0466  0.0491
 4923SOL    HW115324   6.199   0.978   7.329 -0.0294 -0.4708 -0.4737
 4923SOL    HW215325   6.099   1.039   7.233 -0.1089  0.9484  0.4863
 4924SOL     OW15326   1.798   4.165   1.217 -0.3674 -0.0771 -0.0701
 4924SOL    HW115327   1.754   4.249   1.227 -0.5798 -0.3007  1.1139
 4924SOL    HW215328   1.865   4.165   1.286 -0.1533 -0.7456 -0.2700
 4925SOL     OW15329   0.557   3.520   7.347  0.2110  0.3527 -0.2484
 4925SOL    HW115330   0.528   3.553   7.432  0.8313 -0.7766  0.4144
 4925SOL    HW215331   0.491   3.552   7.285 -1.4337 -0.6216  0.9483
 4926SOL     OW15332   4.391   6.381   5.767 -0.4694 -0.2048  0.2076
 4926SOL    HW115333   4.301   6.364   5.794 -0.0548 -1.0748  1.0715
 4926SOL    HW215334   4.390   6.473   5.738 -1.7753 -0.4089 -0.4522
 4927SOL     OW15335   3.436   0.420   3.826 -0.5331 -0.2555 -0.2263
 4927SOL    HW115336   3.473   0.431   3.738 -0.5249  0.4384 -0.1366
 4927SOL    HW215337   3.502   0.369   3.873  0.5643  1.3874  0.0844
 4928SOL     OW15338   2.880   1.967   7.214 -0.1111  0.4836  0.9700
 4928SOL    HW115339   2.873   1.914   7.294  0.7415 -0.9694  0.1202
 4928SOL    HW215340   2.840   2.051   7.238 -1.0467 -0.3491  2.5212
 4929SOL     OW15341   1.001   2.411   3.486  0.1556 -0.2111  0.6839
 4929SOL    HW115342   1.095   2.413   3.501  0.2934 -1.2252  0.0791
 4929SOL    HW215343   0.990   2.349   3.413 -0.8291  1.2142 -0.4317
 4930SOL     OW15344   2.996   5.670   1.644  0.2899  0.1813  0.2990
 4930SOL    HW115345   3.072   5.727   1.635  0.1022  1.2931  4.0712
 4930SOL    HW215346   3.032   5.581   1.644  1.5542  0.6687  1.3969
 4931SOL     OW15347   0.349   2.289   0.028  0.6501  0.3551 -0.1343
 4931SOL    HW115348   0.295   2.259   0.101  1.7822 -0.7413  0.2920
 4931SOL    HW215349   0.401   2.361   0.064 -0.6638  1.6122 -0.6245
 4932SOL     OW15350   7.615   7.075   3.342  0.3071  0.5557  0.1237
 4932SOL    HW115351   7.703   7.111   3.338  1.1653 -1.2469  1.4808
 4932SOL    HW215352   7.612   7.012   3.270  0.3167  0.2358  0.4012
 4933SOL     OW15353   5.405   4.493   3.271 -0.1873 -0.1636 -0.0538
 4933SOL    HW115354   5.357   4.479   3.353 -0.1143 -2.0989 -0.2997
 4933SOL    HW215355   5.386   4.584   3.248 -2.4965 -0.3948  0.6541
 4934SOL     OW15356   2.715   5.705   3.967  0.1871 -0.4119 -0.5893
 4934SOL    HW115357   2.690   5.620   4.003 -0.3927 -0.6624 -1.5526
 4934SOL    HW215358   2.730   5.689   3.874  0.1412  0.5232 -0.7706
 4935SOL     OW15359   0.153   3.367   6.564  0.2368  0.2507 -0.1003
 4935SOL    HW115360   0.225   3.320   6.606  0.0195 -1.0318 -1.0764
 4935SOL    HW215361   0.122   3.306   6.496 -2.1339  0.5033  0.6658
 4936SOL     OW15362   0.723   5.750   3.000  0.2225  0.0599  0.1224
 4936SOL    HW115363   0.746   5.710   2.916 -0.0716 -1.6256  0.8086
 4936SOL    HW215364   0.628   5.737   3.007  0.3605 -0.5759  1.0619
 4937SOL     OW15365   1.847   0.012   0.586 -0.0483 -0.4599 -0.1896
 4937SOL    HW115366   1.835   0.043   0.496  0.6116 -1.9464 -0.8314
 4937SOL    HW215367   1.924   0.058   0.618  0.1014 -0.3994 -0.6305
 4938SOL     OW15368   6.706   5.779   5.652  0.4170  0.6247 -0.3381
 4938SOL    HW115369   6.799   5.778   5.629  0.4282  1.1859 -0.3310
 4938SOL    HW215370   6.698   5.714   5.722  0.4080 -0.9732 -1.7548
 4939SOL     OW15371   4.783   3.370   3.234  0.0108 -0.6167  0.2447
 4939SOL    HW115372   4.696   3.404   3.254  0.1779 -0.3191  0.4860
 4939SOL    HW215373   4.788   3.371   3.139 -0.4865 -1.2485  0.2062
 4940SOL     OW15374   7.619   1.556   4.944 -0.0644 -0.0358  0.1753
 4940SOL    HW115375   7.578   1.640   4.964 -0.0534  0.3124 -1.1788
 4940SOL    HW215376   7.578   1.528   4.862 -0.1171 -1.3974  0.6329
 4941SOL     OW15377   1.036   4.950   2.605  0.1688 -0.4144 -0.2073
 4941SOL    HW115378   1.014   4.909   2.689 -0.0581 -1.4170 -0.7454
 4941SOL    HW215379   0.952   4.983   2.572  0.4444  1.1618  0.5415
 4942SOL     OW15380   0.864   0.457   7.441  0.0852  0.1766  0.4095
 4942SOL    HW115381   0.910   0.541   7.450 -0.1064  0.2127  1.1350
 4942SOL    HW215382   0.780   0.480   7.403 -0.2431  0.4117  1.2579
 4943SOL     OW15383   7.740   7.310   3.914 -0.0775  0.2703 -0.5026
 4943SOL    HW115384   7.660   7.347   3.949  0.3554 -0.2874  1.1578
 4943SOL    HW215385   7.718   7.286   3.824 -1.2231  1.7453 -0.6497
 4944SOL     OW15386   3.801   0.072   7.426 -0.0550  0.0117  0.1299
 4944SOL    HW115387   3.785   0.114   7.341  2.4690 -0.1987 -0.5419
 4944SOL    HW215388   3.852  -0.006   7.404  0.6413 -0.0505  1.8301
 4945SOL     OW15389   3.361   5.217   3.044 -0.2926  0.0891 -0.6661
 4945SOL    HW115390   3.401   5.297   3.079 -0.8828  0.1705 -0.1551
 4945SOL    HW215391   3.423   5.185   2.979 -0.8448  1.9620 -2.2294
 4946SOL     OW15392   5.330   7.191   5.594  0.0203  0.2469 -0.3129
 4946SOL    HW115393   5.246   7.181   5.639  1.5794 -1.0544  2.5405
 4946SOL    HW215394   5.377   7.257   5.644  1.0618  0.3202 -1.3349
 4947SOL     OW15395   2.481   1.493   4.936  0.3638  0.2217  0.5402
 4947SOL    HW115396   2.502   1.413   4.887 -2.0026 -0.2460  0.1853
 4947SOL    HW215397   2.426   1.544   4.876  0.9764  1.6608  1.1524
 4948SOL     OW15398   6.359   4.708   6.870  0.3118 -0.0180  0.9507
 4948SOL    HW115399   6.350   4.760   6.790  1.2825  0.8027  1.3610
 4948SOL    HW215400   6.300   4.634   6.857  0.8240 -0.1648 -0.7325
 4949SOL     OW15401   3.719   3.892   6.741  0.1404 -0.4192  0.2365
 4949SOL    HW115402   3.640   3.860   6.784  0.1148  0.2644  0.7199
 4949SOL    HW215403   3.790   3.841   6.781 -0.1037 -1.5415 -0.7098
 4950SOL     OW15404   1.331   6.009   2.740  0.3255 -0.5436 -0.2416
 4950SOL    HW115405   1.354   5.932   2.686  0.5807  0.6127 -1.8577
 4950SOL    HW215406   1.284   6.067   2.679  1.7820  1.4151  0.4169
 4951SOL     OW15407   7.620   1.129   1.473 -0.3103  0.3676 -0.0851
 4951SOL    HW115408   7.691   1.064   1.479 -0.5866 -0.0217 -0.8857
 4951SOL    HW215409   7.620   1.172   1.558 -2.1753 -2.8361  1.7412
 4952SOL     OW15410   3.996   0.860   0.770 -0.0525  0.2020  0.2222
 4952SOL    HW115411   4.080   0.868   0.726 -0.2455 -0.5733 -0.3072
 4952SOL    HW215412   3.938   0.921   0.725  0.2571  0.8517  0.6888
 4953SOL     OW15413   6.458   1.643   5.296 -0.3598 -0.2888  0.3864
 4953SOL    HW115414   6.481   1.735   5.307  0.8312 -0.6122  0.7364
 4953SOL    HW215415   6.406   1.622   5.373 -2.3371  0.5831 -0.6503
 4954SOL     OW15416   3.223   0.271   7.163 -0.2291  0.6641  0.2541
 4954SOL    HW115417   3.298   0.213   7.176 -0.1693  1.0541  1.9361
 4954SOL    HW215418   3.247   0.324   7.087 -0.0055 -1.0328 -0.9137
 4955SOL     OW15419   6.949   5.561   3.101 -0.1861  0.0045  0.3049
 4955SOL    HW115420   6.901   5.525   3.176  0.0404  1.6043  1.2773
 4955SOL    HW215421   6.886   5.560   3.029 -0.5579 -1.1249  0.6257
 4956SOL     OW15422   1.130   2.690   3.812  0.0930  0.0209 -0.3024
 4956SOL    HW115423   1.066   2.621   3.798 -1.4469  1.6077 -1.5586
 4956SOL    HW215424   1.215   2.646   3.805 -0.7987 -2.0752  1.0748
 4957SOL     OW15425   2.874   2.427   0.988  0.1765  0.2498  0.5453
 4957SOL    HW115426   2.910   2.341   0.967 -0.1394 -0.1435  1.5809
 4957SOL    HW215427   2.840   2.460   0.905 -0.1692 -0.8431  0.2461
 4958SOL     OW15428   4.029   0.104   5.377  0.0544  0.3595  0.4854
 4958SOL    HW115429   4.105   0.050   5.398  1.2575  1.4229 -0.9003
 4958SOL    HW215430   4.052   0.146   5.294 -1.6940  1.3886  0.4794
 4959SOL     OW15431   1.037   0.908   5.269  0.1992 -0.1264 -0.0973
 4959SOL    HW115432   1.116   0.861   5.243 -0.1474 -1.0790  0.5138
 4959SOL    HW215433   1.045   0.994   5.226  1.9633  0.1149  0.6166
 4960SOL     OW15434   4.183   3.245   7.360 -0.2816  0.3088  0.7341
 4960SOL    HW115435   4.239   3.273   7.288  0.1496  1.2478  1.4235
 4960SOL    HW215436   4.233   3.176   7.405 -0.6532 -0.4509  0.0149
 4961SOL     OW15437   3.742   1.883   4.378  1.0798 -0.2455 -0.0881
 4961SOL    HW115438   3.656   1.844   4.366  2.6384 -3.4877 -2.2621
 4961SOL    HW215439   3.779   1.838   4.454  1.6236 -0.4625 -0.4719
 4962SOL     OW15440   4.154   1.416   2.341 -0.6544  0.1305  0.5599
 4962SOL    HW115441   4.186   1.481   2.403 -0.5949  0.1705  0.4880
 4962SOL    HW215442   4.094   1.465   2.284 -2.4571 -0.3646  1.9479
 4963SOL     OW15443   3.917   7.375   1.289  0.5287 -0.0892  0.3268
 4963SOL    HW115444   3.955   7.287   1.284 -0.1384 -0.3877  0.4148
 4963SOL    HW215445   3.827   7.361   1.318 -0.2761  0.4441 -1.7193
 4964SOL     OW15446   0.967   5.892   2.360 -0.6178  0.7180 -0.2376
 4964SOL    HW115447   1.029   5.819   2.355 -0.6786  0.7431 -2.2883
 4964SOL    HW215448   0.881   5.852   2.343 -0.8673  1.0258  0.2760
 4965SOL     OW15449   0.636   7.312   0.146  0.5388  0.3918  0.0401
 4965SOL    HW115450   0.682   7.383   0.101  1.2440  1.1999  1.9329
 4965SOL    HW215451   0.578   7.356   0.208 -0.3913 -0.6809 -0.0389
 4966SOL     OW15452   2.064   4.275   5.497 -0.1894 -0.1405 -0.2301
 4966SOL    HW115453   2.113   4.220   5.435  0.0355  0.1707 -0.3307
 4966SOL    HW215454   2.115   4.271   5.578 -0.1302 -0.0189 -0.2610
 4967SOL     OW15455   3.458   1.864   2.558  0.0853  0.0031 -0.0552
 4967SOL    HW115456   3.467   1.945   2.609 -0.6739 -0.2854  0.5637
 4967SOL    HW215457   3.534   1.812   2.582  0.3130  0.3227 -0.0715
 4968SOL     OW15458   0.709   7.560   4.334 -0.0124 -0.1517 -0.7280
 4968SOL    HW115459   0.670   7.582   4.419  1.1271 -0.3292 -0.1296
 4968SOL    HW215460   0.793   7.519   4.357 -0.0590 -0.9562 -1.9301
 4969SOL     OW15461   0.580   2.788   0.081  0.2955  0.2150 -0.2375
 4969SOL    HW115462   0.576   2.802   0.175  1.2426  1.1288 -0.3032
 4969SOL    HW215463   0.489   2.777   0.053 -0.0516  0.6987  0.6746
 4970SOL     OW15464   2.672   1.991   1.937 -0.4989  0.0825 -0.3771
 4970SOL    HW115465   2.659   2.060   2.001  2.0842 -0.1638  0.5312
 4970SOL    HW215466   2.677   1.910   1.988 -0.9157 -0.4556 -1.1561
 4971SOL     OW15467   1.690   0.167   7.116  0.2211 -0.2310 -0.2966
 4971SOL    HW115468   1.659   0.112   7.044  0.6146 -0.1208 -0.5557
 4971SOL    HW215469   1.646   0.133   7.194  0.2868 -0.7707 -0.4913
 4972SOL     OW15470   4.926   2.694   7.481 -0.3569 -0.0200 -0.5170
 4972SOL    HW115471   4.843   2.645   7.481  0.2920 -1.1794 -1.0265
 4972SOL    HW215472   4.993   2.626   7.492  0.4800  1.0528  1.5775
 4973SOL     OW15473   2.423   3.199   3.011  0.2645 -0.0742  0.4037
 4973SOL    HW115474   2.328   3.213   3.017  0.3810  0.9094  0.1246
 4973SOL    HW215475   2.446   3.234   2.925  0.7950 -0.8616  0.2213
 4974SOL     OW15476   7.726   4.153   1.433 -0.0128 -0.9245  0.1659
 4974SOL    HW115477   7.703   4.142   1.526  2.0878  0.5630  0.9604
 4974SOL    HW215478   7.822   4.154   1.433  0.0370  1.1447 -1.7068
 4975SOL     OW15479   6.972   5.171   1.929  0.1418  0.0419 -0.6510
 4975SOL    HW115480   7.026   5.131   1.860 -0.1720 -0.3251 -0.6865
 4975SOL    HW215481   7.027   5.167   2.007 -0.5505 -2.1906 -0.1972
 4976SOL     OW15482   4.344   3.459   3.430  0.3450 -0.5565  0.7213
 4976SOL    HW115483   4.276   3.395   3.451  0.0988  0.1572  2.2371
 4976SOL    HW215484   4.352   3.513   3.509  2.3159 -0.2950  0.4027
 4977SOL     OW15485   7.632   3.878   2.536  0.5443  0.5235  0.3925
 4977SOL    HW115486   7.596   3.843   2.617 -0.0594  0.8041  0.2469
 4977SOL    HW215487   7.582   3.958   2.520  1.0801  0.8007  0.0748
 4978SOL     OW15488   1.218   1.228   1.587  0.2311  0.3692  0.1542
 4978SOL    HW115489   1.292   1.287   1.593  0.5507 -0.0992  1.1394
 4978SOL    HW215490   1.179   1.245   1.502  2.1881 -0.2275 -0.9212
 4979SOL     OW15491   5.309   3.364   6.079  0.8527  0.2475 -0.1312
 4979SOL    HW115492   5.352   3.285   6.114  1.3457  0.3896 -0.3998
 4979SOL    HW215493   5.298   3.421   6.154 -2.0731 -1.1582  0.6659
 4980SOL     OW15494   6.452   4.613   4.894 -0.1726  0.3380  0.7703
 4980SOL    HW115495   6.498   4.690   4.926  1.4364 -0.0240 -0.5704
 4980SOL    HW215496   6.504   4.539   4.925 -0.0476 -0.0905 -0.4048
 4981SOL     OW15497   4.605   2.214   1.886 -0.3329  0.0809 -0.2671
 4981SOL    HW115498   4.687   2.250   1.919  0.2922 -1.6762  0.2067
 4981SOL    HW215499   4.579   2.149   1.952  0.1229 -2.4252 -2.4119
 4982SOL     OW15500   4.237   6.422   7.456  0.6003 -0.0091  0.2724
 4982SOL    HW115501   4.276   6.440   7.370 -1.2330 -0.2571 -0.6457
 4982SOL    HW215502   4.211   6.508   7.488 -1.2899 -0.1586 -0.7336
 4983SOL     OW15503   2.737   3.883   4.434 -0.4348 -0.1525  0.0621
 4983SOL    HW115504   2.802   3.820   4.464 -0.3902  0.3366  1.0488
 4983SOL    HW215505   2.786   3.966   4.428 -0.4988 -0.1878 -1.1762
 4984SOL     OW15506   6.693   2.140   2.065  0.2904 -0.4555  0.2428
 4984SOL    HW115507   6.652   2.225   2.079 -0.4896 -0.7255 -0.3115
 4984SOL    HW215508   6.619   2.078   2.059  0.7135 -0.8687 -1.3619
 4985SOL     OW15509   2.912   3.511   5.865  0.2898  0.2752 -0.4014
 4985SOL    HW115510   2.818   3.517   5.852  0.1770  1.1058  0.6675
 4985SOL    HW215511   2.948   3.586   5.817  0.4222 -0.1704 -0.9948
 4986SOL     OW15512   0.757   0.862   0.218 -0.4425 -0.0381  0.6686
 4986SOL    HW115513   0.702   0.936   0.193 -0.7001  0.0347  1.4312
 4986SOL    HW215514   0.701   0.785   0.207 -0.0276 -0.1837 -0.5830
 4987SOL     OW15515   7.339   3.452   5.256  0.6006  0.7611 -0.3862
 4987SOL    HW115516   7.378   3.533   5.289  0.9242  0.9360 -1.1707
 4987SOL    HW215517   7.247   3.474   5.240  0.5734  0.8304 -0.1405
 4988SOL     OW15518   6.296   3.715   2.981 -0.8208 -0.0254 -0.5183
 4988SOL    HW115519   6.314   3.808   2.987 -2.3626  0.3568 -1.2853
 4988SOL    HW215520   6.201   3.709   2.973 -1.0884 -1.8074  2.3914
 4989SOL     OW15521   0.707   6.658   2.461  0.0543 -0.5287  0.3969
 4989SOL    HW115522   0.696   6.572   2.421 -1.2352 -0.6037  0.8612
 4989SOL    HW215523   0.695   6.720   2.389 -0.8914 -0.7033  0.3843
 4990SOL     OW15524   6.815   6.857   4.028 -0.3145  0.2057  0.4106
 4990SOL    HW115525   6.896   6.815   4.000 -0.4946  0.1350 -0.0200
 4990SOL    HW215526   6.808   6.839   4.121  0.5237  0.7997  0.5986
 4991SOL     OW15527   3.591   0.691   5.412  0.0445  0.0914  0.2846
 4991SOL    HW115528   3.552   0.736   5.337 -2.2826 -0.7711  0.9055
 4991SOL    HW215529   3.673   0.656   5.378 -0.7952 -0.0300 -1.7952
 4992SOL     OW15530   5.122   0.845   6.153  0.6075 -0.0594  0.4571
 4992SOL    HW115531   5.136   0.752   6.134  0.9635  0.0770  0.0560
 4992SOL    HW215532   5.206   0.875   6.186 -0.1436 -0.4528  2.9729
 4993SOL     OW15533   1.840   2.309   5.664  0.5359 -0.6364  0.2798
 4993SOL    HW115534   1.767   2.352   5.709  0.2699 -0.4829 -0.3000
 4993SOL    HW215535   1.867   2.371   5.596  0.4226 -1.2078 -0.2884
 4994SOL     OW15536   0.627   0.573   0.230  0.2944  0.0368 -0.4411
 4994SOL    HW115537   0.692   0.511   0.197  0.0024 -0.0426 -0.8882
 4994SOL    HW215538   0.598   0.535   0.313  1.2911  0.4172  0.0964
 4995SOL     OW15539   1.277   1.493   0.174 -0.5717 -0.8000 -0.3607
 4995SOL    HW115540   1.367   1.511   0.200 -0.5062 -0.5147 -0.7763
 4995SOL    HW215541   1.263   1.547   0.096 -0.7680 -1.6156 -0.9146
 4996SOL     OW15542   3.528   2.220   7.107 -0.4238 -0.1363  0.3064
 4996SOL    HW115543   3.618   2.240   7.132 -0.7234  0.8563  0.6642
 4996SOL    HW215544   3.499   2.297   7.058 -0.7730 -0.8618 -0.6564
 4997SOL     OW15545   2.462   4.721   5.098  0.6048  0.3877  0.1213
 4997SOL    HW115546   2.508   4.637   5.093  1.1173  0.7124 -0.9526
 4997SOL    HW215547   2.458   4.751   5.007 -2.6578 -0.1082 -0.0185
 4998SOL     OW15548   1.960   2.858   0.878  0.1005  0.2000  0.1666
 4998SOL    HW115549   2.024   2.787   0.887  1.5019  1.3773 -0.0688
 4998SOL    HW215550   1.906   2.831   0.804  0.6964 -0.5734 -0.0056
 4999SOL     OW15551   1.478   4.647   2.887  0.3249 -0.1269 -0.4843
 4999SOL    HW115552   1.462   4.564   2.842  1.8788 -0.9363  0.3983
 4999SOL    HW215553   1.401   4.658   2.943 -0.8503  0.0795 -2.0551
 5000SOL     OW15554   6.103   4.534   6.759 -0.8432  0.8236  0.1351
 5000SOL    HW115555   6.049   4.477   6.813 -0.2765  1.1442  1.0481
 5000SOL    HW215556   6.182   4.484   6.742 -1.5963  0.1356 -1.6600
 5001SOL     OW15557   7.168   6.427   5.306 -0.2384 -0.0851 -0.0336
 5001SOL    HW115558   7.240   6.373   5.274  0.4024  0.5304  0.3252
 5001SOL    HW215559   7.160   6.402   5.399  0.3866  0.7527  0.2632
 5002SOL     OW15560   6.295   1.645   3.928 -0.1157  0.3160 -0.4945
 5002SOL    HW115561   6.356   1.571   3.937  0.2862  0.8551  1.7763
 5002SOL    HW215562   6.347   1.714   3.888 -0.2160 -0.2665 -1.6903
 5003SOL     OW15563   6.728   0.108   0.376  0.2393  0.1573 -0.1437
 5003SOL    HW115564   6.643   0.064   0.364  0.2548 -0.2439  1.0636
 5003SOL    HW215565   6.793   0.041   0.354  0.2539  0.1307 -0.0180
 5004SOL     OW15566   6.081   3.462   4.993  0.0879  0.2724 -0.7555
 5004SOL    HW115567   6.086   3.532   4.928 -1.6541  0.9698 -0.1890
 5004SOL    HW215568   6.123   3.499   5.071 -0.8543  0.7324 -0.4483
 5005SOL     OW15569   1.954   4.134   7.012  0.4190 -0.3346 -0.0400
 5005SOL    HW115570   1.983   4.080   7.085 -3.8300 -1.6774  0.9454
 5005SOL    HW215571   1.960   4.224   7.045  1.8622 -0.6386  0.5856
 5006SOL     OW15572   0.638   3.590   2.741  0.3014  0.4425  0.5047
 5006SOL    HW115573   0.674   3.625   2.659 -0.2106 -1.3521 -0.5248
 5006SOL    HW215574   0.715   3.567   2.793  0.6398  0.2214 -0.0867
 5007SOL     OW15575   3.470   4.806   5.996 -0.5782 -0.0375  0.3707
 5007SOL    HW115576   3.525   4.822   5.919 -1.1798  0.1568 -0.0264
 5007SOL    HW215577   3.520   4.842   6.069 -0.5101  0.8122 -0.0855
 5008SOL     OW15578   3.101   7.754   4.946 -0.0663 -0.4192  0.3313
 5008SOL    HW115579   3.165   7.774   4.878 -0.4454 -0.7075 -0.1214
 5008SOL    HW215580   3.147   7.694   5.005 -0.2391 -1.4703 -0.5655
 5009SOL     OW15581   4.235   5.526   4.702 -0.1264  0.5296  0.3367
 5009SOL    HW115582   4.284   5.450   4.670 -0.6733  0.8495 -1.3798
 5009SOL    HW215583   4.300   5.584   4.739  0.4110 -0.3695  0.8313
 5010SOL     OW15584   5.422   2.552   3.882  0.2661  0.1239 -0.6786
 5010SOL    HW115585   5.467   2.613   3.822  0.7216  0.0513 -0.4171
 5010SOL    HW215586   5.478   2.474   3.883  0.9680  0.6039  0.8283
 5011SOL     OW15587   2.122   0.644   4.182 -0.0896 -0.1945  0.6645
 5011SOL    HW115588   2.038   0.642   4.136  0.4630 -0.5591 -0.3709
 5011SOL    HW215589   2.108   0.704   4.255 -0.7049  1.2579 -0.5827
 5012SOL     OW15590   0.735   4.816   5.708 -0.3442 -0.8316  0.4643
 5012SOL    HW115591   0.742   4.833   5.802  2.2540  0.7722  0.0418
 5012SOL    HW215592   0.816   4.848   5.670 -0.5706 -2.9450 -2.1712
 5013SOL     OW15593   0.070   4.571   4.264 -0.1753 -0.9748 -0.2629
 5013SOL    HW115594   0.111   4.600   4.345  0.3295 -0.8687 -0.5518
 5013SOL    HW215595   0.036   4.484   4.284  1.7685 -1.8543 -0.5083
 5014SOL     OW15596   3.766   3.325   0.358  0.0840  0.3767 -1.1047
 5014SOL    HW115597   3.740   3.365   0.275 -1.7902  0.4056 -0.5638
 5014SOL    HW215598   3.836   3.381   0.390 -0.5607  1.5873 -1.7137
 5015SOL     OW15599   4.026   4.827   6.393  0.1243  0.5024  0.7277
 5015SOL    HW115600   3.985   4.808   6.477 -0.1331  1.0750  0.7325
 5015SOL    HW215601   4.068   4.912   6.406 -1.2768  1.3738 -0.2038
 5016SOL     OW15602   0.610   3.922   1.512  0.0520 -0.2693  0.3926
 5016SOL    HW115603   0.650   3.958   1.434  0.0536 -1.0295  0.0342
 5016SOL    HW215604   0.613   3.827   1.499  0.4644 -0.4257  1.5147
 5017SOL     OW15605   3.002   3.245   4.299 -0.0296 -0.4075  0.1041
 5017SOL    HW115606   3.017   3.157   4.334  0.1404 -0.1487  0.6966
 5017SOL    HW215607   3.028   3.239   4.207  0.2829 -0.8969  0.2220
 5018SOL     OW15608   5.436   1.638   4.053 -0.0064  0.2336  0.2620
 5018SOL    HW115609   5.517   1.640   4.104  0.7915 -0.6156 -0.9064
 5018SOL    HW215610   5.380   1.575   4.099 -1.0952  2.6846  2.5343
 5019SOL     OW15611   4.441   3.005   6.989  0.0812  0.3293  0.1948
 5019SOL    HW115612   4.396   3.076   7.034 -0.5798 -0.1958  0.3772
 5019SOL    HW215613   4.433   2.930   7.048 -2.3934 -0.8920 -1.5167
 5020SOL     OW15614   1.627   6.931   6.800 -0.3492 -0.6111  0.3760
 5020SOL    HW115615   1.564   6.875   6.754 -1.1865  0.8705 -0.3224
 5020SOL    HW215616   1.610   7.019   6.767  1.1219  0.0364  1.2644
 5021SOL     OW15617   1.045   0.311   2.529  0.4428  0.1628 -0.0506
 5021SOL    HW115618   0.998   0.256   2.467 -0.0221  0.3784  0.1071
 5021SOL    HW215619   1.124   0.260   2.551  0.1480 -0.3209 -0.1027
 5022SOL     OW15620   7.124   0.312   1.037  0.0220  0.1716  0.1681
 5022SOL    HW115621   7.041   0.347   1.006  0.5895  1.6206  0.1930
 5022SOL    HW215622   7.151   0.372   1.107  0.6763 -0.7617  0.7442
 5023SOL     OW15623   0.459   4.005   1.708  0.5521  0.3751 -0.1969
 5023SOL    HW115624   0.485   4.090   1.743  2.3057 -0.7299  1.3283
 5023SOL    HW215625   0.536   3.975   1.659  0.6971 -1.1434  0.8970
 5024SOL     OW15626   3.846   3.215   1.371  0.5352 -0.4042 -0.5018
 5024SOL    HW115627   3.879   3.154   1.305 -0.0013 -0.9663 -0.2513
 5024SOL    HW215628   3.897   3.295   1.356  2.5280 -1.4445  0.3180
 5025SOL     OW15629   4.893   4.270   5.607 -0.0786 -0.8814 -0.1102
 5025SOL    HW115630   4.985   4.294   5.594  0.0909 -0.7511  1.2375
 5025SOL    HW215631   4.851   4.292   5.524  0.8402  0.3238 -0.2806
 5026SOL     OW15632   6.333   6.425   0.250 -0.3711 -0.1317 -0.1192
 5026SOL    HW115633   6.398   6.496   0.246  0.2384 -0.5769  1.1968
 5026SOL    HW215634   6.269   6.448   0.183  1.2201  0.2364 -1.5933
 5027SOL     OW15635   1.032   1.308   1.415 -0.3192 -0.1203  0.1951
 5027SOL    HW115636   1.058   1.399   1.403  0.6370 -0.3485  0.4471
 5027SOL    HW215637   0.960   1.312   1.478  0.0933  0.4183  0.6447
 5028SOL     OW15638   4.943   3.333   4.388 -0.1312  0.1169  0.2569
 5028SOL    HW115639   4.921   3.386   4.312  1.1620  0.0970 -0.1476
 5028SOL    HW215640   4.869   3.346   4.448  0.4633  3.0347  0.5120
 5029SOL     OW15641   4.296   3.360   4.535  0.3553 -0.3394 -0.4378
 5029SOL    HW115642   4.331   3.300   4.601  0.7119 -0.3356 -0.6194
 5029SOL    HW215643   4.242   3.305   4.479  0.6054 -0.4751 -0.5472
 5030SOL     OW15644   5.647   1.105   2.048 -0.0118  0.5645 -0.2739
 5030SOL    HW115645   5.732   1.092   2.089 -0.9875 -0.9775  1.3705
 5030SOL    HW215646   5.602   1.022   2.058 -1.3583  1.0062 -2.0752
 5031SOL     OW15647   0.575   3.163   5.885  0.1299 -0.1223 -0.3280
 5031SOL    HW115648   0.585   3.243   5.833 -0.5341  0.1312 -0.0702
 5031SOL    HW215649   0.515   3.109   5.834  0.3962 -0.3618 -0.3884
 5032SOL     OW15650   0.078   0.438   0.300 -0.3065  0.2250  0.5858
 5032SOL    HW115651   0.126   0.511   0.338  0.5956  0.6598 -1.2891
 5032SOL    HW215652   0.043   0.472   0.218  1.8096 -1.9386 -1.3409
 5033SOL     OW15653   5.860   3.743   6.635 -0.5858 -0.7100  0.5128
 5033SOL    HW115654   5.942   3.694   6.631  0.0730  0.3281  1.1820
 5033SOL    HW215655   5.862   3.800   6.558 -1.1609 -1.3770 -0.0255
 5034SOL     OW15656   6.614   4.177   7.302 -0.8122 -0.5486 -0.3141
 5034SOL    HW115657   6.608   4.129   7.219  1.4270 -1.8918  0.2216
 5034SOL    HW215658   6.628   4.268   7.276  1.6899 -1.1858 -1.5385
 5035SOL     OW15659   6.190   6.734   0.986  0.3256 -0.0324  0.4063
 5035SOL    HW115660   6.099   6.756   1.007  0.4127 -0.6427  1.4776
 5035SOL    HW215661   6.183   6.661   0.925  0.0856 -0.7506  1.2673
 5036SOL     OW15662   7.247   5.391   1.903 -0.2080  0.3388  0.4281
 5036SOL    HW115663   7.233   5.382   1.997  1.9115  2.8425  1.1013
 5036SOL    HW215664   7.161   5.375   1.864 -1.5678  1.0127  2.9575
 5037SOL     OW15665   0.024   4.118   7.316 -0.2938 -0.6591  0.2727
 5037SOL    HW115666   0.046   4.139   7.406  0.8223 -0.9634  0.0847
 5037SOL    HW215667   0.007   4.203   7.275 -1.7647 -0.5807  0.9854
 5038SOL     OW15668   2.552   5.693   5.737  0.2651 -0.2402  0.1069
 5038SOL    HW115669   2.497   5.627   5.778 -0.4400  0.1304 -0.2363
 5038SOL    HW215670   2.539   5.772   5.790  1.6823 -0.5563  0.9714
 5039SOL     OW15671   7.339   0.722   1.632  0.1909  0.3316 -0.1354
 5039SOL    HW115672   7.389   0.642   1.617  0.8709  1.2113 -3.4894
 5039SOL    HW215673   7.402   0.793   1.620 -1.0252  1.4017 -0.4319
 5040SOL     OW15674   3.459   3.532   4.975  0.7643  0.2924  0.0361
 5040SOL    HW115675   3.414   3.449   4.957  1.4005 -0.1002  0.2388
 5040SOL    HW215676   3.529   3.509   5.036  0.9313  0.9870  0.1155
 5041SOL     OW15677   4.813   4.809   0.796 -0.0677  0.0874 -0.2379
 5041SOL    HW115678   4.749   4.840   0.733  1.7454  0.1937 -2.1384
 5041SOL    HW215679   4.825   4.716   0.774  0.3755  0.0508  0.1402
 5042SOL     OW15680   0.675   6.410   6.683 -0.0679 -0.1213 -0.6087
 5042SOL    HW115681   0.641   6.349   6.749  0.6567 -1.2847 -1.2894
 5042SOL    HW215682   0.712   6.354   6.614  1.0838  1.0753 -1.0144
 5043SOL     OW15683   3.458   6.082   7.696 -0.5925 -0.3252  0.9197
 5043SOL    HW115684   3.499   6.009   7.743 -0.1329  0.9348  2.5656
 5043SOL    HW215685   3.503   6.160   7.728 -1.5298  0.7548 -0.2913
 5044SOL     OW15686   4.206   5.068   5.504  0.2607 -0.2453  0.0918
 5044SOL    HW115687   4.244   4.981   5.491 -0.7794 -1.0635  2.1335
 5044SOL    HW215688   4.174   5.094   5.417 -2.2188 -3.2967 -0.0726
 5045SOL     OW15689   5.655   4.768   4.740  0.3234  0.2947 -0.1491
 5045SOL    HW115690   5.671   4.840   4.679 -1.0710 -1.0023 -2.1909
 5045SOL    HW215691   5.560   4.766   4.750  0.3919 -0.7785  0.4540
 5046SOL     OW15692   5.565   1.272   4.455  0.7478  0.4803  0.1385
 5046SOL    HW115693   5.571   1.366   4.475  1.9001  0.4597 -0.0384
 5046SOL    HW215694   5.560   1.230   4.541 -0.1354  0.7128  0.2116
 5047SOL     OW15695   0.614   6.615   2.732 -0.0650 -0.2087  0.1718
 5047SOL    HW115696   0.549   6.677   2.765 -0.6448 -1.3208  1.2367
 5047SOL    HW215697   0.638   6.648   2.646 -1.2886  0.7961  0.1881
 5048SOL     OW15698   6.828   6.350   3.939  0.6621  0.0126 -0.0348
 5048SOL    HW115699   6.883   6.402   3.998  0.8368  0.1569 -0.3197
 5048SOL    HW215700   6.885   6.279   3.908  0.5272 -0.1478  0.0863
 5049SOL     OW15701   2.080   3.124   5.290  0.0942  0.0694  0.1260
 5049SOL    HW115702   2.132   3.061   5.340  0.7394 -0.4212 -1.1002
 5049SOL    HW215703   2.129   3.206   5.296  0.0351  0.0789  0.4949
 5050SOL     OW15704   0.728   6.348   2.012  0.0286 -0.0464  0.4704
 5050SOL    HW115705   0.812   6.390   2.028  0.0323 -0.0271  0.4028
 5050SOL    HW215706   0.748   6.278   1.949 -0.4090  1.5593 -1.5565
 5051SOL     OW15707   3.014   2.178   2.436  0.0154  0.3468  0.0492
 5051SOL    HW115708   3.014   2.264   2.479 -0.7573 -0.2253  1.2475
 5051SOL    HW215709   2.966   2.121   2.497 -0.0223 -0.7907 -1.0136
 5052SOL     OW15710   5.490   1.112   2.799 -0.1483 -0.7596  0.0298
 5052SOL    HW115711   5.532   1.180   2.745  2.0348 -0.4459  1.9829
 5052SOL    HW215712   5.400   1.141   2.807 -0.2506 -0.1609 -2.3556
 5053SOL     OW15713   5.419   6.607   1.069 -0.5972  0.4533 -0.5073
 5053SOL    HW115714   5.487   6.592   1.135 -2.8789  0.3071  1.9854
 5053SOL    HW215715   5.382   6.692   1.091 -1.2776  0.5212 -1.7929
 5054SOL     OW15716   2.344   0.819   4.526  0.3639 -0.9391 -0.0827
 5054SOL    HW115717   2.333   0.732   4.564  2.6771 -0.2054  2.6204
 5054SOL    HW215718   2.342   0.805   4.432  1.5694 -4.0696  0.2385
 5055SOL     OW15719   6.988   1.984   0.332  0.5526 -0.4279  0.2859
 5055SOL    HW115720   7.034   1.915   0.380 -0.1494 -0.7520  0.5080
 5055SOL    HW215721   6.896   1.971   0.355  0.3875  0.4357  0.1361
 5056SOL     OW15722   0.159   7.230   5.989  0.0300 -0.8836 -0.1144
 5056SOL    HW115723   0.244   7.203   5.953  0.3824 -0.6513  0.5190
 5056SOL    HW215724   0.094   7.187   5.934  0.5324 -3.9509  1.4642
 5057SOL     OW15725   3.867   2.930   2.171  0.5767 -0.1924  0.0917
 5057SOL    HW115726   3.867   2.939   2.076  0.0268 -0.2236  0.0840
 5057SOL    HW215727   3.920   2.852   2.188  0.0526 -0.6244 -0.2391
 5058SOL     OW15728   6.267   2.555   2.396 -0.1958 -0.0814  0.1436
 5058SOL    HW115729   6.259   2.552   2.492  0.8022 -0.3140  0.2299
 5058SOL    HW215730   6.180   2.581   2.366 -0.2355  1.0636  1.1696
 5059SOL     OW15731   5.463   5.422   5.333  0.2931 -0.9450  0.4167
 5059SOL    HW115732   5.490   5.490   5.272  1.5179 -2.1743 -0.4704
 5059SOL    HW215733   5.541   5.405   5.386 -0.4218 -0.6863  1.6097
 5060SOL     OW15734   1.458   3.923   5.209  0.5169  0.0204  0.4100
 5060SOL    HW115735   1.499   3.871   5.279 -0.3150  0.3807  1.1880
 5060SOL    HW215736   1.477   4.014   5.232  0.3659  0.1383  0.0749
 5061SOL     OW15737   5.948   3.422   6.265 -0.0808 -0.6589 -0.4461
 5061SOL    HW115738   6.021   3.364   6.246  0.3650  0.2008 -1.4620
 5061SOL    HW215739   5.975   3.507   6.231 -0.8843  0.0565  0.6495
 5062SOL     OW15740   7.488   1.663   2.697  0.0211  0.2224  0.7710
 5062SOL    HW115741   7.540   1.591   2.662  0.8379 -0.1130  2.5393
 5062SOL    HW215742   7.397   1.639   2.676  0.2993 -1.1939  1.0670
 5063SOL     OW15743   3.792   0.191   6.212 -0.1513  0.2145 -0.0541
 5063SOL    HW115744   3.732   0.137   6.161  1.0361  0.6638 -2.0315
 5063SOL    HW215745   3.879   0.155   6.194  0.7037  2.7713 -1.5848
 5064SOL     OW15746   4.264   5.806   4.882  0.1465 -0.2878  0.0009
 5064SOL    HW115747   4.335   5.750   4.850  1.2305  0.7668  0.5273
 5064SOL    HW215748   4.230   5.848   4.804  1.4301  0.7109 -0.0450
 5065SOL     OW15749   2.935   7.738   5.522 -0.1901 -0.1287 -0.0604
 5065SOL    HW115750   2.857   7.778   5.562  0.3647  2.5544 -1.3878
 5065SOL    HW215751   2.939   7.777   5.435  1.9707 -1.1532 -0.4749
 5066SOL     OW15752   2.655   1.027   6.820  0.0276 -0.0794 -0.0188
 5066SOL    HW115753   2.651   1.118   6.848  0.7547 -0.2488  0.6747
 5066SOL    HW215754   2.708   0.983   6.888  0.7086 -0.7767 -0.9765
 5067SOL     OW15755   6.877   1.417   2.691 -0.1611  0.3705 -0.2997
 5067SOL    HW115756   6.858   1.406   2.784 -0.4406  0.5427 -0.3355
 5067SOL    HW215757   6.818   1.487   2.663 -2.3946 -1.7430 -1.3262
 5068SOL     OW15758   0.605   5.248   1.083  0.1189 -0.2839 -0.1171
 5068SOL    HW115759   0.690   5.218   1.116  0.8668  0.6818 -1.1234
 5068SOL    HW215760   0.560   5.280   1.162 -0.4961 -3.3260  0.9263
 5069SOL     OW15761   7.210   4.098   2.228 -0.1789  1.0649 -0.1289
 5069SOL    HW115762   7.210   4.002   2.226 -0.2957  1.0694 -0.2971
 5069SOL    HW215763   7.118   4.123   2.228 -0.1624  1.2144 -1.7937
 5070SOL     OW15764   7.689   7.733   1.867 -0.1080 -0.1559  0.2339
 5070SOL    HW115765   7.670   7.826   1.862 -1.9255 -0.2708  2.6683
 5070SOL    HW215766   7.753   7.725   1.938  0.1341 -0.7521 -0.0406
 5071SOL     OW15767   2.244   2.719   4.757 -0.3312  0.0673  0.0949
 5071SOL    HW115768   2.255   2.657   4.828  0.2186  0.2323  0.1548
 5071SOL    HW215769   2.275   2.802   4.792  0.2469  0.0836 -0.4417
 5072SOL     OW15770   5.672   6.113   1.498 -0.6690  0.3346 -0.0734
 5072SOL    HW115771   5.749   6.110   1.554 -1.2518 -0.3972  0.7214
 5072SOL    HW215772   5.704   6.088   1.412  0.4262  2.4214 -0.3247
 5073SOL     OW15773   7.727   5.497   0.543 -1.1140  0.5072 -0.4042
 5073SOL    HW115774   7.650   5.551   0.528  1.1314  3.9755 -0.5294
 5073SOL    HW215775   7.746   5.507   0.636  0.9149  2.4511 -0.9384
 5074SOL     OW15776   6.521   1.088   3.519 -0.6109  0.3151 -0.3926
 5074SOL    HW115777   6.471   1.136   3.453  0.6994  2.5071  0.1286
 5074SOL    HW215778   6.576   1.154   3.560  0.1588 -1.3900  1.4522
 5075SOL     OW15779   3.191   0.618   3.155 -0.1057 -0.4089 -0.0059
 5075SOL    HW115780   3.185   0.589   3.246  0.1643 -0.5343 -0.0287
 5075SOL    HW215781   3.230   0.544   3.109  1.9817  0.5063  0.1893
 5076SOL     OW15782   3.419   5.011   7.335 -0.3805  0.3409  0.7015
 5076SOL    HW115783   3.344   4.972   7.380  2.0922 -3.8000  1.7115
 5076SOL    HW215784   3.462   5.064   7.402  0.9306 -2.4009  2.2130
 5077SOL     OW15785   7.537   3.581   0.987 -0.2708 -0.0827 -0.6952
 5077SOL    HW115786   7.486   3.646   1.036 -3.2487 -2.0226 -1.0078
 5077SOL    HW215787   7.543   3.618   0.899  1.4196  1.4361 -0.0241
 5078SOL     OW15788   1.138   3.032   0.831  0.8243 -0.4359  0.3532
 5078SOL    HW115789   1.211   3.005   0.775  1.3898  0.6519  0.5284
 5078SOL    HW215790   1.114   3.118   0.798  0.2395 -0.3826  0.9080
 5079SOL     OW15791   0.427   6.772   2.877 -0.1050  0.1820 -0.5214
 5079SOL    HW115792   0.466   6.850   2.914 -1.9552  0.7383  0.3749
 5079SOL    HW215793   0.388   6.801   2.795 -0.5307  0.1385 -0.3371
 5080SOL     OW15794   4.267   4.579   3.759  0.1445 -0.4379  0.0278
 5080SOL    HW115795   4.277   4.518   3.686 -1.1152 -0.7209  0.0765
 5080SOL    HW215796   4.316   4.540   3.831  2.2566  0.3279 -0.9042
 5081SOL     OW15797   1.046   6.313   3.570 -0.5011  0.0318  0.3529
 5081SOL    HW115798   1.134   6.280   3.550 -0.3350 -0.2045  1.4221
 5081SOL    HW215799   0.987   6.260   3.517 -0.0258 -0.0597 -0.0839
 5082SOL     OW15800   1.358   6.108   6.926  0.4275 -0.3282  0.4856
 5082SOL    HW115801   1.273   6.085   6.888  2.1449 -0.7328 -3.6992
 5082SOL    HW215802   1.387   6.027   6.969 -0.0090 -1.2706 -0.8921
 5083SOL     OW15803   6.980   3.612   5.462 -0.4670  0.4676 -0.3017
 5083SOL    HW115804   6.930   3.533   5.484 -0.0698 -0.0563 -1.2070
 5083SOL    HW215805   6.990   3.609   5.367 -1.3909  2.2104 -0.4893
 5084SOL     OW15806   4.448   3.408   7.722 -0.3908  0.6841 -0.1575
 5084SOL    HW115807   4.422   3.486   7.770 -2.6836  0.8413 -1.5005
 5084SOL    HW215808   4.425   3.335   7.781 -0.8417  0.9447 -0.0078
 5085SOL     OW15809   4.520   7.076   3.885 -0.0019  0.0630  0.4383
 5085SOL    HW115810   4.530   7.146   3.949 -1.0607  0.3875  0.2650
 5085SOL    HW215811   4.464   7.113   3.817 -0.4467 -0.8877  0.2639
 5086SOL     OW15812   5.140   5.834   0.169  0.2942 -0.1212  0.4824
 5086SOL    HW115813   5.164   5.924   0.148  1.7220  0.1215  2.8011
 5086SOL    HW215814   5.088   5.842   0.249  0.3709 -1.3457  0.6654
 5087SOL     OW15815   6.331   6.118   3.943  0.1519 -0.5839 -0.0768
 5087SOL    HW115816   6.240   6.145   3.939  0.6701  1.3201 -0.0114
 5087SOL    HW215817   6.350   6.108   4.036  0.2593  0.0093 -0.0292
 5088SOL     OW15818   7.528   1.452   7.258  0.3785 -0.2606 -0.1037
 5088SOL    HW115819   7.564   1.459   7.169  0.4278 -1.5615 -0.1998
 5088SOL    HW215820   7.442   1.495   7.252  0.4480 -0.1961 -0.7379
 5089SOL     OW15821   6.590   4.488   2.569  0.5897  0.4296  0.9636
 5089SOL    HW115822   6.540   4.481   2.487  0.1825 -0.9032  1.3040
 5089SOL    HW215823   6.664   4.545   2.547  0.6760 -0.1753 -0.4268
 5090SOL     OW15824   0.949   5.489   3.413 -1.3319 -0.2938 -0.0845
 5090SOL    HW115825   0.953   5.491   3.318 -0.2326 -0.1036 -0.0517
 5090SOL    HW215826   0.934   5.580   3.438 -0.5298 -0.1558 -0.0600
 5091SOL     OW15827   2.588   6.511   4.026  0.1323  0.4614 -0.1778
 5091SOL    HW115828   2.666   6.457   4.032 -0.9693 -1.0475  4.3681
 5091SOL    HW215829   2.529   6.463   3.968  0.7373 -1.0740  0.4311
 5092SOL     OW15830   1.211   7.239   5.081  0.1546  0.5583 -0.3469
 5092SOL    HW115831   1.145   7.275   5.140 -1.4934 -0.5596 -1.4004
 5092SOL    HW215832   1.202   7.291   5.001 -1.8727 -1.6377 -1.6873
 5093SOL     OW15833   1.377   4.226   0.369 -0.4327  0.4601 -0.5166
 5093SOL    HW115834   1.449   4.270   0.324 -0.2651  0.4369 -0.2693
 5093SOL    HW215835   1.415   4.144   0.401 -0.8421 -0.0619 -1.3229
 5094SOL     OW15836   3.379   1.082   1.016  0.0201  0.4794  0.7338
 5094SOL    HW115837   3.442   1.018   1.051 -2.7735 -1.7532  2.0286
 5094SOL    HW215838   3.366   1.144   1.087  0.5450  0.8148  0.5452
 5095SOL     OW15839   6.644   2.372   5.174  0.1262 -0.2531  0.5883
 5095SOL    HW115840   6.708   2.340   5.111  1.2548  0.6036  1.2424
 5095SOL    HW215841   6.562   2.376   5.126  0.7266 -0.6575 -0.5042
 5096SOL     OW15842   0.939   6.919   6.700 -0.1765 -0.2894  0.5158
 5096SOL    HW115843   0.883   6.940   6.625 -1.3586 -1.6492  0.9735
 5096SOL    HW215844   1.022   6.892   6.661 -0.9046 -1.3827 -0.3653
 5097SOL     OW15845   4.081   6.216   1.720  0.7248  0.1134  0.1244
 5097SOL    HW115846   4.007   6.253   1.671  0.0011 -1.2275  0.1503
 5097SOL    HW215847   4.126   6.292   1.756 -0.6600  0.9797  0.1299
 5098SOL     OW15848   6.298   7.080   6.447 -0.1106 -0.3294  0.6556
 5098SOL    HW115849   6.265   7.139   6.515 -0.1401  1.8473 -1.1275
 5098SOL    HW215850   6.222   7.026   6.424 -0.4078 -0.3133  1.5577
 5099SOL     OW15851   2.750   5.917   5.980  0.2454  0.3564  0.6209
 5099SOL    HW115852   2.663   5.904   5.943 -0.6573 -1.8705  3.1574
 5099SOL    HW215853   2.737   5.983   6.049  0.3974 -0.4264  1.4167
 5100SOL     OW15854   5.620   6.933   2.868 -0.0414 -0.0452  0.3885
 5100SOL    HW115855   5.549   6.869   2.874 -0.7834  0.8582  1.8631
 5100SOL    HW215856   5.674   6.914   2.945 -0.0204  0.7963  0.5831
 5101SOL     OW15857   1.063   4.387   2.434 -0.0117  0.0472  0.5589
 5101SOL    HW115858   1.085   4.380   2.341 -2.4351 -2.7801  0.0041
 5101SOL    HW215859   0.990   4.449   2.437 -1.5073 -1.5744  0.0805
 5102SOL     OW15860   4.845   3.313   1.310 -1.0577  0.0687 -0.0431
 5102SOL    HW115861   4.867   3.367   1.387  0.8783  0.0379 -0.5181
 5102SOL    HW215862   4.874   3.225   1.334  1.0759  0.3500 -1.3482
 5103SOL     OW15863   1.499   5.428   4.085 -0.1865 -0.0928 -0.1279
 5103SOL    HW115864   1.425   5.398   4.031 -0.3301  0.2531 -0.1287
 5103SOL    HW215865   1.545   5.348   4.109 -1.4178 -0.4666  1.1144
 5104SOL     OW15866   0.895   7.487   4.686  0.1390 -0.1467  0.5981
 5104SOL    HW115867   0.919   7.574   4.655  1.1109 -1.0713 -1.4676
 5104SOL    HW215868   0.895   7.433   4.607 -0.2112 -2.0737  1.8468
 5105SOL     OW15869   7.029   5.375   1.699  0.0272  0.1566 -0.3438
 5105SOL    HW115870   7.032   5.365   1.604 -0.4414  3.2144 -0.7913
 5105SOL    HW215871   6.965   5.444   1.714  0.5568  0.2039  2.1665
 5106SOL     OW15872   7.371   6.452   6.804 -0.3721  0.4798  0.3655
 5106SOL    HW115873   7.386   6.375   6.859  0.7823  0.5133  0.1132
 5106SOL    HW215874   7.433   6.517   6.836  0.0940  0.6057 -0.7596
 5107SOL     OW15875   4.887   4.483   0.400 -0.3494  0.6807 -0.4480
 5107SOL    HW115876   4.802   4.439   0.410  0.5853 -1.5821 -1.7128
 5107SOL    HW215877   4.905   4.518   0.487 -1.8060 -0.2851  0.3015
 5108SOL     OW15878   0.629   2.663   5.299 -0.6429  0.5201  0.1521
 5108SOL    HW115879   0.655   2.579   5.338  0.7895 -0.4012 -2.5338
 5108SOL    HW215880   0.548   2.643   5.253  0.7142 -0.0117 -2.1507
 5109SOL     OW15881   0.282   0.414   4.732  0.2800 -0.4650 -0.0447
 5109SOL    HW115882   0.302   0.345   4.795  1.4466  1.3668  1.7080
 5109SOL    HW215883   0.187   0.427   4.740  0.5370  0.4207  2.1545
 5110SOL     OW15884   2.717   7.451   7.385 -0.0248 -0.1974 -0.1783
 5110SOL    HW115885   2.635   7.423   7.425  0.0780  0.6528  0.6498
 5110SOL    HW215886   2.717   7.546   7.394  0.6120 -0.1028 -1.0378
 5111SOL     OW15887   1.632   0.600   7.289 -0.5499  0.1935 -0.0463
 5111SOL    HW115888   1.724   0.619   7.307 -0.3299  0.3471 -1.2116
 5111SOL    HW215889   1.635   0.523   7.232 -1.0020  1.2984 -1.6572
 5112SOL     OW15890   7.336   5.371   1.324  0.4578 -0.0401 -0.3789
 5112SOL    HW115891   7.422   5.398   1.356  0.4404 -2.8720  2.6321
 5112SOL    HW215892   7.273   5.411   1.384 -0.2510  0.7233 -1.5913
 5113SOL     OW15893   1.277   1.074   3.460 -0.1734 -0.4163  0.5497
 5113SOL    HW115894   1.269   1.144   3.395 -0.3883  0.9414  1.9730
 5113SOL    HW215895   1.309   1.118   3.539 -0.4539 -1.9109  1.5457
 5114SOL     OW15896   1.127   6.624   1.152 -0.0863  0.4973  0.2978
 5114SOL    HW115897   1.200   6.662   1.200 -0.8304  0.7689  1.2551
 5114SOL    HW215898   1.158   6.619   1.061  0.9946  0.8893  0.6255
 5115SOL     OW15899   2.739   6.208   3.854 -0.1699  0.1511 -0.1152
 5115SOL    HW115900   2.675   6.261   3.806 -0.6797  0.3277  0.7562
 5115SOL    HW215901   2.689   6.168   3.925  0.3900 -0.8433 -0.2676
 5116SOL     OW15902   6.277   1.300   7.112 -0.2225 -0.5540  0.0611
 5116SOL    HW115903   6.317   1.222   7.150  0.4886  0.2857  1.0854
 5116SOL    HW215904   6.344   1.367   7.119 -0.6596  0.0542 -1.2276
 5117SOL     OW15905   7.425   6.780   2.122  0.4858 -0.0395 -0.0755
 5117SOL    HW115906   7.455   6.759   2.033 -0.0763 -0.8514 -0.0875
 5117SOL    HW215907   7.481   6.851   2.150  0.9016 -0.0028 -0.9595
 5118SOL     OW15908   4.960   5.938   4.359  0.2773 -0.2206  0.0505
 5118SOL    HW115909   4.883   5.885   4.339 -1.5290  1.6086  1.6899
 5118SOL    HW215910   5.012   5.884   4.419 -0.2283 -1.0874 -0.2787
 5119SOL     OW15911   4.332   7.559   2.555  0.4639  0.0921 -0.2081
 5119SOL    HW115912   4.327   7.637   2.499  0.0009 -0.7158 -1.3318
 5119SOL    HW215913   4.241   7.540   2.578  0.5585 -0.2161 -0.0797
 5120SOL     OW15914   4.343   6.919   7.536 -0.0358 -0.1329  0.1194
 5120SOL    HW115915   4.380   6.835   7.563  1.3017  0.0835 -0.9316
 5120SOL    HW215916   4.275   6.938   7.602  0.4875 -1.4219  1.0707
 5121SOL     OW15917   7.598   7.700   6.986 -0.6495  0.2791 -0.2025
 5121SOL    HW115918   7.626   7.667   6.901 -0.5880 -1.6020  0.4960
 5121SOL    HW215919   7.678   7.738   7.025 -0.4432  0.2317 -0.5766
 5122SOL     OW15920   5.467   0.257   1.051 -0.7246  0.4061 -0.0171
 5122SOL    HW115921   5.556   0.237   1.082 -1.3569  0.1482  1.7158
 5122SOL    HW215922   5.426   0.303   1.124 -2.0917  0.3553 -0.7298
 5123SOL     OW15923   4.794   0.920   1.245 -0.3200 -0.2177 -0.0261
 5123SOL    HW115924   4.887   0.929   1.266 -0.0539 -2.0586 -0.2392
 5123SOL    HW215925   4.759   0.867   1.317 -1.0687 -0.0110 -0.2388
 5124SOL     OW15926   2.636   6.252   0.954 -0.0373  0.1120 -0.1114
 5124SOL    HW115927   2.558   6.225   1.003  1.1079  1.2239  2.4811
 5124SOL    HW215928   2.610   6.334   0.911 -0.2484  0.6424  0.9927
 5125SOL     OW15929   2.034   7.687   7.397  0.4049  0.1495 -0.4965
 5125SOL    HW115930   2.029   7.722   7.308  0.9464  0.0725 -0.5624
 5125SOL    HW215931   1.982   7.606   7.395  0.5403  0.0695 -0.7809
 5126SOL     OW15932   6.686   1.071   6.726 -0.3339  0.2860 -0.8460
 5126SOL    HW115933   6.776   1.052   6.755 -0.4634 -0.6492 -1.0278
 5126SOL    HW215934   6.666   1.156   6.766 -0.0474 -0.3695  0.7728
 5127SOL     OW15935   7.705   4.987   0.203 -0.7337 -0.1403  0.3472
 5127SOL    HW115936   7.736   4.917   0.259  0.8993  0.6100  0.4461
 5127SOL    HW215937   7.764   4.986   0.128 -1.6814  0.1209 -0.4292
 5128SOL     OW15938   4.176   0.167   2.426 -0.2226 -0.7641  0.2663
 5128SOL    HW115939   4.106   0.230   2.408 -0.5340 -0.7286  1.5312
 5128SOL    HW215940   4.149   0.123   2.507  0.2648 -2.1284 -0.2823
 5129SOL     OW15941   1.768   5.847   4.192 -0.0810  0.8219  0.2022
 5129SOL    HW115942   1.833   5.776   4.192 -0.8421  0.1070 -0.5562
 5129SOL    HW215943   1.690   5.808   4.231 -1.1676  0.5822 -2.0705
 5130SOL     OW15944   2.965   4.256   1.146  0.4340 -0.1543  0.0918
 5130SOL    HW115945   2.900   4.280   1.080  0.8458  0.3554 -0.1347
 5130SOL    HW215946   2.939   4.169   1.175 -1.4323  0.7432  1.3308
 5131SOL     OW15947   2.789   6.028   4.943  0.1603 -0.6090  0.1354
 5131SOL    HW115948   2.710   6.075   4.969  1.0354  1.7066 -1.1183
 5131SOL    HW215949   2.773   6.000   4.853  0.8857  0.2132 -0.2634
 5132SOL     OW15950   4.746   2.150   6.308  0.2490  0.2130  0.3133
 5132SOL    HW115951   4.772   2.184   6.394  2.1854 -0.5731  0.0951
 5132SOL    HW215952   4.810   2.081   6.289 -1.0633 -0.6880 -1.0946
 5133SOL     OW15953   3.173   3.451   6.296  0.0474  0.3346  0.2765
 5133SOL    HW115954   3.212   3.462   6.382 -0.5620  0.4323  0.5464
 5133SOL    HW215955   3.182   3.536   6.254  0.9065  0.1190 -0.0047
 5134SOL     OW15956   4.999   5.681   1.541 -0.4428  0.2378 -0.6523
 5134SOL    HW115957   4.961   5.627   1.472  0.4689  0.4804 -1.3572
 5134SOL    HW215958   4.924   5.728   1.578 -1.1182 -0.8376 -0.6141
 5135SOL     OW15959   2.140   0.792   2.448 -0.2191  0.5395 -0.1674
 5135SOL    HW115960   2.185   0.870   2.480  0.7211  0.4299 -1.1576
 5135SOL    HW215961   2.091   0.822   2.372 -0.8261  0.4022  0.1636
 5136SOL     OW15962   0.758   1.970   5.595  0.3238 -0.0603 -0.0286
 5136SOL    HW115963   0.724   2.044   5.645  1.0427  1.5158 -1.7688
 5136SOL    HW215964   0.681   1.914   5.581 -0.4034  0.7324  0.6832
 5137SOL     OW15965   1.188   5.146   3.554 -0.0300 -0.2933 -0.1629
 5137SOL    HW115966   1.204   5.207   3.482  2.1086 -1.1655 -0.5290
 5137SOL    HW215967   1.253   5.076   3.541 -1.9338 -2.3344  0.6058
 5138SOL     OW15968   4.405   0.651   3.155  0.1745  0.4856 -0.3608
 5138SOL    HW115969   4.377   0.633   3.245 -0.9128 -1.8292 -1.0898
 5138SOL    HW215970   4.324   0.675   3.110  0.6936  1.4934 -0.7760
 5139SOL     OW15971   3.629   2.609   3.042  0.2005  0.0900 -0.4960
 5139SOL    HW115972   3.601   2.518   3.045  1.8142 -0.4623 -1.2888
 5139SOL    HW215973   3.552   2.659   3.072  0.0354 -1.6452  2.2887
 5140SOL     OW15974   5.214   5.230   7.349  0.9399 -0.2460  0.0449
 5140SOL    HW115975   5.232   5.136   7.356  0.7152 -0.4224 -1.3981
 5140SOL    HW215976   5.147   5.246   7.415  2.6423 -0.5874  1.9805
 5141SOL     OW15977   0.154   0.902   4.795  0.1213 -0.1340 -0.0091
 5141SOL    HW115978   0.169   0.997   4.787 -0.6809 -0.1223 -1.9992
 5141SOL    HW215979   0.240   0.866   4.817  0.8579  0.8892 -1.1134
 5142SOL     OW15980   6.828   4.133   7.574  0.7624  0.2225  0.2983
 5142SOL    HW115981   6.739   4.168   7.571  0.5388 -0.1037  2.0560
 5142SOL    HW215982   6.858   4.151   7.664  1.8729 -1.0866  0.2229
 5143SOL     OW15983   3.487   6.992   4.739  0.3147 -0.1730 -0.2080
 5143SOL    HW115984   3.496   6.905   4.777 -0.2362 -1.3425 -2.5987
 5143SOL    HW215985   3.550   6.993   4.666 -0.2540  1.1319 -0.7153
 5144SOL     OW15986   2.003   7.114   0.769 -0.0973  0.0805 -0.4247
 5144SOL    HW115987   1.919   7.114   0.723 -0.4424  1.2776  0.1588
 5144SOL    HW215988   2.013   7.024   0.800 -0.8709 -0.2217 -1.0232
 5145SOL     OW15989   4.546   7.745   0.893 -0.0642  0.0118  0.1590
 5145SOL    HW115990   4.554   7.650   0.892  0.5717  0.0528 -1.4622
 5145SOL    HW215991   4.562   7.772   0.803 -1.1559  1.5990  0.3908
 5146SOL     OW15992   0.180   7.450   4.595  0.2378  0.2965 -0.2396
 5146SOL    HW115993   0.190   7.357   4.618  0.6485  0.3012 -0.3832
 5146SOL    HW215994   0.261   7.471   4.548 -0.0749  0.5959 -0.6467
 5147SOL     OW15995   1.303   2.469   6.834 -0.0603  0.1656 -0.1800
 5147SOL    HW115996   1.364   2.524   6.786  3.0400 -2.2968  0.5914
 5147SOL    HW215997   1.244   2.435   6.767  0.6815  1.0571 -1.3327
 5148SOL     OW15998   2.012   4.391   4.852  0.3090 -0.7917 -0.5086
 5148SOL    HW115999   1.925   4.379   4.889 -0.6072 -0.3923 -2.4041
 5148SOL    HW216000   2.019   4.486   4.840  0.0135 -0.9828 -2.5119
 5149SOL     OW16001   5.098   5.131   0.998  0.0466  1.1534  0.0713
 5149SOL    HW116002   5.099   5.201   1.064 -1.5479  0.9473  0.3555
 5149SOL    HW216003   5.011   5.092   1.006  0.6228 -0.3500 -0.6307
 5150SOL     OW16004   6.257   6.429   4.804  0.5268  0.2237 -0.3378
 5150SOL    HW116005   6.202   6.380   4.864  0.9386  0.1383 -0.0223
 5150SOL    HW216006   6.199   6.495   4.766 -0.1125 -0.7045 -1.0196
 5151SOL     OW16007   2.989   0.024   1.554  0.2437  0.0776 -0.0798
 5151SOL    HW116008   3.034   0.008   1.471 -1.0463  1.6034 -1.1453
 5151SOL    HW216009   2.997   0.118   1.568 -1.2563  0.1558  0.4802
 5152SOL     OW16010   1.010   5.041   3.769  0.4229 -0.1277 -0.2171
 5152SOL    HW116011   0.988   5.125   3.730 -0.0532  0.8933  2.1044
 5152SOL    HW216012   1.002   4.978   3.697 -1.9708  1.3970 -1.3832
 5153SOL     OW16013   6.941   7.058   6.760 -0.2563  0.3810 -0.1947
 5153SOL    HW116014   6.850   7.072   6.789  0.0727  1.2510  0.4723
 5153SOL    HW216015   6.986   7.139   6.784  1.4694 -1.2092  2.5658
 5154SOL     OW16016   6.721   5.121   5.534 -0.4874  0.3444  0.0800
 5154SOL    HW116017   6.669   5.197   5.558 -0.1136  0.7821 -0.4774
 5154SOL    HW216018   6.731   5.127   5.439  2.7725  1.7555  0.3690
 5155SOL     OW16019   2.085   0.928   1.908 -0.0427  0.9968 -0.1081
 5155SOL    HW116020   2.106   0.853   1.853  0.1151  0.5046  0.6030
 5155SOL    HW216021   2.153   0.993   1.888  1.7767 -0.2780  1.5996
 5156SOL     OW16022   1.122   2.359   7.281 -0.1113 -0.6177  0.3279
 5156SOL    HW116023   1.184   2.292   7.308 -0.0186 -0.8221 -0.3598
 5156SOL    HW216024   1.170   2.410   7.216 -0.3358 -0.1653  0.5140
 5157SOL     OW16025   5.856   4.615   6.027  0.5105  0.1486  0.0455
 5157SOL    HW116026   5.922   4.684   6.034 -0.1209  0.7951 -0.2842
 5157SOL    HW216027   5.809   4.618   6.110  0.7932 -0.2120  0.2211
 5158SOL     OW16028   7.578   4.704   4.273  0.1480 -0.6101 -0.2949
 5158SOL    HW116029   7.565   4.783   4.221  0.1633 -0.0662  0.5142
 5158SOL    HW216030   7.669   4.680   4.258 -0.0799 -0.9516 -1.1873
 5159SOL     OW16031   5.975   1.429   3.330 -0.7396  0.2414  0.1203
 5159SOL    HW116032   5.896   1.376   3.324 -0.4010 -0.1063 -1.9382
 5159SOL    HW216033   6.019   1.416   3.246  0.4737  2.0468  0.4251
 5160SOL     OW16034   5.307   4.437   0.173  0.0894  0.6132  0.0700
 5160SOL    HW116035   5.247   4.444   0.247 -1.7864  0.2572 -1.3297
 5160SOL    HW216036   5.267   4.372   0.115  2.7940 -1.0302 -0.1301
 5161SOL     OW16037   5.726   5.589   3.908 -0.5076  0.8845 -0.3801
 5161SOL    HW116038   5.764   5.647   3.973 -0.6670  1.5179 -0.8385
 5161SOL    HW216039   5.648   5.553   3.951 -1.6541  2.7127 -0.8196
 5162SOL     OW16040   5.507   0.700   4.070 -0.3328  0.4125 -0.1279
 5162SOL    HW116041   5.519   0.773   4.130 -1.8542  0.0401  0.6965
 5162SOL    HW216042   5.516   0.622   4.125  0.5415 -0.0113 -0.8502
 5163SOL     OW16043   0.364   2.392   7.049 -0.5115  0.1277  0.5057
 5163SOL    HW116044   0.384   2.300   7.069 -0.2220 -0.0257 -0.4782
 5163SOL    HW216045   0.270   2.400   7.067 -0.5046 -0.3070  0.7650
 5164SOL     OW16046   4.421   7.473   1.648  0.4709  0.2429  0.8312
 5164SOL    HW116047   4.402   7.439   1.560  0.9475 -0.8233  1.1284
 5164SOL    HW216048   4.459   7.559   1.632  1.1483 -0.1988 -0.0526
 5165SOL     OW16049   6.678   1.868   6.227  0.4836 -0.6106 -0.3942
 5165SOL    HW116050   6.761   1.835   6.262  0.5486  0.1588  0.2231
 5165SOL    HW216051   6.627   1.892   6.305  0.6613  1.2425 -0.7986
 5166SOL     OW16052   1.298   4.717   1.569 -0.9379  0.0789  0.4445
 5166SOL    HW116053   1.321   4.664   1.493 -0.4813 -0.5610  1.0133
 5166SOL    HW216054   1.332   4.668   1.644 -0.4800  1.1946  0.9874
 5167SOL     OW16055   5.595   0.181   6.353 -0.3165 -0.0536  0.7130
 5167SOL    HW116056   5.605   0.146   6.442 -2.7059  2.1925  2.0023
 5167SOL    HW216057   5.508   0.153   6.326  0.3360 -0.5989 -0.9213
 5168SOL     OW16058   2.891   7.405   2.729 -0.1651 -0.1408  0.1709
 5168SOL    HW116059   2.919   7.323   2.769 -0.2098 -0.4502 -0.4372
 5168SOL    HW216060   2.803   7.420   2.764 -0.0541 -0.2172  0.4836
 5169SOL     OW16061   7.563   3.604   6.154  0.2232 -0.2948  0.5231
 5169SOL    HW116062   7.639   3.651   6.190 -0.0227  0.5162  0.0151
 5169SOL    HW216063   7.495   3.614   6.221  0.3964 -0.5481  0.7369
 5170SOL     OW16064   0.594   7.652   4.585 -0.5261 -0.3359  0.9641
 5170SOL    HW116065   0.561   7.573   4.629  0.2574 -0.3118  1.6206
 5170SOL    HW216066   0.627   7.706   4.656 -0.5204  0.3302  0.4595
 5171SOL     OW16067   4.333   4.517   5.709 -0.5350  0.0659 -0.1673
 5171SOL    HW116068   4.317   4.601   5.752 -1.4584 -0.3885  0.4091
 5171SOL    HW216069   4.246   4.477   5.702  0.1268 -1.8206  1.6118
 5172SOL     OW16070   2.702   4.949   3.087 -0.1301  0.1183  0.2531
 5172SOL    HW116071   2.748   4.873   3.122 -0.2768 -0.1900 -0.2090
 5172SOL    HW216072   2.721   5.019   3.149  0.8205 -0.0439  0.1632
 5173SOL     OW16073   4.146   5.578   0.158 -0.3126  0.0737 -0.1022
 5173SOL    HW116074   4.192   5.496   0.176  0.3979  0.2022 -1.2748
 5173SOL    HW216075   4.210   5.646   0.176 -0.3740  0.3018 -0.7389
 5174SOL     OW16076   7.711   0.994   7.490 -0.4383  0.1170 -0.0478
 5174SOL    HW116077   7.731   0.945   7.570 -0.9531 -0.8205 -0.4666
 5174SOL    HW216078   7.719   0.929   7.420 -2.4564  0.2605 -0.4864
 5175SOL     OW16079   5.029   4.308   2.583 -0.2429  0.2922 -0.4542
 5175SOL    HW116080   4.941   4.281   2.609 -0.5621  1.1276 -0.6187
 5175SOL    HW216081   5.086   4.237   2.612 -0.9927 -0.3436 -0.5125
 5176SOL     OW16082   3.884   1.275   6.807 -0.0315  0.2997 -0.8656
 5176SOL    HW116083   3.860   1.328   6.883 -0.3262 -0.6657 -0.2690
 5176SOL    HW216084   3.800   1.254   6.765 -0.0710 -1.0484 -0.1594
 5177SOL     OW16085   4.034   4.263   5.381 -0.2005 -0.2277 -0.9190
 5177SOL    HW116086   3.954   4.211   5.371 -1.1167  0.7548  0.8424
 5177SOL    HW216087   4.005   4.354   5.375  0.3236  0.2379  2.0200
 5178SOL     OW16088   7.639   7.056   2.459 -0.2309  0.6953  0.2381
 5178SOL    HW116089   7.713   7.090   2.407 -1.1914  0.9584 -0.9924
 5178SOL    HW216090   7.589   7.134   2.483 -1.7120  0.3189 -1.4531
 5179SOL     OW16091   2.503   5.183   2.248  0.0059  0.1078 -0.0492
 5179SOL    HW116092   2.585   5.183   2.297  0.3880  0.0870 -0.6678
 5179SOL    HW216093   2.462   5.267   2.271  1.6386  1.5599 -2.0096
 5180SOL     OW16094   0.590   0.352   4.861 -0.0634 -0.0164 -0.3968
 5180SOL    HW116095   0.565   0.319   4.774  3.0366 -1.3335 -0.9387
 5180SOL    HW216096   0.555   0.287   4.922 -0.4163 -0.2524 -0.8404
 5181SOL     OW16097   6.490   0.158   5.686  0.5291 -0.5321 -0.1793
 5181SOL    HW116098   6.521   0.174   5.597 -0.6705  1.6351 -0.2698
 5181SOL    HW216099   6.519   0.234   5.736 -1.9759  0.1448  0.3839
 5182SOL     OW16100   4.994   3.766   0.370  0.2145 -0.6968 -0.2272
 5182SOL    HW116101   5.070   3.795   0.420 -1.0862  0.3148  1.2505
 5182SOL    HW216102   5.005   3.806   0.283  1.8878 -1.4802 -0.4071
 5183SOL     OW16103   4.453   7.735   3.432  0.3751 -0.3629 -0.0941
 5183SOL    HW116104   4.491   7.818   3.462 -0.7979 -0.2335  1.1489
 5183SOL    HW216105   4.516   7.701   3.369  0.9551  1.4006 -0.5237
 5184SOL     OW16106   3.721   5.941   3.232  0.2270 -0.7296  0.4545
 5184SOL    HW116107   3.791   5.878   3.217  0.6194 -0.2174  0.1167
 5184SOL    HW216108   3.764   6.015   3.275 -0.3181 -0.8827  1.2783
 5185SOL     OW16109   0.297   4.279   5.467 -0.1397 -0.0123  0.5227
 5185SOL    HW116110   0.267   4.252   5.554  0.9296 -0.8242  0.6610
 5185SOL    HW216111   0.219   4.312   5.424 -0.5791  0.9674  2.0000
 5186SOL     OW16112   6.554   1.648   6.541  0.0299 -0.0921 -0.1400
 5186SOL    HW116113   6.555   1.556   6.569  1.6788  0.0401  0.3206
 5186SOL    HW216114   6.645   1.668   6.521 -0.2438  1.5601  0.1252
 5187SOL     OW16115   7.017   0.327   6.254  0.2856 -0.4370 -0.3765
 5187SOL    HW116116   6.998   0.354   6.344 -0.4855  2.3265 -1.2618
 5187SOL    HW216117   6.932   0.330   6.210  0.6917 -1.4892 -1.2909
 5188SOL     OW16118   5.571   0.372   0.300 -0.1733  0.1290 -0.2071
 5188SOL    HW116119   5.512   0.345   0.371  0.0893 -0.1969 -0.1081
 5188SOL    HW216120   5.652   0.323   0.317  0.1339  0.5929 -0.3277
 5189SOL     OW16121   2.521   0.641   1.807  0.5856  0.0358  0.3567
 5189SOL    HW116122   2.581   0.585   1.856  0.7104  0.7555  1.0418
 5189SOL    HW216123   2.513   0.720   1.860 -0.3794  0.2590 -0.0961
 5190SOL     OW16124   2.759   1.046   0.906 -0.5913  0.0645 -0.8174
 5190SOL    HW116125   2.842   1.008   0.880 -1.6158 -1.2461 -2.3943
 5190SOL    HW216126   2.782   1.123   0.958  1.5743 -1.4627  0.6285
 5191SOL     OW16127   0.413   1.436   6.887  0.3618 -0.6377 -0.5538
 5191SOL    HW116128   0.462   1.489   6.949  2.2872 -3.4932  0.5904
 5191SOL    HW216129   0.381   1.498   6.822  1.1493  2.0414  1.4385
 5192SOL     OW16130   4.536   7.392   2.428  0.2764 -0.8057 -0.4765
 5192SOL    HW116131   4.580   7.456   2.373  0.6022 -0.6227 -0.0036
 5192SOL    HW216132   4.456   7.436   2.458  1.5207  0.1884  1.5791
 5193SOL     OW16133   5.954   1.924   4.384  0.9260  0.4082 -0.3003
 5193SOL    HW116134   5.864   1.925   4.351  0.8795  1.2437 -0.1600
 5193SOL    HW216135   5.998   1.858   4.329  0.9162  1.9428 -2.2798
 5194SOL     OW16136   1.574   6.604   2.922 -0.3863  0.2958  0.6667
 5194SOL    HW116137   1.577   6.585   2.828 -1.9024  1.0270  0.4371
 5194SOL    HW216138   1.535   6.526   2.961  1.2069 -0.4401  0.8536
 5195SOL     OW16139   3.372   1.543   6.945  0.0793  0.2193 -0.4273
 5195SOL    HW116140   3.301   1.483   6.920  0.8627 -0.6118 -0.7090
 5195SOL    HW216141   3.445   1.486   6.968  0.3167  1.0425  0.9795
 5196SOL     OW16142   6.469   6.413   7.650 -0.0410  0.0717  0.1215
 5196SOL    HW116143   6.444   6.479   7.714  1.5454  0.0310  0.8169
 5196SOL    HW216144   6.385   6.383   7.613 -0.8893  1.1302  1.1111
 5197SOL     OW16145   1.910   4.291   0.246  0.3472  0.2334 -0.2674
 5197SOL    HW116146   1.941   4.244   0.323 -1.2980 -1.3502 -0.4796
 5197SOL    HW216147   1.935   4.382   0.261  0.0925 -0.0225  2.1344
 5198SOL     OW16148   0.869   3.717   1.646 -0.7394  0.4806  0.0601
 5198SOL    HW116149   0.924   3.638   1.641 -2.8276 -1.0430 -0.3688
 5198SOL    HW216150   0.830   3.725   1.559 -0.0989  2.4023 -0.0939
 5199SOL     OW16151   1.567   3.971   6.222 -0.3154  0.2596 -0.2408
 5199SOL    HW116152   1.619   4.049   6.201 -0.7349  0.2353 -1.4532
 5199SOL    HW216153   1.504   4.001   6.288  0.1611  0.6941  0.0213
 5200SOL     OW16154   1.225   0.489   0.541 -0.4945  0.6491 -0.0710
 5200SOL    HW116155   1.200   0.580   0.524  0.1365  0.8827  0.2202
 5200SOL    HW216156   1.257   0.489   0.631 -2.0451 -0.2026  0.5155
 5201SOL     OW16157   6.408   6.428   5.501 -0.2068 -0.1121  0.2871
 5201SOL    HW116158   6.329   6.426   5.555 -0.3709  0.8391  0.0948
 5201SOL    HW216159   6.464   6.360   5.539 -1.0785 -0.7518  0.4698
 5202SOL     OW16160   3.015   0.426   2.465 -0.4534  0.6180 -0.0321
 5202SOL    HW116161   3.008   0.342   2.509 -0.1286 -0.0513 -1.2134
 5202SOL    HW216162   3.006   0.491   2.535  1.0346 -0.4060  1.1784
 5203SOL     OW16163   2.752   2.648   7.595 -0.4650  0.3241  0.3588
 5203SOL    HW116164   2.808   2.703   7.540  0.4586  0.6478  1.5952
 5203SOL    HW216165   2.682   2.707   7.624 -1.4914 -0.0727 -1.1575
 5204SOL     OW16166   1.131   1.317   3.053 -0.2592  0.2448  0.2098
 5204SOL    HW116167   1.116   1.398   3.005 -0.3126  0.0350 -0.1303
 5204SOL    HW216168   1.088   1.330   3.138  1.2885  1.2825  0.8812
 5205SOL     OW16169   5.826   4.067   0.025  0.4282 -0.5647  0.1149
 5205SOL    HW116170   5.807   4.109  -0.058 -0.9321  1.1082  1.2169
 5205SOL    HW216171   5.775   3.986   0.023 -0.8488  0.2227 -0.0591
 5206SOL     OW16172   5.902   6.448   4.626 -0.1021  0.6457  0.4467
 5206SOL    HW116173   5.876   6.370   4.675  2.2289  0.7927  2.0614
 5206SOL    HW216174   5.950   6.415   4.551  2.2225  0.4441  1.9309
 5207SOL     OW16175   0.739   2.938   0.913 -0.7791 -0.3679  0.6134
 5207SOL    HW116176   0.698   2.856   0.943  2.0292 -1.0185  3.1895
 5207SOL    HW216177   0.814   2.909   0.862 -0.8258  0.6732 -0.0608
 5208SOL     OW16178   5.411   7.666   3.644  0.1067 -0.3810 -0.1249
 5208SOL    HW116179   5.333   7.654   3.590  1.4859  1.0650 -2.6539
 5208SOL    HW216180   5.440   7.755   3.624  1.2161 -0.0854  2.4318
 5209SOL     OW16181   2.025   6.610   5.713 -0.1954 -0.2414 -1.0234
 5209SOL    HW116182   1.990   6.521   5.706  1.6213 -1.0410 -0.5392
 5209SOL    HW216183   1.952   6.662   5.746 -1.7832 -1.1976 -2.8205
 5210SOL     OW16184   3.641   4.696   1.243  0.3549  0.3578  0.2706
 5210SOL    HW116185   3.676   4.676   1.330 -1.2527 -0.3880  0.7761
 5210SOL    HW216186   3.596   4.616   1.216 -0.0585  0.9311 -0.8015
 5211SOL     OW16187   0.062   5.316   6.042 -0.1387 -0.2620 -0.0865
 5211SOL    HW116188   0.099   5.254   6.105 -2.4240  0.2752  1.9603
 5211SOL    HW216189  -0.018   5.273   6.010 -0.3938  0.5693 -0.6042
 5212SOL     OW16190   0.998   0.400   1.579  0.0176 -0.3196  0.0354
 5212SOL    HW116191   1.071   0.352   1.619 -1.1811 -0.6120  1.9801
 5212SOL    HW216192   0.982   0.353   1.497 -1.0646 -3.3330  1.8205
 5213SOL     OW16193   5.307   4.978   4.422  0.0702 -0.1466  0.0183
 5213SOL    HW116194   5.369   4.967   4.350 -1.1928 -0.3910 -1.0585
 5213SOL    HW216195   5.352   5.036   4.483  0.7280  1.0697 -1.5345
 5214SOL     OW16196   0.380   4.841   0.286 -0.1128 -0.2111 -0.1335
 5214SOL    HW116197   0.379   4.936   0.278 -1.4704 -0.3018 -1.4559
 5214SOL    HW216198   0.416   4.825   0.374  1.6738  1.4334 -0.4989
 5215SOL     OW16199   4.072   0.553   7.018  0.0203  0.5928 -0.4985
 5215SOL    HW116200   4.118   0.614   7.075  1.2736  0.9896 -1.8956
 5215SOL    HW216201   4.056   0.476   7.074  1.6162  0.7753  0.2634
 5216SOL     OW16202   2.736   0.460   0.331  0.2945  0.6720 -0.0859
 5216SOL    HW116203   2.800   0.389   0.340 -0.4955 -0.0137  0.2653
 5216SOL    HW216204   2.735   0.503   0.416 -1.9873 -1.3238  0.9944
 5217SOL     OW16205   4.464   7.401   0.513 -0.3492  0.0004 -0.4325
 5217SOL    HW116206   4.417   7.398   0.430  0.7185 -1.5425 -1.0395
 5217SOL    HW216207   4.547   7.444   0.493 -0.0098 -0.5391 -0.2293
 5218SOL     OW16208   7.024   2.913   4.446  0.2702 -0.2732 -0.4551
 5218SOL    HW116209   7.110   2.889   4.481  0.6875  0.2216 -1.1113
 5218SOL    HW216210   6.976   2.830   4.443  0.6802 -0.5334  0.0450
 5219SOL     OW16211   4.173   3.431   4.003  0.1573 -0.0431  0.2260
 5219SOL    HW116212   4.080   3.409   4.002  0.0279  0.4984  0.3067
 5219SOL    HW216213   4.217   3.347   4.020 -0.3873 -0.0823  1.5630
 5220SOL     OW16214   5.198   5.165   6.293 -0.1943 -0.2679 -0.1222
 5220SOL    HW116215   5.290   5.140   6.279  0.3626  1.8445 -0.5771
 5220SOL    HW216216   5.150   5.083   6.282  1.5997 -1.3886 -0.1454
 5221SOL     OW16217   6.336   0.113   3.084 -0.4941 -0.4892 -0.5314
 5221SOL    HW116218   6.315   0.202   3.055 -1.1609 -0.3141  0.4372
 5221SOL    HW216219   6.317   0.058   3.008  0.6592  0.2639 -1.3965
 5222SOL     OW16220   1.156   1.019   7.407 -0.4924  0.2722  0.3522
 5222SOL    HW116221   1.213   1.065   7.345  1.1095 -0.5007  1.1887
 5222SOL    HW216222   1.067   1.047   7.384  0.0239 -0.0784 -2.3503
 5223SOL     OW16223   4.972   2.705   4.716  0.7909 -0.1491  1.1222
 5223SOL    HW116224   4.998   2.797   4.721 -0.4289  0.3917 -1.2332
 5223SOL    HW216225   4.878   2.705   4.737  0.6449 -0.7554  0.5144
 5224SOL     OW16226   1.841   5.853   7.575 -0.6942 -0.5311  0.1945
 5224SOL    HW116227   1.769   5.794   7.553 -0.1962 -1.0652 -0.0034
 5224SOL    HW216228   1.897   5.803   7.634 -0.9584  0.1984  1.0972
 5225SOL     OW16229   0.345   2.979   7.568 -0.7614 -0.2528  0.1614
 5225SOL    HW116230   0.329   3.057   7.621 -0.6352 -0.7422  0.9479
 5225SOL    HW216231   0.440   2.968   7.570 -0.7640 -0.3143 -0.1020
 5226SOL     OW16232   4.761   0.695   0.277  1.0407 -0.0879  0.2875
 5226SOL    HW116233   4.808   0.635   0.335 -0.8500 -1.1092  0.8170
 5226SOL    HW216234   4.720   0.758   0.336  1.4221  0.5971 -0.1551
 5227SOL     OW16235   4.640   7.173   5.938  0.2487  0.2306 -0.3440
 5227SOL    HW116236   4.699   7.099   5.954 -0.8301 -0.4204  0.7702
 5227SOL    HW216237   4.668   7.240   6.001  1.8558  1.2204 -1.9941
 5228SOL     OW16238   2.944   3.934   7.260  0.0797  0.5922 -0.2859
 5228SOL    HW116239   2.913   3.934   7.351  0.4431 -0.0222 -0.1621
 5228SOL    HW216240   2.900   3.859   7.220 -0.6562  1.2893 -0.8224
 5229SOL     OW16241   2.972   6.746   6.477  0.4142 -0.0344 -0.2391
 5229SOL    HW116242   2.949   6.817   6.538  0.0480  0.4223 -0.8938
 5229SOL    HW216243   2.941   6.777   6.392 -0.9303 -1.5353 -0.3401
 5230SOL     OW16244   0.765   4.917   1.804 -0.0753  0.0348  0.5354
 5230SOL    HW116245   0.847   4.926   1.852 -0.2528 -0.5783  0.9647
 5230SOL    HW216246   0.784   4.852   1.736  0.0630  0.6084  0.0151
 5231SOL     OW16247   4.664   5.347   5.285  0.0631 -0.4937  0.0748
 5231SOL    HW116248   4.614   5.305   5.216 -1.2029  0.4781  0.3627
 5231SOL    HW216249   4.598   5.375   5.349  1.0288  0.2674  0.7695
 5232SOL     OW16250   3.180   5.385   7.392 -0.3636  0.5299 -0.1533
 5232SOL    HW116251   3.140   5.450   7.449 -1.5099  0.6821 -1.0858
 5232SOL    HW216252   3.263   5.424   7.364  0.6024  0.1260  1.9752
 5233SOL     OW16253   7.177   6.434   0.166  0.0115  0.9145 -0.8516
 5233SOL    HW116254   7.199   6.354   0.118 -1.4703  1.1505 -1.9926
 5233SOL    HW216255   7.249   6.446   0.227 -0.8684 -2.6943  1.1771
 5234SOL     OW16256   6.737   1.315   6.852  0.2001  0.0286 -0.1462
 5234SOL    HW116257   6.685   1.307   6.932  0.1044 -0.3456 -0.2464
 5234SOL    HW216258   6.827   1.323   6.882  0.2487 -0.9231 -0.0295
 5235SOL     OW16259   0.589   5.618   6.980 -0.1421 -0.2408 -0.1831
 5235SOL    HW116260   0.643   5.686   6.939  0.3208 -1.2402 -1.2870
 5235SOL    HW216261   0.618   5.615   7.071  0.9013 -0.0180 -0.5037
 5236SOL     OW16262   6.148   1.152   1.870  0.4969 -0.0524  0.2717
 5236SOL    HW116263   6.158   1.246   1.853  0.9746 -0.1160  0.1842
 5236SOL    HW216264   6.237   1.117   1.863  0.1207 -0.7993 -1.4748
 5237SOL     OW16265   4.276   7.230   5.388 -0.0157  0.2071 -0.1660
 5237SOL    HW116266   4.273   7.273   5.302  3.3562  1.4336  0.1460
 5237SOL    HW216267   4.310   7.142   5.369 -2.8526 -0.9444 -0.3603
 5238SOL     OW16268   2.179   6.408   1.951 -0.2063 -0.2953 -0.1152
 5238SOL    HW116269   2.248   6.406   2.017 -1.3208  1.1561  1.1775
 5238SOL    HW216270   2.211   6.468   1.884  0.1023 -0.2390  0.0808
 5239SOL     OW16271   0.264   1.089   5.696  0.0670 -0.1130  0.6832
 5239SOL    HW116272   0.270   1.010   5.750  1.2550  0.7183  1.8173
 5239SOL    HW216273   0.205   1.064   5.625  1.7735 -2.6331 -0.0176
 5240SOL     OW16274   2.853   4.857   1.180 -0.4257  0.3104 -0.1559
 5240SOL    HW116275   2.813   4.804   1.249  0.7062  0.6486  0.8040
 5240SOL    HW216276   2.925   4.802   1.147 -0.0356  0.7311 -0.0221
 5241SOL     OW16277   3.421   2.475   4.394  0.5491 -0.1254  0.4078
 5241SOL    HW116278   3.356   2.523   4.341  0.1455 -0.2986  0.7430
 5241SOL    HW216279   3.466   2.543   4.443  0.7777  0.0185  0.0070
 5242SOL     OW16280   0.913   1.623   6.231 -0.7609  0.1312 -0.6075
 5242SOL    HW116281   0.884   1.561   6.164  1.2193 -1.7852  0.1581
 5242SOL    HW216282   0.966   1.687   6.184  0.9701 -1.4422 -0.9467
 5243SOL     OW16283   3.324   4.885   0.934  0.4342  0.5162  0.3828
 5243SOL    HW116284   3.398   4.853   0.882 -1.3937 -1.1120 -1.3850
 5243SOL    HW216285   3.263   4.919   0.870 -0.6191  1.2772  1.7567
 5244SOL     OW16286   3.862   3.681   5.238 -0.0546 -0.1158  0.6629
 5244SOL    HW116287   3.865   3.700   5.144  2.3264  2.9198  1.1929
 5244SOL    HW216288   3.786   3.730   5.270 -1.7278 -2.2597  0.2706
 5245SOL     OW16289   6.608   7.416   6.697 -0.1595 -0.1122  0.8905
 5245SOL    HW116290   6.698   7.450   6.705  0.6199 -1.7968 -0.1711
 5245SOL    HW216291   6.558   7.467   6.761  1.5925  0.7161  1.6832
 5246SOL     OW16292   0.242   4.227   1.684 -0.5039 -0.1923 -0.3428
 5246SOL    HW116293   0.298   4.156   1.716  1.0617  1.6287  1.2033
 5246SOL    HW216294   0.262   4.232   1.590  0.9039 -0.5176 -0.0879
 5247SOL     OW16295   6.895   2.391   1.579  0.4491  0.4687 -0.4007
 5247SOL    HW116296   6.937   2.376   1.495  1.9756  0.3673  0.3476
 5247SOL    HW216297   6.922   2.479   1.604  0.0312  0.4865  0.0041
 5248SOL     OW16298   5.952   0.113   2.572 -0.1582  0.6396  0.3603
 5248SOL    HW116299   5.905   0.068   2.502 -0.2843 -1.0404  1.4893
 5248SOL    HW216300   5.967   0.046   2.638  3.5985  1.1402  0.2047
 5249SOL     OW16301   0.633   0.451   4.178  0.6798 -0.0576  0.0673
 5249SOL    HW116302   0.703   0.385   4.180 -0.1640 -1.0023 -0.8943
 5249SOL    HW216303   0.591   0.443   4.264 -0.0645 -1.4933 -0.4204
 5250SOL     OW16304   5.885   1.706   6.621 -0.0627  0.5270  0.0963
 5250SOL    HW116305   5.980   1.716   6.632  0.4108 -1.3317 -1.6814
 5250SOL    HW216306   5.847   1.751   6.696  2.1747  2.3581  0.2425
 5251SOL     OW16307   0.784   0.164   3.657  0.0095  0.2521  0.0081
 5251SOL    HW116308   0.824   0.247   3.682  1.8331 -0.5321 -0.1720
 5251SOL    HW216309   0.735   0.136   3.734 -1.2016  1.7808 -0.1496
 5252SOL     OW16310   5.388   5.733   0.910 -0.7085 -0.1938  0.1798
 5252SOL    HW116311   5.477   5.697   0.909 -0.8308 -0.5010  0.2796
 5252SOL    HW216312   5.332   5.658   0.890 -0.7652  0.5494 -3.1406
 5253SOL     OW16313   7.604   0.693   7.286 -0.2302  0.2089 -0.2971
 5253SOL    HW116314   7.559   0.770   7.322  0.8560  0.0219  1.6120
 5253SOL    HW216315   7.541   0.622   7.295 -0.8152  0.6216 -0.9840
 5254SOL     OW16316   7.588   5.398   1.447  0.0296 -0.3102  0.6726
 5254SOL    HW116317   7.629   5.481   1.424 -1.2648 -0.0632 -0.9515
 5254SOL    HW216318   7.645   5.332   1.409 -1.0769  0.0368 -1.8136
 5255SOL     OW16319   6.976   4.531   7.169  0.2488  0.2888 -0.2858
 5255SOL    HW116320   7.059   4.577   7.155  0.8207 -0.9945 -1.3915
 5255SOL    HW216321   6.999   4.438   7.163 -1.4176 -0.0869 -1.6112
 5256SOL     OW16322   4.951   7.720   3.551 -0.4265 -0.0621 -0.1604
 5256SOL    HW116323   4.946   7.783   3.479  0.4783  0.5023  0.2679
 5256SOL    HW216324   4.883   7.655   3.529 -0.7903  0.5858 -1.0427
 5257SOL     OW16325   4.529   2.330   7.525 -0.2449  0.1594  0.0509
 5257SOL    HW116326   4.467   2.259   7.541 -0.2264 -0.1080 -0.9930
 5257SOL    HW216327   4.517   2.389   7.599 -1.3756 -0.1467  0.1325
 5258SOL     OW16328   0.581   0.116   5.011  0.9015 -0.6635 -0.4704
 5258SOL    HW116329   0.600   0.179   5.080 -1.6606  1.3010 -1.3997
 5258SOL    HW216330   0.578   0.031   5.057  2.1497  0.1568  1.2407
 5259SOL     OW16331   1.739   3.066   5.790 -0.1695  0.2751 -0.3072
 5259SOL    HW116332   1.662   3.013   5.772 -0.5803  1.0627 -0.9132
 5259SOL    HW216333   1.708   3.157   5.785  0.5511  0.5873  0.5512
 5260SOL     OW16334   1.652   4.412   0.415 -0.8361  0.1163  0.1224
 5260SOL    HW116335   1.632   4.441   0.326  1.5698 -1.8776 -1.1949
 5260SOL    HW216336   1.704   4.483   0.454  1.3760 -0.5136 -1.5120
 5261SOL     OW16337   1.225   7.083   0.532  0.2682  0.4411  0.2953
 5261SOL    HW116338   1.215   7.172   0.567  0.2971  0.6928 -0.3063
 5261SOL    HW216339   1.183   7.088   0.446 -1.8256 -0.7444  1.1855
 5262SOL     OW16340   0.706   0.059   5.981 -0.0480  0.4602 -0.6765
 5262SOL    HW116341   0.800   0.052   5.999 -0.4478 -1.4423  1.1629
 5262SOL    HW216342   0.678   0.135   6.031  0.2722  0.0695  0.1189
 5263SOL     OW16343   6.862   5.826   6.580  0.1944  0.2140 -0.0072
 5263SOL    HW116344   6.936   5.886   6.588  1.8006 -1.6162 -0.2382
 5263SOL    HW216345   6.880   5.757   6.645 -0.1647 -1.3415 -1.4764
 5264SOL     OW16346   0.980   6.998   1.833  0.5409 -0.7272 -0.5212
 5264SOL    HW116347   0.989   7.093   1.842  0.6364 -0.8746  1.3957
 5264SOL    HW216348   1.020   6.978   1.749  0.9386  0.8742 -0.7512
 5265SOL     OW16349   4.485   0.086   0.625  0.8322 -0.2646  0.0816
 5265SOL    HW116350   4.441   0.141   0.691  0.9768 -1.2681  1.0400
 5265SOL    HW216351   4.418   0.071   0.558  0.1665 -0.5748  0.8086
 5266SOL     OW16352   5.081   1.492   0.067 -0.1710  0.1783 -0.6822
 5266SOL    HW116353   5.095   1.584   0.090  2.2265 -0.2005 -0.3182
 5266SOL    HW216354   5.008   1.464   0.122 -0.9753  1.8665 -0.8544
 5267SOL     OW16355   3.543   5.531   0.662  0.2776  0.3377 -0.0045
 5267SOL    HW116356   3.621   5.517   0.715 -0.1920 -1.3882  0.3208
 5267SOL    HW216357   3.470   5.507   0.720 -0.4419  1.0253 -0.5909
 5268SOL     OW16358   1.326   4.419   6.591  0.2179  0.2098 -0.1843
 5268SOL    HW116359   1.382   4.485   6.550  1.1532  1.2324  2.5239
 5268SOL    HW216360   1.380   4.341   6.597 -0.0629 -0.0800 -1.1785
 5269SOL     OW16361   3.434   5.477   3.157  0.0858  0.4241  0.3095
 5269SOL    HW116362   3.525   5.500   3.179 -0.5014  1.8285  1.4196
 5269SOL    HW216363   3.398   5.444   3.239 -0.1110 -1.2418 -0.4090
 5270SOL     OW16364   4.342   1.939   0.863 -0.2897 -0.0558 -0.1549
 5270SOL    HW116365   4.411   1.900   0.810 -1.7986 -3.5822  0.1766
 5270SOL    HW216366   4.362   1.911   0.953 -1.4911 -0.1533  0.0957
 5271SOL     OW16367   2.473   3.330   2.780 -0.4013  0.2880 -0.1964
 5271SOL    HW116368   2.417   3.378   2.719 -1.4484  0.7876  1.1105
 5271SOL    HW216369   2.535   3.395   2.811 -0.2875  0.1956 -0.2304
 5272SOL     OW16370   3.172   3.384   1.453  0.0514 -0.0999 -0.4564
 5272SOL    HW116371   3.107   3.385   1.524  1.1022  0.4821  0.5219
 5272SOL    HW216372   3.126   3.421   1.378 -0.8664 -0.0572  0.1118
 5273SOL     OW16373   2.383   3.375   1.883  0.5568  0.1758 -0.0098
 5273SOL    HW116374   2.444   3.303   1.894 -0.0084 -0.4665 -1.0093
 5273SOL    HW216375   2.346   3.363   1.796 -0.2545  1.1260  0.1852
 5274SOL     OW16376   1.239   5.423   7.125  0.9765  1.1493  0.2022
 5274SOL    HW116377   1.247   5.387   7.213  3.1572  0.5764 -0.1647
 5274SOL    HW216378   1.218   5.515   7.139  1.1506  1.0394  1.3263
 5275SOL     OW16379   4.396   3.728   5.652  0.0372 -0.0878 -0.0635
 5275SOL    HW116380   4.435   3.704   5.736  0.2448  0.4792  0.0069
 5275SOL    HW216381   4.325   3.665   5.639  0.4310 -0.5944  0.2144
 5276SOL     OW16382   2.514   3.986   7.712  0.2094 -0.1474 -0.2143
 5276SOL    HW116383   2.514   4.072   7.671  0.1754 -0.2335 -0.3992
 5276SOL    HW216384   2.590   3.941   7.674  0.3822 -0.1049  0.0818
 5277SOL     OW16385   3.969   3.458   1.326  0.8588  0.4898  0.2457
 5277SOL    HW116386   4.028   3.466   1.401  2.1402  0.0903 -0.6734
 5277SOL    HW216387   3.922   3.540   1.323  1.5520  0.9230  0.8826
 5278SOL     OW16388   7.299   1.385   3.140  0.2171  0.5053  0.2039
 5278SOL    HW116389   7.209   1.415   3.125  0.0205  0.4548  1.2299
 5278SOL    HW216390   7.300   1.355   3.231  1.8823  2.7201  1.0123
 5279SOL     OW16391   3.192   0.301   3.324 -0.3495  0.1016  0.5134
 5279SOL    HW116392   3.187   0.388   3.365  1.7249 -1.0574  3.5390
 5279SOL    HW216393   3.256   0.312   3.253 -1.3320  1.3626 -0.2196
 5280SOL     OW16394   2.726   1.740   0.375  0.5247 -0.4226  0.2250
 5280SOL    HW116395   2.785   1.730   0.450  0.9991  1.2616  0.1091
 5280SOL    HW216396   2.722   1.652   0.337  0.6483 -1.2054  1.9299
 5281SOL     OW16397   1.919   1.053   1.145  0.1987  0.2437 -0.2589
 5281SOL    HW116398   1.980   1.075   1.074  0.3571  2.0560  0.3931
 5281SOL    HW216399   1.973   1.052   1.224 -0.7384  3.1781  0.5344
 5282SOL     OW16400   1.867   2.961   1.779 -0.1410  0.4513 -0.0807
 5282SOL    HW116401   1.861   2.994   1.689  0.0669 -0.3216 -0.3943
 5282SOL    HW216402   1.805   2.888   1.781  1.3908 -0.9166 -0.2574
 5283SOL     OW16403   1.519   7.474   3.314  0.1067 -0.4029  0.0572
 5283SOL    HW116404   1.606   7.444   3.287 -0.5330 -3.5719  1.0313
 5283SOL    HW216405   1.464   7.461   3.237 -0.2025 -2.0796  0.5252
 5284SOL     OW16406   2.128   4.716   0.865 -0.0069  0.8072  0.0385
 5284SOL    HW116407   2.114   4.767   0.945  0.5832  2.1073 -0.6524
 5284SOL    HW216408   2.206   4.755   0.826  1.5232 -1.7441  0.3169
 5285SOL     OW16409   5.101   1.887   7.659 -0.5989 -0.4101 -0.1949
 5285SOL    HW116410   5.083   1.810   7.605  0.5753 -0.0466 -1.1455
 5285SOL    HW216411   5.026   1.944   7.646 -0.6099 -0.5955 -0.9559
 5286SOL     OW16412   7.226   5.204   0.086 -0.0516 -0.0772 -0.3492
 5286SOL    HW116413   7.249   5.194   0.179  0.2552  1.2768 -0.2671
 5286SOL    HW216414   7.276   5.135   0.042 -0.6232 -1.0910  0.5413
 5287SOL     OW16415   0.354   2.008   0.849 -0.3183  0.4292 -0.4433
 5287SOL    HW116416   0.397   2.012   0.934 -1.2033  0.9248 -0.0015
 5287SOL    HW216417   0.352   1.915   0.827 -1.3563  0.1356  0.7663
 5288SOL     OW16418   2.085   7.002   5.634 -0.3919  0.0190 -0.5315
 5288SOL    HW116419   1.990   7.008   5.649 -0.3126  0.5364 -0.2022
 5288SOL    HW216420   2.095   6.930   5.572 -1.0788  0.5314 -1.2644
 5289SOL     OW16421   0.479   2.567   6.865  0.0918 -0.0537  0.1267
 5289SOL    HW116422   0.526   2.624   6.926  1.7423 -0.0855 -1.0345
 5289SOL    HW216423   0.441   2.499   6.921 -0.3841  1.1754  1.3361
 5290SOL     OW16424   6.075   1.929   1.709 -0.2083  0.1989  0.5917
 5290SOL    HW116425   6.040   1.984   1.640 -1.5854  0.6545  1.6145
 5290SOL    HW216426   6.157   1.972   1.734 -1.1757  1.7413  1.2623
 5291SOL     OW16427   4.482   0.426   0.162 -0.4989  0.1806 -0.3093
 5291SOL    HW116428   4.457   0.362   0.228  0.6054 -0.0601 -0.1116
 5291SOL    HW216429   4.432   0.505   0.185  0.0299  0.1679  0.9542
 5292SOL     OW16430   4.734   4.022   5.474 -0.0014 -0.0235 -1.1498
 5292SOL    HW116431   4.741   4.101   5.527  0.8274  0.7873 -2.4243
 5292SOL    HW216432   4.794   3.960   5.516 -0.1981  0.2167 -0.4983
 5293SOL     OW16433   0.222   2.248   0.253  0.2213 -0.1711 -0.0154
 5293SOL    HW116434   0.300   2.237   0.307  0.7329 -0.1010 -0.7248
 5293SOL    HW216435   0.198   2.340   0.264  1.8013  0.5366 -1.8068
 5294SOL     OW16436   2.353   4.434   1.848 -0.8099 -0.3748 -0.0966
 5294SOL    HW116437   2.355   4.438   1.944 -2.5095 -0.7018 -0.0172
 5294SOL    HW216438   2.261   4.444   1.825 -0.3081  0.7961 -1.7792
 5295SOL     OW16439   1.764   2.587   5.297  0.1635  0.1326 -0.2217
 5295SOL    HW116440   1.816   2.662   5.268 -1.7576  1.5438 -0.2580
 5295SOL    HW216441   1.740   2.542   5.217  1.0265 -0.3447 -0.2254
 5296SOL     OW16442   4.337   4.469   6.596  0.3177  0.0685 -0.1570
 5296SOL    HW116443   4.384   4.522   6.531  1.5753 -0.3743  0.3613
 5296SOL    HW216444   4.269   4.527   6.629  0.2859  0.6290 -1.1466
 5297SOL     OW16445   7.343   1.409   2.314  0.8192 -0.2506  0.5552
 5297SOL    HW116446   7.328   1.464   2.391  2.7216  1.6856 -0.3621
 5297SOL    HW216447   7.394   1.464   2.255 -0.1153 -1.8705 -1.8911
 5298SOL     OW16448   4.756   3.005   2.514 -0.1359 -0.1810 -0.4181
 5298SOL    HW116449   4.832   3.028   2.566  0.4158  0.7938 -1.6141
 5298SOL    HW216450   4.693   3.075   2.531  0.1175  0.2402 -1.1915
 5299SOL     OW16451   2.426   6.334   0.084 -0.3948 -0.3143  0.1463
 5299SOL    HW116452   2.481   6.327   0.162  0.9130 -2.1411 -0.8596
 5299SOL    HW216453   2.479   6.386   0.023  0.1044 -1.7594 -0.6940
 5300SOL     OW16454   3.958   1.754   7.711 -0.1603 -0.4456 -0.0124
 5300SOL    HW116455   4.000   1.771   7.796 -0.2375  0.5397 -0.1626
 5300SOL    HW216456   3.974   1.661   7.695  0.1305 -0.5713  0.9349
 5301SOL     OW16457   1.458   2.007   0.913 -0.0375  0.1756 -0.2048
 5301SOL    HW116458   1.477   1.987   1.005  1.3820 -1.2434 -0.7475
 5301SOL    HW216459   1.376   1.961   0.896  0.0820 -0.1915  0.1660
 5302SOL     OW16460   1.737   1.912   0.058  0.0606  0.3616 -0.1221
 5302SOL    HW116461   1.756   1.956   0.141 -1.1653 -0.7621  0.8079
 5302SOL    HW216462   1.820   1.910   0.012  0.5434  1.9709  0.5995
 5303SOL     OW16463   3.549   2.278   4.551 -1.3258  0.5404  0.2092
 5303SOL    HW116464   3.541   2.323   4.635  0.5374 -0.7741  1.1714
 5303SOL    HW216465   3.522   2.343   4.486 -2.4586  1.7078  1.7897
 5304SOL     OW16466   1.510   1.244   4.610  0.0364  0.5754 -0.1627
 5304SOL    HW116467   1.513   1.324   4.559 -0.3549  2.4898  2.6068
 5304SOL    HW216468   1.456   1.266   4.686  1.1197 -1.8633  1.4352
 5305SOL     OW16469   0.718   7.531   5.363  0.0840 -0.2910 -0.6209
 5305SOL    HW116470   0.691   7.548   5.453  0.1409 -0.9588 -0.4725
 5305SOL    HW216471   0.756   7.443   5.365 -1.1047 -0.8555 -1.5313
 5306SOL     OW16472   4.136   1.600   0.918 -0.8348 -0.5407  0.2675
 5306SOL    HW116473   4.141   1.524   0.860  0.2504 -0.3479  0.0973
 5306SOL    HW216474   4.110   1.672   0.860  0.7626 -0.2376 -0.1106
 5307SOL     OW16475   1.777   6.659   1.390 -0.0893  0.4617  0.9003
 5307SOL    HW116476   1.711   6.702   1.335  1.4245 -1.6450 -2.9159
 5307SOL    HW216477   1.860   6.691   1.356  0.9556 -1.6007  1.3909
 5308SOL     OW16478   7.742   6.759   3.777  0.6513 -0.7162  1.6299
 5308SOL    HW116479   7.747   6.686   3.715 -1.1732 -0.3506  0.9714
 5308SOL    HW216480   7.685   6.823   3.734  0.1326 -0.0248  3.2576
 5309SOL     OW16481   2.383   7.125   2.489 -0.2837 -0.6612 -0.4144
 5309SOL    HW116482   2.408   7.206   2.445  0.2842 -1.6661 -2.0509
 5309SOL    HW216483   2.289   7.118   2.476 -0.2736 -0.4452 -0.6069
 5310SOL     OW16484   5.594   2.634   7.666  0.9633  0.5264  0.5504
 5310SOL    HW116485   5.665   2.655   7.604 -0.2098 -0.9315 -1.4083
 5310SOL    HW216486   5.605   2.541   7.684 -0.0741  0.4278  0.7262
 5311SOL     OW16487   1.675   4.712   5.828  0.4591  0.3405 -0.5595
 5311SOL    HW116488   1.701   4.680   5.742  0.2974 -0.1684 -0.4247
 5311SOL    HW216489   1.582   4.732   5.820  0.2859 -0.3321 -0.3334
 5312SOL     OW16490   7.335   5.369   0.773 -0.6851  0.1808  0.3545
 5312SOL    HW116491   7.275   5.442   0.753 -0.2202  0.3198 -0.5838
 5312SOL    HW216492   7.321   5.352   0.866 -1.6209  0.7275  0.3307
 5313SOL     OW16493   1.063   4.065   3.481  0.2833 -0.1312  0.3442
 5313SOL    HW116494   1.044   4.076   3.388  1.4080 -0.5115  0.0555
 5313SOL    HW216495   1.135   4.002   3.483 -0.5751 -1.1200  1.5390
 5314SOL     OW16496   4.808   7.723   2.049 -0.0755  0.4974 -0.6093
 5314SOL    HW116497   4.809   7.642   1.998  2.6557  2.7947 -4.8559
 5314SOL    HW216498   4.900   7.737   2.072 -0.2601  2.9331 -1.1281
 5315SOL     OW16499   6.694   0.369   4.067  0.3129 -0.3805  0.5007
 5315SOL    HW116500   6.645   0.446   4.096  1.2122  0.1262  0.7377
 5315SOL    HW216501   6.632   0.296   4.074 -0.6070  0.3436  0.1053
 5316SOL     OW16502   3.757   6.084   5.476 -0.2156 -0.6204  0.1858
 5316SOL    HW116503   3.823   6.015   5.473  0.1788 -0.2747  0.6873
 5316SOL    HW216504   3.729   6.087   5.567 -0.9680 -0.7977 -0.0335
 5317SOL     OW16505   1.281   4.171   0.791 -0.2758 -0.1675 -0.0957
 5317SOL    HW116506   1.376   4.180   0.787 -0.2658  0.6662  1.2366
 5317SOL    HW216507   1.252   4.245   0.845 -1.5411 -1.1282  0.6171
 5318SOL     OW16508   7.013   6.999   3.030 -0.4681  0.2888  0.5204
 5318SOL    HW116509   7.008   7.088   2.996 -1.8166  0.2376  0.5218
 5318SOL    HW216510   6.970   7.003   3.115 -1.3823 -0.5349  0.1204
 5319SOL     OW16511   7.088   2.798   6.921  0.6232 -0.4890 -0.3144
 5319SOL    HW116512   7.118   2.758   7.003 -0.8107 -0.8386  0.0717
 5319SOL    HW216513   6.999   2.827   6.940  1.1803  1.8325 -0.9577
 5320SOL     OW16514   5.921   6.279   0.841 -0.0172  0.2436  0.0241
 5320SOL    HW116515   5.847   6.336   0.860 -0.9544  0.0748 -2.6905
 5320SOL    HW216516   5.997   6.338   0.838  0.1159  0.3784  3.0459
 5321SOL     OW16517   1.964   1.724   5.732  0.4903 -0.1067  0.1879
 5321SOL    HW116518   1.888   1.765   5.689  0.8312  1.5440  1.0723
 5321SOL    HW216519   1.926   1.660   5.792 -0.0437 -1.5094 -1.5682
 5322SOL     OW16520   5.973   3.117   4.267  0.5598 -0.0211  0.1946
 5322SOL    HW116521   5.947   3.030   4.298 -0.8312 -0.2590 -1.4700
 5322SOL    HW216522   6.068   3.121   4.283  0.6002 -1.7175  0.5898
 5323SOL     OW16523   3.556   4.529   2.023  0.8946 -0.1662 -0.2992
 5323SOL    HW116524   3.561   4.524   2.119  2.3785 -1.9638 -0.4109
 5323SOL    HW216525   3.645   4.513   1.994  0.3131 -0.4776 -2.0193
 5324SOL     OW16526   0.307   0.356   5.499  0.1769 -0.1288  0.2453
 5324SOL    HW116527   0.343   0.443   5.514  0.7753 -0.5006  1.0967
 5324SOL    HW216528   0.266   0.333   5.583  0.4087 -0.8335  0.1712
 5325SOL     OW16529   5.643   3.299   3.813 -0.4035 -0.6336 -0.1015
 5325SOL    HW116530   5.634   3.343   3.898  0.4900 -0.0019 -0.3234
 5325SOL    HW216531   5.585   3.347   3.755 -0.5074 -0.6476 -0.0108
 5326SOL     OW16532   1.439   3.844   1.850 -0.5639 -0.0658 -0.5604
 5326SOL    HW116533   1.471   3.891   1.928  0.1642 -1.0433 -0.2595
 5326SOL    HW216534   1.343   3.850   1.857 -0.4934  1.0353 -0.3278
 5327SOL     OW16535   6.555   7.333   2.850  0.1242  0.0444  0.7165
 5327SOL    HW116536   6.606   7.414   2.854  1.1084 -0.5394  0.4878
 5327SOL    HW216537   6.465   7.360   2.864  0.1284  1.4689 -1.5582
 5328SOL     OW16538   1.357   2.298   6.020 -0.3804 -0.2436  0.1506
 5328SOL    HW116539   1.418   2.372   6.023 -1.4290  0.6914 -0.6072
 5328SOL    HW216540   1.405   2.225   6.059  2.2091 -0.2963 -2.7843
 5329SOL     OW16541   4.525   2.218   5.650 -0.1337 -0.8148 -0.6245
 5329SOL    HW116542   4.555   2.308   5.663 -2.7437  0.1815 -0.6797
 5329SOL    HW216543   4.581   2.183   5.581  0.4353  1.0577 -1.1740
 5330SOL     OW16544   6.028   4.712   5.390  0.2770  0.1182 -0.4837
 5330SOL    HW116545   6.052   4.799   5.423 -1.8389  1.4669 -2.2587
 5330SOL    HW216546   5.950   4.727   5.336  1.3096 -2.4772 -2.9514
 5331SOL     OW16547   7.252   0.174   2.943  0.4571 -0.1095  0.4024
 5331SOL    HW116548   7.233   0.206   3.031  0.6616  0.5873  0.2003
 5331SOL    HW216549   7.222   0.083   2.943  2.4814 -0.8524  1.8818
 5332SOL     OW16550   0.376   5.547   5.574  0.2847  0.6349  0.2459
 5332SOL    HW116551   0.408   5.628   5.614  0.4959  1.0210 -0.6677
 5332SOL    HW216552   0.333   5.500   5.645 -0.5342  1.9121  0.6414
 5333SOL     OW16553   3.365   1.578   5.129  0.2025 -0.9053  0.1765
 5333SOL    HW116554   3.320   1.652   5.087 -0.7924 -1.4401  0.2804
 5333SOL    HW216555   3.412   1.618   5.203  0.4474 -0.2439 -0.3240
 5334SOL     OW16556   3.493   2.102   1.784  0.8191  0.3568  0.6645
 5334SOL    HW116557   3.566   2.162   1.767  0.3197  1.6102  2.6696
 5334SOL    HW216558   3.416   2.150   1.753  0.7501 -0.9601 -1.4448
 5335SOL     OW16559   2.502   7.444   2.556  0.7478 -0.2844 -0.3209
 5335SOL    HW116560   2.443   7.386   2.603  0.5651 -1.0116 -1.4174
 5335SOL    HW216561   2.587   7.431   2.599 -0.0568  1.7542  2.1459
 5336SOL     OW16562   7.318   7.252   1.197 -0.4946  0.3628 -0.2544
 5336SOL    HW116563   7.379   7.309   1.150  0.4008  0.9586  1.5359
 5336SOL    HW216564   7.267   7.311   1.252 -1.5176 -0.3109 -0.4491
 5337SOL     OW16565   6.972   3.245   5.299 -0.4421 -0.3378  0.0714
 5337SOL    HW116566   7.047   3.226   5.356 -0.7651 -0.1897  0.5588
 5337SOL    HW216567   6.994   3.329   5.259 -1.6651  1.3371  2.6004
 5338SOL     OW16568   6.506   4.702   7.542  0.1823  0.2308 -0.0429
 5338SOL    HW116569   6.559   4.778   7.570  0.9840 -0.2798 -0.1467
 5338SOL    HW216570   6.556   4.626   7.573 -0.4528 -0.2641 -0.2313
 5339SOL     OW16571   3.496   6.385   1.935 -0.6518  0.4151  0.6091
 5339SOL    HW116572   3.542   6.465   1.957  0.1107  0.5315 -1.2506
 5339SOL    HW216573   3.535   6.318   1.991 -0.9720  1.2306  1.8304
 5340SOL     OW16574   6.071   3.902   3.577 -0.0264  0.0092 -0.4212
 5340SOL    HW116575   6.055   3.813   3.609 -0.2694 -0.1517 -0.9798
 5340SOL    HW216576   5.987   3.946   3.583  0.2849  0.4879  0.7030
 5341SOL     OW16577   5.725   7.203   2.890 -0.9188 -0.0602  0.4482
 5341SOL    HW116578   5.746   7.218   2.982 -0.0457 -0.9473  0.4210
 5341SOL    HW216579   5.684   7.117   2.888 -1.9653  0.4371  0.1359
 5342SOL     OW16580   7.400   1.510   4.507  0.6624  0.3361  0.6014
 5342SOL    HW116581   7.354   1.589   4.534  0.6638  1.5678 -2.5278
 5342SOL    HW216582   7.353   1.481   4.429  0.6547 -2.8500  1.6730
 5343SOL     OW16583   7.291   7.179   3.828 -0.3599 -0.3645 -0.3328
 5343SOL    HW116584   7.328   7.103   3.872 -1.9594 -0.5831  0.7350
 5343SOL    HW216585   7.246   7.227   3.897  0.0994  1.2465 -1.1008
 5344SOL     OW16586   5.904   5.091   4.386  0.0584  0.0855  0.0676
 5344SOL    HW116587   5.856   5.077   4.305 -1.4357 -2.5682  1.2411
 5344SOL    HW216588   5.875   5.177   4.417  0.6560  1.1389 -2.1278
 5345SOL     OW16589   4.506   1.594   7.386 -0.1359 -0.3040 -0.5880
 5345SOL    HW116590   4.438   1.661   7.385  0.2717  0.1213 -1.4505
 5345SOL    HW216591   4.509   1.563   7.476 -0.5725  0.5867 -0.2609
 5346SOL     OW16592   1.463   0.445   6.367 -0.0529  0.0871  0.1335
 5346SOL    HW116593   1.391   0.499   6.400 -1.9980 -2.2958  0.0579
 5346SOL    HW216594   1.504   0.499   6.299 -2.3593  1.1907 -0.4959
 5347SOL     OW16595   3.577   5.904   0.130 -0.0268  0.0481 -0.0493
 5347SOL    HW116596   3.639   5.906   0.203  0.2005 -0.3582 -0.2291
 5347SOL    HW216597   3.605   5.830   0.076  0.5566  1.0724 -1.2067
 5348SOL     OW16598   6.937   2.886   1.413  0.0389  0.7896 -0.0498
 5348SOL    HW116599   6.926   2.979   1.393 -0.6260  0.5780 -0.6874
 5348SOL    HW216600   7.030   2.877   1.432  0.4535  1.2721 -1.6955
 5349SOL     OW16601   5.759   6.269   6.835  0.1508  0.4735  0.0903
 5349SOL    HW116602   5.786   6.357   6.861  1.1214  0.6102 -1.2657
 5349SOL    HW216603   5.711   6.283   6.753  1.5172 -0.3468 -0.8951
 5350SOL     OW16604   3.375   6.972   4.030  0.0859 -0.0020 -0.3019
 5350SOL    HW116605   3.456   6.993   3.984  0.9031 -3.5349 -0.7507
 5350SOL    HW216606   3.388   7.006   4.119  2.5570 -1.2841 -0.0765
 5351SOL     OW16607   7.000   7.067   0.190  0.1378  0.0722  0.1126
 5351SOL    HW116608   6.990   7.005   0.118 -1.2211 -1.5229  1.5762
 5351SOL    HW216609   7.083   7.112   0.172  0.3230 -0.9735 -1.8965
 5352SOL     OW16610   1.118   1.297   1.848  0.4658 -0.4174  0.7028
 5352SOL    HW116611   1.152   1.261   1.766 -0.3267  0.7700 -0.1995
 5352SOL    HW216612   1.173   1.373   1.866 -0.4160  0.3525  0.2935
 5353SOL     OW16613   6.790   6.640   6.158  0.0825 -0.4756  0.1401
 5353SOL    HW116614   6.806   6.710   6.096 -2.5713  1.3099  1.2786
 5353SOL    HW216615   6.872   6.590   6.160  1.2464  1.1273 -2.4991
 5354SOL     OW16616   7.718   6.732   0.875  0.9003 -0.0328  0.0858
 5354SOL    HW116617   7.686   6.680   0.949  0.2176 -0.8905 -0.7935
 5354SOL    HW216618   7.644   6.737   0.815  1.8594 -0.5374 -1.1762
 5355SOL     OW16619   7.036   3.478   7.492 -0.1154 -0.2012 -0.3473
 5355SOL    HW116620   7.058   3.544   7.426  0.8940 -0.5885 -0.4099
 5355SOL    HW216621   6.968   3.520   7.546 -2.0626 -0.4105 -2.4825
 5356SOL     OW16622   0.496   6.357   1.340  0.4856 -0.2099 -0.0625
 5356SOL    HW116623   0.437   6.358   1.415 -0.0343  0.4520 -0.4657
 5356SOL    HW216624   0.564   6.422   1.361  0.7209 -0.5196  0.1317
 5357SOL     OW16625   6.090   2.824   1.552  0.2177 -0.0523  0.1067
 5357SOL    HW116626   6.097   2.734   1.586 -3.1564 -0.0635  1.1176
 5357SOL    HW216627   6.085   2.878   1.631 -1.9780  0.5421 -0.4030
 5358SOL     OW16628   4.800   2.903   1.297 -0.5006 -0.3082  0.0489
 5358SOL    HW116629   4.778   2.810   1.306  0.2144 -0.7378 -2.1298
 5358SOL    HW216630   4.716   2.946   1.280 -0.5176 -1.0561 -2.0882
 5359SOL     OW16631   4.278   1.606   2.017  0.4786  0.2608 -0.1497
 5359SOL    HW116632   4.183   1.611   2.029  0.4383 -1.7036  0.7048
 5359SOL    HW216633   4.314   1.653   2.092  0.1822 -0.5355  0.4965
 5360SOL     OW16634   2.647   4.088   0.998 -0.3230 -0.4871 -0.0746
 5360SOL    HW116635   2.620   4.141   0.923 -2.1246  0.1760  0.9997
 5360SOL    HW216636   2.613   4.001   0.980  1.6346 -1.0793 -1.2802
 5361SOL     OW16637   3.944   4.822   0.754 -0.0027  0.3201  0.3631
 5361SOL    HW116638   3.895   4.811   0.672 -1.3689  1.0934  1.0441
 5361SOL    HW216639   3.906   4.758   0.814  1.7104 -0.9900  0.1331
 5362SOL     OW16640   6.144   7.367   4.955 -0.6936 -0.7071  0.4270
 5362SOL    HW116641   6.231   7.408   4.961 -1.0601  0.0963  0.2850
 5362SOL    HW216642   6.129   7.358   4.861 -1.6513  1.0785  0.3849
 5363SOL     OW16643   3.203   1.593   2.796 -0.3444 -0.0594 -0.0744
 5363SOL    HW116644   3.230   1.549   2.716 -0.0036  1.3685 -0.7648
 5363SOL    HW216645   3.117   1.556   2.816  0.4119 -1.8792  0.0447
 5364SOL     OW16646   7.197   4.334   4.876  0.2152  0.1630 -0.2095
 5364SOL    HW116647   7.246   4.342   4.958  1.4045  0.4520 -0.9205
 5364SOL    HW216648   7.263   4.343   4.807 -0.2507 -2.8468 -1.2251
 5365SOL     OW16649   7.212   5.756   7.133 -0.2348 -0.3217 -0.0287
 5365SOL    HW116650   7.237   5.686   7.072 -1.5927  0.7356 -1.9235
 5365SOL    HW216651   7.141   5.718   7.185  0.7411 -1.1401  0.7658
 5366SOL     OW16652   6.551   5.370   1.979  0.7180 -0.0103 -0.4276
 5366SOL    HW116653   6.605   5.360   1.900 -0.6668 -2.7406 -1.1768
 5366SOL    HW216654   6.485   5.435   1.955  1.1334  0.1915 -1.0415
 5367SOL     OW16655   2.992   1.575   7.141 -0.5363  0.1922  0.2497
 5367SOL    HW116656   3.062   1.638   7.128 -0.5005 -0.1975 -1.7674
 5367SOL    HW216657   3.036   1.491   7.157 -0.5384  0.0906 -0.2609
 5368SOL     OW16658   5.809   7.152   4.325  0.5298  0.3202  0.1010
 5368SOL    HW116659   5.753   7.229   4.327 -0.9211 -0.6991  0.7452
 5368SOL    HW216660   5.790   7.109   4.242 -1.3959 -1.2122  1.2619
 5369SOL     OW16661   5.609   1.455   0.845  0.1535  0.2948 -0.0938
 5369SOL    HW116662   5.594   1.379   0.902  0.6766 -1.2858 -1.9586
 5369SOL    HW216663   5.684   1.430   0.792  1.0305  2.5921 -0.0632
 5370SOL     OW16664   7.092   6.582   3.795  0.2040  0.3218 -0.4038
 5370SOL    HW116665   7.124   6.564   3.707  0.8910  0.3524 -0.1717
 5370SOL    HW216666   7.148   6.528   3.852 -1.5052 -1.2208 -0.1135
 5371SOL     OW16667   5.855   5.394   0.960  0.1832 -0.0388  0.1048
 5371SOL    HW116668   5.837   5.419   0.869 -1.8919  0.5315  0.6213
 5371SOL    HW216669   5.889   5.305   0.954 -0.7636 -0.3533 -1.1909
 5372SOL     OW16670   6.562   0.157   6.891 -0.0959 -0.1750  0.5846
 5372SOL    HW116671   6.503   0.114   6.829 -0.0055  0.8825 -0.2687
 5372SOL    HW216672   6.534   0.124   6.977 -0.1797 -1.7069 -0.0020
 5373SOL     OW16673   4.036   0.160   2.863  0.4110 -0.4626  0.2014
 5373SOL    HW116674   4.073   0.221   2.799 -0.4219 -0.1765 -0.0161
 5373SOL    HW216675   4.068   0.191   2.947 -0.9357  1.0052  0.2162
 5374SOL     OW16676   6.749   0.652   0.891 -0.1347  0.2687  0.1317
 5374SOL    HW116677   6.688   0.723   0.909 -1.5021 -0.3053 -1.8310
 5374SOL    HW216678   6.819   0.692   0.839  0.3914  0.6095  1.0655
 5375SOL     OW16679   4.210   7.133   6.513  0.1783 -0.1728  0.2146
 5375SOL    HW116680   4.239   7.074   6.444 -0.0030 -0.6169  0.5120
 5375SOL    HW216681   4.285   7.140   6.571 -0.1293 -0.9237  0.7179
 5376SOL     OW16682   4.362   5.449   3.839  0.1818 -0.4326 -0.0736
 5376SOL    HW116683   4.349   5.511   3.910 -0.5944  0.6018 -1.0836
 5376SOL    HW216684   4.457   5.435   3.836  0.1908 -0.8839  1.4541
 5377SOL     OW16685   1.826   1.686   2.440  0.2736 -0.7985 -0.1105
 5377SOL    HW116686   1.868   1.609   2.401  1.1824 -1.0905  1.3776
 5377SOL    HW216687   1.885   1.713   2.510 -0.0230  1.2887 -0.6058
 5378SOL     OW16688   7.010   2.224   0.480  0.0572  0.3401 -0.7264
 5378SOL    HW116689   7.004   2.136   0.443  1.3188 -1.1380  2.2539
 5378SOL    HW216690   6.925   2.238   0.522 -0.0554  0.4396 -0.9874
 5379SOL     OW16691   3.716   3.361   2.404  0.5877  0.0544  0.6685
 5379SOL    HW116692   3.689   3.351   2.495  1.2900 -1.7450  0.7336
 5379SOL    HW216693   3.806   3.327   2.402  0.4344 -0.3418 -0.7719
 5380SOL     OW16694   3.972   3.862   0.171 -0.1047 -0.2571 -0.2992
 5380SOL    HW116695   3.998   3.832   0.083 -1.3073  1.4815 -1.3041
 5380SOL    HW216696   3.889   3.817   0.188 -0.2463 -0.0255 -0.3773
 5381SOL     OW16697   0.028   4.363   7.193  0.1529  0.0169 -0.3259
 5381SOL    HW116698   0.053   4.336   7.105 -2.8020 -1.7037 -0.7773
 5381SOL    HW216699  -0.039   4.430   7.181  0.2035  0.2589  0.6291
 5382SOL     OW16700   5.239   6.251   1.167  0.0447  0.2547 -0.1733
 5382SOL    HW116701   5.198   6.331   1.200 -1.5932 -1.5861  2.5842
 5382SOL    HW216702   5.167   6.199   1.133  0.2009 -2.0767  2.6539
 5383SOL     OW16703   4.283   2.466   6.845  0.0970  0.5278 -0.9783
 5383SOL    HW116704   4.267   2.525   6.772  2.2735 -0.9023 -2.7124
 5383SOL    HW216705   4.308   2.523   6.917 -0.3876  1.8604 -1.8326
 5384SOL     OW16706   1.189   2.946   0.547 -0.1990  0.4929 -0.1054
 5384SOL    HW116707   1.173   2.938   0.453  1.3619  2.1516 -0.5681
 5384SOL    HW216708   1.101   2.954   0.585 -0.8552 -0.1811 -1.4107
 5385SOL     OW16709   1.634   0.370   1.017 -0.3557 -0.1380  0.1127
 5385SOL    HW116710   1.541   0.393   1.011 -0.4694 -0.5251  0.4116
 5385SOL    HW216711   1.680   0.448   0.985 -0.7424  0.5394  1.1709
 5386SOL     OW16712   5.826   0.741   0.852 -0.4338  0.5422 -0.1529
 5386SOL    HW116713   5.848   0.833   0.868  1.1408  0.3669 -1.1306
 5386SOL    HW216714   5.828   0.732   0.756 -2.7459 -0.0288 -0.2163
 5387SOL     OW16715   1.216   2.732   7.086  0.2316  0.2573  0.1098
 5387SOL    HW116716   1.268   2.793   7.034  1.0897 -1.0460 -0.5893
 5387SOL    HW216717   1.180   2.787   7.156  2.3434  1.2627  0.4971
 5388SOL     OW16718   2.005   1.075   3.854 -1.1340 -0.2143 -0.2741
 5388SOL    HW116719   2.012   1.158   3.901 -0.8133  0.6685 -1.8321
 5388SOL    HW216720   1.915   1.047   3.868 -1.5321  0.8898 -0.5347
 5389SOL     OW16721   2.679   2.013   3.285  0.3948  0.0054  0.1829
 5389SOL    HW116722   2.756   2.001   3.229 -0.3881 -0.0737 -0.8875
 5389SOL    HW216723   2.606   2.024   3.224 -0.5488 -0.5380  1.1837
 5390SOL     OW16724   1.110   1.764   1.289 -0.3245  0.5592 -0.6107
 5390SOL    HW116725   1.178   1.826   1.261  1.4176 -0.6095  0.7832
 5390SOL    HW216726   1.116   1.692   1.227  1.4444 -0.6391  0.8520
 5391SOL     OW16727   2.795   6.252   3.395 -0.0067 -0.3094  0.1467
 5391SOL    HW116728   2.841   6.313   3.453 -0.5824  0.0556  0.2294
 5391SOL    HW216729   2.738   6.308   3.343 -0.2912 -0.7474 -0.0107
 5392SOL     OW16730   5.021   6.742   5.652 -0.1563 -0.5869 -0.1009
 5392SOL    HW116731   4.985   6.749   5.564 -0.6204  0.9399  0.1805
 5392SOL    HW216732   5.115   6.731   5.639  0.2340  2.7084 -0.8238
 5393SOL     OW16733   7.611   5.853   6.937  0.1439 -0.0997 -0.1501
 5393SOL    HW116734   7.531   5.889   6.975  0.4881  1.0615 -0.5093
 5393SOL    HW216735   7.584   5.818   6.852  0.0333  0.3680 -0.3089
 5394SOL     OW16736   3.927   2.950   4.164  0.4512 -0.8978  0.0602
 5394SOL    HW116737   3.919   3.045   4.175  1.2384 -0.9281  0.9650
 5394SOL    HW216738   3.852   2.927   4.108  0.6104  0.3327 -0.7111
 5395SOL     OW16739   3.929   2.467   2.245 -0.1099  0.1140  0.4362
 5395SOL    HW116740   3.919   2.402   2.314 -0.5937 -0.7884 -0.4676
 5395SOL    HW216741   3.991   2.428   2.184 -2.6436 -0.9119 -1.6834
 5396SOL     OW16742   6.981   4.170   1.184 -0.0572  0.5743  0.7077
 5396SOL    HW116743   6.920   4.159   1.257 -0.2053 -2.1057  0.2588
 5396SOL    HW216744   6.995   4.082   1.150  3.4232  1.1691  0.2240
 5397SOL     OW16745   1.127   5.597   1.422 -0.2814 -0.1659 -0.9234
 5397SOL    HW116746   1.194   5.601   1.490 -1.5246 -1.5032  0.4448
 5397SOL    HW216747   1.104   5.505   1.416 -2.1186  0.2844 -1.2319
 5398SOL     OW16748   3.691   3.230   7.038  0.6267  0.1051 -0.5122
 5398SOL    HW116749   3.745   3.306   7.059 -0.2585  0.4805  0.4474
 5398SOL    HW216750   3.608   3.245   7.084 -0.2546 -0.5347 -1.8214
 5399SOL     OW16751   1.354   7.283   5.510  0.3791 -0.4964 -0.0613
 5399SOL    HW116752   1.303   7.202   5.500  0.1648 -0.3624 -0.0728
 5399SOL    HW216753   1.396   7.275   5.595 -0.5432 -0.1274  0.4474
 5400SOL     OW16754   1.140   4.151   3.007 -0.6850 -0.5135  0.3479
 5400SOL    HW116755   1.093   4.151   2.924 -0.9634  0.4934  0.4933
 5400SOL    HW216756   1.213   4.091   2.993 -0.3431  0.1570 -0.8554
 5401SOL     OW16757   3.102   5.348   7.111  0.1411  0.0662  0.1668
 5401SOL    HW116758   3.098   5.341   7.206  1.8310 -0.9592  0.2132
 5401SOL    HW216759   3.053   5.272   7.079  1.3631 -0.7975  0.2865
 5402SOL     OW16760   7.423   5.556   3.342  0.1313 -0.4478  0.3331
 5402SOL    HW116761   7.335   5.528   3.367 -0.1127 -0.0346 -0.0380
 5402SOL    HW216762   7.451   5.492   3.278 -0.0627 -0.3604  0.1577
 5403SOL     OW16763   2.149   3.781   3.289 -0.0866  0.6802  0.1766
 5403SOL    HW116764   2.116   3.833   3.363 -0.1962  0.4963  0.2574
 5403SOL    HW216765   2.142   3.690   3.319  2.1534  0.6790  0.9271
 5404SOL     OW16766   6.582   5.834   4.538  0.3834 -0.2617 -0.3857
 5404SOL    HW116767   6.539   5.850   4.453 -1.1316  2.6528  0.7770
 5404SOL    HW216768   6.512   5.800   4.594  0.2303  1.7645  0.7473
 5405SOL     OW16769   6.425   4.266   0.629  0.1241  0.4943  0.0791
 5405SOL    HW116770   6.399   4.247   0.719 -1.7831 -0.5472 -0.6333
 5405SOL    HW216771   6.475   4.189   0.601 -0.3854  0.2260 -0.1246
 5406SOL     OW16772   5.250   7.382   4.555  0.0341  0.9407 -0.0414
 5406SOL    HW116773   5.250   7.329   4.475 -0.5324 -3.0615  2.3364
 5406SOL    HW216774   5.158   7.388   4.580  0.3656 -0.0760  1.5588
 5407SOL     OW16775   3.287   3.720   5.804 -0.1187  0.0025  0.4547
 5407SOL    HW116776   3.193   3.724   5.789 -0.1921  0.5085  0.9878
 5407SOL    HW216777   3.299   3.758   5.891  0.5472 -0.3313  0.5181
 5408SOL     OW16778   7.178   5.583   4.172  0.4391 -0.3838 -0.3624
 5408SOL    HW116779   7.241   5.615   4.237 -1.1235  0.7129  0.6995
 5408SOL    HW216780   7.093   5.592   4.216 -0.5574 -0.8386 -2.1221
 5409SOL     OW16781   6.717   2.408   4.800  0.1322  0.3426 -0.3231
 5409SOL    HW116782   6.743   2.339   4.860  1.6685  0.1591 -1.1480
 5409SOL    HW216783   6.759   2.487   4.835 -0.2753  0.5418 -0.2817
 5410SOL     OW16784   3.040   5.471   4.011 -0.1711 -0.2873 -0.4982
 5410SOL    HW116785   3.104   5.405   4.036 -2.9944 -3.6030 -1.1581
 5410SOL    HW216786   2.993   5.491   4.092  0.1721  0.3148 -0.4465
 5411SOL     OW16787   1.808   7.328   0.978  0.0923 -0.2684 -0.4377
 5411SOL    HW116788   1.859   7.387   0.922  0.5511  1.1622  1.3917
 5411SOL    HW216789   1.717   7.357   0.968  0.4384  1.6567  1.3712
 5412SOL     OW16790   4.905   4.433   6.812  0.0637  0.0889  0.1826
 5412SOL    HW116791   4.838   4.445   6.745 -1.0495 -0.2092  1.2064
 5412SOL    HW216792   4.869   4.476   6.890  1.7152  1.2100  0.3759
 5413SOL     OW16793   3.339   0.450   6.707 -0.0678  0.4701  0.3882
 5413SOL    HW116794   3.311   0.365   6.675  0.9126  0.5908 -0.8354
 5413SOL    HW216795   3.340   0.440   6.802 -1.2833 -0.4476  0.3323
 5414SOL     OW16796   5.904   3.838   7.368 -0.4655 -0.1675  0.6416
 5414SOL    HW116797   5.986   3.853   7.415 -0.6957  1.0113  0.6940
 5414SOL    HW216798   5.852   3.782   7.427 -1.8260  3.3707  3.1284
 5415SOL     OW16799   7.693   0.102   0.768 -0.2516 -0.0051  0.4748
 5415SOL    HW116800   7.650   0.148   0.696 -0.3766 -0.3337  0.3343
 5415SOL    HW216801   7.781   0.084   0.736 -0.5728 -0.9122  0.0577
 5416SOL     OW16802   0.954   7.595   6.279  0.2828 -0.0004 -0.3407
 5416SOL    HW116803   0.934   7.663   6.343  1.0879 -0.5504  0.5092
 5416SOL    HW216804   1.002   7.529   6.328 -0.8582 -1.4015 -1.0424
 5417SOL     OW16805   7.112   0.749   5.388  0.1529  0.0751 -0.3952
 5417SOL    HW116806   7.169   0.807   5.438  0.4773  1.3150 -2.0886
 5417SOL    HW216807   7.170   0.682   5.352  0.4787  0.9716 -1.5980
 5418SOL     OW16808   1.082   1.432   5.762  0.4790 -0.1637 -0.5312
 5418SOL    HW116809   1.062   1.339   5.748  1.0482 -0.3830  0.0490
 5418SOL    HW216810   1.141   1.432   5.837  0.3056  0.6893 -0.3886
 5419SOL     OW16811   4.018   3.582   3.685 -0.0150  0.0831 -0.0866
 5419SOL    HW116812   4.001   3.553   3.596 -1.7384 -0.4639  0.3695
 5419SOL    HW216813   3.972   3.518   3.740  0.1183  1.0043  1.1407
 5420SOL     OW16814   6.889   5.589   1.787  0.3119  0.4249 -0.5333
 5420SOL    HW116815   6.794   5.601   1.783  0.2236 -0.0183  0.1473
 5420SOL    HW216816   6.924   5.674   1.760 -0.2704  0.4369 -1.2846
 5421SOL     OW16817   6.709   4.120   5.681 -0.3925 -0.3677  0.0191
 5421SOL    HW116818   6.763   4.049   5.715 -1.4507 -0.7560  0.9876
 5421SOL    HW216819   6.721   4.192   5.743  0.1732  0.0746 -0.5977
 5422SOL     OW16820   1.590   6.969   3.099  0.2538  0.0606  0.0541
 5422SOL    HW116821   1.540   6.931   3.026 -2.3637 -0.7842  2.1241
 5422SOL    HW216822   1.533   7.037   3.134  1.5955  0.6815  1.1109
 5423SOL     OW16823   7.352   2.000   5.065 -0.1826 -0.3472  0.4819
 5423SOL    HW116824   7.268   2.017   5.107  0.4795  0.4667  1.5365
 5423SOL    HW216825   7.357   2.064   4.994 -0.3581 -0.2304  0.5738
 5424SOL     OW16826   4.528   3.598   5.920 -0.0955  0.4345 -0.3953
 5424SOL    HW116827   4.451   3.559   5.961 -0.1500  0.3591 -0.5658
 5424SOL    HW216828   4.542   3.680   5.967 -0.3527  0.5064 -0.4440
 5425SOL     OW16829   3.709   6.595   6.212 -0.2145  0.2066 -0.0566
 5425SOL    HW116830   3.669   6.655   6.149 -0.9261 -0.7935 -0.5780
 5425SOL    HW216831   3.770   6.543   6.161 -0.1502 -0.0245  0.2528
 5426SOL     OW16832   7.552   1.075   1.851  0.0914  0.3778 -0.1702
 5426SOL    HW116833   7.559   1.139   1.780  2.9284 -2.0956 -2.3538
 5426SOL    HW216834   7.605   1.111   1.922  0.0554  1.3098 -0.6049
 5427SOL     OW16835   1.035   0.659   4.074 -0.1259 -0.0988 -0.0550
 5427SOL    HW116836   1.027   0.565   4.057 -1.9409 -0.1103  0.5787
 5427SOL    HW216837   1.022   0.699   3.988  0.3507 -0.4072 -0.2770
 5428SOL     OW16838   3.291   1.159   4.739 -0.2511  0.4385  0.4717
 5428SOL    HW116839   3.302   1.166   4.834 -0.0534 -2.0957  0.7047
 5428SOL    HW216840   3.372   1.118   4.708 -0.8821 -0.0744 -0.5786
 5429SOL     OW16841   2.308   1.079   2.111 -0.7227 -0.4167 -0.4722
 5429SOL    HW116842   2.374   1.088   2.043  0.2116  0.4302  0.5130
 5429SOL    HW216843   2.338   1.005   2.165  1.1305  1.7738  1.7296
 5430SOL     OW16844   2.549   0.715   1.541 -0.0824 -0.0220 -0.0776
 5430SOL    HW116845   2.537   0.671   1.625 -2.2560  1.6943  0.6228
 5430SOL    HW216846   2.483   0.676   1.483 -1.1649  1.2928  0.1880
 5431SOL     OW16847   3.286   1.207   0.228 -0.3557 -0.2055  0.4389
 5431SOL    HW116848   3.348   1.269   0.189 -0.5050 -0.5137 -0.3173
 5431SOL    HW216849   3.257   1.153   0.154 -0.7367 -0.7385  0.9669
 5432SOL     OW16850   0.371   0.240   5.263 -0.4268 -0.1685 -0.0578
 5432SOL    HW116851   0.353   0.269   5.353 -1.2631 -1.9366  0.4089
 5432SOL    HW216852   0.459   0.272   5.244 -0.6956  1.2535  0.9343
 5433SOL     OW16853   3.626   6.678   2.886 -0.5183 -0.4468 -0.7309
 5433SOL    HW116854   3.548   6.669   2.832  0.0957  0.7563 -1.8799
 5433SOL    HW216855   3.673   6.753   2.849 -0.8140  1.4823  2.4476
 5434SOL     OW16856   0.685   5.936   1.411 -0.2660 -0.2491 -0.2476
 5434SOL    HW116857   0.758   5.874   1.402 -0.8487 -0.8659 -0.8306
 5434SOL    HW216858   0.612   5.881   1.439 -0.3482  0.4747  1.0510
 5435SOL     OW16859   5.349   7.683   0.744  0.2368 -0.1337  0.2568
 5435SOL    HW116860   5.331   7.751   0.809 -0.7474 -1.4483  1.4019
 5435SOL    HW216861   5.283   7.697   0.676  0.4604  0.4484  0.1524
 5436SOL     OW16862   6.654   1.407   5.979 -0.5815 -0.7339  0.5887
 5436SOL    HW116863   6.687   1.318   5.991  0.1808 -0.6269 -0.5554
 5436SOL    HW216864   6.719   1.450   5.924 -0.3788  0.8772  1.9856
 5437SOL     OW16865   1.906   7.009   4.603 -0.1475 -0.2372 -0.1947
 5437SOL    HW116866   1.943   7.078   4.658  1.0942 -0.9922 -0.0547
 5437SOL    HW216867   1.868   7.056   4.528 -1.4413  0.7639  1.0324
 5438SOL     OW16868   2.276   4.335   5.973 -0.9278  0.0431  0.3846
 5438SOL    HW116869   2.192   4.357   6.015 -0.1421  1.8812  1.0947
 5438SOL    HW216870   2.309   4.419   5.940  0.7608 -0.6002  0.3525
 5439SOL     OW16871   6.707   7.428   7.268 -0.2897 -0.1732 -0.7607
 5439SOL    HW116872   6.743   7.344   7.241 -0.1906 -0.7624  1.0540
 5439SOL    HW216873   6.641   7.406   7.334 -0.3508  1.1668 -0.3432
 5440SOL     OW16874   5.007   7.158   0.845 -0.4838 -0.0093 -0.2730
 5440SOL    HW116875   4.971   7.206   0.920  0.5483  0.1538  0.1408
 5440SOL    HW216876   5.027   7.226   0.781  0.8818  0.1438  0.2725
 5441SOL     OW16877   3.827   2.892   3.562 -0.0251 -0.3193 -0.8607
 5441SOL    HW116878   3.775   2.818   3.530  0.1410 -0.7254 -0.2256
 5441SOL    HW216879   3.903   2.851   3.603 -0.4016  0.1424  0.3497
 5442SOL     OW16880   6.695   4.858   1.389  0.7738  0.6102  0.7092
 5442SOL    HW116881   6.702   4.949   1.360  0.9105  0.4968  0.3856
 5442SOL    HW216882   6.614   4.827   1.350  0.9620  0.4546  0.4433
 5443SOL     OW16883   7.030   2.063   6.110 -0.4453  0.3567  0.0589
 5443SOL    HW116884   7.032   2.017   6.026  0.6596  0.7953 -0.1578
 5443SOL    HW216885   7.033   1.993   6.176  0.7481  0.0932 -0.2685
 5444SOL     OW16886   6.631   3.802   3.373 -0.4994 -0.5131 -0.0351
 5444SOL    HW116887   6.664   3.766   3.290 -1.3661 -1.4193 -0.0010
 5444SOL    HW216888   6.589   3.884   3.348 -1.5921 -1.2368 -0.6529
 5445SOL     OW16889   4.100   1.922   1.235  0.5655 -0.3633  0.5978
 5445SOL    HW116890   4.107   1.961   1.322  0.4066  0.5396  0.2214
 5445SOL    HW216891   4.188   1.891   1.215  0.3629 -1.6778  1.5560
 5446SOL     OW16892   6.382   2.718   0.760  0.2290 -0.1509  0.3488
 5446SOL    HW116893   6.313   2.770   0.721 -0.2256 -0.4817  0.6973
 5446SOL    HW216894   6.346   2.629   0.766  0.8855 -0.4547  0.0219
 5447SOL     OW16895   0.120   7.062   4.035 -0.2118 -0.2532 -0.2042
 5447SOL    HW116896   0.103   6.968   4.043 -1.2325 -0.0106  0.8281
 5447SOL    HW216897   0.159   7.072   3.948  2.9085 -2.0050  0.8357
 5448SOL     OW16898   6.154   1.429   1.310  0.1068  0.6771 -0.1642
 5448SOL    HW116899   6.157   1.523   1.295 -0.2184  1.0525  1.8482
 5448SOL    HW216900   6.112   1.419   1.395 -0.3980 -1.3293 -0.5871
 5449SOL     OW16901   0.199   4.898   3.150 -0.2398  0.2293 -0.1555
 5449SOL    HW116902   0.195   4.991   3.173  1.3129  0.6549 -1.4016
 5449SOL    HW216903   0.112   4.878   3.118 -0.6965  1.1706  0.4450
 5450SOL     OW16904   6.450   0.641   0.000 -0.8986  0.3621 -0.8004
 5450SOL    HW116905   6.465   0.623   0.093  1.3261  1.4760 -0.8695
 5450SOL    HW216906   6.362   0.677  -0.004 -0.5538  1.5086  1.0746
 5451SOL     OW16907   2.722   7.748   6.025  0.2857 -0.2570  0.9477
 5451SOL    HW116908   2.648   7.744   6.087 -0.0063  1.8468  0.8185
 5451SOL    HW216909   2.798   7.765   6.080  0.7727 -2.5660  1.0949
 5452SOL     OW16910   3.081   1.523   5.599  0.5454 -0.7433  0.1969
 5452SOL    HW116911   3.158   1.491   5.552 -0.9802 -1.8154 -1.7720
 5452SOL    HW216912   3.066   1.610   5.562  0.9925 -0.3913  0.8326
 5453SOL     OW16913   7.173   7.034   1.088 -0.0282 -0.0735 -0.4221
 5453SOL    HW116914   7.226   7.016   1.010  1.3102 -0.3384  0.5117
 5453SOL    HW216915   7.215   7.111   1.128 -0.7377  0.0969  0.0094
 5454SOL     OW16916   6.416   4.730   3.014  0.0547 -0.3994  0.6865
 5454SOL    HW116917   6.433   4.679   2.935  1.1514  0.2334  0.4876
 5454SOL    HW216918   6.419   4.666   3.085  0.8539 -0.7151  0.3887
 5455SOL     OW16919   5.011   4.941   6.887 -0.1525  0.1092 -0.2409
 5455SOL    HW116920   4.969   5.020   6.921  0.0011  0.1653 -0.1852
 5455SOL    HW216921   5.101   4.944   6.919  0.0276  0.2244 -0.7452
 5456SOL     OW16922   1.536   6.598   4.124 -0.1567 -0.2593 -0.5724
 5456SOL    HW116923   1.569   6.540   4.056 -0.4690 -0.7256 -0.3276
 5456SOL    HW216924   1.550   6.686   4.089  1.5884 -0.4158 -0.3703
 5457SOL     OW16925   5.353   2.435   1.185 -0.5003  0.4896  0.0102
 5457SOL    HW116926   5.258   2.439   1.177 -0.5990 -0.2500  0.7011
 5457SOL    HW216927   5.369   2.369   1.252  0.5118  0.4495 -0.2522
 5458SOL     OW16928   0.571   2.925   2.475 -0.3000  0.0315 -0.0902
 5458SOL    HW116929   0.531   2.901   2.559 -2.4297  1.6104 -0.5871
 5458SOL    HW216930   0.515   2.885   2.409  0.5812 -0.0509 -0.8111
 5459SOL     OW16931   4.205   6.870   7.133  0.7705 -0.5576  0.6177
 5459SOL    HW116932   4.278   6.917   7.173 -0.5027  0.6021  1.6611
 5459SOL    HW216933   4.155   6.835   7.207  0.3915 -1.5570 -0.0834
 5460SOL     OW16934   4.469   4.549   6.354  0.1401  0.1095  0.1120
 5460SOL    HW116935   4.417   4.617   6.312 -0.7572 -0.6589 -0.0710
 5460SOL    HW216936   4.552   4.591   6.376 -1.0705  1.8287  1.7428
 5461SOL     OW16937   5.586   2.332   2.860  0.2853  0.4139 -0.1590
 5461SOL    HW116938   5.619   2.321   2.950  0.6616  0.7498 -0.2528
 5461SOL    HW216939   5.513   2.393   2.868 -0.3172 -0.3142  0.0472
 5462SOL     OW16940   7.414   6.513   3.645  0.0583  0.3591  0.1582
 5462SOL    HW116941   7.476   6.518   3.572 -0.6849 -0.1467 -0.5133
 5462SOL    HW216942   7.445   6.439   3.697 -1.2128 -1.2823 -1.3501
 5463SOL     OW16943   2.173   2.090   7.019  0.6502 -0.0840 -1.2263
 5463SOL    HW116944   2.255   2.126   7.054 -1.3294  0.8342  3.1285
 5463SOL    HW216945   2.153   2.144   6.943  2.1660  2.2897 -0.0501
 5464SOL     OW16946   5.351   6.245   0.448 -0.0396 -0.5761  0.2640
 5464SOL    HW116947   5.305   6.327   0.428 -0.3425 -0.4551  1.3696
 5464SOL    HW216948   5.324   6.224   0.537  0.3418 -1.6838  0.1322
 5465SOL     OW16949   6.597   2.037   4.565 -0.1599  0.0248  1.1803
 5465SOL    HW116950   6.596   2.118   4.514  0.2594  0.7619  2.3098
 5465SOL    HW216951   6.558   1.972   4.507  1.4577  0.5173 -0.5833
 5466SOL     OW16952   2.854   6.219   5.153  0.3092 -0.6234 -0.0203
 5466SOL    HW116953   2.855   6.140   5.099  0.2834 -0.0721 -0.8417
 5466SOL    HW216954   2.777   6.208   5.209  1.1786 -1.8944  0.9978
 5467SOL     OW16955   4.915   5.937   3.636 -0.2591  0.1891  0.0146
 5467SOL    HW116956   4.884   5.898   3.554 -2.1678  0.1537  0.6908
 5467SOL    HW216957   4.854   5.903   3.702  1.1869  0.2854  1.4398
 5468SOL     OW16958   7.057   3.336   4.531 -0.2931 -0.4991  0.0667
 5468SOL    HW116959   7.000   3.404   4.566 -0.5049 -0.9980  0.7193
 5468SOL    HW216960   7.146   3.369   4.547 -0.3849 -0.7348  1.1485
 5469SOL     OW16961   6.713   7.277   0.110  0.0560 -0.4373 -0.3119
 5469SOL    HW116962   6.634   7.327   0.132  0.3573 -0.4920  0.9719
 5469SOL    HW216963   6.765   7.338   0.056 -0.9416 -0.4858 -1.3664
 5470SOL     OW16964   3.523   6.870   5.340  0.1375 -0.0937 -0.1686
 5470SOL    HW116965   3.517   6.931   5.413  0.4497  0.0416 -0.2537
 5470SOL    HW216966   3.509   6.924   5.262 -1.4041 -0.4335 -0.1580
 5471SOL     OW16967   6.089   7.299   7.445 -1.1259  0.2783  0.1038
 5471SOL    HW116968   6.143   7.297   7.525 -1.6188 -3.0290  0.5123
 5471SOL    HW216969   5.999   7.292   7.477 -1.3135 -1.3840 -0.6943
 5472SOL     OW16970   1.843   0.178   2.409 -0.2453 -0.1889 -0.0370
 5472SOL    HW116971   1.834   0.273   2.405 -1.4568 -0.3131 -0.4186
 5472SOL    HW216972   1.835   0.149   2.319 -2.6266 -0.8546  0.3211
 5473SOL     OW16973   1.846   1.971   3.970  0.0086  0.4168  0.1137
 5473SOL    HW116974   1.868   2.009   4.055 -0.9188  1.3648 -0.0515
 5473SOL    HW216975   1.837   2.047   3.912  3.3631 -0.2699 -1.5534
 5474SOL     OW16976   6.446   2.935   6.779 -0.5800 -0.1850 -0.3110
 5474SOL    HW116977   6.442   3.031   6.778  2.5957  0.0640 -0.6852
 5474SOL    HW216978   6.398   2.908   6.701  1.4999  1.4264 -2.3225
 5475SOL     OW16979   5.995   6.786   2.351  0.2284 -0.7641  0.3971
 5475SOL    HW116980   6.010   6.872   2.392  1.0543 -0.5421 -0.3232
 5475SOL    HW216981   6.000   6.804   2.257  0.2899 -1.5888  0.2406
 5476SOL     OW16982   2.352   0.829   2.223  0.0351 -0.1883 -0.1157
 5476SOL    HW116983   2.341   0.814   2.317 -1.1443 -0.8146 -0.3302
 5476SOL    HW216984   2.263   0.842   2.190  0.3670 -0.6043 -1.2378
 5477SOL     OW16985   3.595   6.454   7.101  0.1257 -0.0704 -0.5201
 5477SOL    HW116986   3.597   6.393   7.027  0.1863 -1.6955  0.7626
 5477SOL    HW216987   3.572   6.399   7.176 -0.7615  1.6739  0.5461
 5478SOL     OW16988   1.838   3.626   7.172  0.3118 -0.0025 -0.2146
 5478SOL    HW116989   1.759   3.572   7.181  1.0816 -1.3195 -0.9960
 5478SOL    HW216990   1.811   3.697   7.114 -0.8933  0.8476  1.3350
 5479SOL     OW16991   3.586   6.094   3.054 -0.1202  0.4283  0.3459
 5479SOL    HW116992   3.645   6.101   2.979 -0.9679 -0.3698 -0.4189
 5479SOL    HW216993   3.624   6.026   3.109 -1.0140 -1.1031 -0.8415
 5480SOL     OW16994   5.168   2.116   4.359  0.0042 -0.6469  0.1309
 5480SOL    HW116995   5.151   2.075   4.274  1.9537 -1.6413  0.1778
 5480SOL    HW216996   5.110   2.193   4.360 -1.5430 -1.7272 -1.2158
 5481SOL     OW16997   3.680   7.272   7.643  0.3107  0.2826  0.0646
 5481SOL    HW116998   3.733   7.320   7.580 -0.7920  0.5244 -0.7120
 5481SOL    HW216999   3.659   7.336   7.711 -1.5179  1.0960 -1.1842
 5482SOL     OW17000   1.584   2.947   1.408  0.6349 -0.6236  0.7396
 5482SOL    HW117001   1.507   3.003   1.409  1.0988  0.0291  1.4819
 5482SOL    HW217002   1.599   2.928   1.316  1.7086  2.2826  0.1787
 5483SOL     OW17003   4.402   5.389   6.558 -0.0920  0.4258 -0.0725
 5483SOL    HW117004   4.430   5.297   6.559  1.0491  0.7477 -0.5560
 5483SOL    HW217005   4.405   5.416   6.650  1.5793  0.5283 -0.1205
 5484SOL     OW17006   6.476   6.150   2.788 -0.0359  0.0578 -0.5728
 5484SOL    HW117007   6.510   6.081   2.731  0.0425  0.2687 -0.7847
 5484SOL    HW217008   6.543   6.163   2.854 -0.3901 -0.6072 -0.0760
 5485SOL     OW17009   6.843   4.868   3.393 -0.4451  0.4360 -0.5007
 5485SOL    HW117010   6.803   4.906   3.471  0.8580  0.7303  0.0497
 5485SOL    HW217011   6.793   4.788   3.377 -1.7042  1.1555 -0.2719
 5486SOL     OW17012   7.392   7.510   6.247  0.6247  0.3063 -0.3932
 5486SOL    HW117013   7.364   7.601   6.248 -1.1904 -0.2036 -1.2116
 5486SOL    HW217014   7.311   7.459   6.238  1.3683 -1.5014  2.0255
 5487SOL     OW17015   0.971   0.967   6.202  0.2905 -0.0841  0.2988
 5487SOL    HW117016   0.948   0.929   6.117  0.8728  0.6953 -0.2268
 5487SOL    HW217017   0.997   0.892   6.256  0.9763 -0.4813 -0.5620
 5488SOL     OW17018   5.208   0.379   4.914 -0.2066  0.6515 -0.1905
 5488SOL    HW117019   5.147   0.354   4.983  0.6586  1.4780  0.9387
 5488SOL    HW217020   5.157   0.434   4.855 -0.6450  1.0772  0.5620
 5489SOL     OW17021   6.581   7.175   3.722 -0.2101 -0.3347  0.1744
 5489SOL    HW117022   6.652   7.132   3.770  0.2249 -2.0830 -1.9148
 5489SOL    HW217023   6.622   7.253   3.684  0.2233 -0.6155  0.0694
 5490SOL     OW17024   6.462   2.878   0.950  0.2510 -0.2114 -0.5496
 5490SOL    HW117025   6.441   2.844   0.863 -2.4214  1.3212 -0.5825
 5490SOL    HW217026   6.379   2.911   0.984  1.4092  0.0697  2.2331
 5491SOL     OW17027   1.484   3.634   3.652 -0.0304 -0.4177  0.2213
 5491SOL    HW117028   1.396   3.598   3.649 -0.0244 -0.4787  0.7271
 5491SOL    HW217029   1.489   3.679   3.736  0.1249  0.3569 -0.1902
 5492SOL     OW17030   3.306   4.647   4.180  0.4186 -0.6815 -0.4394
 5492SOL    HW117031   3.319   4.713   4.249 -0.1091 -0.6634 -0.3485
 5492SOL    HW217032   3.211   4.647   4.165  0.5060 -0.8391 -1.0185
 5493SOL     OW17033   6.424   5.845   0.863 -0.4574  0.0164  0.6272
 5493SOL    HW117034   6.354   5.894   0.907 -0.7519  1.3489 -1.2034
 5493SOL    HW217035   6.382   5.805   0.787  0.6786  0.5807 -0.3354
 5494SOL     OW17036   0.933   6.094   7.461  0.5257 -0.2944 -0.3107
 5494SOL    HW117037   0.862   6.091   7.396  0.7086 -0.6800 -0.4958
 5494SOL    HW217038   0.955   6.002   7.477 -0.6746 -0.3141  1.5723
 5495SOL     OW17039   6.833   2.529   2.409  0.2213  0.5501  0.3481
 5495SOL    HW117040   6.755   2.477   2.430  0.6078 -0.1261  0.1312
 5495SOL    HW217041   6.825   2.547   2.315  0.7554 -0.2491  0.1457
 5496SOL     OW17042   2.073   5.972   4.446  0.3690  0.2385  0.0354
 5496SOL    HW117043   1.999   5.930   4.491  0.4373  1.2317  1.1485
 5496SOL    HW217044   2.036   6.004   4.364 -0.6351  1.2945  0.8639
 5497SOL     OW17045   5.163   3.118   5.247 -0.0141  0.2426  0.3757
 5497SOL    HW117046   5.130   3.147   5.331 -0.5586 -0.3895  0.3924
 5497SOL    HW217047   5.089   3.072   5.206  0.7449 -0.9806  0.3009
 5498SOL     OW17048   5.193   7.382   2.858  0.1378  0.5048  0.1519
 5498SOL    HW117049   5.133   7.441   2.904  0.0658 -0.0951  0.8536
 5498SOL    HW217050   5.213   7.313   2.922  1.4855  0.6278 -0.1030
 5499SOL     OW17051   0.109   4.379   6.919  0.0834  0.3549 -0.5840
 5499SOL    HW117052   0.178   4.444   6.929  1.0490 -0.9142  1.8104
 5499SOL    HW217053   0.047   4.419   6.858  3.2071  1.2634 -3.4849
 5500SOL     OW17054   3.363   6.501   6.785  0.3258 -0.2796 -0.3777
 5500SOL    HW117055   3.306   6.577   6.800  0.5959 -0.4513  1.9188
 5500SOL    HW217056   3.451   6.538   6.782  0.4365 -0.4647  0.4885
 5501SOL     OW17057   2.254   0.429   2.273 -0.1501 -0.1167  0.0425
 5501SOL    HW117058   2.215   0.483   2.342  1.4010  0.3394  0.5917
 5501SOL    HW217059   2.267   0.344   2.314 -0.3882 -0.2207 -0.0921
 5502SOL     OW17060   1.140   1.326   7.015 -0.2782  0.3891 -0.0328
 5502SOL    HW117061   1.165   1.246   6.968  2.1219 -0.0161  1.7308
 5502SOL    HW217062   1.199   1.393   6.981 -0.2796  0.7074  0.5827
 5503SOL     OW17063   6.535   6.568   2.247  0.1672  0.2283  0.1249
 5503SOL    HW117064   6.606   6.515   2.211  0.4578  0.4998  0.2964
 5503SOL    HW217065   6.561   6.585   2.338 -0.0295  0.4804  0.1352
 5504SOL     OW17066   2.325   3.552   0.283 -0.4016  0.4272  0.2143
 5504SOL    HW117067   2.400   3.493   0.283 -0.5016  0.2152  2.1498
 5504SOL    HW217068   2.261   3.509   0.341 -0.4553  2.4001  1.7479
 5505SOL     OW17069   4.874   5.494   7.717  0.6082  0.1201  0.3185
 5505SOL    HW117070   4.781   5.509   7.700  0.8735 -0.0017 -1.4269
 5505SOL    HW217071   4.913   5.581   7.714  0.3741  0.3469  2.5177
 5506SOL     OW17072   3.041   3.085   5.167  0.1552  0.8193  0.3587
 5506SOL    HW117073   3.118   3.078   5.224  0.1444 -1.7660  0.1661
 5506SOL    HW217074   2.970   3.043   5.216 -0.2356 -0.0371 -0.8781
 5507SOL     OW17075   0.198   1.121   0.324 -0.2561  0.2291 -0.1878
 5507SOL    HW117076   0.150   1.182   0.379  0.7365  0.6427  0.2352
 5507SOL    HW217077   0.277   1.100   0.373 -1.1778 -2.4935  0.3224
 5508SOL     OW17078   4.732   1.225   0.003 -0.3258  0.0536 -0.0410
 5508SOL    HW117079   4.771   1.274   0.075 -1.1914  0.0801  0.4183
 5508SOL    HW217080   4.804   1.172  -0.032  0.3524  0.8173  0.1688
 5509SOL     OW17081   4.063   2.674   1.876  0.2292  0.2024  0.0887
 5509SOL    HW117082   4.117   2.650   1.952  1.8335  1.1841 -0.6769
 5509SOL    HW217083   3.975   2.644   1.898  1.0736 -1.4573  1.4155
 5510SOL     OW17084   5.395   4.110   1.827  0.2040  0.6605 -0.5515
 5510SOL    HW117085   5.445   4.147   1.754 -0.6472  0.4180 -1.2783
 5510SOL    HW217086   5.371   4.023   1.797  0.7846  0.1276  0.4831
 5511SOL     OW17087   5.133   3.330   4.820  0.5018 -0.0145  1.0182
 5511SOL    HW117088   5.220   3.311   4.856  2.0245 -0.5744 -2.5395
 5511SOL    HW217089   5.093   3.244   4.806  1.5686 -0.1525 -1.9603
 5512SOL     OW17090   5.002   5.274   1.674 -0.3896  0.1214 -0.6150
 5512SOL    HW117091   4.930   5.251   1.733  0.1030  0.0574 -0.0247
 5512SOL    HW217092   5.077   5.225   1.708 -0.4783 -1.3186 -2.3586
 5513SOL     OW17093   6.642   4.916   0.589  0.4509 -0.7649 -0.3046
 5513SOL    HW117094   6.731   4.928   0.554  1.1326 -1.1149  1.2127
 5513SOL    HW217095   6.623   4.824   0.572  0.7539 -0.9188  0.1699
 5514SOL     OW17096   4.931   1.503   4.949 -0.1575  0.0200  0.2273
 5514SOL    HW117097   4.976   1.534   4.870  2.0486  1.1955  1.8178
 5514SOL    HW217098   4.977   1.424   4.974 -0.4993 -0.0558  0.6343
 5515SOL     OW17099   4.193   5.956   1.750  0.0348 -0.1917 -0.4346
 5515SOL    HW117100   4.149   6.039   1.736  0.6521  0.0843 -0.7530
 5515SOL    HW217101   4.176   5.935   1.842 -0.9696 -0.2262 -0.6152
 5516SOL     OW17102   5.427   0.957   5.689 -0.4941 -0.2210 -0.4951
 5516SOL    HW117103   5.468   0.889   5.742  0.6318  0.5837 -0.2969
 5516SOL    HW217104   5.346   0.978   5.736 -0.1774 -0.4711  0.1730
 5517SOL     OW17105   2.222   7.212   0.658 -0.5338  0.4210  0.1135
 5517SOL    HW117106   2.139   7.207   0.705 -0.2076  1.4458  0.8233
 5517SOL    HW217107   2.288   7.219   0.727  0.3528 -2.2131 -0.3373
 5518SOL     OW17108   5.865   5.285   2.932  0.1651  0.2853 -0.2654
 5518SOL    HW117109   5.947   5.309   2.974 -0.3903  1.7663  0.0249
 5518SOL    HW217110   5.869   5.190   2.924  1.2397  0.1848  1.1472
 5519SOL     OW17111   6.636   3.487   2.376 -0.3880 -0.3082 -0.3634
 5519SOL    HW117112   6.616   3.393   2.368 -0.5100 -0.2562 -0.6993
 5519SOL    HW217113   6.725   3.495   2.340 -0.2758 -0.3348 -0.0937
 5520SOL     OW17114   1.711   7.458   7.124 -0.3364 -0.3422  0.1191
 5520SOL    HW117115   1.642   7.516   7.157 -0.5564 -0.5403  0.0066
 5520SOL    HW217116   1.744   7.502   7.046 -0.6696 -0.4865 -0.1042
 5521SOL     OW17117   2.020   1.576   7.515 -0.4424  0.2833  0.3099
 5521SOL    HW117118   2.044   1.660   7.554 -4.2119  2.5038 -1.6044
 5521SOL    HW217119   1.973   1.530   7.585  0.8715  0.0589  1.0914
 5522SOL     OW17120   1.595   5.317   7.164  0.0835 -0.7252 -0.0439
 5522SOL    HW117121   1.564   5.366   7.239  1.6491  2.8539 -1.4872
 5522SOL    HW217122   1.677   5.277   7.193  1.3465  1.6845 -0.0752
 5523SOL     OW17123   5.099   2.802   3.853 -0.1717 -0.4010 -0.4134
 5523SOL    HW117124   5.148   2.876   3.817  0.9543 -0.1292  1.5367
 5523SOL    HW217125   5.037   2.778   3.784 -1.0174  2.7306 -0.8695
 5524SOL     OW17126   3.256   1.311   1.712 -0.1631 -0.8305 -0.3514
 5524SOL    HW117127   3.294   1.245   1.770 -0.6724  0.1073  1.1346
 5524SOL    HW217128   3.329   1.344   1.661  0.1569 -2.2620 -0.8393
 5525SOL     OW17129   6.718   5.955   0.380 -0.3027  0.4018  0.0513
 5525SOL    HW117130   6.761   6.040   0.395 -0.1056 -0.0047  2.0944
 5525SOL    HW217131   6.671   5.938   0.461 -2.5464 -0.2291 -1.3105
 5526SOL     OW17132   0.821   5.556   6.395  0.0327  0.4098  0.7760
 5526SOL    HW117133   0.791   5.555   6.304 -1.2943  0.9844  1.1812
 5526SOL    HW217134   0.818   5.464   6.421  0.2078  0.2669  0.3106
 5527SOL     OW17135   1.084   4.643   6.967 -0.3528 -0.1153  0.4297
 5527SOL    HW117136   0.996   4.681   6.956  0.0473  0.7299  0.1009
 5527SOL    HW217137   1.078   4.596   7.050 -0.3058  2.3521  1.9434
 5528SOL     OW17138   5.039   0.532   1.850  0.3296 -0.3395 -0.1754
 5528SOL    HW117139   5.017   0.439   1.853  0.5726 -0.3801  0.4881
 5528SOL    HW217140   4.960   0.577   1.880  0.3193 -0.3455 -0.1934
 5529SOL     OW17141   4.638   3.888   1.457 -0.3307 -0.0112 -0.4549
 5529SOL    HW117142   4.620   3.810   1.510  0.3551 -0.0974 -0.3391
 5529SOL    HW217143   4.724   3.917   1.486 -1.0322  1.4438  0.3088
 5530SOL     OW17144   0.134   3.556   1.073 -0.6037 -0.0088  0.0090
 5530SOL    HW117145   0.100   3.549   1.162  0.9072  0.2082  0.6320
 5530SOL    HW217146   0.117   3.646   1.047 -1.9911 -0.3543 -0.3421
 5531SOL     OW17147   2.054   5.482   2.083  0.2883 -0.2821  0.5464
 5531SOL    HW117148   2.005   5.508   2.005  0.4608  1.2034  0.8962
 5531SOL    HW217149   1.988   5.449   2.143  0.0915 -0.9547 -0.0291
 5532SOL     OW17150   6.875   0.818   0.388 -0.0605  0.1294 -0.2478
 5532SOL    HW117151   6.889   0.871   0.467 -3.7183  0.4723  0.3545
 5532SOL    HW217152   6.839   0.736   0.421  1.3333 -1.0154 -1.4621
 5533SOL     OW17153   7.482   3.696   4.897  0.2578  0.8872 -0.1090
 5533SOL    HW117154   7.493   3.607   4.931  1.3713  0.2274 -2.0239
 5533SOL    HW217155   7.446   3.746   4.970 -0.0995 -1.0609  1.1050
 5534SOL     OW17156   2.611   3.445   1.670 -0.0811 -0.5825  0.3756
 5534SOL    HW117157   2.627   3.387   1.596  0.4837  1.5873 -1.3152
 5534SOL    HW217158   2.628   3.391   1.747  0.4076 -2.6198 -1.0854
 5535SOL     OW17159   3.731   3.777   2.218 -0.5043  0.3805  0.6943
 5535SOL    HW117160   3.763   3.727   2.293  0.8818  0.5768  0.2582
 5535SOL    HW217161   3.673   3.716   2.172  0.7967 -0.7173  0.4289
 5536SOL     OW17162   2.159   5.589   3.218 -0.2125  0.2655 -0.0519
 5536SOL    HW117163   2.223   5.526   3.185  0.7082 -0.0131  2.1070
 5536SOL    HW217164   2.121   5.628   3.140  0.3309 -1.8236 -1.4368
 5537SOL     OW17165   3.104   3.420   3.503 -0.7692 -0.1033 -0.3374
 5537SOL    HW117166   3.159   3.390   3.431 -0.6516 -0.8583  0.0564
 5537SOL    HW217167   3.160   3.413   3.581 -1.8241 -2.2975  0.3158
 5538SOL     OW17168   5.092   1.975   1.765 -0.9273 -0.0969 -0.1256
 5538SOL    HW117169   5.104   1.880   1.771  1.7771  0.1110 -0.9990
 5538SOL    HW217170   5.106   1.994   1.672 -2.3914  1.0928 -0.1329
 5539SOL     OW17171   1.591   2.316   2.704 -0.1215  0.2801  0.1274
 5539SOL    HW117172   1.531   2.314   2.779  0.5255  0.9792  0.6789
 5539SOL    HW217173   1.673   2.282   2.738  0.4661  1.5347  0.0091
 5540SOL     OW17174   3.400   7.712   1.240 -0.6512 -0.3502 -0.2165
 5540SOL    HW117175   3.382   7.622   1.215  0.5495 -0.5569 -0.3975
 5540SOL    HW217176   3.319   7.759   1.222 -1.1980 -1.3341 -0.3782
 5541SOL     OW17177   3.370   4.829   5.647  0.0100  0.5794  0.0094
 5541SOL    HW117178   3.355   4.923   5.655 -1.7907  0.1562  2.7319
 5541SOL    HW217179   3.436   4.809   5.712  1.7449  0.1453 -1.7891
 5542SOL     OW17180   5.535   7.523   3.855 -0.3019 -0.4214 -0.1638
 5542SOL    HW117181   5.512   7.430   3.848  1.0239 -0.9092  1.4263
 5542SOL    HW217182   5.513   7.559   3.769 -0.8501 -2.1966 -0.8194
 5543SOL     OW17183   5.561   6.247   0.993 -0.0527  0.2596  0.7243
 5543SOL    HW117184   5.526   6.226   1.080 -2.5307 -0.2900 -0.3061
 5543SOL    HW217185   5.486   6.236   0.935  1.9908 -1.4294 -1.8151
 5544SOL     OW17186   2.555   2.582   3.221 -0.2773  0.2396 -0.1241
 5544SOL    HW117187   2.493   2.651   3.200 -1.3162 -0.7448 -0.3990
 5544SOL    HW217188   2.620   2.624   3.277 -0.8862  1.4258 -0.2768
 5545SOL     OW17189   5.944   5.988   6.540 -0.3001 -0.0047  0.3158
 5545SOL    HW117190   5.916   6.001   6.450 -0.5700  0.9405  0.5207
 5545SOL    HW217191   5.972   5.897   6.544  3.3781  0.8223 -1.7559
 5546SOL     OW17192   1.825   2.191   4.172  0.1033  0.7101  0.7451
 5546SOL    HW117193   1.839   2.265   4.113 -0.5656 -1.1180 -1.9074
 5546SOL    HW217194   1.732   2.171   4.164  0.4086 -0.8670  0.7701
 5547SOL     OW17195   4.252   2.618   4.805 -0.5727 -0.1884 -0.9138
 5547SOL    HW117196   4.191   2.676   4.849 -1.2716 -1.6369  0.0863
 5547SOL    HW217197   4.311   2.677   4.757 -1.8754  1.2783 -0.7716
 5548SOL     OW17198   6.270   3.340   5.451  0.6541 -0.2137 -0.2609
 5548SOL    HW117199   6.273   3.403   5.523 -0.8536 -0.4719  0.0760
 5548SOL    HW217200   6.205   3.275   5.479  0.8638 -0.9345 -1.3721
 5549SOL     OW17201   1.938   2.553   6.663  0.1946  0.3622 -0.5599
 5549SOL    HW117202   1.858   2.595   6.696 -1.8822 -2.7974 -1.0226
 5549SOL    HW217203   1.942   2.577   6.571 -0.2244  0.5818 -0.5222
 5550SOL     OW17204   4.467   2.205   2.790  0.1089 -0.1250 -0.2197
 5550SOL    HW117205   4.531   2.167   2.729  0.1044  2.0365 -1.6519
 5550SOL    HW217206   4.519   2.228   2.867  0.3754 -1.5761  0.0672
 5551SOL     OW17207   1.346   2.993   7.486 -0.8179  0.0792  0.3563
 5551SOL    HW117208   1.355   3.054   7.559 -0.3737  1.1717 -0.5776
 5551SOL    HW217209   1.380   2.910   7.520  0.9313  0.9664  0.9074
 5552SOL     OW17210   6.439   6.825   6.641 -0.9912 -0.1848 -0.0355
 5552SOL    HW117211   6.494   6.884   6.589  0.1989 -1.6292 -0.4926
 5552SOL    HW217212   6.401   6.765   6.577 -0.4348 -1.2688  0.6148
 5553SOL     OW17213   1.986   0.573   0.068 -0.6233  0.4150 -0.3963
 5553SOL    HW117214   2.031   0.516   0.131  1.1397 -0.0576 -1.9858
 5553SOL    HW217215   1.893   0.565   0.091 -0.1827 -0.9821  1.1210
 5554SOL     OW17216   3.533   7.081   7.526 -0.6933  0.0934  0.2829
 5554SOL    HW117217   3.592   7.039   7.463 -2.3235  0.0743 -1.3460
 5554SOL    HW217218   3.587   7.144   7.572  0.5847  0.1288 -1.1764
 5555SOL     OW17219   6.525   1.768   1.323 -0.4582 -0.1579 -0.6044
 5555SOL    HW117220   6.613   1.793   1.352 -1.0541  0.6322  0.6111
 5555SOL    HW217221   6.534   1.754   1.229  0.6020  1.6905 -0.8338
 5556SOL     OW17222   3.257   4.241   3.739 -0.0246 -0.0547  0.3828
 5556SOL    HW117223   3.256   4.261   3.833  1.9966 -1.9978  0.9060
 5556SOL    HW217224   3.318   4.168   3.731 -0.6454 -0.3732 -2.3917
 5557SOL     OW17225   3.108   3.949   1.989 -0.0020 -0.6360  0.6697
 5557SOL    HW117226   3.024   3.952   2.036 -0.0734  0.5573  0.5014
 5557SOL    HW217227   3.161   4.016   2.032  0.4101 -0.4806 -0.0748
 5558SOL     OW17228   1.498   7.183   6.437 -0.1703  0.0913 -0.1173
 5558SOL    HW117229   1.524   7.092   6.452  1.2852  0.7420  1.7152
 5558SOL    HW217230   1.408   7.188   6.470  0.9465  0.0603  3.3246
 5559SOL     OW17231   4.551   0.808   2.973 -0.3433 -0.0850  0.2921
 5559SOL    HW117232   4.550   0.734   2.913  1.8084 -0.4346  0.6148
 5559SOL    HW217233   4.505   0.776   3.051 -0.0975 -0.8244  0.1410
 5560SOL     OW17234   4.357   5.328   3.212  1.0744 -0.2940 -0.3303
 5560SOL    HW117235   4.437   5.350   3.164  0.9573  0.2773 -0.2723
 5560SOL    HW217236   4.337   5.407   3.263  0.1347 -0.2123 -0.8140
 5561SOL     OW17237   1.989   4.117   7.314 -0.2106  0.0922  0.3397
 5561SOL    HW117238   2.056   4.078   7.370  2.2600  0.5479 -2.0867
 5561SOL    HW217239   1.982   4.207   7.347  0.4519  0.0717  0.5691
 5562SOL     OW17240   5.786   3.420   4.858 -0.1551 -0.2885  0.0204
 5562SOL    HW117241   5.721   3.490   4.861 -0.5760 -0.5273 -1.9160
 5562SOL    HW217242   5.857   3.450   4.914 -1.2070  0.7523  0.8304
 5563SOL     OW17243   2.461   7.637   6.454 -0.6278  0.2628 -0.4339
 5563SOL    HW117244   2.380   7.687   6.450 -0.5610  0.3242 -1.5044
 5563SOL    HW217245   2.434   7.549   6.479 -0.6849  0.9221  2.0070
 5564SOL     OW17246   3.762   2.240   0.980  0.1558 -0.1998 -0.2363
 5564SOL    HW117247   3.692   2.182   1.007  0.0043  0.0938  0.0156
 5564SOL    HW217248   3.797   2.275   1.062 -0.5291  0.9678 -0.4132
 5565SOL     OW17249   6.742   1.639   1.019 -0.1185 -0.2105  0.7100
 5565SOL    HW117250   6.814   1.612   0.960  1.6527  0.7422  2.3235
 5565SOL    HW217251   6.784   1.650   1.104 -2.2325  0.3624  1.7401
 5566SOL     OW17252   5.967   0.509   5.526  0.6773  0.4414  0.2894
 5566SOL    HW117253   5.968   0.491   5.432  0.3753  2.1364 -0.0797
 5566SOL    HW217254   5.881   0.549   5.542  2.2406  4.2482  0.3637
 5567SOL     OW17255   3.244   2.548   6.377  0.3321 -0.5753  0.0451
 5567SOL    HW117256   3.164   2.505   6.345  0.9241 -1.8460  0.2129
 5567SOL    HW217257   3.307   2.539   6.306  1.7686 -3.7165  1.5177
 5568SOL     OW17258   1.155   2.942   7.270 -0.5159 -0.0251  0.4726
 5568SOL    HW117259   1.085   2.918   7.330 -2.4407  2.8138 -0.3796
 5568SOL    HW217260   1.212   3.000   7.321 -1.1421  0.9250  0.1407
 5569SOL     OW17261   2.000   0.499   5.466 -0.5098  0.4575  0.2441
 5569SOL    HW117262   1.921   0.515   5.518 -1.1973  0.9722 -0.9305
 5569SOL    HW217263   1.980   0.421   5.415  1.4330 -2.1774  3.1638
 5570SOL     OW17264   2.271   0.591   4.946  0.0050  0.1858 -0.6152
 5570SOL    HW117265   2.210   0.581   5.019  0.7942  1.1993  0.2226
 5570SOL    HW217266   2.215   0.603   4.869 -0.9212  2.2930  0.2953
 5571SOL     OW17267   2.167   6.861   4.586  0.2391  0.2736  0.1445
 5571SOL    HW117268   2.075   6.865   4.612  0.0418 -1.6892 -0.1148
 5571SOL    HW217269   2.165   6.852   4.491  0.6922 -0.1906  0.1778
 5572SOL     OW17270   1.699   4.735   2.731  0.0852 -0.3220  0.0286
 5572SOL    HW117271   1.616   4.705   2.768 -1.3765  2.0392 -1.0747
 5572SOL    HW217272   1.757   4.746   2.806 -1.0812 -0.6255  0.9902
 5573SOL     OW17273   4.054   5.237   3.155  0.8158  0.1984 -0.0476
 5573SOL    HW117274   4.133   5.250   3.103  1.0993  0.5769  0.4604
 5573SOL    HW217275   4.063   5.149   3.191  2.0881  1.0054  1.7559
 5574SOL     OW17276   5.546   5.636   7.519 -0.1866 -0.0691  0.0268
 5574SOL    HW117277   5.452   5.640   7.536  0.1923 -0.3790  2.5403
 5574SOL    HW217278   5.570   5.725   7.493 -1.0548  0.1872  0.0913
 5575SOL     OW17279   3.216   5.228   1.795  0.4169  0.4943  0.5772
 5575SOL    HW117280   3.290   5.171   1.773  0.4788  0.6399  0.3993
 5575SOL    HW217281   3.154   5.171   1.839 -0.4407 -0.2106 -1.4127
 5576SOL     OW17282   5.014   2.196   1.547  0.0290  0.1988  0.2889
 5576SOL    HW117283   4.939   2.140   1.565  0.5539 -0.5857  0.0878
 5576SOL    HW217284   4.977   2.283   1.534 -0.8207 -0.1439  0.3797
 5577SOL     OW17285   3.943   5.992   3.384 -0.2667  0.1370  0.0614
 5577SOL    HW117286   4.030   6.000   3.347 -1.1307  0.6659 -1.9670
 5577SOL    HW217287   3.948   6.041   3.467  0.8397  1.9406 -1.0051
 5578SOL     OW17288   4.818   3.124   7.616 -0.1890 -0.1288 -0.5726
 5578SOL    HW117289   4.898   3.132   7.564  0.7442  1.0551  0.9779
 5578SOL    HW217290   4.844   3.072   7.692 -1.6249 -2.1559 -1.3683
 5579SOL     OW17291   1.672   2.860   3.724  0.6299  0.1719  0.0570
 5579SOL    HW117292   1.676   2.855   3.628  0.5369 -0.0981  0.0656
 5579SOL    HW217293   1.582   2.886   3.743  1.4250  3.3264 -0.0325
 5580SOL     OW17294   3.416   6.046   7.038  0.5230  0.2266 -0.3034
 5580SOL    HW117295   3.471   6.119   7.010  0.0289 -0.0098 -2.0325
 5580SOL    HW217296   3.340   6.050   6.980 -0.3976 -0.5580  0.8083
 5581SOL     OW17297   3.962   3.108   5.828 -0.5277 -0.2551 -0.0711
 5581SOL    HW117298   4.014   3.079   5.903 -0.4375 -1.2942 -0.5151
 5581SOL    HW217299   3.995   3.195   5.808  0.8545 -0.7692 -0.1546
 5582SOL     OW17300   6.580   6.238   7.036  0.1946  0.2109  0.4384
 5582SOL    HW117301   6.543   6.231   6.948 -1.2012  1.2991  0.8966
 5582SOL    HW217302   6.527   6.178   7.089  0.7192 -0.0860  0.6292
 5583SOL     OW17303   1.352   2.743   6.398  0.3227  0.5918  0.2497
 5583SOL    HW117304   1.360   2.817   6.459  1.8721 -0.2461  1.1335
 5583SOL    HW217305   1.408   2.675   6.436 -0.0848 -0.5993 -1.2020
 5584SOL     OW17306   6.029   2.389   1.533 -0.2622  0.1726 -0.8375
 5584SOL    HW117307   6.076   2.462   1.492 -0.1739  0.1310 -0.8092
 5584SOL    HW217308   5.962   2.431   1.587  1.0112  0.2972  0.6989
 5585SOL     OW17309   6.083   4.657   3.019 -0.2497  0.4452 -0.9950
 5585SOL    HW117310   6.172   4.639   3.046  0.3325 -0.1757 -3.1612
 5585SOL    HW217311   6.056   4.581   2.968 -2.1014  0.5328 -0.2580
 5586SOL     OW17312   7.433   7.239   0.406 -0.3430 -0.2844 -0.1201
 5586SOL    HW117313   7.361   7.289   0.367 -2.0404 -1.7039  1.0661
 5586SOL    HW217314   7.483   7.207   0.331 -1.2417  0.2983 -0.9901
 5587SOL     OW17315   2.333   3.504   0.581  0.1571  0.7058  0.1117
 5587SOL    HW117316   2.330   3.504   0.677  2.1551 -0.1947  0.2279
 5587SOL    HW217317   2.243   3.486   0.554 -0.5308  1.4399  1.8033
 5588SOL     OW17318   3.286   2.030   5.594  0.0180 -0.1480 -0.7421
 5588SOL    HW117319   3.262   2.088   5.522  1.8910  0.0903 -1.2311
 5588SOL    HW217320   3.278   1.942   5.558  2.7088 -0.0032 -1.9422
 5589SOL     OW17321   7.129   7.573   2.415 -0.6881  0.4394  0.0823
 5589SOL    HW117322   7.151   7.616   2.498  1.9317 -0.7549  0.1328
 5589SOL    HW217323   7.127   7.644   2.351 -1.4991  1.2236  0.9372
 5590SOL     OW17324   0.966   7.435   2.210  0.2610  0.2143 -0.1123
 5590SOL    HW117325   0.896   7.497   2.229  0.9422  0.7215  0.8594
 5590SOL    HW217326   0.972   7.380   2.289  0.1889 -0.5833 -0.6461
 5591SOL     OW17327   2.718   1.226   7.336  0.4620  0.5673 -0.1950
 5591SOL    HW117328   2.804   1.199   7.302 -0.0376 -0.7589 -0.4354
 5591SOL    HW217329   2.708   1.317   7.305  1.5732  0.5839 -0.5513
 5592SOL     OW17330   5.726   1.595   5.559 -0.3779 -0.2507  0.2893
 5592SOL    HW117331   5.668   1.528   5.524 -0.5418  0.4315 -0.7934
 5592SOL    HW217332   5.689   1.677   5.527  2.1972  0.1252 -2.0813
 5593SOL     OW17333   0.695   4.061   0.444  0.3873 -0.3258 -0.5456
 5593SOL    HW117334   0.739   4.146   0.448 -0.0094 -0.1621  2.2391
 5593SOL    HW217335   0.606   4.081   0.416  0.2297  0.2439  0.3238
 5594SOL     OW17336   0.669   6.320   4.072  0.6224 -0.1341  0.1688
 5594SOL    HW117337   0.642   6.242   4.121  1.0251  0.5635  1.5462
 5594SOL    HW217338   0.643   6.394   4.128 -2.0376  0.9018 -2.2093
 5595SOL     OW17339   7.357   4.039   7.345 -0.4511 -0.2144 -0.3788
 5595SOL    HW117340   7.445   4.002   7.356 -0.7679 -0.6872  0.7030
 5595SOL    HW217341   7.369   4.111   7.283  0.6078 -0.5818 -0.6344
 5596SOL     OW17342   4.836   5.460   2.782 -0.1936  0.0854 -0.1401
 5596SOL    HW117343   4.786   5.410   2.718 -2.1072  0.2363  1.1423
 5596SOL    HW217344   4.891   5.395   2.826  0.4062 -0.1732 -1.2465
 5597SOL     OW17345   3.050   7.193   7.108 -0.2198 -0.0412  0.1752
 5597SOL    HW117346   3.009   7.269   7.148 -1.8996 -0.7502 -0.1157
 5597SOL    HW217347   3.076   7.137   7.182 -2.0818 -0.7227  0.3605
 5598SOL     OW17348   4.604   0.184   3.456 -0.0016 -0.2114  0.0411
 5598SOL    HW117349   4.596   0.254   3.520 -0.5523 -0.5421  0.3460
 5598SOL    HW217350   4.643   0.225   3.379 -1.5826  0.7543 -0.2855
 5599SOL     OW17351   3.243   5.257   3.677  0.0182  0.1589  0.2697
 5599SOL    HW117352   3.331   5.219   3.687  1.4971  2.5375 -2.3612
 5599SOL    HW217353   3.196   5.193   3.624  0.6603 -0.4354  0.3873
 5600SOL     OW17354   5.823   6.246   2.667  0.2845  0.2172  0.4335
 5600SOL    HW117355   5.837   6.337   2.696 -0.0365  0.3669  0.1314
 5600SOL    HW217356   5.783   6.203   2.742 -3.4218  1.3604 -0.6614
 5601SOL     OW17357   6.458   5.590   5.127  0.0706  0.3425  0.3544
 5601SOL    HW117358   6.426   5.612   5.039  0.5627 -0.5375 -0.0584
 5601SOL    HW217359   6.532   5.649   5.141  0.2293  0.2240  0.0186
 5602SOL     OW17360   1.319   5.997   1.603  0.5859 -0.0267  0.2558
 5602SOL    HW117361   1.382   6.058   1.642  0.9389 -0.6862  0.7300
 5602SOL    HW217362   1.373   5.929   1.562  0.1964 -0.8935  1.1413
 5603SOL     OW17363   7.318   6.511   6.163  0.0124 -0.4679 -0.2406
 5603SOL    HW117364   7.385   6.490   6.228  1.2202  2.2622 -0.4666
 5603SOL    HW217365   7.350   6.472   6.082  1.5641  1.0263 -0.4095
 5604SOL     OW17366   2.644   3.488   2.900  0.0279 -0.5959 -0.4459
 5604SOL    HW117367   2.618   3.580   2.905  0.2600 -0.5257 -0.4771
 5604SOL    HW217368   2.693   3.473   2.981 -1.1125 -1.0495  0.1686
 5605SOL     OW17369   5.587   7.433   2.826  0.6715 -0.5530  0.3068
 5605SOL    HW117370   5.556   7.448   2.916  0.3342 -0.8091  0.2342
 5605SOL    HW217371   5.648   7.360   2.834  1.3553  0.0201  0.4662
 5606SOL     OW17372   1.369   6.451   3.038 -0.1879 -0.0936  0.0565
 5606SOL    HW117373   1.277   6.475   3.026 -0.5019 -1.1562  0.2424
 5606SOL    HW217374   1.383   6.458   3.133 -0.3861 -0.9729  0.1577
 5607SOL     OW17375   5.590   1.830   3.685 -0.1007 -0.0302  0.2200
 5607SOL    HW117376   5.562   1.921   3.685 -1.3604 -0.3228 -2.5027
 5607SOL    HW217377   5.684   1.834   3.700 -0.4254  1.5162  2.2841
 5608SOL     OW17378   7.086   5.981   6.962 -0.4912 -0.4950  0.8014
 5608SOL    HW117379   6.995   5.952   6.964 -0.3480 -0.9375  0.9380
 5608SOL    HW217380   7.136   5.907   6.996 -0.0870 -0.2234  0.8082
 5609SOL     OW17381   3.529   6.035   5.301 -0.4933  0.3114  0.8492
 5609SOL    HW117382   3.561   6.091   5.231 -0.9280  1.8326  1.8158
 5609SOL    HW217383   3.595   6.041   5.370  1.1475 -3.0495 -0.2206
 5610SOL     OW17384   6.205   4.446   5.887  0.0275 -0.3201  0.1882
 5610SOL    HW117385   6.118   4.420   5.856 -0.5064  0.7733  0.6659
 5610SOL    HW217386   6.225   4.526   5.838 -1.0977  1.7954  2.8434
 5611SOL     OW17387   5.984   2.080   5.897  0.3475 -0.2355  0.0304
 5611SOL    HW117388   6.016   2.160   5.940 -0.9110 -0.0420  0.6604
 5611SOL    HW217389   5.984   2.102   5.804 -1.5049  1.1482  0.2807
 5612SOL     OW17390   6.128   6.960   3.427  0.3189  0.4208 -0.3427
 5612SOL    HW117391   6.121   6.913   3.344  0.9591  0.2082 -0.2779
 5612SOL    HW217392   6.211   7.006   3.421  0.5308  0.1318  0.3183
 5613SOL     OW17393   2.599   6.701   0.427  0.0953  0.0290 -0.0514
 5613SOL    HW117394   2.606   6.794   0.409  1.7641 -0.4408 -2.2155
 5613SOL    HW217395   2.689   6.670   0.432 -0.3278 -1.9393 -2.4474
 5614SOL     OW17396   5.335   3.345   5.225 -0.2291  0.0309  0.7704
 5614SOL    HW117397   5.381   3.315   5.304 -0.2659  1.1177  1.2213
 5614SOL    HW217398   5.259   3.287   5.218 -0.1762 -0.1314  1.4832
 5615SOL     OW17399   4.555   6.312   5.565 -0.2124  0.3097 -0.0057
 5615SOL    HW117400   4.478   6.266   5.530  0.1391  0.5420 -1.1288
 5615SOL    HW217401   4.521   6.365   5.637 -0.9585 -0.2142  0.0389
 5616SOL     OW17402   6.513   7.547   3.838  0.0171  0.0271 -0.0660
 5616SOL    HW117403   6.591   7.503   3.804 -1.2312 -1.8923 -0.6355
 5616SOL    HW217404   6.517   7.534   3.932 -2.1427 -4.9558 -0.3461
 5617SOL     OW17405   1.270   2.483   1.187  0.2552 -0.2906  0.1753
 5617SOL    HW117406   1.289   2.571   1.218  1.1769 -0.2152 -0.5595
 5617SOL    HW217407   1.184   2.463   1.224  1.2169 -0.1827  2.7012
 5618SOL     OW17408   6.493   3.197   6.853 -0.1106 -0.3376 -0.5229
 5618SOL    HW117409   6.581   3.188   6.890  0.2673 -3.0152 -1.8644
 5618SOL    HW217410   6.508   3.227   6.764 -0.5743 -0.7361 -0.7359
 5619SOL     OW17411   0.784   6.589   6.842 -0.9863 -0.1860 -0.5459
 5619SOL    HW117412   0.710   6.636   6.881 -1.2217  0.0760 -1.2902
 5619SOL    HW217413   0.744   6.515   6.796 -0.7210 -0.4621 -0.3328
 5620SOL     OW17414   0.393   5.581   2.392  0.3596 -0.4844 -0.0097
 5620SOL    HW117415   0.337   5.630   2.453  0.1530 -1.0021  0.2228
 5620SOL    HW217416   0.406   5.497   2.434  0.8919 -0.5542 -0.3103
 5621SOL     OW17417   7.264   5.595   6.106 -0.3299 -0.0356  0.0353
 5621SOL    HW117418   7.221   5.548   6.035  0.5177  0.2895 -0.7238
 5621SOL    HW217419   7.234   5.552   6.186 -0.9724 -0.6822 -0.5449
 5622SOL     OW17420   7.744   4.131   2.815  0.7056  0.2555 -0.6728
 5622SOL    HW117421   7.654   4.162   2.817  0.9161  0.8552 -0.2876
 5622SOL    HW217422   7.798   4.210   2.817  1.3065  0.0150  3.7244
 5623SOL     OW17423   5.032   6.273   2.252  0.2679  0.6860  0.0758
 5623SOL    HW117424   5.126   6.292   2.252  0.3405  0.3438  0.4968
 5623SOL    HW217425   5.015   6.238   2.339 -0.3688  1.2954  0.2054
 5624SOL     OW17426   2.034   6.897   4.922  0.5396 -0.1366  0.4285
 5624SOL    HW117427   2.051   6.821   4.978 -0.1171  0.3199  1.2673
 5624SOL    HW217428   2.116   6.947   4.924  0.8214 -0.5929  0.2376
 5625SOL     OW17429   5.007   2.213   0.458 -0.5168 -0.5412 -0.2878
 5625SOL    HW117430   5.093   2.227   0.497 -1.2865  1.3056  0.8943
 5625SOL    HW217431   5.009   2.123   0.426  1.4498 -0.9028  0.7187
 5626SOL     OW17432   3.979   4.576   4.005 -0.4990  0.0002 -0.0909
 5626SOL    HW117433   3.894   4.619   4.018  0.3415  1.1103  2.2372
 5626SOL    HW217434   3.961   4.483   4.020 -1.2458  0.2723  0.7926
 5627SOL     OW17435   0.500   1.915   1.126  0.1616  0.0975  0.2313
 5627SOL    HW117436   0.551   1.859   1.185  0.7705 -0.5024 -0.8463
 5627SOL    HW217437   0.416   1.926   1.171  0.9696  0.5483  1.7132
 5628SOL     OW17438   1.987   4.242   2.173  0.0940  0.0133  0.2205
 5628SOL    HW117439   1.932   4.204   2.104  0.1789  0.9602 -0.3892
 5628SOL    HW217440   2.077   4.218   2.148  0.0758 -0.2546  0.4029
 5629SOL     OW17441   5.071   6.732   1.609 -0.1504 -0.0749 -0.5463
 5629SOL    HW117442   5.126   6.692   1.677 -1.8818  0.5171  1.2780
 5629SOL    HW217443   5.112   6.817   1.594 -0.0475  0.0101  0.1516
 5630SOL     OW17444   1.391   0.629   2.206  0.9968 -0.6471  0.2065
 5630SOL    HW117445   1.311   0.587   2.238 -0.2583  0.6680 -1.0181
 5630SOL    HW217446   1.360   0.689   2.137  2.8355  1.1564  0.8422
 5631SOL     OW17447   3.180   3.786   7.716  0.4222  0.1723 -0.2146
 5631SOL    HW117448   3.130   3.867   7.710 -0.0356 -0.1964 -1.6723
 5631SOL    HW217449   3.146   3.743   7.794 -0.5965  0.5464 -0.4379
 5632SOL     OW17450   1.539   1.930   1.165 -0.4188 -0.4275 -0.2777
 5632SOL    HW117451   1.570   1.839   1.170 -0.3961 -0.5426 -1.8260
 5632SOL    HW217452   1.614   1.983   1.192 -0.9266 -0.8700  2.2509
 5633SOL     OW17453   5.497   5.573   1.333  0.1603 -0.0458  0.1868
 5633SOL    HW117454   5.423   5.565   1.273 -0.4392 -2.6795  1.1613
 5633SOL    HW217455   5.479   5.654   1.382 -1.7543 -0.3021 -0.0294
 5634SOL     OW17456   1.300   1.707   6.266 -0.5610  0.2001 -0.4421
 5634SOL    HW117457   1.245   1.767   6.316  1.3824  1.7870 -0.0872
 5634SOL    HW217458   1.353   1.663   6.333 -0.7931 -0.7164 -0.8407
 5635SOL     OW17459   0.787   5.556   4.770  0.4019  0.0947  0.1671
 5635SOL    HW117460   0.835   5.551   4.852 -0.8156  2.4362  1.0901
 5635SOL    HW217461   0.730   5.632   4.779 -0.8374 -0.4322 -2.2929
 5636SOL     OW17462   0.784   0.898   0.643  0.0988 -0.2370 -0.4674
 5636SOL    HW117463   0.759   0.929   0.556 -0.3979 -1.2850 -0.7114
 5636SOL    HW217464   0.780   0.976   0.698 -3.1705 -0.1624 -0.6163
 5637SOL     OW17465   1.246   0.309   6.918 -0.1596  0.0661 -0.5599
 5637SOL    HW117466   1.296   0.334   6.996 -0.2199  0.5798 -0.6803
 5637SOL    HW217467   1.265   0.216   6.906  1.2104  0.3678 -0.9254
 5638SOL     OW17468   0.317   6.804   5.468  0.1096  0.4209  0.5508
 5638SOL    HW117469   0.309   6.710   5.449 -0.0264  0.3050  1.1509
 5638SOL    HW217470   0.410   6.817   5.483 -0.1173 -0.1351  2.9050
 5639SOL     OW17471   0.356   6.178   1.193  0.2359 -0.7494 -0.3640
 5639SOL    HW117472   0.336   6.228   1.115 -0.7543 -1.3839 -0.5334
 5639SOL    HW217473   0.401   6.240   1.251  1.0075 -0.2839 -1.4276
 5640SOL     OW17474   4.667   3.631   7.168 -0.5508 -0.3854 -0.5915
 5640SOL    HW117475   4.692   3.720   7.191 -0.0649 -0.3243 -1.2959
 5640SOL    HW217476   4.712   3.615   7.085 -1.9079 -0.7261 -1.2813
 5641SOL     OW17477   1.152   7.693   7.159  0.6938  0.1608  0.5264
 5641SOL    HW117478   1.234   7.687   7.110  1.1433 -3.0679  1.4323
 5641SOL    HW217479   1.084   7.702   7.092  1.5630 -0.5256 -0.4835
 5642SOL     OW17480   6.265   5.046   4.093  0.0931  0.3487 -0.1287
 5642SOL    HW117481   6.261   5.142   4.090 -0.1992  0.3120 -1.5442
 5642SOL    HW217482   6.358   5.026   4.099  0.0849  0.7222  2.3638
 5643SOL     OW17483   1.157   4.872   4.621  0.1049  0.0130  0.6097
 5643SOL    HW117484   1.127   4.853   4.532 -1.6578 -1.3430  1.4164
 5643SOL    HW217485   1.110   4.951   4.646  0.2515  0.1361  0.4970
 5644SOL     OW17486   0.125   3.055   2.286 -0.5297 -0.1885 -0.3002
 5644SOL    HW117487   0.072   3.067   2.365 -1.7917  0.8392 -1.2604
 5644SOL    HW217488   0.161   2.967   2.295 -0.6794 -0.1099  1.3878
 5645SOL     OW17489   7.153   1.514   2.797  0.0238 -0.3754 -0.3660
 5645SOL    HW117490   7.071   1.467   2.780 -0.0835 -0.8735  1.3358
 5645SOL    HW217491   7.125   1.595   2.838  0.3832 -0.6263  0.3832
 5646SOL     OW17492   6.044   6.839   3.833  0.4685 -0.2224 -0.6783
 5646SOL    HW117493   6.133   6.807   3.846  0.5059  0.5264  1.1091
 5646SOL    HW217494   5.992   6.759   3.820  1.1858 -0.7438 -0.4127
 5647SOL     OW17495   5.848   1.419   0.651  0.3239  0.1086  0.1661
 5647SOL    HW117496   5.831   1.511   0.629  1.0829  0.9360  2.6815
 5647SOL    HW217497   5.931   1.399   0.607  0.0912  0.5644 -0.5000
 5648SOL     OW17498   4.919   7.141   6.206  0.4167  0.3897  0.3346
 5648SOL    HW117499   4.845   7.081   6.204  1.6861 -1.2463 -0.3833
 5648SOL    HW217500   4.908   7.192   6.286 -1.2346 -0.1143  0.4516
 5649SOL     OW17501   3.813   3.559   6.290 -0.0677 -0.4148 -0.3544
 5649SOL    HW117502   3.867   3.490   6.252  0.5136  0.3809 -1.0212
 5649SOL    HW217503   3.750   3.513   6.345  0.5491 -1.4408 -0.4836
 5650SOL     OW17504   6.359   7.133   4.451  0.0382  0.1719 -0.3524
 5650SOL    HW117505   6.394   7.046   4.472  0.2823 -0.2392 -2.2535
 5650SOL    HW217506   6.354   7.178   4.535  0.6207 -1.4220  0.5788
 5651SOL     OW17507   6.188   1.104   3.329  0.5683  0.3207  0.0859
 5651SOL    HW117508   6.099   1.109   3.364 -0.1970  0.2886 -1.7453
 5651SOL    HW217509   6.234   1.045   3.389 -0.6090  0.4284  1.1340
 5652SOL     OW17510   6.066   7.104   4.467  0.3554 -0.5203 -1.0410
 5652SOL    HW117511   6.137   7.166   4.452  0.1234  0.0533  0.1465
 5652SOL    HW217512   6.000   7.126   4.401  0.8036 -0.3124 -1.4182
 5653SOL     OW17513   1.865   0.377   4.043 -0.0474 -0.6250  0.4150
 5653SOL    HW117514   1.943   0.325   4.065 -0.2899 -0.8445  0.7669
 5653SOL    HW217515   1.833   0.340   3.962 -0.3011 -1.1165  0.7397
 5654SOL     OW17516   7.059   4.057   3.680  0.0479  0.5782 -0.4057
 5654SOL    HW117517   7.022   3.978   3.641 -0.5621  1.1840 -1.0848
 5654SOL    HW217518   7.096   4.106   3.607 -0.6181  1.4682 -0.1703
 5655SOL     OW17519   2.995   3.193   0.131 -0.2808  0.5885  0.4314
 5655SOL    HW117520   3.031   3.280   0.141  1.7085 -0.2199  0.6482
 5655SOL    HW217521   3.050   3.137   0.186 -2.9038 -0.5056  2.1628
 5656SOL     OW17522   3.379   3.502   1.849 -0.5001  0.8598 -0.2207
 5656SOL    HW117523   3.287   3.520   1.867 -0.4713  0.6400  0.1509
 5656SOL    HW217524   3.428   3.561   1.906 -0.4020  1.5538 -0.9978
 5657SOL     OW17525   0.649   1.563   0.859 -0.1880  0.7231  0.1287
 5657SOL    HW117526   0.626   1.617   0.935 -1.3518  0.1539  0.1997
 5657SOL    HW217527   0.567   1.521   0.833  0.6081 -0.7241 -0.1632
 5658SOL     OW17528   2.927   5.148   0.454  0.2750 -0.0069 -0.0374
 5658SOL    HW117529   2.853   5.110   0.501  0.1278  1.6455  1.1635
 5658SOL    HW217530   2.997   5.084   0.463  0.6318  0.6563  3.5654
 5659SOL     OW17531   6.468   5.592   6.978 -0.7329  0.4292 -0.1965
 5659SOL    HW117532   6.489   5.566   7.068 -1.6125  1.3676  0.3011
 5659SOL    HW217533   6.520   5.532   6.924 -0.1838 -0.1596  0.9228
 5660SOL     OW17534   7.122   4.655   6.836  0.3301 -0.0435 -0.2371
 5660SOL    HW117535   7.031   4.651   6.865  0.6732  2.7874  1.5550
 5660SOL    HW217536   7.159   4.570   6.861 -1.3026 -0.4593  0.8998
 5661SOL     OW17537   6.843   2.701   5.249 -0.4372  0.2205  0.8916
 5661SOL    HW117538   6.761   2.736   5.213 -0.9690 -0.4003  1.4666
 5661SOL    HW217539   6.816   2.623   5.296  0.8105 -1.4525 -1.0206
 5662SOL     OW17540   6.423   3.322   3.408  0.4883  0.0622 -0.0667
 5662SOL    HW117541   6.468   3.240   3.388  0.1069 -0.1549 -0.0466
 5662SOL    HW217542   6.424   3.371   3.326 -1.4798 -1.0125 -0.7935
 5663SOL     OW17543   4.816   5.858   3.035  0.2580 -0.3192 -0.5283
 5663SOL    HW117544   4.906   5.835   3.055 -0.2073 -2.6351 -0.8527
 5663SOL    HW217545   4.777   5.876   3.121  0.9975  0.7297 -0.3894
 5664SOL     OW17546   0.444   3.383   3.624 -0.2611 -0.9970  0.2717
 5664SOL    HW117547   0.501   3.452   3.657 -0.3498 -0.9919  0.4166
 5664SOL    HW217548   0.357   3.421   3.625 -0.2177 -0.8766 -0.3135
 5665SOL     OW17549   2.970   0.942   4.583 -0.1646 -0.1751  0.2785
 5665SOL    HW117550   2.944   0.940   4.491  3.0578 -1.5667 -0.7666
 5665SOL    HW217551   2.942   0.857   4.618 -1.9261  0.5941  0.8011
 5666SOL     OW17552   2.067   1.419   1.424  0.0195  0.2188 -0.5339
 5666SOL    HW117553   1.973   1.416   1.443  0.5007 -1.0812  2.1155
 5666SOL    HW217554   2.097   1.499   1.469  0.3628 -0.0694 -0.2454
 5667SOL     OW17555   0.777   4.416   1.728  0.1731 -0.0976 -0.1995
 5667SOL    HW117556   0.849   4.422   1.666  0.2423  0.9533 -0.0342
 5667SOL    HW217557   0.817   4.433   1.814 -0.1087 -0.4615  0.0118
 5668SOL     OW17558   1.096   6.549   4.359 -0.0785 -0.0402 -0.3917
 5668SOL    HW117559   1.164   6.579   4.419  0.4388 -1.7064 -0.0944
 5668SOL    HW217560   1.014   6.578   4.399  0.2867 -0.7569  0.9342
 5669SOL     OW17561   3.453   1.745   7.588  0.1578 -0.3477 -0.0018
 5669SOL    HW117562   3.439   1.786   7.673  1.6038  0.7666 -0.2522
 5669SOL    HW217563   3.392   1.672   7.586 -0.0502 -0.2791  1.9071
 5670SOL     OW17564   5.297   2.721   6.133  0.2116  0.2130 -0.1951
 5670SOL    HW117565   5.254   2.800   6.102 -0.0023 -0.1056 -0.7159
 5670SOL    HW217566   5.360   2.752   6.199  1.3321  0.9997 -1.5770
 5671SOL     OW17567   1.033   5.830   2.053  0.3691 -0.4616  0.5993
 5671SOL    HW117568   0.947   5.850   2.014 -0.2455 -0.0356  2.0957
 5671SOL    HW217569   1.089   5.812   1.978 -0.3381  1.8827 -0.6036
 5672SOL     OW17570   3.979   4.862   1.354  0.3231  0.2123 -0.1800
 5672SOL    HW117571   4.006   4.771   1.355  2.6607  0.8362  0.9250
 5672SOL    HW217572   4.058   4.910   1.326 -1.1586  1.8298 -1.8667
 5673SOL     OW17573   2.077   4.447   5.252 -0.0372  0.0941 -0.3706
 5673SOL    HW117574   2.117   4.526   5.217  1.4417  0.1965  1.4231
 5673SOL    HW217575   1.982   4.462   5.246  0.2211  1.7617 -0.5453
 5674SOL     OW17576   0.363   0.681   0.155  0.1688  0.0894 -0.8797
 5674SOL    HW117577   0.427   0.617   0.186 -1.8776 -0.9316  1.6023
 5674SOL    HW217578   0.352   0.661   0.062  2.1545 -0.7895 -0.9803
 5675SOL     OW17579   3.713   0.264   0.207  0.2459  0.2619  0.1564
 5675SOL    HW117580   3.649   0.313   0.259 -1.2156 -1.2725 -0.0927
 5675SOL    HW217581   3.792   0.263   0.261 -0.6108  0.3835  1.4686
 5676SOL     OW17582   6.597   5.978   0.129  0.4495  0.2183  0.0152
 5676SOL    HW117583   6.666   5.983   0.195  0.4646  1.4397 -0.0691
 5676SOL    HW217584   6.534   6.046   0.155 -0.3256 -0.3517 -0.3466
 5677SOL     OW17585   6.230   4.054   0.448  0.2297  0.2470  0.2281
 5677SOL    HW117586   6.301   4.042   0.511  0.4504 -0.4009 -0.1339
 5677SOL    HW217587   6.205   3.965   0.424  1.2207  0.4573 -1.7956
 5678SOL     OW17588   0.948   2.921   5.872 -0.5084 -0.1278 -0.0086
 5678SOL    HW117589   0.890   2.863   5.824  0.4758 -1.1715  0.0249
 5678SOL    HW217590   0.910   3.008   5.861 -1.0890 -0.5473 -1.4499
 5679SOL     OW17591   5.473   4.855   2.570  0.2915  0.1166  0.1051
 5679SOL    HW117592   5.479   4.938   2.523 -1.8537 -0.2791 -0.9874
 5679SOL    HW217593   5.472   4.879   2.663 -2.6196  1.5848 -0.1992
 5680SOL     OW17594   1.072   2.492   3.092  0.2920  0.1324 -0.5891
 5680SOL    HW117595   1.087   2.411   3.044 -0.8623  0.1858 -1.0489
 5680SOL    HW217596   0.981   2.487   3.120  0.8069  0.3033  1.2329
 5681SOL     OW17597   4.620   6.707   6.026 -0.0875  0.1215  0.2717
 5681SOL    HW117598   4.653   6.623   5.994 -0.6533 -0.1841  0.4898
 5681SOL    HW217599   4.560   6.684   6.097  0.0477  0.7278  0.5924
 5682SOL     OW17600   3.250   4.944   3.057 -0.8234  0.1083  0.3115
 5682SOL    HW117601   3.174   4.974   3.106  0.4357  2.4048  1.0028
 5682SOL    HW217602   3.285   5.024   3.016  0.4048 -1.1156 -1.1404
 5683SOL     OW17603   4.787   2.838   1.654  0.3327 -0.0977 -0.0978
 5683SOL    HW117604   4.867   2.882   1.684  1.6736 -2.4632  0.0968
 5683SOL    HW217605   4.800   2.746   1.680 -2.3375 -0.6115 -0.3575
 5684SOL     OW17606   2.951   4.704   4.953 -0.0812 -0.0583 -0.6625
 5684SOL    HW117607   2.913   4.651   4.882  0.1632 -0.9736 -0.1246
 5684SOL    HW217608   2.984   4.782   4.909 -0.2686 -0.4411 -1.5103
 5685SOL     OW17609   7.352   0.188   4.710  0.0208  0.3641  0.0503
 5685SOL    HW117610   7.265   0.175   4.670 -0.3426  1.6330  0.3851
 5685SOL    HW217611   7.339   0.260   4.772  0.7205 -1.1262  2.0101
 5686SOL     OW17612   3.233   7.318   3.604 -0.4458  0.5321 -0.5050
 5686SOL    HW117613   3.238   7.236   3.653  1.1837 -0.7467 -2.5863
 5686SOL    HW217614   3.249   7.386   3.669 -0.8212 -0.8693  1.1212
 5687SOL     OW17615   5.038   3.162   0.806  0.4706 -0.6499 -0.5165
 5687SOL    HW117616   5.057   3.132   0.717 -0.8058 -2.4167 -0.2607
 5687SOL    HW217617   4.951   3.201   0.800 -0.4471 -2.4614  0.2406
 5688SOL     OW17618   7.722   7.248   2.230  0.2915  0.1086  0.0284
 5688SOL    HW117619   7.667   7.229   2.154  2.1323  0.9561 -1.6155
 5688SOL    HW217620   7.661   7.284   2.295 -1.2112  0.2222 -1.3703
 5689SOL     OW17621   2.171   7.052   2.984  0.3362 -0.2657 -0.0319
 5689SOL    HW117622   2.208   7.032   3.070 -1.0260 -1.8325  0.2384
 5689SOL    HW217623   2.076   7.049   2.997  0.0687 -2.1187 -1.8721
 5690SOL     OW17624   5.469   0.701   3.219  0.0054  0.0743  0.0783
 5690SOL    HW117625   5.549   0.704   3.168  1.4920  0.5936  2.2956
 5690SOL    HW217626   5.425   0.621   3.190  3.1364 -2.2752  1.3054
 5691SOL     OW17627   7.666   4.251   0.143  0.0627  0.0605 -0.0966
 5691SOL    HW117628   7.729   4.307   0.188 -0.5384  0.9086 -0.2942
 5691SOL    HW217629   7.709   4.166   0.137  0.9562  0.4816  0.2773
 5692SOL     OW17630   4.717   4.209   1.317  0.1285  0.6418  0.7597
 5692SOL    HW117631   4.790   4.151   1.338 -1.0057 -1.0349  0.2584
 5692SOL    HW217632   4.748   4.261   1.243 -0.0027 -1.8787 -1.2088
 5693SOL     OW17633   7.480   2.044   0.160  0.0041  0.2825 -0.3141
 5693SOL    HW117634   7.568   2.077   0.177  0.3847 -0.2645 -1.1494
 5693SOL    HW217635   7.432   2.120   0.128 -0.8470  1.4431  3.3157
 5694SOL     OW17636   0.137   2.016   2.462  0.4037  0.2818  0.0232
 5694SOL    HW117637   0.122   2.018   2.557 -3.2724  2.1841 -0.3852
 5694SOL    HW217638   0.147   2.108   2.438  0.7846 -0.1393 -1.5112
 5695SOL     OW17639   5.131   6.218   6.031  0.0109  0.6329 -0.6664
 5695SOL    HW117640   5.206   6.163   6.009 -1.3414 -1.1911 -0.8949
 5695SOL    HW217641   5.068   6.203   5.960 -1.9089 -0.5026  1.1828
 5696SOL     OW17642   0.200   4.186   5.691  0.0642 -0.5080 -0.6225
 5696SOL    HW117643   0.120   4.238   5.681 -0.1662 -0.7987 -0.2948
 5696SOL    HW217644   0.231   4.206   5.779  0.7221  0.1148 -0.9793
 5697SOL     OW17645   4.469   6.888   2.861 -0.2205  0.1299 -0.5709
 5697SOL    HW117646   4.537   6.867   2.797  0.1826 -0.0444 -0.0948
 5697SOL    HW217647   4.511   6.873   2.946 -0.7510  0.3455 -0.2662
 5698SOL     OW17648   5.129   6.027   0.623 -0.5793  0.1621 -0.5396
 5698SOL    HW117649   5.210   6.014   0.572  0.3518  0.4124  0.8245
 5698SOL    HW217650   5.140   6.114   0.662 -1.2859 -0.0150  0.0566
 5699SOL     OW17651   0.229   7.098   2.058  0.0205  0.0176  0.3209
 5699SOL    HW117652   0.154   7.110   2.000  0.7465  2.8209 -0.1798
 5699SOL    HW217653   0.255   7.187   2.082  2.6595 -0.8862  1.1612
 5700SOL     OW17654   6.669   0.654   3.750  0.0902 -0.0937 -0.3443
 5700SOL    HW117655   6.763   0.639   3.760 -0.1156 -1.7804 -0.5118
 5700SOL    HW217656   6.645   0.708   3.825  1.0737 -0.2517  0.0966
 5701SOL     OW17657   3.452   0.140   4.407 -0.6578 -0.0766  0.3741
 5701SOL    HW117658   3.483   0.218   4.360 -0.9283 -0.4599 -0.4665
 5701SOL    HW217659   3.358   0.138   4.392 -0.2344 -2.8629 -3.3519
 5702SOL     OW17660   6.832   5.888   1.728 -0.8997 -0.1823  0.1131
 5702SOL    HW117661   6.744   5.851   1.742 -2.8372  3.6301 -0.6250
 5702SOL    HW217662   6.835   5.965   1.785  1.1855  0.9436 -1.3934
 5703SOL     OW17663   4.395   6.544   0.766 -0.0349 -0.9533 -0.0788
 5703SOL    HW117664   4.317   6.596   0.787  0.1204 -0.7496 -0.0072
 5703SOL    HW217665   4.468   6.592   0.806 -0.0279 -1.8473  1.0123
 5704SOL     OW17666   5.753   0.440   7.682  0.4093  0.3453 -0.3117
 5704SOL    HW117667   5.692   0.382   7.727  1.3373  1.0454  2.0169
 5704SOL    HW217668   5.747   0.523   7.729  1.2492  1.2506 -1.7069
 5705SOL     OW17669   7.426   5.337   4.459  0.1362  0.2612 -0.0632
 5705SOL    HW117670   7.343   5.371   4.492 -0.5198 -1.5577  0.2822
 5705SOL    HW217671   7.400   5.272   4.393  1.3765  1.9185 -2.3294
 5706SOL     OW17672   5.304   5.472   6.388  0.3388 -0.2010 -0.3082
 5706SOL    HW117673   5.392   5.437   6.403  0.2110 -0.9256 -1.1776
 5706SOL    HW217674   5.270   5.421   6.314 -1.3336 -0.9021  0.8699
 5707SOL     OW17675   1.073   1.768   1.669 -0.3096  0.0884 -0.0793
 5707SOL    HW117676   1.168   1.762   1.677 -0.0299  2.7118 -0.4477
 5707SOL    HW217677   1.048   1.692   1.617  1.1334 -2.4019  2.5361
 5708SOL     OW17678   5.492   3.506   3.733 -0.5891  0.0670 -0.1967
 5708SOL    HW117679   5.408   3.513   3.778 -0.9015 -0.4733 -0.6848
 5708SOL    HW217680   5.474   3.536   3.644 -0.1208  0.5397 -0.1386
 5709SOL     OW17681   7.389   6.661   0.469 -0.3797  0.2756 -0.4253
 5709SOL    HW117682   7.423   6.741   0.429 -2.2514  1.0392 -0.5910
 5709SOL    HW217683   7.391   6.597   0.398  1.9327 -0.1366 -0.0705
 5710SOL     OW17684   6.584   2.163   2.378  0.0110 -0.2540  0.4153
 5710SOL    HW117685   6.499   2.159   2.333 -0.6907  1.0196  1.5628
 5710SOL    HW217686   6.576   2.237   2.438  1.6434 -0.6539  1.1771
 5711SOL     OW17687   3.599   0.124   1.322 -0.1910 -0.3824 -0.1860
 5711SOL    HW117688   3.579   0.157   1.410  0.5588 -0.2260 -0.0607
 5711SOL    HW217689   3.518   0.085   1.292 -0.9231  1.0103 -0.0828
 5712SOL     OW17690   4.579   2.561   6.128  0.6102 -0.1545  0.0224
 5712SOL    HW117691   4.549   2.609   6.205 -1.2649  0.0670 -0.7789
 5712SOL    HW217692   4.669   2.591   6.114 -0.4388  3.1561 -0.3959
 5713SOL     OW17693   6.244   0.137   6.364 -0.3353  0.3170 -0.2934
 5713SOL    HW117694   6.271   0.152   6.274  0.7171  1.7443  0.2363
 5713SOL    HW217695   6.169   0.195   6.377  0.8080  1.6856  0.3499
 5714SOL     OW17696   3.769   4.236   2.599  0.1792 -0.3901  0.3118
 5714SOL    HW117697   3.712   4.256   2.525  1.4228 -0.0807 -0.6010
 5714SOL    HW217698   3.853   4.216   2.559  1.7341  2.6282  1.7056
 5715SOL     OW17699   4.847   7.225   7.368 -0.1443 -0.2054 -0.0942
 5715SOL    HW117700   4.886   7.159   7.311 -0.8605 -0.1345 -0.6739
 5715SOL    HW217701   4.778   7.178   7.416 -1.5166  0.3714 -1.4273
 5716SOL     OW17702   0.155   6.279   2.736  0.5066 -0.3918 -0.1274
 5716SOL    HW117703   0.096   6.310   2.668 -0.3818  0.7933  1.1200
 5716SOL    HW217704   0.242   6.304   2.707  0.3280 -1.2729 -1.5222
 5717SOL     OW17705   1.307   6.974   6.357 -0.4607  0.5128 -0.1083
 5717SOL    HW117706   1.249   6.956   6.283 -3.1497 -1.3363  2.2552
 5717SOL    HW217707   1.295   7.067   6.374 -3.4746  0.1021  0.7045
 5718SOL     OW17708   5.344   7.004   4.666 -0.0358 -0.9274  0.1351
 5718SOL    HW117709   5.394   7.038   4.593  2.4812  1.5984  2.7949
 5718SOL    HW217710   5.386   6.921   4.688 -0.8816 -1.7582 -1.2567
 5719SOL     OW17711   1.848   5.223   7.203 -0.9490 -0.3926 -0.4790
 5719SOL    HW117712   1.897   5.294   7.162 -0.1356 -1.4606 -1.3931
 5719SOL    HW217713   1.911   5.180   7.261 -1.8325  0.5165  1.2364
 5720SOL     OW17714   4.621   3.145   5.803 -0.2188 -0.2818  0.3574
 5720SOL    HW117715   4.653   3.229   5.771  1.1248 -1.5026 -1.7421
 5720SOL    HW217716   4.692   3.112   5.858 -0.1770 -0.5787  0.1319
 5721SOL     OW17717   5.048   6.685   3.113 -0.2577 -0.4840  0.1601
 5721SOL    HW117718   4.988   6.657   3.044 -0.8070 -1.4703  1.0138
 5721SOL    HW217719   5.004   6.757   3.156 -0.2253 -0.3249 -0.0728
 5722SOL     OW17720   1.767   5.440   1.187 -0.1127 -0.1410 -0.7770
 5722SOL    HW117721   1.779   5.514   1.246 -1.5048 -0.9828  0.6785
 5722SOL    HW217722   1.852   5.397   1.183  0.0474  0.0272  0.5475
 5723SOL     OW17723   3.672   4.533   6.518 -0.0584  0.4526 -0.3122
 5723SOL    HW117724   3.580   4.553   6.498 -0.0385 -1.5132 -2.8626
 5723SOL    HW217725   3.722   4.584   6.453  0.8664  2.8498  2.1150
 5724SOL     OW17726   4.783   3.800   4.270  0.2996  0.4514 -0.2308
 5724SOL    HW117727   4.802   3.876   4.214 -0.2653  0.0860 -0.9400
 5724SOL    HW217728   4.854   3.738   4.251 -0.4662 -0.1156 -1.3985
 5725SOL     OW17729   0.095   0.380   7.360 -0.5309  0.3895 -0.7209
 5725SOL    HW117730   0.121   0.289   7.364 -1.6732 -0.0540 -2.3448
 5725SOL    HW217731   0.073   0.396   7.268 -0.6512  2.2086 -0.4297
 5726SOL     OW17732   0.739   7.586   7.710 -0.4222  0.1561 -0.3898
 5726SOL    HW117733   0.747   7.619   7.800  0.0155  0.4292 -0.5264
 5726SOL    HW217734   0.647   7.562   7.702 -0.0300 -2.1986  0.9280
 5727SOL     OW17735   3.459   2.660   7.174  0.0175  0.1336 -0.1009
 5727SOL    HW117736   3.481   2.746   7.212  0.1364 -0.7779  2.0531
 5727SOL    HW217737   3.381   2.677   7.122  1.3107  1.9570 -1.5892
 5728SOL     OW17738   1.893   1.976   1.775 -0.9119  0.0356  0.5083
 5728SOL    HW117739   1.825   1.940   1.832 -0.0924 -2.0670  0.2447
 5728SOL    HW217740   1.960   1.908   1.771  0.6383  1.5152 -0.2705
 5729SOL     OW17741   4.255   3.582   5.394 -0.1203 -0.3695 -0.1816
 5729SOL    HW117742   4.247   3.674   5.371 -3.0326 -0.3811  0.4170
 5729SOL    HW217743   4.169   3.545   5.376  0.3682 -2.5232  1.4899
 5730SOL     OW17744   2.368   7.425   7.263 -0.7205  0.3365 -0.2081
 5730SOL    HW117745   2.339   7.335   7.247  0.9366 -0.8091  2.5981
 5730SOL    HW217746   2.345   7.443   7.354 -0.3195  2.5206 -0.4655
 5731SOL     OW17747   0.845   4.386   4.289 -0.1963 -0.1266  0.2911
 5731SOL    HW117748   0.817   4.434   4.211 -1.3260  1.2753  1.4876
 5731SOL    HW217749   0.764   4.355   4.329  0.2433  0.1871  1.4961
 5732SOL     OW17750   1.372   3.817   2.432 -0.4393  0.0864  0.4497
 5732SOL    HW117751   1.409   3.901   2.404  1.5455 -0.7107  0.5420
 5732SOL    HW217752   1.332   3.781   2.353 -0.1913  0.5462  0.1053
 5733SOL     OW17753   1.705   5.608   7.563  0.0921 -0.5401 -0.2531
 5733SOL    HW117754   1.747   5.522   7.558  0.0208 -0.5522 -0.7174
 5733SOL    HW217755   1.611   5.590   7.552  0.1681 -0.3119 -1.5351
 5734SOL     OW17756   6.580   6.949   1.946 -0.7996  0.3478  0.5271
 5734SOL    HW117757   6.579   6.855   1.925 -1.1932  0.4268  0.1783
 5734SOL    HW217758   6.635   6.956   2.024 -0.1403 -0.0851  0.1103
 5735SOL     OW17759   0.228   2.371   2.661 -0.0043 -0.1273  0.0468
 5735SOL    HW117760   0.265   2.345   2.577  0.1216  1.7862 -0.5420
 5735SOL    HW217761   0.289   2.338   2.726  1.8638  1.4358 -0.8180
 5736SOL     OW17762   1.355   5.034   7.162  0.0080  0.1186 -0.4345
 5736SOL    HW117763   1.404   4.955   7.183 -1.6650 -0.6194  0.8760
 5736SOL    HW217764   1.354   5.084   7.244 -0.9651  0.3595 -0.5847
 5737SOL     OW17765   3.425   7.186   6.530 -0.3271 -0.7056  0.0503
 5737SOL    HW117766   3.424   7.269   6.578 -1.9416 -1.2928  1.1115
 5737SOL    HW217767   3.502   7.140   6.563  0.7304  0.4286 -0.7300
 5738SOL     OW17768   2.140   4.278   5.059  0.8773  0.0367 -0.1913
 5738SOL    HW117769   2.103   4.321   5.137  0.0303 -0.4586 -0.3133
 5738SOL    HW217770   2.118   4.337   4.987 -1.1061 -0.9999 -0.4964
 5739SOL     OW17771   6.893   4.771   2.969  0.2114 -0.1594 -0.1126
 5739SOL    HW117772   6.949   4.791   3.045  1.3810 -0.8985 -0.7466
 5739SOL    HW217773   6.833   4.845   2.964  1.6159  1.0648  0.1906
 5740SOL     OW17774   5.618   7.446   3.379 -0.1992  0.2874  0.3355
 5740SOL    HW117775   5.687   7.509   3.401 -0.8560  0.9110  0.6486
 5740SOL    HW217776   5.539   7.482   3.419 -0.4395 -1.1535  1.2021
 5741SOL     OW17777   1.234   7.646   0.601  0.0517  0.2530 -0.4652
 5741SOL    HW117778   1.230   7.641   0.506 -0.9131  0.5308 -0.4462
 5741SOL    HW217779   1.205   7.735   0.622 -0.1386  0.0602  0.1103
 5742SOL     OW17780   2.112   4.066   1.032 -0.0320 -0.7293 -0.8057
 5742SOL    HW117781   2.134   4.074   1.125  1.3976 -4.3872 -0.6526
 5742SOL    HW217782   2.023   4.030   1.031 -0.9464  1.3915 -1.0159
 5743SOL     OW17783   7.072   1.605   2.322 -0.4653 -0.0795 -0.3080
 5743SOL    HW117784   7.060   1.511   2.338 -1.0696 -0.0542 -0.6012
 5743SOL    HW217785   7.117   1.637   2.400 -0.4700 -0.5663 -0.1015
 5744SOL     OW17786   1.065   6.814   3.688  0.0938  0.0017  0.2246
 5744SOL    HW117787   1.072   6.739   3.746 -0.2236 -0.1423  0.0801
 5744SOL    HW217788   1.108   6.787   3.607 -0.8703 -0.3816 -0.1723
 5745SOL     OW17789   5.973   2.892   6.925  0.1694 -0.1257  0.2204
 5745SOL    HW117790   5.982   2.797   6.922 -1.7594 -0.3215 -0.8639
 5745SOL    HW217791   5.962   2.912   7.017  1.7960 -0.7887  0.5997
 5746SOL     OW17792   7.477   0.743   7.617 -0.2727 -0.6823 -0.6147
 5746SOL    HW117793   7.389   0.779   7.617  0.1047  0.2690 -0.1986
 5746SOL    HW217794   7.489   0.711   7.707 -0.2420 -0.9566 -0.7139
 5747SOL     OW17795   5.697   0.524   6.944 -0.3293 -0.7343  0.2552
 5747SOL    HW117796   5.715   0.570   7.025 -0.0238  1.8131 -1.1469
 5747SOL    HW217797   5.783   0.510   6.904 -0.5532 -0.4870 -0.3398
 5748SOL     OW17798   1.530   0.382   2.538  0.3337 -0.0077  0.1704
 5748SOL    HW117799   1.573   0.467   2.532  0.1569  0.0652 -0.0650
 5748SOL    HW217800   1.461   0.394   2.603 -0.4914  0.3741 -0.7584
 5749SOL     OW17801   4.276   3.950   0.818  0.0195 -0.5723  0.0916
 5749SOL    HW117802   4.264   4.039   0.787  1.6579  0.0383  1.0558
 5749SOL    HW217803   4.240   3.951   0.907  1.0557 -0.5200  0.5309
 5750SOL     OW17804   1.850   3.416   3.073  0.3486 -0.4767 -0.9665
 5750SOL    HW117805   1.783   3.376   3.017  0.3500  1.7539 -2.6789
 5750SOL    HW217806   1.800   3.460   3.142  0.1261 -0.0200 -1.4158
 5751SOL     OW17807   1.112   5.182   2.852 -0.4390  0.7466 -0.5743
 5751SOL    HW117808   1.103   5.231   2.770  1.6654 -1.0696 -2.0329
 5751SOL    HW217809   1.092   5.092   2.827 -0.2703  0.2386  1.0453
 5752SOL     OW17810   6.469   2.204   6.977 -0.5261 -0.1880  0.3103
 5752SOL    HW117811   6.439   2.262   7.047 -1.5000  0.5249 -0.6785
 5752SOL    HW217812   6.454   2.116   7.011  1.0186  0.0872  1.8547
 5753SOL     OW17813   4.206   2.323   2.344 -0.5886 -0.1172  0.0263
 5753SOL    HW117814   4.161   2.391   2.395  0.0291  0.1415  0.2424
 5753SOL    HW217815   4.183   2.343   2.253 -1.4594 -0.4039  0.1764
 5754SOL     OW17816   2.905   2.814   3.324 -0.1266 -0.7542 -0.4010
 5754SOL    HW117817   2.869   2.885   3.270 -0.0438 -0.5495 -0.1889
 5754SOL    HW217818   2.991   2.846   3.350 -0.7582 -0.1997  1.1090
 5755SOL     OW17819   1.511   2.446   4.248 -0.3589  0.2347  0.2633
 5755SOL    HW117820   1.598   2.475   4.277 -0.9997  0.3772  2.1681
 5755SOL    HW217821   1.523   2.427   4.154  1.3377  1.6848  0.1190
 5756SOL     OW17822   6.932   0.156   4.273 -0.0063 -0.2179 -0.5819
 5756SOL    HW117823   6.892   0.112   4.198 -0.9071 -0.8862  0.2564
 5756SOL    HW217824   6.858   0.178   4.329  0.6861 -0.1123  0.3110
 5757SOL     OW17825   1.006   1.964   4.460 -0.4166  0.8903 -0.1553
 5757SOL    HW117826   0.991   1.972   4.366 -0.7591 -0.2739 -0.2162
 5757SOL    HW217827   0.936   1.906   4.490  0.1536  0.6190  0.6768
 5758SOL     OW17828   2.167   5.759   0.386  0.3778 -0.0435  0.5008
 5758SOL    HW117829   2.134   5.676   0.351 -1.2016 -0.1189  2.0330
 5758SOL    HW217830   2.261   5.756   0.370  0.1496 -1.4326 -0.8465
 5759SOL     OW17831   6.846   3.742   7.352 -0.3464 -0.2973  0.3745
 5759SOL    HW117832   6.809   3.799   7.284  1.2530  0.1558 -0.1445
 5759SOL    HW217833   6.906   3.685   7.304  0.2236 -0.4811  1.3043
 5760SOL     OW17834   2.786   7.365   3.781 -0.2023  0.2900  0.6515
 5760SOL    HW117835   2.771   7.448   3.825  0.1956  0.1551  1.0525
 5760SOL    HW217836   2.794   7.388   3.688 -0.9821  0.5832  0.6546
 5761SOL     OW17837   1.930   4.471   3.721 -0.3303  0.4581  0.2605
 5761SOL    HW117838   2.020   4.504   3.728 -0.4100  0.7899 -0.1825
 5761SOL    HW217839   1.937   4.396   3.662 -0.4364  0.8816 -0.2976
 5762SOL     OW17840   0.489   7.332   2.033  0.2362 -0.0032 -0.2584
 5762SOL    HW117841   0.412   7.356   2.085  1.0015 -1.3797  1.6492
 5762SOL    HW217842   0.539   7.414   2.026 -0.1568  0.3391  0.7507
 5763SOL     OW17843   2.458   1.230   1.611 -0.6392  0.0359 -0.7751
 5763SOL    HW117844   2.544   1.198   1.584 -0.9461 -1.1977 -0.3591
 5763SOL    HW217845   2.477   1.308   1.664  0.3101 -0.8483  0.2443
 5764SOL     OW17846   2.207   1.386   2.878 -0.2840 -0.2526  0.4627
 5764SOL    HW117847   2.286   1.414   2.831  1.2366 -1.3669  2.1616
 5764SOL    HW217848   2.199   1.449   2.950 -0.3627 -0.6919  0.8444
 5765SOL     OW17849   0.089   1.205   0.915 -0.1791 -0.3308 -0.7099
 5765SOL    HW117850   0.127   1.292   0.900 -0.0570 -0.2591  0.0112
 5765SOL    HW217851   0.003   1.210   0.873 -0.9414  0.7558  0.8625
 5766SOL     OW17852   2.068   1.794   5.016 -0.5727 -0.1580  0.1461
 5766SOL    HW117853   1.974   1.806   5.032 -0.4773  0.9276 -0.0314
 5766SOL    HW217854   2.075   1.709   4.973 -1.7518  0.8675 -2.1898
 5767SOL     OW17855   3.256   6.981   6.976 -0.0027  0.2767  0.2954
 5767SOL    HW117856   3.334   6.994   7.030 -0.1046 -0.4505  0.6330
 5767SOL    HW217857   3.191   6.943   7.035 -1.0422  2.0082  0.3195
 5768SOL     OW17858   1.472   6.228   5.976 -0.5583  0.0187 -0.0177
 5768SOL    HW117859   1.526   6.243   6.054 -0.0914  0.9266 -0.4873
 5768SOL    HW217860   1.387   6.265   5.999 -0.0244  1.5912 -0.3956
 5769SOL     OW17861   2.123   3.568   5.846  0.3299 -0.4130 -0.1289
 5769SOL    HW117862   2.153   3.631   5.911 -1.1048  0.0388  0.1418
 5769SOL    HW217863   2.198   3.556   5.788  0.1285  3.0581 -1.3790
 5770SOL     OW17864   6.690   6.220   4.531 -0.6849  0.4893  0.2450
 5770SOL    HW117865   6.747   6.155   4.572  0.6369 -0.4889 -2.8644
 5770SOL    HW217866   6.737   6.302   4.541  1.9377 -0.4206 -3.0061
 5771SOL     OW17867   0.811   5.486   5.679  0.4587  0.1506 -0.6884
 5771SOL    HW117868   0.867   5.556   5.712  0.5574  1.3633 -3.2118
 5771SOL    HW217869   0.810   5.421   5.749  1.7477  1.8916  1.0509
 5772SOL     OW17870   1.231   1.810   2.480 -0.4083 -0.1746 -0.7366
 5772SOL    HW117871   1.249   1.902   2.462 -0.9138 -0.1351 -1.0479
 5772SOL    HW217872   1.165   1.811   2.549  0.1082 -0.3142 -0.2307
 5773SOL     OW17873   3.604   6.633   1.182  0.3061  0.1249  0.3911
 5773SOL    HW117874   3.588   6.647   1.088  1.5293  1.5156  0.3624
 5773SOL    HW217875   3.518   6.642   1.223 -0.1078  0.3168 -0.4971
 5774SOL     OW17876   4.809   3.806   2.526 -0.3906 -0.7172  0.6412
 5774SOL    HW117877   4.850   3.736   2.578  0.4734 -0.4180  0.3878
 5774SOL    HW217878   4.882   3.863   2.502 -0.9091 -0.3900 -0.1889
 5775SOL     OW17879   3.348   5.670   2.476 -0.2659 -0.3980 -0.2121
 5775SOL    HW117880   3.423   5.630   2.431 -1.2126 -0.5536 -1.7114
 5775SOL    HW217881   3.318   5.739   2.417 -0.7648  0.2823  0.7937
 5776SOL     OW17882   4.294   2.581   5.479  0.1202 -0.2567  0.1927
 5776SOL    HW117883   4.226   2.530   5.434  0.8217 -1.5053  0.5271
 5776SOL    HW217884   4.358   2.600   5.411 -0.0755  0.0863  0.0991
 5777SOL     OW17885   5.030   1.342   7.588  0.3950  0.0377  0.4039
 5777SOL    HW117886   5.064   1.400   7.656  0.1025  1.3530 -0.5175
 5777SOL    HW217887   5.103   1.330   7.528  0.0204  0.7557 -0.2214
 5778SOL     OW17888   6.408   1.521   6.312  0.0734  0.2698 -0.8914
 5778SOL    HW117889   6.440   1.589   6.371 -1.3005 -0.6850  1.0982
 5778SOL    HW217890   6.340   1.476   6.363  0.9888 -2.6408 -2.0281
 5779SOL     OW17891   4.056   2.477   0.379 -0.2667 -0.4062  0.4632
 5779SOL    HW117892   4.015   2.414   0.438  0.3300 -1.1312  0.1354
 5779SOL    HW217893   4.098   2.541   0.436  1.7734 -2.0368  0.9254
 5780SOL     OW17894   4.144   4.152   6.851 -0.0866 -0.1420  0.8639
 5780SOL    HW117895   4.222   4.207   6.844  0.2470 -0.5995  0.9553
 5780SOL    HW217896   4.127   4.144   6.945 -0.5326  0.3535  0.8313
 5781SOL     OW17897   4.864   6.080   2.132 -0.4263  0.1648  0.2471
 5781SOL    HW117898   4.846   6.107   2.041  1.0055  0.7051  0.0993
 5781SOL    HW217899   4.917   6.151   2.167  0.3713 -0.7939  1.0134
 5782SOL     OW17900   3.652   4.876   5.807 -0.2519  0.3424  0.2626
 5782SOL    HW117901   3.727   4.922   5.843  0.7083 -0.5666 -0.5101
 5782SOL    HW217902   3.664   4.880   5.712 -1.7924  1.1677  0.0780
 5783SOL     OW17903   3.731   5.020   1.348 -0.1149 -0.1480 -0.1749
 5783SOL    HW117904   3.805   4.960   1.360  0.0952  0.1445 -0.0040
 5783SOL    HW217905   3.710   5.013   1.255 -0.1496 -0.5573 -0.1377
 5784SOL     OW17906   2.160   6.103   3.094 -0.1471  0.2940 -0.1704
 5784SOL    HW117907   2.066   6.101   3.108 -0.0645 -1.7230  0.4338
 5784SOL    HW217908   2.180   6.019   3.052  1.4315  0.4740  0.1468
 5785SOL     OW17909   2.799   3.638   3.197 -0.4162  0.5527 -0.4926
 5785SOL    HW117910   2.706   3.655   3.207 -0.6062 -1.1330  1.4492
 5785SOL    HW217911   2.804   3.553   3.152  0.1601  0.6467 -0.6192
 5786SOL     OW17912   2.142   3.834   2.563 -0.4113  0.2128 -0.1394
 5786SOL    HW117913   2.173   3.830   2.654  1.7968  1.4780 -0.7655
 5786SOL    HW217914   2.105   3.747   2.547 -1.6301  0.2119  2.1825
 5787SOL     OW17915   1.192   3.947   4.674 -0.1754 -0.0975  0.3475
 5787SOL    HW117916   1.097   3.936   4.671 -0.0565 -1.0017 -0.5154
 5787SOL    HW217917   1.227   3.876   4.620  1.0671 -0.6272  1.7895
 5788SOL     OW17918   1.646   3.507   4.360 -0.1403  0.4165  0.2046
 5788SOL    HW117919   1.643   3.545   4.447 -0.4767 -0.7486  0.7173
 5788SOL    HW217920   1.668   3.415   4.374 -3.7464 -0.7364 -0.5962
 5789SOL     OW17921   1.793   2.703   6.184 -0.0682  0.0350 -0.0529
 5789SOL    HW117922   1.837   2.711   6.099  1.6522 -1.7786  0.5868
 5789SOL    HW217923   1.723   2.768   6.181  0.4221  0.5488 -2.5499
 5790SOL     OW17924   1.050   1.027   3.159  0.4842  0.5064  0.0517
 5790SOL    HW117925   1.009   0.972   3.093  1.2122  1.2760 -1.0782
 5790SOL    HW217926   0.978   1.057   3.214 -0.6363  2.3051 -2.2365
 5791SOL     OW17927   4.747   0.566   4.340  0.0454  0.4081  0.4580
 5791SOL    HW117928   4.711   0.559   4.428  0.3102  1.9770  0.7109
 5791SOL    HW217929   4.842   0.574   4.353  0.5205 -2.7237 -0.1560
 5792SOL     OW17930   5.376   7.503   1.932  0.0422  0.3981 -0.5398
 5792SOL    HW117931   5.383   7.409   1.915  1.0334  0.4457 -0.4518
 5792SOL    HW217932   5.283   7.523   1.919 -0.1404 -0.5511 -0.7599
 5793SOL     OW17933   4.399   3.880   2.919 -0.3978  0.2224 -0.4530
 5793SOL    HW117934   4.423   3.969   2.947 -1.2005  0.3843 -0.2499
 5793SOL    HW217935   4.455   3.863   2.842 -0.2143  0.8864 -0.4736
 5794SOL     OW17936   0.172   5.700   2.167  0.3185 -0.2747 -0.0129
 5794SOL    HW117937   0.148   5.779   2.216  1.7184 -0.2567  0.6999
 5794SOL    HW217938   0.262   5.716   2.139  0.6035 -1.5978  0.1008
 5795SOL     OW17939   6.413   4.802   0.346 -0.2852 -0.1041 -0.2276
 5795SOL    HW117940   6.320   4.784   0.332  0.0661 -2.4444  0.0401
 5795SOL    HW217941   6.453   4.716   0.359  1.9376  0.8310 -0.3270
 5796SOL     OW17942   5.273   2.142   1.592  0.7546  1.0642 -0.1668
 5796SOL    HW117943   5.320   2.173   1.515 -0.9724  0.5707 -1.4918
 5796SOL    HW217944   5.181   2.161   1.572  0.1036 -0.7324  0.9615
 5797SOL     OW17945   0.092   7.176   3.294  0.0515 -0.0934  0.0614
 5797SOL    HW117946   0.146   7.140   3.364 -0.4304  0.3348  0.6634
 5797SOL    HW217947   0.154   7.197   3.224  0.8859  1.6894  1.2542
 5798SOL     OW17948   6.281   3.952   5.544 -0.4402  0.3960 -0.5621
 5798SOL    HW117949   6.265   4.044   5.562 -0.5978  0.0028  1.4999
 5798SOL    HW217950   6.373   3.949   5.516  0.2520  0.9453  1.4999
 5799SOL     OW17951   2.881   7.557   3.085 -0.4941  0.0007  0.0139
 5799SOL    HW117952   2.869   7.652   3.095 -0.3216  0.0173  0.0667
 5799SOL    HW217953   2.929   7.531   3.164 -0.7877 -0.1754  0.1322
 5800SOL     OW17954   3.535   3.407   4.143  0.6737  0.7000  0.3913
 5800SOL    HW117955   3.551   3.430   4.052 -1.2888  1.2131  0.1348
 5800SOL    HW217956   3.619   3.373   4.175  1.1135 -0.5727 -1.9173
 5801SOL     OW17957   1.528   5.165   2.458  0.3259  0.6154  0.0038
 5801SOL    HW117958   1.519   5.129   2.546 -0.0809  1.1632  0.1926
 5801SOL    HW217959   1.450   5.219   2.446  0.0248  0.0011 -0.9554
 5802SOL     OW17960   4.345   6.651   3.200  0.0737 -0.2700 -0.3460
 5802SOL    HW117961   4.425   6.646   3.251  0.2907  0.8118 -0.5560
 5802SOL    HW217962   4.373   6.636   3.110  0.0423  0.0539 -0.4126
 5803SOL     OW17963   6.209   1.385   7.656 -0.6740  0.2608 -0.2543
 5803SOL    HW117964   6.179   1.340   7.577 -3.3509 -0.7394  1.1975
 5803SOL    HW217965   6.232   1.473   7.626  2.1875 -1.1453 -2.7311
 5804SOL     OW17966   5.501   2.286   1.364 -0.0315  0.3358 -0.0010
 5804SOL    HW117967   5.523   2.193   1.372  0.8747  0.6563  1.9052
 5804SOL    HW217968   5.586   2.330   1.351 -0.0071  1.1180  2.2349
 5805SOL     OW17969   6.002   7.046   0.667  0.6526 -0.6719  0.3048
 5805SOL    HW117970   5.955   6.963   0.669  0.7569 -0.7295  0.3497
 5805SOL    HW217971   5.959   7.100   0.734 -1.4436  0.4114 -1.7963
 5806SOL     OW17972   5.502   7.026   6.959 -0.8698 -0.2799  0.4956
 5806SOL    HW117973   5.493   6.949   6.903  0.0125 -1.3090  1.7182
 5806SOL    HW217974   5.594   7.051   6.952 -0.8643 -0.1178  1.1067
 5807SOL     OW17975   0.291   1.174   5.951  0.8441  0.6053 -0.1479
 5807SOL    HW117976   0.261   1.153   5.863  1.8107 -0.4792 -0.2576
 5807SOL    HW217977   0.230   1.240   5.983 -1.8746 -1.6542 -0.2061
 5808SOL     OW17978   5.451   1.937   6.162 -0.0118 -0.0261 -0.5960
 5808SOL    HW117979   5.371   1.885   6.161 -0.4263  0.5552  0.9411
 5808SOL    HW217980   5.515   1.882   6.114 -0.7313 -1.4641  0.0238
 5809SOL     OW17981   7.672   3.350   7.382 -0.3244  0.2679  0.0933
 5809SOL    HW117982   7.753   3.370   7.334 -0.0079 -2.5013 -0.6850
 5809SOL    HW217983   7.612   3.421   7.358  1.2931  1.4076 -0.7491
 5810SOL     OW17984   1.119   3.570   4.239 -0.3875  0.1306  0.0786
 5810SOL    HW117985   1.088   3.517   4.166 -1.1283 -0.0662  0.5171
 5810SOL    HW217986   1.042   3.578   4.296 -0.1001  1.1038  0.3507
 5811SOL     OW17987   1.201   0.790   3.733 -0.0454  0.4903 -0.1348
 5811SOL    HW117988   1.193   0.696   3.719 -0.1525  0.4511  0.1990
 5811SOL    HW217989   1.111   0.821   3.742  0.0567  0.1391  2.9696
 5812SOL     OW17990   2.513   0.711   6.440  0.0020  0.6858 -0.0070
 5812SOL    HW117991   2.422   0.740   6.432 -0.0297  0.5974  0.0232
 5812SOL    HW217992   2.565   0.787   6.418 -0.0377  1.5395  2.5187
 5813SOL     OW17993   7.252   3.813   7.204  0.0164 -0.2821  0.3923
 5813SOL    HW117994   7.291   3.888   7.248 -0.8294 -0.0167  0.7221
 5813SOL    HW217995   7.239   3.841   7.114 -0.0843 -0.1068  0.4602
 5814SOL     OW17996   3.948   6.092   1.008  0.4868  0.0362 -0.8095
 5814SOL    HW117997   4.012   6.021   1.004  1.0400  0.5174 -0.6587
 5814SOL    HW217998   3.986   6.155   1.070 -0.5665 -0.0969  0.0010
 5815SOL     OW17999   0.861   7.467   3.221  0.4213  0.0570 -0.2645
 5815SOL    HW118000   0.777   7.506   3.197  0.5706  0.1567 -0.6428
 5815SOL    HW218001   0.888   7.513   3.300 -0.0716 -0.2574  0.0884
 5816SOL     OW18002   1.552   3.699   7.562  0.1784  0.4507 -0.8645
 5816SOL    HW118003   1.522   3.741   7.481  0.2929 -0.2273 -1.2657
 5816SOL    HW218004   1.597   3.620   7.533  1.5799  0.9907 -0.2198
 5817SOL     OW18005   4.559   2.109   4.115 -1.0000 -0.5883  0.3522
 5817SOL    HW118006   4.480   2.085   4.164 -1.8978  0.8478 -0.3474
 5817SOL    HW218007   4.527   2.144   4.032  0.3800 -0.1290 -0.0179
 5818SOL     OW18008   0.088   7.682   5.377  0.0681  0.1759 -0.2644
 5818SOL    HW118009   0.148   7.687   5.302 -0.2281  0.4291 -0.4867
 5818SOL    HW218010   0.006   7.719   5.345 -1.1640 -2.7766 -0.8524
 5819SOL     OW18011   5.189   6.628   4.243 -0.2034 -0.4401  0.2803
 5819SOL    HW118012   5.190   6.533   4.247  1.3887 -0.4745 -0.4996
 5819SOL    HW218013   5.218   6.649   4.154  1.5133  0.7946  1.0904
 5820SOL     OW18014   2.458   6.908   6.310 -0.3747 -0.6576 -0.0411
 5820SOL    HW118015   2.543   6.898   6.353  0.2693 -0.5857 -1.2594
 5820SOL    HW218016   2.399   6.936   6.380  1.0402  1.2527  0.4629
 5821SOL     OW18017   7.174   6.535   3.510 -0.6747 -0.1514  0.1404
 5821SOL    HW118018   7.254   6.587   3.516 -0.1317 -0.7413 -1.5276
 5821SOL    HW218019   7.114   6.589   3.459 -1.5307  0.4860  1.7807
 5822SOL     OW18020   4.026   6.751   5.029 -0.2634 -0.0962 -0.6468
 5822SOL    HW118021   3.962   6.724   5.094  1.0058 -0.0226  0.6801
 5822SOL    HW218022   4.109   6.715   5.060  0.5241  0.7077 -1.7419
 5823SOL     OW18023   6.970   7.634   5.384 -0.1569  0.5079 -0.2232
 5823SOL    HW118024   6.884   7.596   5.364 -0.7629  2.1200 -0.8622
 5823SOL    HW218025   6.992   7.685   5.307  0.9047  0.9447  0.3480
 5824SOL     OW18026   2.596   6.479   3.036  0.0673  0.1830 -0.1094
 5824SOL    HW118027   2.642   6.431   2.967  1.0524  1.7219 -0.5664
 5824SOL    HW218028   2.561   6.410   3.093  1.2882 -1.0774 -0.8098
 5825SOL     OW18029   3.492   5.100   3.680  0.0689 -0.8439  0.2835
 5825SOL    HW118030   3.436   5.025   3.659 -0.3443 -0.3219 -0.5394
 5825SOL    HW218031   3.557   5.102   3.610 -0.2235 -0.1576  0.0126
 5826SOL     OW18032   4.723   7.639   5.385  0.1718 -0.0861 -0.6160
 5826SOL    HW118033   4.739   7.584   5.462 -1.1255 -1.0883 -1.0069
 5826SOL    HW218034   4.745   7.727   5.413  0.3987 -0.5355  0.6890
 5827SOL     OW18035   1.775   4.952   4.675  0.5656 -0.6394 -0.2049
 5827SOL    HW118036   1.777   4.858   4.692 -0.0825 -0.3506  1.7251
 5827SOL    HW218037   1.867   4.976   4.664  0.8328 -1.3155  0.4463
 5828SOL     OW18038   2.143   0.268   5.574 -0.3186  0.1978  0.0023
 5828SOL    HW118039   2.165   0.183   5.537  0.7257  0.2905  0.3985
 5828SOL    HW218040   2.088   0.310   5.508  0.5480 -0.1105 -0.9273
 5829SOL     OW18041   5.295   2.252   7.079  1.0558 -0.3275  0.8702
 5829SOL    HW118042   5.322   2.240   7.170  2.1567  0.7889  0.7122
 5829SOL    HW218043   5.311   2.344   7.061 -2.0303  0.2439  0.4374
 5830SOL     OW18044   5.245   2.912   6.746 -0.4436 -0.1834  0.1886
 5830SOL    HW118045   5.149   2.911   6.737 -0.5543 -2.1089  1.1095
 5830SOL    HW218046   5.263   2.986   6.804 -1.5227 -0.6280  1.1426
 5831SOL     OW18047   1.565   0.669   4.303 -0.4503  0.1857 -0.0558
 5831SOL    HW118048   1.510   0.711   4.238 -0.9984  0.3872  0.5234
 5831SOL    HW218049   1.505   0.645   4.374 -0.1476 -1.4759 -0.3166
 5832SOL     OW18050   0.939   5.964   5.199 -0.0788 -0.1686  0.5590
 5832SOL    HW118051   0.954   5.967   5.104  1.3731  0.0600  0.7689
 5832SOL    HW218052   0.876   5.894   5.211 -1.4255  0.7667 -0.6997
 5833SOL     OW18053   0.803   7.602   2.764 -0.0905 -0.8330 -0.1275
 5833SOL    HW118054   0.838   7.675   2.815  0.9594 -0.8206 -0.8387
 5833SOL    HW218055   0.879   7.566   2.719 -0.8792 -1.3101 -1.1045
 5834SOL     OW18056   6.328   7.181   7.064 -0.0623 -0.3827  0.3642
 5834SOL    HW118057   6.344   7.123   7.138 -0.3521  1.3289  1.8533
 5834SOL    HW218058   6.341   7.126   6.987 -0.8992 -2.5416  1.6664
 5835SOL     OW18059   3.013   4.397   3.096  0.6923 -0.4393  0.1094
 5835SOL    HW118060   2.963   4.418   3.016  0.9116  1.2134  0.3644
 5835SOL    HW218061   2.980   4.311   3.122 -1.1397  0.0332 -0.4285
 5836SOL     OW18062   0.824   4.679   2.916 -0.2361 -0.1496 -0.0283
 5836SOL    HW118063   0.786   4.591   2.914 -1.4900  0.3283  1.0979
 5836SOL    HW218064   0.779   4.722   2.988  1.3220  0.9947  0.3043
 5837SOL     OW18065   5.291   1.694   5.363  0.6692  0.2674  0.4216
 5837SOL    HW118066   5.272   1.610   5.320 -1.1382  0.1958  1.3005
 5837SOL    HW218067   5.354   1.671   5.431 -0.4071 -0.5438  1.1768
 5838SOL     OW18068   6.046   6.927   7.679  0.2892 -0.2876  0.2181
 5838SOL    HW118069   5.971   6.985   7.668 -0.5310 -0.9524  1.8585
 5838SOL    HW218070   6.122   6.983   7.669 -0.3986  0.4133 -1.4402
 5839SOL     OW18071   6.189   4.656   2.127  0.3732  0.3661 -0.2145
 5839SOL    HW118072   6.208   4.749   2.136 -0.4042  0.4010  1.3165
 5839SOL    HW218073   6.093   4.651   2.118  0.4534 -0.2500 -0.8335
 5840SOL     OW18074   7.661   0.004   5.170 -0.1867 -0.0223  0.3641
 5840SOL    HW118075   7.646  -0.083   5.132  0.3842 -0.0367  0.1499
 5840SOL    HW218076   7.714   0.049   5.104  1.7915 -0.4242  1.6060
 5841SOL     OW18077   4.399   5.557   5.987 -0.4527 -0.1242 -0.4905
 5841SOL    HW118078   4.424   5.541   5.896 -1.6436 -0.7197 -0.7365
 5841SOL    HW218079   4.460   5.506   6.039 -1.3848 -1.9242 -1.0869
 5842SOL     OW18080   7.473   4.180   2.865  0.2870 -0.0828  0.0196
 5842SOL    HW118081   7.451   4.257   2.812  1.8457  1.0084  0.9200
 5842SOL    HW218082   7.423   4.192   2.946  0.7507  0.1216  0.2739
 5843SOL     OW18083   3.029   0.408   3.892 -0.2229  0.1622  0.6988
 5843SOL    HW118084   2.975   0.485   3.909 -2.0892 -0.9844  0.3367
 5843SOL    HW218085   2.994   0.342   3.952  0.4880 -0.7568  0.1230
 5844SOL     OW18086   1.898   0.671   7.365 -0.4396 -0.0261 -0.0958
 5844SOL    HW118087   1.945   0.602   7.412  0.2555 -0.1782 -1.0031
 5844SOL    HW218088   1.910   0.749   7.419  0.4750 -0.1647 -0.0854
 5845SOL     OW18089   5.999   7.236   6.302  0.2814  0.5143 -0.3302
 5845SOL    HW118090   5.928   7.230   6.366 -1.1476  1.1919 -1.7543
 5845SOL    HW218091   6.043   7.319   6.323 -0.0768  0.6560 -0.1274
 5846SOL     OW18092   1.799   0.610   4.422  0.3375  0.1327 -0.3250
 5846SOL    HW118093   1.719   0.651   4.391 -0.6869 -0.8862  0.8818
 5846SOL    HW218094   1.805   0.528   4.373 -0.9172 -1.1497  1.5563
 5847SOL     OW18095   1.190   2.339   3.988  0.0496  0.8793  0.4533
 5847SOL    HW118096   1.149   2.313   3.906 -0.2739 -0.3392  0.9671
 5847SOL    HW218097   1.255   2.271   4.005  2.4747  2.8502 -0.4215
 5848SOL     OW18098   3.253   0.168   0.360  0.2508  0.3028  0.1759
 5848SOL    HW118099   3.320   0.100   0.372 -0.4447 -0.7050 -1.3702
 5848SOL    HW218100   3.266   0.227   0.434  1.1422 -1.3019  1.3731
 5849SOL     OW18101   1.732   0.437   4.634 -0.5842 -0.0118  0.1204
 5849SOL    HW118102   1.765   0.504   4.574  0.7977  0.6829  1.5892
 5849SOL    HW218103   1.807   0.380   4.650 -0.6756  0.2766  1.7564
 5850SOL     OW18104   4.651   3.849   6.882  0.4276 -0.0991  0.3297
 5850SOL    HW118105   4.669   3.791   6.808 -1.4973 -0.0686 -0.2098
 5850SOL    HW218106   4.604   3.923   6.844 -0.2774  0.0923  1.5211
 5851SOL     OW18107   1.027   1.307   3.302 -0.1913  0.1301  0.1670
 5851SOL    HW118108   0.948   1.356   3.324 -0.6692 -0.6398  0.2146
 5851SOL    HW218109   1.072   1.295   3.385 -1.1200 -1.2745  0.4999
 5852SOL     OW18110   0.591   1.831   0.121 -0.0789  0.3553 -0.7637
 5852SOL    HW118111   0.684   1.814   0.104  0.2655  0.0904  1.1054
 5852SOL    HW218112   0.545   1.755   0.087  0.5888 -0.3564 -0.1071
 5853SOL     OW18113   2.769   6.682   1.298  0.1825  0.1506  0.1575
 5853SOL    HW118114   2.832   6.744   1.334  1.6214 -1.2034  0.0787
 5853SOL    HW218115   2.819   6.631   1.234 -0.6785 -1.6800  0.8674
 5854SOL     OW18116   4.157   2.118   7.198  0.5448 -0.0731  0.1900
 5854SOL    HW118117   4.233   2.124   7.140 -1.1990  2.2091 -2.0421
 5854SOL    HW218118   4.111   2.038   7.169 -1.5247  2.1581 -3.4540
 5855SOL     OW18119   6.303   1.438   0.949  0.4090 -0.0867 -0.7810
 5855SOL    HW118120   6.238   1.505   0.924 -2.8407 -2.7245 -0.1477
 5855SOL    HW218121   6.323   1.393   0.866  0.9786  0.3438 -0.8799
 5856SOL     OW18122   5.180   1.477   4.198 -0.4423 -0.0933  0.5536
 5856SOL    HW118123   5.125   1.431   4.261 -0.7558 -0.8842 -0.2752
 5856SOL    HW218124   5.220   1.408   4.146  2.0063  0.4229  1.6331
 5857SOL     OW18125   0.677   2.230   2.207  0.0470 -0.0371 -0.1395
 5857SOL    HW118126   0.610   2.193   2.265 -0.3690 -0.6138 -0.9730
 5857SOL    HW218127   0.759   2.194   2.239  0.3315  2.3941  2.3255
 5858SOL     OW18128   5.041   0.074   6.411  0.0537  0.7037  0.0932
 5858SOL    HW118129   5.042   0.166   6.387  2.5278  0.3719 -1.4560
 5858SOL    HW218130   5.037   0.027   6.328  1.6443 -0.5545  0.6709
 5859SOL     OW18131   4.231   6.981   2.299 -0.3398 -0.4581  0.2792
 5859SOL    HW118132   4.290   6.943   2.233  1.7879  0.6707  1.4522
 5859SOL    HW218133   4.205   7.065   2.262 -2.4915 -1.5327 -0.8763
 5860SOL     OW18134   3.564   6.091   5.697  0.1225 -0.3107 -0.5349
 5860SOL    HW118135   3.574   6.002   5.663 -1.7340 -1.4193  1.5266
 5860SOL    HW218136   3.590   6.084   5.789  0.2736  1.3979 -0.4114
 5861SOL     OW18137   2.393   1.224   0.382 -0.2946 -0.3105  0.1438
 5861SOL    HW118138   2.340   1.181   0.315  0.2997  0.6161 -0.9442
 5861SOL    HW218139   2.425   1.152   0.437 -1.7946 -0.9677  0.2001
 5862SOL     OW18140   5.555   6.725   5.485  0.1345  0.2833 -0.1863
 5862SOL    HW118141   5.496   6.686   5.421  1.1057 -1.5754 -0.0417
 5862SOL    HW218142   5.515   6.808   5.508 -1.5180 -0.1438 -1.3434
 5863SOL     OW18143   1.888   5.343   0.764  0.1842 -0.0183  0.5460
 5863SOL    HW118144   1.922   5.430   0.785  0.0951  0.2323 -0.3108
 5863SOL    HW218145   1.930   5.285   0.827  2.8539  0.1566 -0.9240
 5864SOL     OW18146   6.714   7.485   5.329  0.1823 -0.5911  0.9479
 5864SOL    HW118147   6.667   7.417   5.281 -1.3507  0.9059  0.2084
 5864SOL    HW218148   6.784   7.439   5.374 -1.1359 -2.7225  0.9384
 5865SOL     OW18149   3.892   2.740   0.469  0.5948  0.0350 -0.4900
 5865SOL    HW118150   3.835   2.671   0.502  1.1209  0.1722  0.7695
 5865SOL    HW218151   3.835   2.792   0.412  0.0275 -1.0389 -0.9330
 5866SOL     OW18152   3.788   4.412   4.256 -0.4558 -0.2801 -0.2219
 5866SOL    HW118153   3.772   4.501   4.288 -0.2035  0.5374 -2.2684
 5866SOL    HW218154   3.781   4.358   4.335  2.7219  1.8575  1.8187
 5867SOL     OW18155   1.287   3.923   2.895  0.1285  0.0392 -0.1667
 5867SOL    HW118156   1.355   3.913   2.828  0.8077 -0.4966  0.5955
 5867SOL    HW218157   1.256   3.834   2.910 -0.0100  0.1598  0.2592
 5868SOL     OW18158   7.181   4.865   4.469 -0.2897  0.3916 -0.8775
 5868SOL    HW118159   7.105   4.891   4.522 -0.6208  1.2630 -1.7619
 5868SOL    HW218160   7.194   4.773   4.492 -0.8517  0.5527  0.2020
 5869SOL     OW18161   4.569   1.353   5.030  0.4648  0.0391  0.0414
 5869SOL    HW118162   4.628   1.294   4.984 -0.2283  0.2182 -1.1171
 5869SOL    HW218163   4.484   1.340   4.988 -0.1726  0.3105  1.1985
 5870SOL     OW18164   2.245   5.272   6.933 -0.0724 -0.0093 -0.2990
 5870SOL    HW118165   2.221   5.365   6.935 -1.4832 -0.3525 -0.1203
 5870SOL    HW218166   2.195   5.233   7.005  0.8867 -0.8342 -0.0506
 5871SOL     OW18167   1.459   6.568   1.475 -0.2000  0.0431  0.3809
 5871SOL    HW118168   1.391   6.539   1.536  0.4196 -1.0524  0.5723
 5871SOL    HW218169   1.415   6.633   1.420 -1.5822 -1.0750  0.0992
 5872SOL     OW18170   3.858   0.852   3.263  0.3530  0.1670  0.4195
 5872SOL    HW118171   3.861   0.943   3.294 -3.7336  0.7534 -0.2705
 5872SOL    HW218172   3.847   0.800   3.343  0.1906  0.5657  0.6609
 5873SOL     OW18173   3.937   4.312   5.033  0.1240  0.5123  0.4733
 5873SOL    HW118174   4.000   4.296   4.963 -0.4838  0.8729 -0.1689
 5873SOL    HW218175   3.952   4.404   5.058  0.0886  0.4951  0.5576
 5874SOL     OW18176   1.776   4.119   0.427  0.5395  0.6343 -0.5843
 5874SOL    HW118177   1.798   4.208   0.453 -1.7260  1.1168 -0.1204
 5874SOL    HW218178   1.797   4.115   0.334  0.3353  1.7556 -0.6822
 5875SOL     OW18179   1.978   2.858   7.020  0.1101  0.5702 -0.3653
 5875SOL    HW118180   2.007   2.767   7.023 -0.4736  0.2932 -2.0578
 5875SOL    HW218181   1.947   2.877   7.109 -1.5467 -1.4882 -0.4276
 5876SOL     OW18182   2.742   6.419   6.713 -0.2651  1.2766  0.3332
 5876SOL    HW118183   2.666   6.391   6.763 -0.3496  0.9865  0.0425
 5876SOL    HW218184   2.771   6.499   6.756 -1.7647  2.3611 -0.5824
 5877SOL     OW18185   1.422   4.412   2.760 -0.2460 -0.3814 -0.3418
 5877SOL    HW118186   1.410   4.333   2.813  0.4053  0.0380  0.4401
 5877SOL    HW218187   1.488   4.388   2.696 -1.5606 -1.1249 -1.4783
 5878SOL     OW18188   3.806   4.260   3.370  0.0414  0.1810  0.5575
 5878SOL    HW118189   3.773   4.265   3.280 -0.6847  0.7351  0.8500
 5878SOL    HW218190   3.813   4.351   3.398  4.5844  0.4252 -0.4544
 5879SOL     OW18191   7.583   5.278   0.855 -0.2003  0.0990 -0.5648
 5879SOL    HW118192   7.594   5.210   0.788  0.5680  1.9824 -2.4408
 5879SOL    HW218193   7.492   5.307   0.844 -0.4257 -0.3605  0.0140
 5880SOL     OW18194   4.020   1.906   2.485 -0.3504  0.0051 -0.3148
 5880SOL    HW118195   3.978   1.968   2.544 -1.2871 -0.7045 -0.2222
 5880SOL    HW218196   4.008   1.944   2.398 -3.6053 -1.4319 -0.6214
 5881SOL     OW18197   2.287   1.619   3.886 -0.0099  0.1690  0.6320
 5881SOL    HW118198   2.344   1.689   3.917  1.2211 -1.4100  2.1318
 5881SOL    HW218199   2.241   1.589   3.964 -0.7716 -0.4781 -0.0520
 5882SOL     OW18200   0.144   0.341   5.737  0.3615 -0.4864 -0.1315
 5882SOL    HW118201   0.059   0.300   5.726 -0.7990  1.2746  1.5351
 5882SOL    HW218202   0.191   0.283   5.796 -0.1655 -0.8424 -0.0571
 5883SOL     OW18203   2.440   3.480   1.005  0.1541 -0.4741 -0.2268
 5883SOL    HW118204   2.464   3.535   1.080  0.1433 -0.7270 -0.0393
 5883SOL    HW218205   2.422   3.543   0.935 -0.3474 -0.2184  0.1272
 5884SOL     OW18206   2.762   2.561   6.623 -0.2582  0.3784  0.4055
 5884SOL    HW118207   2.822   2.504   6.573 -0.4438  1.5735 -1.2397
 5884SOL    HW218208   2.806   2.572   6.707  0.1191 -1.6205  0.5209
 5885SOL     OW18209   5.905   3.280   0.962 -0.4543 -0.0648  0.1820
 5885SOL    HW118210   5.990   3.297   1.004  0.0554  0.1401 -0.8731
 5885SOL    HW218211   5.918   3.198   0.915 -0.7693  0.0892 -0.1743
 5886SOL     OW18212   3.884   4.634   2.273 -0.1083  0.0507 -0.3569
 5886SOL    HW118213   3.900   4.542   2.296  1.1402 -0.4437 -2.7992
 5886SOL    HW218214   3.838   4.670   2.348  0.9962 -2.0901  1.4683
 5887SOL     OW18215   2.786   5.354   7.639  0.7326 -0.0098  0.3275
 5887SOL    HW118216   2.724   5.421   7.669  0.2456 -0.5419  0.5156
 5887SOL    HW218217   2.810   5.306   7.718  1.6421  0.3861  0.3143
 5888SOL     OW18218   5.560   5.536   2.363 -0.0316  0.0446  0.0902
 5888SOL    HW118219   5.530   5.502   2.448  1.5665  1.5666  1.3380
 5888SOL    HW218220   5.522   5.623   2.357 -0.0066  0.0051 -0.6916
 5889SOL     OW18221   6.139   3.815   3.219 -0.3690 -0.2594  0.0175
 5889SOL    HW118222   6.046   3.830   3.238 -0.2460 -0.9002  1.2821
 5889SOL    HW218223   6.178   3.903   3.217 -0.8468 -0.0346  0.4092
 5890SOL     OW18224   5.533   7.294   1.299 -0.2554 -0.5009 -0.0170
 5890SOL    HW118225   5.443   7.290   1.333 -0.3907 -0.4038 -0.3484
 5890SOL    HW218226   5.586   7.250   1.365 -0.7536 -1.8768 -0.4881
 5891SOL     OW18227   0.026   0.947   0.647  0.3876 -0.1986  0.1283
 5891SOL    HW118228   0.009   0.874   0.706 -0.7681  0.7194  0.9976
 5891SOL    HW218229   0.078   1.008   0.699 -0.7889  0.6979  0.2974
 5892SOL     OW18230   6.634   2.631   6.041 -0.7748  0.7193 -0.2979
 5892SOL    HW118231   6.695   2.561   6.067 -1.4521  0.5308  0.8479
 5892SOL    HW218232   6.631   2.625   5.945  0.3645  0.1947 -0.3259
 5893SOL     OW18233   0.413   4.449   3.965  0.0271  0.4583  0.4699
 5893SOL    HW118234   0.430   4.496   3.884  1.1732  0.4608  0.6959
 5893SOL    HW218235   0.326   4.479   3.992 -0.3485  0.4915 -0.7185
 5894SOL     OW18236   0.160   0.385   5.014 -0.3696 -0.7714 -0.1984
 5894SOL    HW118237   0.235   0.442   4.994 -1.6699  1.0115 -0.2657
 5894SOL    HW218238   0.189   0.332   5.088  0.5528  0.7685  0.5948
 5895SOL     OW18239   0.077   0.635   0.107 -0.4870  0.1355  0.3959
 5895SOL    HW118240   0.121   0.658   0.189 -1.8704  0.0666  1.1872
 5895SOL    HW218241   0.146   0.641   0.041  0.3363  1.6671  1.3222
 5896SOL     OW18242   4.408   5.598   6.893  0.1883  0.1496  0.2952
 5896SOL    HW118243   4.405   5.685   6.855  0.7095  0.2346  0.4413
 5896SOL    HW218244   4.501   5.574   6.893 -0.0455 -0.8279 -0.6981
 5897SOL     OW18245   6.312   1.205   5.669  0.0072  0.4729 -0.2985
 5897SOL    HW118246   6.313   1.264   5.745 -1.6629  0.5754 -0.3312
 5897SOL    HW218247   6.234   1.151   5.681  0.0127  0.1216 -1.6778
 5898SOL     OW18248   7.739   0.424   4.733  0.4952 -0.2099  0.2489
 5898SOL    HW118249   7.665   0.485   4.725  0.4826 -0.2728 -0.1348
 5898SOL    HW218250   7.700   0.337   4.718  0.7999 -0.1664 -0.8398
 5899SOL     OW18251   1.343   7.398   3.108 -0.7975  0.2333 -0.1017
 5899SOL    HW118252   1.364   7.379   3.016  0.4811 -0.8038  0.3660
 5899SOL    HW218253   1.255   7.435   3.105 -1.6935 -1.8042 -1.5552
 5900SOL     OW18254   4.016   2.725   2.254 -0.4036  0.4189  0.1445
 5900SOL    HW118255   4.016   2.754   2.345 -1.7547  1.3603 -0.1274
 5900SOL    HW218256   3.979   2.636   2.257 -1.0606  0.6995  0.4443
 5901SOL     OW18257   1.533   4.767   7.022  0.7986 -0.2429 -0.2253
 5901SOL    HW118258   1.459   4.748   7.079 -0.9432  1.2035 -1.9077
 5901SOL    HW218259   1.593   4.817   7.078  1.2451 -2.6016  1.5550
 5902SOL     OW18260   3.839   6.897   4.187 -0.6283  0.4904  0.0040
 5902SOL    HW118261   3.848   6.809   4.224 -0.9596  0.6622  0.4950
 5902SOL    HW218262   3.837   6.956   4.262  0.0255  0.9688 -0.3408
 5903SOL     OW18263   5.097   5.800   2.792  0.3012 -0.8735 -0.7723
 5903SOL    HW118264   5.032   5.739   2.759 -0.0849 -0.0532 -1.5601
 5903SOL    HW218265   5.071   5.885   2.758  0.4413 -0.1336  0.8355
 5904SOL     OW18266   0.609   0.563   1.216  0.3610 -0.1662  0.8019
 5904SOL    HW118267   0.551   0.544   1.143  0.5111 -0.5438  0.7830
 5904SOL    HW218268   0.601   0.488   1.274 -0.6574  0.6413  1.7576
 5905SOL     OW18269   2.905   2.666   4.342  0.3902 -0.2719  0.3516
 5905SOL    HW118270   2.947   2.649   4.426  2.2505  1.4890 -0.1307
 5905SOL    HW218271   2.918   2.586   4.292  1.5544 -0.4388  0.8829
 5906SOL     OW18272   3.026   5.079   4.152  0.2536  0.1804 -0.1879
 5906SOL    HW118273   3.115   5.058   4.182  0.4347  1.5464  0.3064
 5906SOL    HW218274   2.988   5.128   4.225  0.1971  2.3423 -1.5794
 5907SOL     OW18275   2.998   4.264   2.723 -0.7243  0.4437 -0.6540
 5907SOL    HW118276   3.074   4.209   2.704 -1.2986 -0.1698 -1.2491
 5907SOL    HW218277   2.949   4.267   2.641 -2.1293 -0.4293  0.1147
 5908SOL     OW18278   2.404   5.574   2.922  0.7267  0.4391  0.2859
 5908SOL    HW118279   2.476   5.622   2.963  0.7556  1.3813 -0.8227
 5908SOL    HW218280   2.411   5.596   2.829  0.7241 -1.6944 -0.2770
 5909SOL     OW18281   4.977   5.584   4.142  0.2625 -0.3650  0.1359
 5909SOL    HW118282   4.967   5.678   4.132 -1.3093 -0.5259  0.0019
 5909SOL    HW218283   4.894   5.554   4.180  0.7137 -1.6951  0.1362
 5910SOL     OW18284   3.863   0.944   4.270  0.4806 -0.6154  0.6025
 5910SOL    HW118285   3.792   0.964   4.210 -0.8990 -0.7905  2.1037
 5910SOL    HW218286   3.935   1.001   4.243 -0.5190  0.2000 -0.4050
 5911SOL     OW18287   6.996   6.793   2.545  0.3417 -0.0401  0.0677
 5911SOL    HW118288   6.947   6.846   2.607  1.4450  0.1694  0.7859
 5911SOL    HW218289   7.087   6.821   2.556  0.5972 -0.1755 -1.4666
 5912SOL     OW18290   2.876   1.897   5.379  0.1749  0.2281 -0.5270
 5912SOL    HW118291   2.889   1.825   5.441 -0.0666  0.7158  0.1073
 5912SOL    HW218292   2.784   1.891   5.354  0.2623  0.0563 -0.8038
 5913SOL     OW18293   5.834   0.678   6.081  0.0318  0.3944  0.0870
 5913SOL    HW118294   5.774   0.703   6.152 -1.0845  0.6073 -0.8835
 5913SOL    HW218295   5.780   0.686   6.001  1.8823  2.5275 -1.0723
 5914SOL     OW18296   2.630   0.242   1.399  0.0385  0.2575 -0.0905
 5914SOL    HW118297   2.575   0.286   1.464  0.0004  0.0576  0.0140
 5914SOL    HW218298   2.609   0.149   1.409  0.4530  0.1739 -0.0021
 5915SOL     OW18299   1.793   5.431   1.762 -0.1359  0.3626  0.3805
 5915SOL    HW118300   1.700   5.437   1.783 -0.8155 -0.1788 -2.1257
 5915SOL    HW218301   1.812   5.337   1.765 -0.3423  0.2208 -1.4585
 5916SOL     OW18302   0.530   5.615   4.930 -0.0301 -0.3280  0.4281
 5916SOL    HW118303   0.457   5.572   4.885 -0.5378 -0.7912  1.6577
 5916SOL    HW218304   0.511   5.604   5.023  2.5332 -2.1008  0.8489
 5917SOL     OW18305   6.533   6.705   4.615  0.2060  0.5584 -0.1360
 5917SOL    HW118306   6.541   6.612   4.632 -1.2864  0.3143 -0.6011
 5917SOL    HW218307   6.512   6.744   4.700  2.2143  0.7015  0.3404
 5918SOL     OW18308   5.603   6.378   1.518 -0.0242  0.2524  0.3796
 5918SOL    HW118309   5.507   6.377   1.516 -0.0149 -0.1113 -0.6644
 5918SOL    HW218310   5.627   6.287   1.538  0.1121  0.2592  0.2454
 5919SOL     OW18311   2.183   0.294   1.905 -0.3893 -0.4787  0.1219
 5919SOL    HW118312   2.093   0.327   1.899 -0.2173 -0.1456 -0.9159
 5919SOL    HW218313   2.198   0.252   1.820  0.6588  0.0640  0.0225
 5920SOL     OW18314   6.506   2.819   5.506 -0.7146  0.0796  0.8264
 5920SOL    HW118315   6.529   2.768   5.427  0.1879 -0.5573  1.4703
 5920SOL    HW218316   6.561   2.781   5.574  1.4070  3.1287  0.9888
 5921SOL     OW18317   2.336   5.098   2.905 -0.4225  0.4872 -0.3842
 5921SOL    HW118318   2.262   5.039   2.896 -0.7273 -0.1466  4.0274
 5921SOL    HW218319   2.301   5.174   2.952  1.2263  1.3600 -0.4765
 5922SOL     OW18320   3.548   2.131   0.272 -0.1983 -0.7030  0.3325
 5922SOL    HW118321   3.632   2.175   0.278 -1.4009  1.5310  2.3858
 5922SOL    HW218322   3.504   2.172   0.198  0.5158 -2.0317 -0.8890
 5923SOL     OW18323   4.337   3.262   7.128 -0.3658  0.2072 -0.0330
 5923SOL    HW118324   4.392   3.326   7.083 -0.6575  0.4404 -0.0550
 5923SOL    HW218325   4.267   3.243   7.066 -1.1979  1.1027  0.6106
 5924SOL     OW18326   1.703   5.194   4.083 -0.2918  0.2147  0.1058
 5924SOL    HW118327   1.795   5.219   4.087 -0.8871  2.6195  1.8277
 5924SOL    HW218328   1.698   5.126   4.016  2.5722  0.6343 -0.6431
 5925SOL     OW18329   6.783   4.580   7.384 -0.4126 -0.0088  0.3464
 5925SOL    HW118330   6.838   4.565   7.307 -0.2067  0.7262  0.3421
 5925SOL    HW218331   6.840   4.560   7.458 -0.6057 -0.6994  0.3137
 5926SOL     OW18332   6.757   3.469   5.034  0.2965  0.8387  0.1039
 5926SOL    HW118333   6.847   3.463   5.068  0.6004 -0.8663 -0.9204
 5926SOL    HW218334   6.748   3.561   5.008  0.0455  2.3188  4.5768
 5927SOL     OW18335   6.397   0.281   3.612 -0.3005  0.4905  0.1888
 5927SOL    HW118336   6.424   0.366   3.647 -1.1707  0.9947 -0.3184
 5927SOL    HW218337   6.383   0.227   3.690  1.6781  0.3328  0.4762
 5928SOL     OW18338   6.927   5.956   0.844  0.5989  0.3286 -0.0499
 5928SOL    HW118339   6.863   5.900   0.888  0.9153 -0.2928 -0.3664
 5928SOL    HW218340   6.882   6.040   0.834  0.3104  0.3032  0.9185
 5929SOL     OW18341   3.200   1.887   3.830 -0.0602 -0.1754 -0.0927
 5929SOL    HW118342   3.127   1.892   3.891  0.1088 -0.0639  0.1023
 5929SOL    HW218343   3.244   1.972   3.838  1.2988 -0.9476  1.3134
 5930SOL     OW18344   5.233   3.525   0.492  0.1050  0.8153 -0.8671
 5930SOL    HW118345   5.245   3.482   0.577 -0.2906  2.4873  0.0835
 5930SOL    HW218346   5.292   3.601   0.495 -0.3025  1.1943 -1.8796
 5931SOL     OW18347   0.319   6.697   0.181 -0.9509  0.2234 -0.5554
 5931SOL    HW118348   0.339   6.607   0.157 -0.1990  0.1475  0.3391
 5931SOL    HW218349   0.395   6.747   0.152 -1.0692  0.4749 -0.4396
 5932SOL     OW18350   6.900   6.113   5.786 -0.3674 -0.6162  0.2907
 5932SOL    HW118351   6.897   6.024   5.820  0.9393 -0.2420  1.4380
 5932SOL    HW218352   6.968   6.157   5.836 -1.2828  1.1796  0.0752
 5933SOL     OW18353   5.337   3.675   4.295  0.4303  0.0738  0.0845
 5933SOL    HW118354   5.262   3.714   4.251 -0.7066 -2.1258 -0.1060
 5933SOL    HW218355   5.298   3.609   4.354  2.0436  1.1377  2.5046
 5934SOL     OW18356   6.122   1.602   0.798 -0.0572 -0.0736 -0.5620
 5934SOL    HW118357   6.115   1.526   0.740  0.7335  0.1122 -0.9284
 5934SOL    HW218358   6.162   1.670   0.742 -0.8483  0.6390 -0.2716
 5935SOL     OW18359   3.138   1.215   4.022 -0.2467  0.6076 -0.1494
 5935SOL    HW118360   3.065   1.263   4.064 -1.0791 -2.0299  1.7050
 5935SOL    HW218361   3.095   1.143   3.976  1.1490 -1.1965  1.2591
 5936SOL     OW18362   1.633   3.514   4.637 -0.6978  0.0331 -0.1222
 5936SOL    HW118363   1.708   3.559   4.675 -0.3831  0.3848 -1.1148
 5936SOL    HW218364   1.654   3.421   4.643 -0.5853  0.0904  0.4011
 5937SOL     OW18365   1.438   3.052   0.596  0.2818  0.0875  0.1593
 5937SOL    HW118366   1.364   2.992   0.583  1.1213 -0.7121 -1.2168
 5937SOL    HW218367   1.397   3.139   0.604 -0.7809  0.0834 -3.3441
 5938SOL     OW18368   7.020   7.232   3.494 -0.5160  0.0049  0.4353
 5938SOL    HW118369   7.080   7.161   3.470 -1.4270  0.2050 -2.9246
 5938SOL    HW218370   6.943   7.187   3.529 -0.5496 -0.6064 -0.3951
 5939SOL     OW18371   3.571   5.207   5.026  0.2237  0.1206 -0.1155
 5939SOL    HW118372   3.634   5.277   5.045 -0.7700  0.9138  0.2998
 5939SOL    HW218373   3.556   5.213   4.932 -0.7267  1.2414  0.0835
 5940SOL     OW18374   6.010   0.305   2.901  0.1036  0.1263 -0.1965
 5940SOL    HW118375   6.088   0.336   2.948  1.1787 -2.0068 -0.4425
 5940SOL    HW218376   6.043   0.284   2.813 -1.1795  0.9422 -0.9063
 5941SOL     OW18377   6.933   0.330   5.133 -0.3016  0.0787  0.1909
 5941SOL    HW118378   6.933   0.402   5.196 -1.1942 -0.3400  0.6902
 5941SOL    HW218379   6.842   0.326   5.101 -0.1728 -0.5769 -0.1143
 5942SOL     OW18380   2.809   5.238   7.137 -0.0371 -0.1696  0.0708
 5942SOL    HW118381   2.714   5.228   7.147  0.1400 -0.2540  1.8854
 5942SOL    HW218382   2.836   5.291   7.211  0.9212  2.7593 -2.1837
 5943SOL     OW18383   4.318   1.241   0.590 -0.4079 -0.1371 -0.7544
 5943SOL    HW118384   4.343   1.196   0.670 -0.6869  2.2499  0.7890
 5943SOL    HW218385   4.399   1.245   0.539  0.0266 -0.8300 -0.1497
 5944SOL     OW18386   6.964   1.042   0.071 -0.0197  0.0550 -0.1860
 5944SOL    HW118387   6.930   1.130   0.089 -0.5231 -0.0821 -0.4491
 5944SOL    HW218388   7.002   1.050  -0.017 -2.5208 -0.6599 -1.4131
 5945SOL     OW18389   5.261   2.037   5.760  0.2249  0.5500 -0.3243
 5945SOL    HW118390   5.222   1.952   5.779 -0.3138  0.6905 -0.8021
 5945SOL    HW218391   5.246   2.051   5.667 -1.1156  1.8881  0.0661
 5946SOL     OW18392   2.958   1.311   7.660  0.0978 -0.1072 -0.2072
 5946SOL    HW118393   2.930   1.373   7.592  0.2045 -0.1636 -0.3033
 5946SOL    HW218394   2.966   1.365   7.739 -2.4243 -0.4706  0.3869
 5947SOL     OW18395   2.155   2.127   3.050  0.1860 -0.4684  0.0336
 5947SOL    HW118396   2.141   2.194   3.118  0.3561  0.5730 -0.9181
 5947SOL    HW218397   2.097   2.153   2.979 -1.4761 -2.6621  0.4694
 5948SOL     OW18398   2.982   3.282   2.457 -0.8477  0.2055  0.7560
 5948SOL    HW118399   2.896   3.252   2.487 -0.4915  0.5552  2.2397
 5948SOL    HW218400   3.033   3.290   2.538 -0.1912  2.4454  0.1660
 5949SOL     OW18401   5.480   7.705   1.732  0.1173 -0.8413 -0.1803
 5949SOL    HW118402   5.490   7.688   1.826 -1.2780 -1.1955 -0.0666
 5949SOL    HW218403   5.449   7.622   1.696  0.6549 -0.7140 -0.9658
 5950SOL     OW18404   7.024   0.185   3.144 -0.0888 -0.9773 -0.6217
 5950SOL    HW118405   7.093   0.163   3.207 -0.1310 -1.1682 -0.6399
 5950SOL    HW218406   7.008   0.103   3.097 -1.1668 -1.2493  0.1890
 5951SOL     OW18407   1.071   2.704   2.020 -0.5579 -0.4426  0.1549
 5951SOL    HW118408   1.038   2.785   2.060 -2.1077 -1.1380  0.3570
 5951SOL    HW218409   1.158   2.693   2.058  0.2590  1.8029 -0.8731
 5952SOL     OW18410   1.098   4.152   2.710 -0.4460 -0.7585  0.0148
 5952SOL    HW118411   1.182   4.158   2.665 -0.7804  1.3286 -0.4396
 5952SOL    HW218412   1.033   4.142   2.641 -0.9203  2.0362 -0.0675
 5953SOL     OW18413   3.204   4.861   1.732  0.7161 -0.5367  0.3562
 5953SOL    HW118414   3.188   4.920   1.658 -0.1233  0.3927  1.2385
 5953SOL    HW218415   3.275   4.804   1.702  0.1503 -0.4515 -1.3019
 5954SOL     OW18416   2.961   5.761   2.637 -0.5981  0.1433  0.0109
 5954SOL    HW118417   2.966   5.827   2.568 -0.2126 -0.4925 -0.5823
 5954SOL    HW218418   3.050   5.725   2.643  0.0782  1.9745  2.6513
 5955SOL     OW18419   4.408   3.155   0.899 -0.3611  0.0479  0.1408
 5955SOL    HW118420   4.421   3.247   0.873  2.6712 -0.0587  0.9146
 5955SOL    HW218421   4.357   3.117   0.828 -1.0640  2.1389 -0.5556
 5956SOL     OW18422   5.855   0.149   0.801 -0.6025 -0.7517 -0.0134
 5956SOL    HW118423   5.874   0.242   0.812  2.3881 -1.1718 -0.8789
 5956SOL    HW218424   5.792   0.146   0.729 -1.3111  0.6013  0.5108
 5957SOL     OW18425   0.812   5.915   5.560 -0.2389 -0.5795  0.4997
 5957SOL    HW118426   0.799   6.005   5.591  0.2853  0.6813 -2.6026
 5957SOL    HW218427   0.906   5.899   5.575  0.5617  0.8974 -2.1938
 5958SOL     OW18428   2.200   2.029   5.676 -0.2101 -0.4443  0.2807
 5958SOL    HW118429   2.118   1.981   5.684 -0.7688  0.3324 -0.5162
 5958SOL    HW218430   2.174   2.116   5.644  0.7579  0.4364  1.7474
 5959SOL     OW18431   3.151   5.483   0.678 -0.2155  0.1890 -0.2872
 5959SOL    HW118432   3.226   5.468   0.737 -1.8474 -1.5759  1.4778
 5959SOL    HW218433   3.090   5.534   0.731 -1.2995 -0.5671 -0.7924
 5960SOL     OW18434   2.603   3.599   6.090  0.1857 -0.3955 -0.5747
 5960SOL    HW118435   2.621   3.652   6.012 -1.3192 -1.3625 -1.6380
 5960SOL    HW218436   2.556   3.658   6.149  0.5467  0.0931 -0.7738
 5961SOL     OW18437   2.976   1.851   6.786 -0.3334  0.1310 -0.1454
 5961SOL    HW118438   2.965   1.848   6.691 -1.1345  0.5993 -0.0787
 5961SOL    HW218439   3.068   1.830   6.801 -0.1171  0.4225 -1.0421
 5962SOL     OW18440   3.416   2.253   6.119 -0.3797 -0.1537 -0.0625
 5962SOL    HW118441   3.420   2.237   6.213 -0.4226 -2.0733 -0.3462
 5962SOL    HW218442   3.492   2.207   6.083 -0.9253 -0.3177 -1.0591
 5963SOL     OW18443   3.884   2.457   7.444 -0.0736 -0.0736  0.6389
 5963SOL    HW118444   3.793   2.471   7.416  0.3600  2.9881  0.4830
 5963SOL    HW218445   3.892   2.504   7.526  1.1418 -1.2155  1.2199
 5964SOL     OW18446   3.716   0.643   3.543 -0.2512 -0.6754  0.3284
 5964SOL    HW118447   3.737   0.637   3.636  1.6448 -1.1740 -0.0679
 5964SOL    HW218448   3.621   0.634   3.538 -0.4031 -0.4332  2.2160
 5965SOL     OW18449   0.331   2.761   2.692  0.3812 -0.3839  0.1739
 5965SOL    HW118450   0.292   2.673   2.693  0.4153 -0.3981  1.2186
 5965SOL    HW218451   0.260   2.817   2.661 -0.0624 -0.6019  0.7633
 5966SOL     OW18452   6.666   4.923   6.807 -0.3877  0.2088  0.2093
 5966SOL    HW118453   6.761   4.934   6.809  0.0411 -1.8960 -2.7277
 5966SOL    HW218454   6.649   4.848   6.865 -0.0617 -0.2476 -0.2748
 5967SOL     OW18455   4.916   0.351   4.545 -0.2313 -0.2273 -0.6628
 5967SOL    HW118456   4.947   0.270   4.587 -0.4225 -1.7164 -3.1600
 5967SOL    HW218457   4.824   0.358   4.572  0.3078  0.3385  1.1791
 5968SOL     OW18458   4.438   5.924   5.683  0.1399  0.1117 -0.1872
 5968SOL    HW118459   4.446   5.840   5.639  0.6806 -1.2837  2.3932
 5968SOL    HW218460   4.352   5.958   5.656  1.0088  0.0968 -3.3476
 5969SOL     OW18461   0.753   1.794   1.396  0.5595 -0.4829  0.0297
 5969SOL    HW118462   0.840   1.831   1.412  0.6961  0.5395 -2.6754
 5969SOL    HW218463   0.693   1.854   1.441  1.0240  1.1619 -1.4523
 5970SOL     OW18464   4.788   3.072   6.604  0.4649  0.7965 -0.4546
 5970SOL    HW118465   4.856   3.038   6.662 -0.1620  2.2122  1.1982
 5970SOL    HW218466   4.706   3.044   6.643  0.0245 -0.9547 -2.4723
 5971SOL     OW18467   6.464   2.728   4.952 -0.3170 -0.7186 -0.5250
 5971SOL    HW118468   6.513   2.758   5.029 -0.3716  1.4547 -1.2683
 5971SOL    HW218469   6.461   2.633   4.962 -0.7921 -0.4977  2.4150
 5972SOL     OW18470   0.164   6.890   3.477 -0.1912 -0.1827  0.0796
 5972SOL    HW118471   0.245   6.840   3.484  0.7563  1.4136  0.9052
 5972SOL    HW218472   0.162   6.943   3.557 -0.8456  1.5461 -1.0468
 5973SOL     OW18473   2.138   4.567   5.772 -0.5249 -0.0544  0.1310
 5973SOL    HW118474   2.124   4.572   5.677 -2.3488 -1.8074  0.2456
 5973SOL    HW218475   2.231   4.546   5.781  0.2106  2.2579 -1.1395
 5974SOL     OW18476   5.724   4.969   7.217 -0.2283 -0.4531  0.0627
 5974SOL    HW118477   5.804   4.917   7.204 -0.5183 -0.8087 -0.3305
 5974SOL    HW218478   5.724   4.990   7.310  0.8557  0.4241 -0.1139
 5975SOL     OW18479   0.465   2.421   1.785 -0.2101  0.4367 -0.6875
 5975SOL    HW118480   0.386   2.474   1.776 -0.0396  0.4792 -2.3011
 5975SOL    HW218481   0.433   2.332   1.799 -0.5031  0.7552  0.8464
 5976SOL     OW18482   2.288   1.867   5.456  0.5052  0.0202  0.4609
 5976SOL    HW118483   2.349   1.845   5.526  1.3849 -0.5935 -0.4516
 5976SOL    HW218484   2.239   1.942   5.489  1.5776  0.3628  1.3415
 5977SOL     OW18485   2.339   2.192   0.914 -0.6392 -0.3172  0.0927
 5977SOL    HW118486   2.364   2.258   0.979 -0.3899  0.2223 -0.5417
 5977SOL    HW218487   2.266   2.145   0.954  0.7687 -1.3315  1.6132
 5978SOL     OW18488   2.151   2.269   5.532 -0.0870  0.2509 -0.3097
 5978SOL    HW118489   2.078   2.317   5.492 -0.6453 -1.0513 -0.8814
 5978SOL    HW218490   2.228   2.323   5.513 -0.7487  1.1093 -0.6157
 5979SOL     OW18491   6.341   4.108   2.838  0.0753 -0.4298 -0.3623
 5979SOL    HW118492   6.395   4.058   2.900  0.6927  1.8464  1.0251
 5979SOL    HW218493   6.351   4.061   2.755  1.5199 -1.9512  0.5991
 5980SOL     OW18494   4.103   4.062   6.062 -0.6965  0.2117 -0.2416
 5980SOL    HW118495   4.126   3.975   6.029 -0.1012  0.4339 -0.4177
 5980SOL    HW218496   4.022   4.048   6.112 -0.0933 -0.6064  0.5321
 5981SOL     OW18497   5.657   6.849   4.513 -0.2360  0.3737 -0.1522
 5981SOL    HW118498   5.562   6.855   4.523 -0.3540 -1.0884 -0.1838
 5981SOL    HW218499   5.687   6.808   4.595  0.2677  0.1097 -0.4629
 5982SOL     OW18500   4.955   4.772   1.982  0.0413 -0.3812  0.0390
 5982SOL    HW118501   4.955   4.708   1.911  0.5606 -1.5110  1.0280
 5982SOL    HW218502   5.032   4.749   2.035  0.1643  0.9852  0.4954
 5983SOL     OW18503   4.973   1.707   3.617  0.4733 -0.2380 -0.9869
 5983SOL    HW118504   4.965   1.681   3.709  3.2761 -0.3655 -0.6999
 5983SOL    HW218505   4.945   1.799   3.616 -0.7648 -0.5737 -0.2983
 5984SOL     OW18506   6.238   3.755   3.965 -0.5293 -0.5388  0.3246
 5984SOL    HW118507   6.258   3.822   3.900  0.3902 -1.6578 -0.5853
 5984SOL    HW218508   6.147   3.730   3.946 -0.4483 -0.4732 -0.1608
 5985SOL     OW18509   3.432   3.764   3.074  0.1385  0.3202 -0.0040
 5985SOL    HW118510   3.352   3.802   3.038 -1.0047 -0.8773  1.1675
 5985SOL    HW218511   3.500   3.829   3.055 -1.8342  3.5378  2.7701
 5986SOL     OW18512   0.747   7.584   4.890 -0.4023 -0.1393 -0.0273
 5986SOL    HW118513   0.739   7.673   4.856 -0.3584 -0.0497  0.1965
 5986SOL    HW218514   0.793   7.536   4.822  2.4200  0.7546  1.1377
 5987SOL     OW18515   4.368   2.236   7.050  0.5118  0.5528 -0.3685
 5987SOL    HW118516   4.322   2.310   7.011 -0.0933 -0.2353 -1.1889
 5987SOL    HW218517   4.455   2.238   7.010  0.8224  1.3651  0.3231
 5988SOL     OW18518   0.685   4.444   4.068  0.4950 -0.5431  0.0901
 5988SOL    HW118519   0.706   4.381   3.999  0.2969  0.8838 -1.3436
 5988SOL    HW218520   0.594   4.467   4.052 -0.0251 -1.3081  1.7991
 5989SOL     OW18521   0.808   3.675   5.362  0.1682 -0.4036 -0.4514
 5989SOL    HW118522   0.857   3.756   5.376 -0.4489 -0.2773  1.1283
 5989SOL    HW218523   0.730   3.703   5.315  0.4994 -0.2703 -0.9397
 5990SOL     OW18524   7.035   4.301   5.872 -0.6097  0.1752 -0.1450
 5990SOL    HW118525   7.075   4.223   5.910 -2.6935 -1.0168 -0.2308
 5990SOL    HW218526   7.010   4.354   5.948  2.3080  1.6613 -0.1035
 5991SOL     OW18527   2.945   0.768   2.224 -0.1045 -0.6012 -0.0724
 5991SOL    HW118528   2.897   0.817   2.291  0.5868 -0.5044  0.3509
 5991SOL    HW218529   3.036   0.793   2.236  0.3997 -2.6340  0.6946
 5992SOL     OW18530   5.878   0.866   3.312  0.1070  0.5129 -0.3614
 5992SOL    HW118531   5.901   0.883   3.403  0.0635  2.0565 -0.6022
 5992SOL    HW218532   5.855   0.773   3.309  2.1042 -0.0708  0.7705
 5993SOL     OW18533   0.262   0.602   7.669  0.2591  0.8223 -0.2893
 5993SOL    HW118534   0.307   0.550   7.602 -0.6926  1.8523 -1.7986
 5993SOL    HW218535   0.171   0.606   7.639 -0.2307  1.1881  1.1708
 5994SOL     OW18536   0.936   5.333   2.999  0.0982 -0.2189 -0.1643
 5994SOL    HW118537   1.002   5.281   2.953 -0.9526 -1.6848 -0.0646
 5994SOL    HW218538   0.855   5.283   2.990 -0.2528 -0.3627  2.9139
 5995SOL     OW18539   3.872   3.805   2.731 -0.0140 -0.2387  0.9452
 5995SOL    HW118540   3.959   3.824   2.765 -0.6728  3.6903  0.8234
 5995SOL    HW218541   3.873   3.837   2.641 -0.4657 -3.9974 -0.5894
 5996SOL     OW18542   1.489   1.936   6.606  0.4797 -0.5918  0.0294
 5996SOL    HW118543   1.546   1.875   6.654  0.1915  0.1218  1.3351
 5996SOL    HW218544   1.429   1.970   6.673  1.1561  1.7410 -0.4491
 5997SOL     OW18545   3.583   5.756   1.721  0.0970 -0.0662 -0.1998
 5997SOL    HW118546   3.655   5.697   1.741 -0.6943 -0.7758  0.6788
 5997SOL    HW218547   3.518   5.702   1.677 -1.1613 -0.2182  1.6987
 5998SOL     OW18548   6.332   7.524   6.374  0.5029  0.2150 -0.0485
 5998SOL    HW118549   6.373   7.559   6.453  1.5168  0.8275 -0.8240
 5998SOL    HW218550   6.378   7.566   6.302  0.7534 -1.6270 -1.0205
 5999SOL     OW18551   1.276   0.782   2.447  0.3749  0.0000  0.3889
 5999SOL    HW118552   1.211   0.716   2.420  0.1917  0.3110  0.0484
 5999SOL    HW218553   1.322   0.804   2.366 -1.5741  2.4778 -0.1760
 6000SOL     OW18554   0.588   1.181   6.415  0.1356  0.4073 -0.6265
 6000SOL    HW118555   0.613   1.172   6.507 -0.1869 -1.1620 -0.6774
 6000SOL    HW218556   0.627   1.264   6.388  2.3613 -0.2941  0.2370
 6001SOL     OW18557   6.241   3.572   7.253  0.3258  0.0181  0.4620
 6001SOL    HW118558   6.333   3.548   7.250  0.1644 -0.5754  0.2460
 6001SOL    HW218559   6.204   3.539   7.171 -0.3810 -0.9907  1.1675
 6002SOL     OW18560   2.242   1.119   1.717  0.6496 -0.1506  0.0931
 6002SOL    HW118561   2.200   1.069   1.647 -0.1591 -0.0028  0.4582
 6002SOL    HW218562   2.331   1.135   1.685  0.3845 -0.3347 -0.7715
 6003SOL     OW18563   6.649   4.298   5.487  0.2492 -0.6391 -0.6140
 6003SOL    HW118564   6.726   4.345   5.517 -0.0049 -0.6625  0.1006
 6003SOL    HW218565   6.654   4.213   5.532 -1.4150  0.2153  1.3860
 6004SOL     OW18566   5.978   7.417   7.006  0.1950 -0.6080 -0.4812
 6004SOL    HW118567   5.921   7.472   6.953 -0.9110  0.0680  1.3072
 6004SOL    HW218568   5.927   7.337   7.021 -1.4921  0.9038  3.0795
 6005SOL     OW18569   3.255   6.054   1.703  0.1292  0.0091 -0.6981
 6005SOL    HW118570   3.320   6.094   1.645  2.1437 -0.5393  1.0650
 6005SOL    HW218571   3.258   6.107   1.783 -2.2216  0.4464 -0.8273
 6006SOL     OW18572   0.823   4.352   7.246 -0.2983  0.1550 -0.1020
 6006SOL    HW118573   0.796   4.335   7.337 -1.6411 -1.1645 -0.6934
 6006SOL    HW218574   0.776   4.286   7.195  0.2849  0.9897 -1.7884
 6007SOL     OW18575   3.414   2.886   4.664 -0.4037 -0.3872 -0.0226
 6007SOL    HW118576   3.475   2.892   4.591  0.2698 -1.5683  0.4240
 6007SOL    HW218577   3.334   2.850   4.626  0.0901 -1.4224 -0.1121
 6008SOL     OW18578   4.791   3.399   6.146 -0.5808  0.1834 -0.3954
 6008SOL    HW118579   4.708   3.368   6.112 -0.1432  0.2020 -1.5257
 6008SOL    HW218580   4.793   3.368   6.237 -1.6583 -0.1002 -0.4559
 6009SOL     OW18581   5.292   0.320   0.685 -0.4363 -1.0109  0.1707
 6009SOL    HW118582   5.278   0.273   0.767  0.0196  1.0829  1.5298
 6009SOL    HW218583   5.215   0.376   0.676  0.2514 -0.0566  0.0434
 6010SOL     OW18584   1.917   2.260   2.229  0.4631  0.1427  0.1761
 6010SOL    HW118585   1.982   2.272   2.159  0.2891 -0.1561 -0.0360
 6010SOL    HW218586   1.940   2.327   2.294  2.8985 -1.8674  1.5488
 6011SOL     OW18587   1.764   3.691   3.768  0.3918 -0.3136 -0.0763
 6011SOL    HW118588   1.737   3.600   3.781 -0.4409 -0.4641 -2.3969
 6011SOL    HW218589   1.717   3.719   3.690 -0.0970  2.4459  1.0790
 6012SOL     OW18590   7.245   5.294   2.828  0.0658  0.1664 -0.0881
 6012SOL    HW118591   7.227   5.270   2.919  1.0424  1.4690  0.4865
 6012SOL    HW218592   7.180   5.360   2.807  0.6506  0.8229  0.1245
 6013SOL     OW18593   5.370   4.142   5.304 -0.5038  0.5829 -0.3344
 6013SOL    HW118594   5.452   4.183   5.331 -0.2797  0.4668 -0.8348
 6013SOL    HW218595   5.335   4.102   5.384  0.0860  0.3515 -0.1908
 6014SOL     OW18596   3.222   5.617   0.160 -0.4654 -0.4558 -0.2904
 6014SOL    HW118597   3.235   5.636   0.253  0.5395 -2.4657  0.0293
 6014SOL    HW218598   3.163   5.686   0.130  0.7393  1.3893  1.3609
 6015SOL     OW18599   2.537   2.007   2.436 -0.2738  0.3732 -0.2592
 6015SOL    HW118600   2.581   2.091   2.420 -0.1437  0.4026  0.2297
 6015SOL    HW218601   2.546   1.993   2.530 -2.0265  0.7764 -0.0082
 6016SOL     OW18602   1.020   7.725   6.877 -0.0283 -0.0556 -0.9158
 6016SOL    HW118603   1.081   7.758   6.811  0.8672 -0.2860 -0.2334
 6016SOL    HW218604   0.999   7.636   6.848  1.1728 -0.5417 -0.3948
 6017SOL     OW18605   4.047   4.571   5.083  0.0217 -0.4821 -0.2023
 6017SOL    HW118606   4.049   4.558   5.177  0.1708  1.0190  0.0253
 6017SOL    HW218607   4.139   4.575   5.057  0.0448  1.6216  0.0118
 6018SOL     OW18608   6.293   7.629   1.399 -0.4458  0.0921 -0.1348
 6018SOL    HW118609   6.373   7.669   1.366 -0.1674 -0.9579 -0.7894
 6018SOL    HW218610   6.248   7.595   1.321 -0.7949 -0.6227  0.3643
 6019SOL     OW18611   5.185   3.663   1.714  0.5862 -0.1355 -0.4551
 6019SOL    HW118612   5.093   3.649   1.694  0.5985  0.8778 -1.2773
 6019SOL    HW218613   5.229   3.583   1.685  0.3020  0.4086 -2.4821
 6020SOL     OW18614   1.725   5.586   0.939 -0.6285 -0.3959 -0.5694
 6020SOL    HW118615   1.767   5.545   1.014  2.0617  2.3266 -0.4088
 6020SOL    HW218616   1.656   5.640   0.976 -0.4183 -0.3691 -0.2195
 6021SOL     OW18617   0.665   3.349   1.665  0.8629 -0.3318 -0.2328
 6021SOL    HW118618   0.606   3.280   1.696  1.5073 -0.9736 -0.4301
 6021SOL    HW218619   0.613   3.429   1.672  1.2594 -0.2334  3.5356
 6022SOL     OW18620   4.997   6.662   3.705  0.2071  0.0250  0.2952
 6022SOL    HW118621   5.056   6.687   3.776  0.3221  0.3876  0.0759
 6022SOL    HW218622   5.031   6.579   3.672  0.3785  0.0498  0.4130
 6023SOL     OW18623   5.434   4.039   5.946 -0.9916  0.0387  0.4304
 6023SOL    HW118624   5.339   4.031   5.947 -1.1119  1.0490 -0.2974
 6023SOL    HW218625   5.452   4.092   5.868  0.0099  1.5242  1.6076
 6024SOL     OW18626   0.790   0.377   0.667 -0.2919  0.1190 -1.1147
 6024SOL    HW118627   0.801   0.471   0.652  1.9072 -0.0029 -0.5918
 6024SOL    HW218628   0.818   0.336   0.584  1.7852 -0.1356 -0.3567
 6025SOL     OW18629   7.701   6.655   6.286 -0.3328 -0.0459  0.7077
 6025SOL    HW118630   7.618   6.696   6.261 -1.7431 -0.4832  4.0806
 6025SOL    HW218631   7.728   6.703   6.364  0.8996 -1.9631  1.5339
 6026SOL     OW18632   4.922   4.428   4.224 -0.3464 -0.1385  0.1422
 6026SOL    HW118633   4.949   4.497   4.164 -0.9775  1.3737  1.5423
 6026SOL    HW218634   5.001   4.405   4.272 -0.2580 -0.0026  0.0614
 6027SOL     OW18635   4.146   5.464   5.951  0.7398  0.4768  0.1844
 6027SOL    HW118636   4.188   5.385   5.918 -0.9135 -0.1680 -0.4966
 6027SOL    HW218637   4.217   5.527   5.963  2.2297 -1.3681  1.5923
 6028SOL     OW18638   7.151   4.327   6.574 -0.5919  0.1251 -0.0295
 6028SOL    HW118639   7.124   4.248   6.526  0.4003  0.3104 -0.9449
 6028SOL    HW218640   7.083   4.391   6.554 -1.3770 -0.4692  0.6743
 6029SOL     OW18641   4.540   1.737   5.518  0.2257 -0.3957  0.5369
 6029SOL    HW118642   4.451   1.759   5.492  1.0474  2.3294 -0.2994
 6029SOL    HW218643   4.552   1.647   5.487 -1.5391 -0.0914 -1.2383
 6030SOL     OW18644   4.015   6.559   3.706 -0.1628  0.3621 -0.6590
 6030SOL    HW118645   4.026   6.646   3.668 -3.7459  1.5694  0.5663
 6030SOL    HW218646   3.968   6.509   3.639  1.0860 -0.3679 -1.0131
 6031SOL     OW18647   1.503   4.215   3.301 -0.0687  0.2072  0.1197
 6031SOL    HW118648   1.526   4.126   3.325  0.4952  0.0874 -0.7828
 6031SOL    HW218649   1.422   4.234   3.349  1.0892  0.0914  2.2209
 6032SOL     OW18650   2.094   6.160   1.868 -0.5223  0.1509 -0.5514
 6032SOL    HW118651   2.128   6.153   1.779 -1.3669 -0.7646 -0.8270
 6032SOL    HW218652   2.120   6.247   1.897  1.8497 -0.3997 -0.8118
 6033SOL     OW18653   6.101   0.939   6.340  0.3362 -0.1458  0.0320
 6033SOL    HW118654   6.026   0.985   6.378  0.0789  0.1503 -0.8040
 6033SOL    HW218655   6.175   0.963   6.395 -0.0504  0.1411  0.4358
 6034SOL     OW18656   1.886   0.895   0.054 -0.0132 -0.0350 -0.4727
 6034SOL    HW118657   1.949   0.874   0.123 -0.8125 -0.8591  0.0355
 6034SOL    HW218658   1.819   0.826   0.062 -2.9854  2.7857  1.4720
 6035SOL     OW18659   7.616   5.040   0.720 -1.0144  0.2175  0.2446
 6035SOL    HW118660   7.712   5.043   0.716 -0.9535 -1.2019 -0.0555
 6035SOL    HW218661   7.589   5.024   0.629 -1.3235 -2.6010  0.7517
 6036SOL     OW18662   6.189   7.111   5.709 -0.4011 -0.0320  0.1543
 6036SOL    HW118663   6.158   7.193   5.671 -0.2202 -0.3189 -0.6441
 6036SOL    HW218664   6.248   7.138   5.779 -2.1390  0.5290  1.5001
 6037SOL     OW18665   5.187   1.593   2.857  0.7497 -0.3282 -0.1478
 6037SOL    HW118666   5.269   1.610   2.903  1.1545  0.7895 -1.2221
 6037SOL    HW218667   5.208   1.611   2.765 -1.1446  1.6940 -0.2596
 6038SOL     OW18668   7.235   4.990   7.102  0.0472  0.6253 -0.0567
 6038SOL    HW118669   7.174   5.064   7.108 -0.0173  0.4753  1.3778
 6038SOL    HW218670   7.251   4.980   7.008 -0.4119  2.0768 -0.3121
 6039SOL     OW18671   5.031   6.667   6.707 -0.5543  0.1285 -0.1499
 6039SOL    HW118672   4.953   6.657   6.760  0.3966  1.6031  1.6533
 6039SOL    HW218673   5.010   6.738   6.646 -0.8941 -0.0535 -0.2459
 6040SOL     OW18674   6.995   1.932   0.745 -0.3193 -0.0960  0.0920
 6040SOL    HW118675   7.067   1.871   0.729  0.3428  0.3227  1.3485
 6040SOL    HW218676   7.031   2.018   0.722 -1.3658 -0.1491 -2.0363
 6041SOL     OW18677   4.338   6.468   0.013 -0.3630 -0.1451  0.8106
 6041SOL    HW118678   4.251   6.449   0.049 -0.7596  2.3158  1.3371
 6041SOL    HW218679   4.397   6.464   0.089 -0.3239 -0.0262  0.7866
 6042SOL     OW18680   3.192   1.098   6.409  0.4203 -0.1732  0.1447
 6042SOL    HW118681   3.203   1.010   6.447  2.0622  0.1360  0.4675
 6042SOL    HW218682   3.101   1.100   6.380  0.2899 -1.9190  0.3046
 6043SOL     OW18683   7.619   0.829   6.371 -0.2731  0.8434  0.0140
 6043SOL    HW118684   7.667   0.912   6.380  0.8803  0.1557  0.3956
 6043SOL    HW218685   7.662   0.784   6.299 -0.4825  0.3106  0.2156
 6044SOL     OW18686   5.993   3.400   2.430  0.0564  0.3439 -0.0060
 6044SOL    HW118687   5.959   3.334   2.371  0.7014  0.4671 -0.5368
 6044SOL    HW218688   5.931   3.473   2.422 -0.1380  0.1656 -0.1473
 6045SOL     OW18689   2.067   5.152   0.891 -0.1949 -0.6018 -0.4706
 6045SOL    HW118690   2.069   5.081   0.827 -0.3736 -1.0619  0.0231
 6045SOL    HW218691   2.144   5.205   0.872  0.1640 -1.1632 -0.5857
 6046SOL     OW18692   2.953   3.286   6.313 -0.2188 -0.0851  0.1742
 6046SOL    HW118693   2.909   3.279   6.228  2.7298 -2.8010 -1.3418
 6046SOL    HW218694   3.026   3.345   6.297  0.0653 -0.2150  0.9690
 6047SOL     OW18695   7.222   1.170   6.477  0.4776  0.2658  0.1446
 6047SOL    HW118696   7.314   1.195   6.487  1.3903 -1.8653 -1.8064
 6047SOL    HW218697   7.225   1.075   6.463 -1.9172  0.2885 -0.9879
 6048SOL     OW18698   7.019   1.453   4.132 -0.0324  0.1363 -0.4822
 6048SOL    HW118699   7.112   1.434   4.144 -0.5392 -2.7471 -0.2791
 6048SOL    HW218700   6.986   1.377   4.083 -2.5223  0.4307  0.6007
 6049SOL     OW18701   1.718   0.212   2.674 -0.2189 -0.1608 -0.3928
 6049SOL    HW118702   1.637   0.246   2.635 -1.4717 -0.4065  1.8394
 6049SOL    HW218703   1.764   0.172   2.600 -2.2550 -0.2870 -1.7012
 6050SOL     OW18704   2.819   7.164   5.647  0.1366  0.5887 -0.2901
 6050SOL    HW118705   2.900   7.135   5.604 -0.5944 -1.9230 -0.1395
 6050SOL    HW218706   2.750   7.141   5.585 -0.5285  2.5939 -0.3627
 6051SOL     OW18707   2.035   6.416   5.358  0.1996 -0.0111 -0.2627
 6051SOL    HW118708   1.968   6.467   5.312  0.4518  0.1862 -0.4155
 6051SOL    HW218709   2.115   6.432   5.308  0.2238 -0.7827 -0.4760
 6052SOL     OW18710   4.290   6.122   1.205  0.3065  0.4477  0.4683
 6052SOL    HW118711   4.197   6.143   1.203 -0.3755 -2.2350  0.0747
 6052SOL    HW218712   4.304   6.082   1.291  1.5512  2.3251  1.2251
 6053SOL     OW18713   6.994   2.409   1.329  0.2353  0.3558 -0.4767
 6053SOL    HW118714   6.960   2.496   1.352  1.4230  0.9107 -0.7208
 6053SOL    HW218715   7.089   2.418   1.336  0.3999 -0.8030 -0.9720
 6054SOL     OW18716   4.612   3.886   5.785  0.1228 -0.0574  0.2919
 6054SOL    HW118717   4.540   3.892   5.849  0.2580  0.4813  0.3971
 6054SOL    HW218718   4.642   3.976   5.775  0.7836 -0.2830  0.2418
 6055SOL     OW18719   7.124   3.854   2.092  0.4822  0.2412  0.3429
 6055SOL    HW118720   7.083   3.781   2.044 -1.5861  0.7096  1.2771
 6055SOL    HW218721   7.218   3.844   2.075 -0.0142 -0.3718 -2.6999
 6056SOL     OW18722   0.250   6.286   4.896 -0.1933 -0.1640 -0.4305
 6056SOL    HW118723   0.160   6.308   4.873 -0.2298  0.0596 -0.0744
 6056SOL    HW218724   0.243   6.212   4.955 -0.2323  0.8515  0.8712
 6057SOL     OW18725   4.703   2.459   2.377  0.5262 -0.7602  0.0053
 6057SOL    HW118726   4.612   2.459   2.405  0.1130  1.0106 -1.1272
 6057SOL    HW218727   4.704   2.405   2.298  0.1397  0.2795 -0.7415
 6058SOL     OW18728   3.580   2.101   1.154  0.5006 -0.2556  0.6793
 6058SOL    HW118729   3.634   2.170   1.191 -0.4598 -0.5133  2.7189
 6058SOL    HW218730   3.500   2.102   1.207 -1.6210  0.2177 -2.3053
 6059SOL     OW18731   1.615   6.194   3.851 -0.1194  0.2089  0.3052
 6059SOL    HW118732   1.642   6.108   3.884  2.5066  0.3337 -1.2835
 6059SOL    HW218733   1.557   6.228   3.919  0.7219 -1.8013  2.1465
 6060SOL     OW18734   6.441   1.968   1.700 -0.0168  0.1159  0.4130
 6060SOL    HW118735   6.535   1.951   1.710 -0.3142 -1.2312  1.2158
 6060SOL    HW218736   6.400   1.882   1.712 -1.3598  0.6904  0.1054
 6061SOL     OW18737   7.392   1.825   4.160 -0.8722  1.0049 -0.0695
 6061SOL    HW118738   7.299   1.841   4.174 -0.7841  2.0949 -0.5867
 6061SOL    HW218739   7.434   1.852   4.241 -0.8337  2.4866 -0.5506
 6062SOL     OW18740   6.435   4.020   2.548 -0.1068 -0.5804  0.0088
 6062SOL    HW118741   6.394   3.958   2.488 -0.5242 -2.0114  1.6934
 6062SOL    HW218742   6.528   3.995   2.548  0.1306  0.2127 -0.9116
 6063SOL     OW18743   3.940   5.140   7.364  0.2159 -0.1130 -0.3240
 6063SOL    HW118744   3.914   5.231   7.351 -1.3720 -0.4075  0.5563
 6063SOL    HW218745   4.014   5.127   7.305 -0.5474  1.2929 -1.6521
 6064SOL     OW18746   7.571   0.803   5.576  0.3856  0.0134 -0.5578
 6064SOL    HW118747   7.635   0.753   5.526  1.2587 -2.0721  2.3368
 6064SOL    HW218748   7.619   0.831   5.654 -2.1482 -1.9554  1.9415
 6065SOL     OW18749   0.092   2.532   1.763  0.2810  0.2189  0.3072
 6065SOL    HW118750   0.045   2.450   1.773  1.5456 -0.7917 -1.3866
 6065SOL    HW218751   0.110   2.561   1.852  0.5313 -1.7981  0.9629
 6066SOL     OW18752   2.723   5.662   1.856  0.3758  0.5762 -0.1152
 6066SOL    HW118753   2.674   5.631   1.932  0.1953  0.9930 -0.0605
 6066SOL    HW218754   2.782   5.729   1.891 -1.2131  2.3295 -0.6677
 6067SOL     OW18755   4.699   7.706   3.201  0.3729  0.5769 -0.5603
 6067SOL    HW118756   4.691   7.754   3.119 -1.2902  2.0483  0.3611
 6067SOL    HW218757   4.638   7.632   3.192  0.3700  0.6014 -0.7424
 6068SOL     OW18758   4.407   2.186   3.207  0.4214  0.2305 -0.0058
 6068SOL    HW118759   4.367   2.122   3.266  0.7658  0.0566  0.0429
 6068SOL    HW218760   4.344   2.195   3.136 -0.0899  0.5958  0.4868
 6069SOL     OW18761   7.055   5.761   3.509  0.3380 -0.1049  0.0379
 6069SOL    HW118762   7.090   5.782   3.595  0.8158 -0.7271  0.0080
 6069SOL    HW218763   7.125   5.785   3.448  0.9669 -1.8254  0.0155
 6070SOL     OW18764   3.054   2.283   3.715  0.3908 -0.2894 -0.5245
 6070SOL    HW118765   3.025   2.253   3.629 -1.9323  0.9996 -0.2558
 6070SOL    HW218766   3.005   2.364   3.731  0.6086 -0.5780  2.0680
 6071SOL     OW18767   4.981   7.456   3.046  0.1318  0.3896  0.2947
 6071SOL    HW118768   4.901   7.443   2.996 -0.4896  0.8695  1.1616
 6071SOL    HW218769   4.991   7.551   3.054  0.6330  0.3318  0.4373
 6072SOL     OW18770   0.210   2.054   6.890  0.6378  0.5609  0.4315
 6072SOL    HW118771   0.297   2.094   6.888  0.4053  1.0573  0.0610
 6072SOL    HW218772   0.208   2.005   6.972  1.9026 -0.9179 -0.3697
 6073SOL     OW18773   5.422   6.030   0.805  0.0048  0.0960  0.2322
 6073SOL    HW118774   5.508   6.028   0.764  0.5258 -0.0736  1.3272
 6073SOL    HW218775   5.410   5.943   0.842 -1.0878 -0.2275 -0.7968
 6074SOL     OW18776   4.940   6.248   6.250 -0.5667 -0.0657  0.0156
 6074SOL    HW118777   5.009   6.221   6.191 -0.6061 -0.4333  0.1385
 6074SOL    HW218778   4.942   6.344   6.247 -1.0277 -0.0792 -1.1054
 6075SOL     OW18779   1.426   3.170   6.757  0.0059  0.4218  0.2425
 6075SOL    HW118780   1.401   3.228   6.829  0.1932 -1.6138  2.0500
 6075SOL    HW218781   1.504   3.210   6.720  1.3493  0.3551  2.7677
 6076SOL     OW18782   1.543   1.330   7.388  0.3684 -0.1253  0.4366
 6076SOL    HW118783   1.553   1.343   7.483 -0.1432  0.3890  0.4296
 6076SOL    HW218784   1.630   1.345   7.353  1.0464 -2.4042  1.0230
 6077SOL     OW18785   5.483   4.184   5.705  0.0969 -0.0578 -0.1987
 6077SOL    HW118786   5.569   4.164   5.667  1.1404  0.6305  1.6705
 6077SOL    HW218787   5.480   4.280   5.709 -0.1850 -0.0936  0.9283
 6078SOL     OW18788   0.801   7.287   5.364  0.2422  0.0238 -0.1247
 6078SOL    HW118789   0.714   7.254   5.340 -0.0978 -1.1700  2.4897
 6078SOL    HW218790   0.842   7.215   5.411  1.9746  1.2093  0.2715
 6079SOL     OW18791   3.261   7.068   0.926  0.1290  0.3830  0.1570
 6079SOL    HW118792   3.222   6.995   0.878 -1.1017  1.6921 -0.9233
 6079SOL    HW218793   3.333   7.029   0.976 -0.9939 -1.6901  0.2406
 6080SOL     OW18794   2.185   6.215   6.107  0.4738 -0.5989 -0.2751
 6080SOL    HW118795   2.124   6.277   6.147 -0.1939  0.2871 -2.4931
 6080SOL    HW218796   2.150   6.201   6.018  2.7240 -1.1611 -1.1385
 6081SOL     OW18797   0.419   4.082   0.796  0.3140 -0.0649  0.2517
 6081SOL    HW118798   0.388   3.999   0.759  1.4261 -1.2979  1.9200
 6081SOL    HW218799   0.363   4.097   0.872  0.9022  0.0495  0.6726
 6082SOL     OW18800   5.607   1.657   4.258  0.0553 -0.0715  0.2133
 6082SOL    HW118801   5.585   1.662   4.351  2.1635  0.0296  0.7593
 6082SOL    HW218802   5.652   1.573   4.249  0.1370  0.0602 -0.6677
 6083SOL     OW18803   2.894   2.567   3.458 -0.2594 -0.2891  0.3254
 6083SOL    HW118804   2.879   2.651   3.415  0.2007 -0.8471 -0.9841
 6083SOL    HW218805   2.884   2.502   3.388  2.8042 -1.0835  0.4853
 6084SOL     OW18806   3.960   2.935   7.636 -0.5235 -0.1134 -0.3882
 6084SOL    HW118807   3.913   2.859   7.603 -0.4286 -1.2466  1.8572
 6084SOL    HW218808   4.040   2.899   7.675 -0.1264  1.2239  0.1052
 6085SOL     OW18809   0.211   5.173   5.293  0.5411 -0.0812 -0.0075
 6085SOL    HW118810   0.258   5.090   5.287  2.0287  0.8066 -1.2657
 6085SOL    HW218811   0.217   5.211   5.205 -1.4773  0.6594  0.1281
 6086SOL     OW18812   5.395   7.161   3.578 -0.3482  0.1206 -0.2126
 6086SOL    HW118813   5.377   7.071   3.604  2.7102 -0.8003 -0.8843
 6086SOL    HW218814   5.389   7.212   3.659 -0.1281 -1.0379  0.5454
 6087SOL     OW18815   6.182   0.255   0.232  0.8513  0.0498 -0.3751
 6087SOL    HW118816   6.137   0.217   0.156  1.0083 -1.9624  0.4603
 6087SOL    HW218817   6.151   0.202   0.306  2.4443  0.4609  0.6213
 6088SOL     OW18818   2.732   6.460   7.624  0.2749 -0.4345  0.0635
 6088SOL    HW118819   2.811   6.514   7.625  0.8117 -1.2016  0.3825
 6088SOL    HW218820   2.763   6.374   7.595 -0.6803 -0.4064 -1.1182
 6089SOL     OW18821   3.493   2.720   2.457 -0.1497 -0.6085 -0.4882
 6089SOL    HW118822   3.418   2.775   2.477  1.3505  1.4599 -0.2459
 6089SOL    HW218823   3.455   2.643   2.414 -2.3011  0.9613 -1.6253
 6090SOL     OW18824   3.263   4.142   5.640 -0.2544 -0.5042  0.7667
 6090SOL    HW118825   3.280   4.232   5.669 -1.7856 -0.2376  0.9320
 6090SOL    HW218826   3.340   4.118   5.589  0.7220  0.4530  1.7544
 6091SOL     OW18827   6.525   6.232   0.269  0.4844 -0.0830  0.9461
 6091SOL    HW118828   6.466   6.305   0.250 -0.5969 -1.0056  0.6574
 6091SOL    HW218829   6.611   6.273   0.278  0.0430  1.1344 -0.0219
 6092SOL     OW18830   4.366   7.663   3.709  0.3596 -0.1748 -0.3473
 6092SOL    HW118831   4.403   7.692   3.625 -0.4952  1.0108 -0.3280
 6092SOL    HW218832   4.429   7.693   3.774 -0.6111  1.9007 -0.3100
 6093SOL     OW18833   0.350   4.417   4.867 -0.7155 -0.4280  0.2917
 6093SOL    HW118834   0.304   4.427   4.950 -1.2201  1.0743 -0.1339
 6093SOL    HW218835   0.346   4.504   4.827 -1.0033 -1.2525 -1.5692
 6094SOL     OW18836   0.477   6.416   0.071  0.5365  0.1084  0.1338
 6094SOL    HW118837   0.388   6.396   0.102  0.8926 -0.5482  0.7556
 6094SOL    HW218838   0.484   6.369  -0.012  0.0257  0.8228 -0.3253
 6095SOL     OW18839   7.405   4.419   4.686 -0.2066 -0.3451  0.4759
 6095SOL    HW118840   7.422   4.438   4.594  1.0110 -1.4662  0.4369
 6095SOL    HW218841   7.487   4.381   4.718 -1.2712 -1.8895  1.4837
 6096SOL     OW18842   2.803   3.295   5.393  0.6352 -0.3018  0.3163
 6096SOL    HW118843   2.884   3.296   5.444 -0.0730  0.4213  1.4619
 6096SOL    HW218844   2.779   3.202   5.388  0.7222 -0.3809  1.2867
 6097SOL     OW18845   7.280   7.439   1.933 -0.5053  0.0692  0.4824
 6097SOL    HW118846   7.368   7.422   1.899 -0.4033 -0.8224  1.1678
 6097SOL    HW218847   7.267   7.533   1.919 -0.2120 -0.1279 -1.4058
 6098SOL     OW18848   1.829   2.584   2.203  0.0380  0.0209 -0.0329
 6098SOL    HW118849   1.869   2.668   2.180 -0.6152  0.4062  0.2055
 6098SOL    HW218850   1.886   2.548   2.271  0.9173 -0.2386 -0.8827
 6099SOL     OW18851   5.528   0.467   1.847 -0.6324 -0.0154 -0.2440
 6099SOL    HW118852   5.450   0.415   1.825  0.1385 -0.8770 -0.9972
 6099SOL    HW218853   5.525   0.540   1.785 -0.0508 -0.8571 -1.2942
 6100SOL     OW18854   0.158   0.624   5.821  0.2247 -0.3821 -0.0621
 6100SOL    HW118855   0.183   0.601   5.911  0.2701  1.4039  0.4178
 6100SOL    HW218856   0.151   0.540   5.776  0.4086 -1.3071  1.5552
 6101SOL     OW18857   2.742   4.363   1.295  0.4779 -0.0884 -0.8532
 6101SOL    HW118858   2.674   4.428   1.314  0.3657 -0.3375 -0.3802
 6101SOL    HW218859   2.811   4.412   1.250  1.7120  1.0004  2.0056
 6102SOL     OW18860   6.040   3.205   6.939  0.1000 -0.6033 -0.6603
 6102SOL    HW118861   5.988   3.237   7.014 -0.1257 -1.5139 -0.4086
 6102SOL    HW218862   6.128   3.193   6.974 -0.1781 -1.7729 -0.3070
 6103SOL     OW18863   7.697   4.725   2.249 -0.5511 -0.0381 -0.6162
 6103SOL    HW118864   7.730   4.640   2.280 -0.3706  0.3388  0.2775
 6103SOL    HW218865   7.723   4.729   2.157 -0.4054 -0.8740 -0.6205
 6104SOL     OW18866   6.677   1.466   3.164  0.2617 -0.0337 -0.3036
 6104SOL    HW118867   6.728   1.481   3.243  0.3713 -0.2799 -0.3255
 6104SOL    HW218868   6.619   1.393   3.186  2.0886 -1.8689 -1.2503
 6105SOL     OW18869   2.778   6.916   6.678 -0.2885  0.6408  0.1281
 6105SOL    HW118870   2.833   6.991   6.659  0.6895 -0.6330 -2.7043
 6105SOL    HW218871   2.805   6.886   6.765  4.0034 -0.2059 -1.2827
 6106SOL     OW18872   1.507   5.595   3.149 -0.4236 -0.1483 -0.2156
 6106SOL    HW118873   1.425   5.578   3.103 -0.5941  1.6471 -0.6526
 6106SOL    HW218874   1.534   5.682   3.118  1.4693 -0.5511  0.1776
 6107SOL     OW18875   3.615   1.007   4.099 -0.4467  0.3379 -0.2375
 6107SOL    HW118876   3.609   1.102   4.110 -1.1209  0.3292 -0.5099
 6107SOL    HW218877   3.662   0.995   4.018  2.2893  0.4140  1.2301
 6108SOL     OW18878   1.804   4.909   0.883 -0.1928 -0.1614 -0.2425
 6108SOL    HW118879   1.781   4.977   0.946  1.3536  0.5432 -0.4019
 6108SOL    HW218880   1.801   4.828   0.933  0.8574  0.3743  0.7192
 6109SOL     OW18881   0.130   3.403   4.581  0.0976  0.0913  0.1927
 6109SOL    HW118882   0.183   3.396   4.661  1.6846  2.3568 -0.5699
 6109SOL    HW218883   0.045   3.434   4.611 -0.1323 -1.3921  1.2044
 6110SOL     OW18884   6.917   3.198   3.183 -0.1692 -0.1468  0.1982
 6110SOL    HW118885   6.831   3.233   3.205  0.3986  0.6493  1.2219
 6110SOL    HW218886   6.939   3.240   3.099 -1.3917 -1.5093 -0.8543
 6111SOL     OW18887   4.405   2.712   6.297  0.5628 -0.3455 -0.4658
 6111SOL    HW118888   4.353   2.643   6.338  0.0460  0.7763  0.8170
 6111SOL    HW218889   4.347   2.787   6.292  2.1546  1.1537  1.6103
 6112SOL     OW18890   3.527   6.394   0.584 -0.5546 -0.1828  0.3336
 6112SOL    HW118891   3.457   6.414   0.522 -0.3478 -2.0318 -0.5678
 6112SOL    HW218892   3.599   6.362   0.530 -0.3606 -1.8498  1.4744
 6113SOL     OW18893   7.476   5.698   3.996 -0.5944 -0.3085  0.2359
 6113SOL    HW118894   7.470   5.745   4.079 -0.2941  1.8395 -0.8718
 6113SOL    HW218895   7.418   5.623   4.006  0.3294 -0.7965  2.7719
 6114SOL     OW18896   4.026   1.955   4.919  0.5504  0.1620  0.2559
 6114SOL    HW118897   3.951   1.985   4.867 -0.5986  0.6646  2.1131
 6114SOL    HW218898   3.999   1.869   4.953  0.8996  0.2404  0.7426
 6115SOL     OW18899   7.657   3.050   0.015  0.5288 -0.0299  0.2679
 6115SOL    HW118900   7.666   3.142  -0.011 -1.0375 -0.0538 -0.5201
 6115SOL    HW218901   7.615   3.054   0.101 -2.3057  0.0456 -1.0123
 6116SOL     OW18902   1.587   0.638   2.418 -0.4819 -0.7274 -0.4877
 6116SOL    HW118903   1.540   0.694   2.479  0.2153  0.6978 -1.2288
 6116SOL    HW218904   1.521   0.612   2.353 -0.3940  0.8843 -1.2663
 6117SOL     OW18905   1.608   4.127   2.832  0.5025  0.2298  0.5323
 6117SOL    HW118906   1.595   4.092   2.743  2.1404 -0.3269  0.4788
 6117SOL    HW218907   1.671   4.199   2.820  2.7184 -1.4503  1.4985
 6118SOL     OW18908   7.288   1.209   6.881  0.2935  0.3099 -0.1215
 6118SOL    HW118909   7.356   1.209   6.948  1.3501  0.5168 -1.1453
 6118SOL    HW218910   7.286   1.119   6.849  0.2638  0.3557 -0.2516
 6119SOL     OW18911   2.110   2.256   7.701  0.0729  0.3642 -0.3985
 6119SOL    HW118912   2.152   2.174   7.727 -0.0916 -0.1481 -1.6606
 6119SOL    HW218913   2.128   2.316   7.773  0.5571 -0.6561  0.3627
 6120SOL     OW18914   1.897   0.543   1.501 -0.0178  0.5151 -0.2135
 6120SOL    HW118915   1.960   0.519   1.433 -1.7360 -0.1248 -1.6361
 6120SOL    HW218916   1.887   0.464   1.554  0.0542  0.4890 -0.2389
 6121SOL     OW18917   4.357   7.231   0.124 -0.3090  0.7969 -0.0240
 6121SOL    HW118918   4.453   7.227   0.123 -0.3453 -1.5049 -1.0959
 6121SOL    HW218919   4.331   7.155   0.177 -1.5557  0.7014 -0.7403
 6122SOL     OW18920   4.361   6.319   5.235 -0.9999 -0.7511 -0.5350
 6122SOL    HW118921   4.321   6.287   5.315  0.0122  1.3616  0.8987
 6122SOL    HW218922   4.406   6.243   5.198 -1.9389 -1.8844  0.5965
 6123SOL     OW18923   2.187   4.874   2.459 -0.3319 -0.8493 -0.2056
 6123SOL    HW118924   2.104   4.901   2.418  0.8683  3.2307 -0.3717
 6123SOL    HW218925   2.198   4.934   2.532  1.3498 -2.9842  1.4236
 6124SOL     OW18926   1.696   4.990   2.308  0.2783 -0.0955 -0.4730
 6124SOL    HW118927   1.625   5.010   2.247 -0.8279  0.7364  1.0208
 6124SOL    HW218928   1.674   5.038   2.388  1.7423 -1.0324  0.5561
 6125SOL     OW18929   5.977   3.413   0.141  0.3992  0.5427 -0.2022
 6125SOL    HW118930   5.906   3.350   0.149  1.8589 -1.0806  0.4991
 6125SOL    HW218931   5.933   3.498   0.141 -1.5450 -0.4003 -0.0448
 6126SOL     OW18932   4.126   5.461   5.578 -0.0256  0.3102 -0.3398
 6126SOL    HW118933   4.170   5.425   5.654 -2.0572  0.8703  1.1956
 6126SOL    HW218934   4.052   5.402   5.563 -0.0430  0.5926 -1.4493
 6127SOL     OW18935   6.909   0.554   5.298 -0.2857  0.5094 -0.8065
 6127SOL    HW118936   6.987   0.570   5.352 -1.4488  1.6171  0.6580
 6127SOL    HW218937   6.874   0.642   5.281 -1.7177 -0.0014 -0.6233
 6128SOL     OW18938   0.967   0.989   1.043  0.4631 -0.2949  0.1942
 6128SOL    HW118939   0.973   0.988   1.138 -1.5334 -0.2078  0.3733
 6128SOL    HW218940   0.965   0.897   1.018  1.6084 -0.3235  0.1586
 6129SOL     OW18941   2.963   0.666   0.181 -0.4420 -0.1867 -0.1469
 6129SOL    HW118942   3.020   0.592   0.201 -0.4635 -0.2215 -0.2134
 6129SOL    HW218943   2.976   0.727   0.253 -1.3699 -0.8122  0.5822
 6130SOL     OW18944   7.000   7.518   0.760 -0.2020 -0.2706 -0.6184
 6130SOL    HW118945   6.961   7.459   0.695  0.3233  1.3191 -2.5130
 6130SOL    HW218946   7.095   7.512   0.744 -0.1752  1.8797 -1.7285
 6131SOL     OW18947   1.061   7.604   5.453 -0.2635 -0.3075  0.6081
 6131SOL    HW118948   1.079   7.653   5.373 -2.1864 -0.1232  0.2465
 6131SOL    HW218949   0.968   7.618   5.469  0.0770 -0.3314  2.9021
 6132SOL     OW18950   1.465   0.734   2.624  0.5906 -0.0077  0.1193
 6132SOL    HW118951   1.395   0.771   2.569  1.5785  2.8869  0.6204
 6132SOL    HW218952   1.420   0.708   2.705 -0.0072  1.6258  0.3581
 6133SOL     OW18953   7.006   0.982   0.620  0.1352  0.2617 -0.1237
 6133SOL    HW118954   7.058   1.032   0.683 -0.0027  1.7069 -1.1004
 6133SOL    HW218955   7.071   0.932   0.570  0.5516  1.4259 -0.7882
 6134SOL     OW18956   0.382   1.904   2.500 -0.0283 -0.0304  0.1591
 6134SOL    HW118957   0.292   1.928   2.477 -0.3038  0.7620  1.9172
 6134SOL    HW218958   0.375   1.819   2.542  0.3290 -0.9228 -1.5091
 6135SOL     OW18959   1.123   4.437   6.398  0.2330 -0.1926 -0.5880
 6135SOL    HW118960   1.193   4.454   6.462 -0.9733 -0.3235  0.8267
 6135SOL    HW218961   1.117   4.341   6.395 -0.3151 -0.1742 -0.1990
 6136SOL     OW18962   2.234   4.106   5.371 -0.1094  0.9324  0.3780
 6136SOL    HW118963   2.291   4.040   5.331 -2.2970  0.3731 -2.0909
 6136SOL    HW218964   2.244   4.092   5.465  1.4868 -1.1560 -0.0144
 6137SOL     OW18965   0.018   6.012   6.120 -0.2918  0.2828  0.2580
 6137SOL    HW118966  -0.008   5.969   6.039 -1.6118  1.1313  0.2157
 6137SOL    HW218967   0.079   6.080   6.093 -0.1541  0.0888  0.0717
 6138SOL     OW18968   6.437   5.511   7.395 -0.3203 -0.3820 -0.3857
 6138SOL    HW118969   6.361   5.506   7.454 -1.2374 -1.7538 -1.6021
 6138SOL    HW218970   6.468   5.601   7.403 -1.1926 -0.1840  1.2182
 6139SOL     OW18971   3.241   2.595   4.255 -0.3270  0.3281 -0.7068
 6139SOL    HW118972   3.301   2.592   4.181 -0.7234  1.6940 -1.1084
 6139SOL    HW218973   3.193   2.677   4.244  0.0417  0.8871  1.3897
 6140SOL     OW18974   6.338   5.054   0.415 -0.1635  0.0337  0.0621
 6140SOL    HW118975   6.424   5.090   0.434  0.1799 -0.2259 -0.9421
 6140SOL    HW218976   6.355   4.970   0.372 -0.8694  0.5119 -1.2359
 6141SOL     OW18977   0.454   1.759   3.178 -0.1340 -0.4528 -0.4340
 6141SOL    HW118978   0.473   1.694   3.111 -0.3334 -1.2952  0.3007
 6141SOL    HW218979   0.466   1.712   3.261  1.0308  0.8230  0.1445
 6142SOL     OW18980   2.999   1.127   0.312  0.3082  0.2350 -0.3652
 6142SOL    HW118981   3.092   1.147   0.302  0.6170 -1.8004 -2.4060
 6142SOL    HW218982   2.960   1.157   0.230 -0.7122  0.3394  0.1498
 6143SOL     OW18983   5.952   2.940   7.371  0.2386  0.1886  0.1076
 6143SOL    HW118984   5.935   3.032   7.393  1.0407  0.0387  1.5062
 6143SOL    HW218985   6.047   2.932   7.377  0.2632 -0.5289 -0.9671
 6144SOL     OW18986   0.892   1.588   2.340  0.1214 -0.5877  0.1050
 6144SOL    HW118987   0.895   1.644   2.262  1.9501  0.6193  0.9671
 6144SOL    HW218988   0.977   1.545   2.342  0.8355  0.7646  2.3396
 6145SOL     OW18989   6.368   5.823   2.222 -0.3470 -0.6478 -0.1199
 6145SOL    HW118990   6.454   5.782   2.229  0.2818  0.3150 -1.6968
 6145SOL    HW218991   6.335   5.825   2.312  2.7673  2.0820  1.1521
 6146SOL     OW18992   4.672   0.157   0.085  0.4435  0.3936  0.7250
 6146SOL    HW118993   4.763   0.139   0.061 -0.2687  0.1103 -2.2480
 6146SOL    HW218994   4.670   0.250   0.104  1.3093  0.4598  0.5458
 6147SOL     OW18995   1.022   1.263   1.095  0.3011  0.0184  0.3724
 6147SOL    HW118996   0.929   1.287   1.088  0.6785  1.1112 -1.5637
 6147SOL    HW218997   1.023   1.168   1.089 -0.5903  0.0930 -1.3581
 6148SOL     OW18998   1.137   1.215   0.725 -0.3036 -0.1138  0.1909
 6148SOL    HW118999   1.143   1.129   0.767 -0.6467 -0.5205 -0.5746
 6148SOL    HW219000   1.228   1.238   0.705 -0.1296  0.1099  1.1818
 6149SOL     OW19001   5.918   1.305   5.554  0.3893  0.2023  0.1897
 6149SOL    HW119002   5.923   1.388   5.603  1.8170  1.6671 -2.1958
 6149SOL    HW219003   5.848   1.319   5.491 -0.8683 -1.3428  1.1711
 6150SOL     OW19004   1.250   7.160   1.532  0.2580 -0.4002  0.7605
 6150SOL    HW119005   1.318   7.181   1.596 -1.4489  0.8311  2.2561
 6150SOL    HW219006   1.210   7.080   1.565  0.6838 -0.9127  0.0801
 6151SOL     OW19007   6.277   5.082   7.050  0.1333 -0.0049  0.1091
 6151SOL    HW119008   6.300   5.156   7.106  0.4390 -0.6741  0.8808
 6151SOL    HW219009   6.254   5.122   6.966 -0.6780  1.0433  0.7993
 6152SOL     OW19010   1.511   2.857   5.182 -0.1474  0.0302 -0.1648
 6152SOL    HW119011   1.433   2.804   5.193 -1.5612  2.0348 -0.0199
 6152SOL    HW219012   1.484   2.946   5.206  2.6966  0.4835  1.8516
 6153SOL     OW19013   0.849   0.313   0.908 -0.2180  0.1313 -0.6950
 6153SOL    HW119014   0.799   0.234   0.891  0.1570  0.0664 -1.5404
 6153SOL    HW219015   0.828   0.371   0.835 -0.4290  0.7861 -0.1256
 6154SOL     OW19016   5.456   0.483   4.944 -0.8376 -0.2891  0.1280
 6154SOL    HW119017   5.371   0.440   4.932 -0.0368 -1.8983  0.0245
 6154SOL    HW219018   5.496   0.483   4.857 -0.3480 -0.3721  0.3500
 6155SOL     OW19019   0.724   1.986   2.760 -0.4237  0.0157 -0.0624
 6155SOL    HW119020   0.629   1.984   2.768 -0.2979 -1.6989  1.5153
 6155SOL    HW219021   0.741   1.956   2.670 -1.3700  1.4510 -0.7514
 6156SOL     OW19022   6.099   6.569   6.650  0.4943 -0.4171 -0.7001
 6156SOL    HW119023   6.107   6.579   6.555 -0.5024 -1.1616 -0.8837
 6156SOL    HW219024   6.044   6.643   6.677  1.6289  0.3895 -0.5334
 6157SOL     OW19025   4.065   3.850   0.472  0.4842 -0.2002 -0.4360
 6157SOL    HW119026   4.028   3.783   0.414 -1.6184  0.3192  0.2375
 6157SOL    HW219027   4.098   3.917   0.412 -0.9829 -0.0179 -1.0811
 6158SOL     OW19028   0.830   6.623   4.462  0.2716 -0.2062 -0.3321
 6158SOL    HW119029   0.820   6.589   4.551  0.3734  1.0292  0.1615
 6158SOL    HW219030   0.740   6.638   4.432  0.2695  1.0741  0.2503
 6159SOL     OW19031   1.389   0.835   3.493  0.3907  0.0272  0.6814
 6159SOL    HW119032   1.319   0.776   3.520  1.6649 -1.5233  0.7736
 6159SOL    HW219033   1.344   0.912   3.460 -1.3558 -0.9509  0.6395
 6160SOL     OW19034   4.423   5.209   0.428 -0.0657 -0.4692  0.2981
 6160SOL    HW119035   4.399   5.298   0.403 -2.6260 -0.7354  1.4532
 6160SOL    HW219036   4.459   5.218   0.516  1.8750 -0.3822 -0.4501
 6161SOL     OW19037   6.832   3.930   6.390 -0.1011 -0.6309 -0.0255
 6161SOL    HW119038   6.831   4.017   6.431  1.2404  0.0483 -1.3248
 6161SOL    HW219039   6.917   3.894   6.414  0.5433 -0.3886 -1.7810
 6162SOL     OW19040   2.148   7.121   3.395  0.1975 -0.0970 -0.0590
 6162SOL    HW119041   2.091   7.108   3.471  0.3727 -1.0164 -0.0680
 6162SOL    HW219042   2.197   7.200   3.415  0.9493 -0.8564  1.2437
 6163SOL     OW19043   4.223   6.950   2.560 -0.4516  0.2034 -0.0472
 6163SOL    HW119044   4.259   6.863   2.570  0.5140  0.5707 -0.2402
 6163SOL    HW219045   4.208   6.959   2.466  1.7446  1.1070 -0.3657
 6164SOL     OW19046   7.433   5.060   6.549  0.1771  0.1214 -0.0038
 6164SOL    HW119047   7.411   4.997   6.480 -0.1555 -0.2950  0.4675
 6164SOL    HW219048   7.528   5.056   6.555  0.2184  0.2657 -0.5337
 6165SOL     OW19049   1.593   4.072   4.037  0.6084  0.0164  0.0986
 6165SOL    HW119050   1.525   4.127   4.075  1.4064  0.8200  0.4068
 6165SOL    HW219051   1.675   4.116   4.060  1.1827 -0.2638 -1.3052
 6166SOL     OW19052   1.991   2.487   2.392 -0.0398 -0.0196 -0.0792
 6166SOL    HW119053   2.003   2.441   2.476 -1.0111  1.6348  1.0305
 6166SOL    HW219054   2.060   2.553   2.391  0.6603 -0.7553 -1.1306
 6167SOL     OW19055   6.899   5.738   1.462  0.4725  0.0696  0.0509
 6167SOL    HW119056   6.963   5.742   1.534  1.4557  0.6319 -0.8262
 6167SOL    HW219057   6.870   5.829   1.452  1.1767  0.1917 -0.9832
 6168SOL     OW19058   4.564   6.666   1.988  0.9313 -0.3555  0.0769
 6168SOL    HW119059   4.506   6.653   1.913  1.4071  1.7128 -0.7160
 6168SOL    HW219060   4.622   6.590   1.987  0.6441 -0.5865 -1.4022
 6169SOL     OW19061   7.078   2.983   3.232 -0.3418 -0.0325 -0.1588
 6169SOL    HW119062   6.999   3.037   3.224 -1.8639 -2.2229 -0.8484
 6169SOL    HW219063   7.060   2.905   3.179  3.0072  0.0998 -1.7770
 6170SOL     OW19064   0.508   2.725   5.745  0.2493  0.0375 -0.0450
 6170SOL    HW119065   0.490   2.819   5.745  1.4108  0.2736  0.0893
 6170SOL    HW219066   0.473   2.693   5.662 -0.0557  0.6029 -0.1354
 6171SOL     OW19067   6.423   5.354   2.640 -0.4450 -0.2702 -0.1846
 6171SOL    HW119068   6.440   5.442   2.606  1.3110 -0.3998  0.2491
 6171SOL    HW219069   6.380   5.369   2.725 -0.8840  0.1386 -0.4727
 6172SOL     OW19070   7.125   0.592   0.322 -0.3347  0.1492 -0.1601
 6172SOL    HW119071   7.122   0.510   0.274 -0.6705  0.6218 -0.9727
 6172SOL    HW219072   7.043   0.595   0.370  0.0004 -0.3237  0.4535
 6173SOL     OW19073   7.192   0.512   7.079 -0.1475  0.2646 -0.1027
 6173SOL    HW119074   7.124   0.568   7.118  1.3459  1.5033  0.8154
 6173SOL    HW219075   7.144   0.433   7.051 -2.0188  1.2359  0.1640
 6174SOL     OW19076   5.063   6.988   5.989  0.4096 -0.3571  0.4961
 6174SOL    HW119077   5.158   6.996   6.002  0.1459 -0.1120  2.8089
 6174SOL    HW219078   5.026   7.053   6.049 -1.2474 -2.2596  1.6709
 6175SOL     OW19079   1.651   1.147   1.183 -0.1562 -0.3987 -0.2008
 6175SOL    HW119080   1.629   1.177   1.272  2.0155  1.7965 -0.2904
 6175SOL    HW219081   1.739   1.109   1.192  0.4291  0.5665 -1.4946
 6176SOL     OW19082   0.009   0.495   3.712  0.1458  0.1231  0.1538
 6176SOL    HW119083  -0.003   0.585   3.743 -1.7325  0.1719 -0.5867
 6176SOL    HW219084  -0.049   0.488   3.637 -0.6839 -2.0863  0.9263
 6177SOL     OW19085   7.389   6.060   1.899  0.0518  0.5946  0.1970
 6177SOL    HW119086   7.443   6.138   1.910 -0.0112  0.5039  1.2147
 6177SOL    HW219087   7.322   6.067   1.967 -1.2176  0.6868 -1.0136
 6178SOL     OW19088   6.889   4.165   2.722  0.5372 -0.4906 -0.2464
 6178SOL    HW119089   6.886   4.166   2.626  2.1003 -2.4175 -0.4032
 6178SOL    HW219090   6.970   4.210   2.744  0.5069 -0.6139  0.1240
 6179SOL     OW19091   1.509   2.929   4.899 -0.2704  0.3759 -0.3276
 6179SOL    HW119092   1.505   2.836   4.875 -1.0391  0.7794 -1.9220
 6179SOL    HW219093   1.498   2.930   4.994  0.3089 -1.1857 -0.2144
 6180SOL     OW19094   6.399   1.054   2.346  0.3289  0.0543  0.3941
 6180SOL    HW119095   6.305   1.069   2.356  0.0365 -0.1070 -1.6890
 6180SOL    HW219096   6.418   0.980   2.404 -0.8031  0.1456  0.8974
 6181SOL     OW19097   6.846   4.541   0.436 -0.1295  0.4607 -0.2665
 6181SOL    HW119098   6.784   4.586   0.379 -1.8697 -2.6266 -1.0029
 6181SOL    HW219099   6.838   4.586   0.520 -1.6715  1.5841 -0.9707
 6182SOL     OW19100   7.212   4.697   7.119 -0.2093 -0.4212 -0.3097
 6182SOL    HW119101   7.270   4.671   7.190 -0.9433  1.7045  1.1768
 6182SOL    HW219102   7.223   4.792   7.113 -2.3649 -0.1584 -1.0182
 6183SOL     OW19103   3.945   0.533   6.766 -0.2507 -0.0244 -0.3511
 6183SOL    HW119104   3.958   0.626   6.746 -2.5057  0.4414  0.1185
 6183SOL    HW219105   3.980   0.523   6.854  1.9253 -0.1614 -1.1587
 6184SOL     OW19106   2.306   7.235   4.921 -0.2953 -0.0354 -0.2151
 6184SOL    HW119107   2.366   7.214   4.993  0.5804  0.3313 -0.8093
 6184SOL    HW219108   2.337   7.180   4.848  0.1320  1.0931 -0.9041
 6185SOL     OW19109   7.431   4.621   5.438  0.0301  0.5279  0.1525
 6185SOL    HW119110   7.407   4.535   5.474  1.8770  0.0877  0.4467
 6185SOL    HW219111   7.525   4.613   5.419 -0.6779  0.7116 -4.7839
 6186SOL     OW19112   3.533   6.989   6.114  0.3650 -0.2320 -0.2152
 6186SOL    HW119113   3.524   6.895   6.129  0.3643 -0.2465 -0.3097
 6186SOL    HW219114   3.465   7.028   6.169 -0.2718 -0.3393 -0.9151
 6187SOL     OW19115   1.930   6.413   2.305  0.1540 -0.0056 -0.7096
 6187SOL    HW119116   1.904   6.503   2.284 -1.9852  0.0648  1.7809
 6187SOL    HW219117   2.024   6.419   2.321  0.0904  1.7654 -0.7477
 6188SOL     OW19118   3.819   2.391   0.189 -0.6542 -0.4104 -0.8871
 6188SOL    HW119119   3.755   2.420   0.253 -0.2761  0.1315 -0.7583
 6188SOL    HW219120   3.895   2.363   0.240 -0.1535  0.5009 -1.1062
 6189SOL     OW19121   2.842   5.951   5.602 -0.1090  0.2564  0.6438
 6189SOL    HW119122   2.897   5.923   5.676 -1.3918 -2.1552  0.7839
 6189SOL    HW219123   2.903   5.985   5.538  1.2569  0.2988  1.9183
 6190SOL     OW19124   6.227   4.880   0.600 -0.1865 -0.2569 -0.1273
 6190SOL    HW119125   6.191   4.832   0.525 -2.7897  0.7147  0.3973
 6190SOL    HW219126   6.270   4.956   0.561  1.0700 -1.2400 -0.7530
 6191SOL     OW19127   0.584   1.242   6.748 -0.1167  0.4404  0.1731
 6191SOL    HW119128   0.528   1.304   6.701 -1.4754 -1.3507 -0.6973
 6191SOL    HW219129   0.577   1.270   6.840 -1.7798  0.7911 -0.0184
 6192SOL     OW19130   5.796   4.664   0.569 -0.1573 -0.7488 -0.2406
 6192SOL    HW119131   5.848   4.743   0.581 -0.6102 -0.3701 -0.7370
 6192SOL    HW219132   5.763   4.643   0.657 -0.2153 -0.2599 -0.1467
 6193SOL     OW19133   2.870   0.331   3.594 -0.1303  0.3260 -0.1672
 6193SOL    HW119134   2.819   0.381   3.531  0.1448  0.7512 -0.0567
 6193SOL    HW219135   2.926   0.396   3.637  0.0484 -0.0359  0.1559
 6194SOL     OW19136   7.048   2.095   1.766 -0.0092 -0.5749  0.1515
 6194SOL    HW119137   7.119   2.160   1.758  0.2979 -0.6709  1.6716
 6194SOL    HW219138   6.968   2.146   1.759  0.2291  0.0345  1.5016
 6195SOL     OW19139   6.884   3.723   6.999  0.1695 -0.2991 -0.4337
 6195SOL    HW119140   6.969   3.752   7.031  0.0213 -0.5935  0.2617
 6195SOL    HW219141   6.903   3.662   6.928  0.5141  0.2590 -0.8262
 6196SOL     OW19142   0.615   0.803   5.330  0.5252  0.9942  0.1475
 6196SOL    HW119143   0.697   0.768   5.294 -1.0523 -1.4425 -1.3581
 6196SOL    HW219144   0.574   0.849   5.257 -1.7720 -2.2871 -0.8508
 6197SOL     OW19145   3.446   2.996   1.619  0.1160 -0.1533  0.6193
 6197SOL    HW119146   3.420   2.955   1.701  1.1511 -0.4421  0.8232
 6197SOL    HW219147   3.522   3.049   1.642 -0.9801  1.6280  0.2854
 6198SOL     OW19148   3.236   1.874   2.179 -0.1659 -0.3929  0.0287
 6198SOL    HW119149   3.258   1.966   2.195  0.0341 -0.5385  0.6527
 6198SOL    HW219150   3.303   1.844   2.118 -0.8843  0.1617 -1.0588
 6199SOL     OW19151   1.150   4.371   3.968 -0.4310  0.2138  0.0594
 6199SOL    HW119152   1.189   4.444   4.016 -1.0813  0.3808  0.3376
 6199SOL    HW219153   1.127   4.407   3.882  3.1155 -0.6945 -1.4643
 6200SOL     OW19154   7.107   6.330   6.468 -0.0862  0.5558  0.2343
 6200SOL    HW119155   7.161   6.400   6.504  0.7529 -0.2643  0.6177
 6200SOL    HW219156   7.162   6.252   6.474 -1.1792 -0.2352  0.2920
 6201SOL     OW19157   2.827   7.055   7.545 -0.1681 -0.3807 -0.3929
 6201SOL    HW119158   2.775   6.979   7.519 -0.0104 -0.5572 -0.1914
 6201SOL    HW219159   2.911   7.042   7.501  0.1986 -0.8241  0.4379
 6202SOL     OW19160   4.468   0.210   0.345 -0.1994  0.2290  0.2971
 6202SOL    HW119161   4.437   0.125   0.375  0.3419  0.1007  0.4927
 6202SOL    HW219162   4.438   0.271   0.413 -0.5255  0.1882  0.1925
 6203SOL     OW19163   1.866   2.835   5.957  0.3088  0.4527 -0.2983
 6203SOL    HW119164   1.805   2.787   5.901 -0.5880  1.1196  0.0830
 6203SOL    HW219165   1.819   2.915   5.980  0.2763 -0.1681  2.1192
 6204SOL     OW19166   0.043   4.336   4.422  0.7928  0.0075 -0.3345
 6204SOL    HW119167   0.122   4.285   4.402  0.4043 -1.0178  0.6034
 6204SOL    HW219168  -0.028   4.286   4.383  0.4449  0.0102  0.2747
 6205SOL     OW19169   4.007   1.196   2.480 -0.1598 -0.0173  0.2738
 6205SOL    HW119170   3.930   1.194   2.423  0.6638 -0.9048 -0.8713
 6205SOL    HW219171   4.055   1.274   2.452 -0.0020 -0.1793  0.0917
 6206SOL     OW19172   7.663   4.277   1.204 -0.3417 -0.3490  0.1845
 6206SOL    HW119173   7.700   4.230   1.279  1.6153  1.3566  0.3774
 6206SOL    HW219174   7.569   4.279   1.220  0.0486  0.3418  2.8420
 6207SOL     OW19175   7.428   6.367   5.211 -0.4645  0.2378 -0.0167
 6207SOL    HW119176   7.491   6.379   5.139 -1.9065 -0.3511 -1.4480
 6207SOL    HW219177   7.429   6.273   5.228 -1.2534  0.1571 -0.3633
 6208SOL     OW19178   4.226   1.287   1.881 -0.4677 -0.2402  0.2532
 6208SOL    HW119179   4.308   1.336   1.876  0.3052 -1.3097  1.7164
 6208SOL    HW219180   4.221   1.258   1.972 -2.0001 -1.0072 -0.0467
 6209SOL     OW19181   1.632   1.713   6.225  0.2209 -0.0659  1.0516
 6209SOL    HW119182   1.623   1.636   6.281  1.5433 -0.6730  0.4667
 6209SOL    HW219183   1.543   1.745   6.214 -0.1389 -0.2664  3.0158
 6210SOL     OW19184   6.770   5.029   3.906 -0.6304  0.2615 -0.4244
 6210SOL    HW119185   6.819   4.952   3.879 -2.2409 -0.5421 -1.2273
 6210SOL    HW219186   6.821   5.067   3.978  1.5764 -0.0029 -1.7539
 6211SOL     OW19187   2.630   1.792   1.064 -0.0653  0.0364 -0.0349
 6211SOL    HW119188   2.651   1.791   0.971  2.3550 -0.0438  0.4318
 6211SOL    HW219189   2.679   1.867   1.099  0.4221 -0.9046  1.4070
 6212SOL     OW19190   1.895   6.423   1.981  0.1237  0.0796  0.3136
 6212SOL    HW119191   1.862   6.345   2.024 -0.0072 -1.3156 -2.1541
 6212SOL    HW219192   1.990   6.417   1.992  0.0448  0.3706  1.3314
 6213SOL     OW19193   0.809   5.869   4.007  0.1181 -0.2919  0.3987
 6213SOL    HW119194   0.782   5.877   4.098  0.4791 -0.0953  0.4937
 6213SOL    HW219195   0.854   5.785   4.002  0.4690 -0.1128  0.5028
 6214SOL     OW19196   0.642   0.692   7.656 -0.5248 -0.1668 -0.6950
 6214SOL    HW119197   0.607   0.625   7.715  0.9801  0.8558  1.4836
 6214SOL    HW219198   0.736   0.677   7.656 -0.2889  1.2360 -1.0870
 6215SOL     OW19199   3.841   7.552   2.763 -0.2134  0.0980 -0.2808
 6215SOL    HW119200   3.807   7.542   2.852 -1.8533  0.8181 -0.8001
 6215SOL    HW219201   3.900   7.627   2.768  2.1933 -1.7089  0.8292
 6216SOL     OW19202   0.846   7.095   4.704  0.3892  0.0371 -0.1301
 6216SOL    HW119203   0.887   7.100   4.791  0.7808 -2.0799 -0.1599
 6216SOL    HW219204   0.753   7.084   4.722  0.6787 -2.4145  0.1146
 6217SOL     OW19205   0.172   2.030   4.322  0.5411 -0.1668  0.5732
 6217SOL    HW119206   0.239   1.978   4.365  0.7911 -0.7837 -0.5477
 6217SOL    HW219207   0.167   2.110   4.375  1.8322 -0.2976  0.9203
 6218SOL     OW19208   2.076   2.519   0.173 -0.1225  0.5122  0.4274
 6218SOL    HW119209   2.019   2.570   0.231  0.2352 -0.2299  1.4524
 6218SOL    HW219210   2.094   2.578   0.100 -1.4733  1.0854  0.5144
 6219SOL     OW19211   0.704   1.906   2.274 -0.3194  0.6472  0.1144
 6219SOL    HW119212   0.762   1.973   2.309 -0.5506  0.6302  0.5262
 6219SOL    HW219213   0.757   1.862   2.207  0.1016  0.7060  0.4054
 6220SOL     OW19214   1.369   3.089   2.053 -0.5969  0.5490 -0.7434
 6220SOL    HW119215   1.408   3.113   2.137  0.4678  0.6979 -1.2640
 6220SOL    HW219216   1.441   3.096   1.990 -1.4927  0.9069 -1.7573
 6221SOL     OW19217   2.224   1.759   5.834 -0.2886  0.2556 -0.2894
 6221SOL    HW119218   2.134   1.771   5.804 -0.9782 -0.1666  1.4717
 6221SOL    HW219219   2.230   1.667   5.857  0.2198  0.5045  0.6579
 6222SOL     OW19220   5.007   6.174   2.771  0.5215  0.1156 -0.5110
 6222SOL    HW119221   4.913   6.154   2.773  0.9150 -2.4068 -2.0078
 6222SOL    HW219222   5.027   6.205   2.859 -1.6197  0.2527 -0.0180
 6223SOL     OW19223   2.901   5.183   4.383 -0.1669  0.5391 -0.1787
 6223SOL    HW119224   2.992   5.196   4.411 -0.1489  0.2100 -0.0864
 6223SOL    HW219225   2.849   5.227   4.451 -0.1743 -1.2314  1.0251
 6224SOL     OW19226   6.750   6.293   1.729  0.4771 -0.3633  0.1606
 6224SOL    HW119227   6.765   6.260   1.641  1.4583 -0.8891  0.5089
 6224SOL    HW219228   6.730   6.386   1.717 -1.7465 -0.9157 -0.7827
 6225SOL     OW19229   0.210   3.375   3.897  0.4792  0.3239  0.1496
 6225SOL    HW119230   0.144   3.407   3.836  1.1305  1.1043 -0.1704
 6225SOL    HW219231   0.268   3.450   3.911  1.4624 -0.4187  0.1924
 6226SOL     OW19232   6.317   4.260   1.597  0.0713 -0.0445 -0.6703
 6226SOL    HW119233   6.268   4.178   1.585 -0.3406  0.2729 -1.2015
 6226SOL    HW219234   6.407   4.231   1.613 -0.3289 -0.6462  0.5847
 6227SOL     OW19235   0.278   0.391   1.675  0.7201 -0.7707  0.5776
 6227SOL    HW119236   0.374   0.392   1.669  0.7689  1.9846  0.7937
 6227SOL    HW219237   0.260   0.414   1.766 -0.1215  0.4788  0.1218
 6228SOL     OW19238   3.834   7.669   6.786 -0.2713  0.0682 -0.4090
 6228SOL    HW119239   3.774   7.688   6.858  1.1788  1.4248  0.5185
 6228SOL    HW219240   3.920   7.695   6.820  0.3657  1.3940 -2.8724
 6229SOL     OW19241   4.725   5.547   7.295 -0.8151  0.0100  0.9977
 6229SOL    HW119242   4.715   5.589   7.380 -1.4399  0.1156  0.8775
 6229SOL    HW219243   4.642   5.565   7.249  0.3620  1.9113 -0.5053
 6230SOL     OW19244   1.155   7.426   1.467 -0.6382  0.1263 -0.1977
 6230SOL    HW119245   1.180   7.335   1.482 -2.6747 -0.3479  0.7487
 6230SOL    HW219246   1.089   7.422   1.398  1.8193  1.3515 -2.8276
 6231SOL     OW19247   0.253   6.936   5.716  0.2689  0.2236 -0.1975
 6231SOL    HW119248   0.164   6.960   5.741  0.0118 -0.4861 -0.4040
 6231SOL    HW219249   0.242   6.856   5.664  0.9653  0.5622 -0.8686
 6232SOL     OW19250   7.484   1.898   7.468  0.1948 -0.2178 -0.7208
 6232SOL    HW119251   7.527   1.813   7.465  1.8461  0.5287  0.3148
 6232SOL    HW219252   7.545   1.957   7.423  0.0191  0.7750  0.3093
 6233SOL     OW19253   3.248   5.591   4.858  0.3575  0.4828  0.1197
 6233SOL    HW119254   3.251   5.530   4.784 -0.3543  0.0932  0.3916
 6233SOL    HW219255   3.269   5.536   4.934  1.2452  0.9138  0.1901
 6234SOL     OW19256   0.867   3.925   6.968  0.0835  0.1655 -0.6792
 6234SOL    HW119257   0.828   3.911   6.882  0.8671  1.3652 -1.2533
 6234SOL    HW219258   0.891   4.018   6.969  1.4074 -0.1620  0.2801
 6235SOL     OW19259   2.935   0.256   0.359  0.7217 -0.0805 -0.6581
 6235SOL    HW119260   3.012   0.297   0.321  1.0587 -0.7566 -0.7165
 6235SOL    HW219261   2.926   0.173   0.311 -0.4697  0.3193 -1.1672
 6236SOL     OW19262   5.020   7.026   4.236  0.0513  0.4233  0.0331
 6236SOL    HW119263   5.035   7.035   4.142 -0.3072 -1.5139 -0.2367
 6236SOL    HW219264   4.933   7.063   4.250  1.2392  3.5502  0.1816
 6237SOL     OW19265   4.059   0.101   6.374  0.0942 -0.5631 -0.3071
 6237SOL    HW119266   4.061   0.041   6.448 -0.3898 -0.1768  0.0354
 6237SOL    HW219267   4.007   0.056   6.307  0.4650 -0.8806 -0.3779
 6238SOL     OW19268   4.700   6.492   5.418  0.2450 -0.6384 -0.3464
 6238SOL    HW119269   4.637   6.521   5.352  0.2135  0.5650  0.1812
 6238SOL    HW219270   4.668   6.405   5.445 -1.0457 -0.1704 -0.2954
 6239SOL     OW19271   3.232   0.810   7.366  0.0843 -0.0272 -0.7018
 6239SOL    HW119272   3.301   0.748   7.343  0.0947 -0.3083  0.0514
 6239SOL    HW219273   3.159   0.788   7.309  0.5103  0.0695 -1.2900
 6240SOL     OW19274   6.308   7.134   1.235  0.1010  0.0611 -0.1454
 6240SOL    HW119275   6.241   7.081   1.278 -0.5892  0.2288 -0.9717
 6240SOL    HW219276   6.375   7.071   1.208  0.2531 -0.1172  0.6383
 6241SOL     OW19277   2.839   4.568   6.966 -0.3575  0.0721  0.2889
 6241SOL    HW119278   2.783   4.624   7.019 -1.1502 -0.5341  0.1342
 6241SOL    HW219279   2.784   4.491   6.949  0.3987 -0.3651 -0.1992
 6242SOL     OW19280   0.144   0.818   6.588  0.5295  0.0318 -0.3000
 6242SOL    HW119281   0.153   0.770   6.670 -0.2627 -0.2614 -0.3851
 6242SOL    HW219282   0.197   0.897   6.601 -0.7457  0.6959  1.0440
 6243SOL     OW19283   0.597   5.171   0.049  0.1359  0.4186 -0.2108
 6243SOL    HW119284   0.598   5.255   0.094  2.0694  1.0068 -1.2566
 6243SOL    HW219285   0.688   5.144   0.044 -0.2813 -0.9882 -1.2852
 6244SOL     OW19286   4.318   4.599   4.997  0.0015  0.1019 -0.1287
 6244SOL    HW119287   4.409   4.574   5.006  0.1757  1.2707  2.4930
 6244SOL    HW219288   4.321   4.686   4.956  0.0415 -0.1012 -0.5511
 6245SOL     OW19289   5.585   5.531   1.608  0.6305 -0.2779 -0.3465
 6245SOL    HW119290   5.605   5.610   1.660  0.2760 -0.5426  0.1941
 6245SOL    HW219291   5.491   5.536   1.593  0.7804 -0.0343 -1.2577
 6246SOL     OW19292   0.711   3.588   6.718  0.4641  0.1188 -0.0277
 6246SOL    HW119293   0.784   3.529   6.737 -0.8078 -1.3484  0.4429
 6246SOL    HW219294   0.661   3.545   6.650 -0.7708  0.3935  0.6740
 6247SOL     OW19295   7.417   5.734   1.601 -0.4228 -0.2230 -0.0335
 6247SOL    HW119296   7.403   5.639   1.600  0.0846 -0.3091  0.6839
 6247SOL    HW219297   7.340   5.770   1.556 -1.5580 -0.8513  1.3431
 6248SOL     OW19298   4.884   4.085   5.805  0.2264 -0.1592  0.0842
 6248SOL    HW119299   4.947   4.026   5.764 -0.3678 -0.0764 -0.9703
 6248SOL    HW219300   4.878   4.159   5.745 -1.1640 -0.3365 -0.0089
 6249SOL     OW19301   1.445   0.109   4.013  0.1143 -0.0812 -0.4308
 6249SOL    HW119302   1.373   0.078   4.068  2.0588 -2.4533  1.0000
 6249SOL    HW219303   1.470   0.193   4.050 -0.2391 -0.4820  0.7695
 6250SOL     OW19304   7.681   3.678   0.120 -0.2601 -0.0547  0.1503
 6250SOL    HW119305   7.707   3.643   0.035 -0.1479 -2.8749  1.2346
 6250SOL    HW219306   7.764   3.693   0.167 -0.3612 -0.2359  0.3904
 6251SOL     OW19307   7.234   6.328   3.839 -0.0816  0.0273  0.1224
 6251SOL    HW119308   7.255   6.254   3.782  0.2507  2.2884 -3.0024
 6251SOL    HW219309   7.319   6.356   3.873  0.2378  0.7340 -1.1748
 6252SOL     OW19310   6.640   3.265   0.961 -0.0016  0.0303 -0.3341
 6252SOL    HW119311   6.724   3.253   1.006 -1.0048 -0.2363  1.5357
 6252SOL    HW219312   6.637   3.193   0.897 -0.2060 -1.9822  1.8142
 6253SOL     OW19313   2.219   2.857   6.575 -0.0538 -0.0978  0.2111
 6253SOL    HW119314   2.227   2.950   6.598  0.5985 -0.3935  1.2491
 6253SOL    HW219315   2.132   2.850   6.535  0.0792  1.0361 -0.3190
 6254SOL     OW19316   2.285   6.391   5.572 -0.4522  0.0450  0.3234
 6254SOL    HW119317   2.274   6.473   5.524  2.1022  0.0491 -0.4031
 6254SOL    HW219318   2.263   6.323   5.508  0.0163  0.1245  0.0702
 6255SOL     OW19319   4.281   0.674   2.890 -0.3327  0.2210  0.6298
 6255SOL    HW119320   4.357   0.643   2.841 -0.6281  1.1142 -0.4482
 6255SOL    HW219321   4.234   0.595   2.915 -1.4269 -0.2924 -2.5864
 6256SOL     OW19322   1.029   4.717   1.917  0.0229 -0.0297 -0.1566
 6256SOL    HW119323   1.035   4.723   1.822 -0.9024  0.0204 -0.2220
 6256SOL    HW219324   1.120   4.712   1.947  0.3050 -0.5450 -1.0717
 6257SOL     OW19325   4.690   1.082   6.009  0.4802  0.9064  0.7037
 6257SOL    HW119326   4.613   1.036   5.974  0.9917  1.4278 -1.2352
 6257SOL    HW219327   4.764   1.027   5.983  1.0133  2.2194 -0.7208
 6258SOL     OW19328   2.709   7.278   1.160  0.2759 -0.3896 -0.2039
 6258SOL    HW119329   2.793   7.323   1.151  0.2637 -0.6905 -2.3660
 6258SOL    HW219330   2.654   7.338   1.211  1.6236  0.0130  0.8241
 6259SOL     OW19331   0.250   4.484   1.288  0.8829  0.1014  0.0733
 6259SOL    HW119332   0.318   4.533   1.241 -0.8499  2.4720 -0.1506
 6259SOL    HW219333   0.170   4.499   1.237 -0.0550 -1.6686  0.9350
 6260SOL     OW19334   6.921   5.531   6.472  0.1225 -0.1268 -0.2771
 6260SOL    HW119335   6.831   5.546   6.441  0.4315  1.3869 -0.5226
 6260SOL    HW219336   6.918   5.553   6.565  0.0306 -1.0408 -0.0568
 6261SOL     OW19337   5.523   4.302   2.939 -0.3906  0.9328  0.5197
 6261SOL    HW119338   5.434   4.299   2.905 -0.0202  1.1726 -0.5102
 6261SOL    HW219339   5.567   4.370   2.888  0.4278  0.7186  0.9054
 6262SOL     OW19340   0.895   4.929   4.250  0.8428  0.7726  0.2222
 6262SOL    HW119341   0.870   5.001   4.192  2.7719  1.8506  0.6358
 6262SOL    HW219342   0.825   4.864   4.240  0.3971  1.5305 -2.2014
 6263SOL     OW19343   0.247   3.802   3.822  0.0030  0.1860  0.1508
 6263SOL    HW119344   0.315   3.856   3.783  0.1954  0.2037  0.5145
 6263SOL    HW219345   0.187   3.865   3.862  0.4517  0.1155  0.9446
 6264SOL     OW19346   0.780   2.794   7.643 -0.5065  0.7824  0.3513
 6264SOL    HW119347   0.771   2.710   7.599 -0.0264  0.5656  0.6545
 6264SOL    HW219348   0.707   2.797   7.705  1.2525 -0.8594  2.6466
 6265SOL     OW19349   1.066   0.113   4.873  0.2654  0.3869  0.3024
 6265SOL    HW119350   1.054   0.021   4.897  0.4793  0.1589 -0.4459
 6265SOL    HW219351   1.124   0.148   4.939 -0.0472  0.0554  0.7578
 6266SOL     OW19352   7.140   2.841   4.816  0.0861 -0.4422 -0.2292
 6266SOL    HW119353   7.145   2.749   4.845 -1.1481  0.1726  2.2402
 6266SOL    HW219354   7.212   2.884   4.861  0.0437 -0.0121 -0.5710
 6267SOL     OW19355   4.679   6.473   5.901  0.5001  0.4302  0.4405
 6267SOL    HW119356   4.707   6.386   5.930 -2.2124 -0.3819  0.8642
 6267SOL    HW219357   4.717   6.481   5.813  1.4664 -0.8207  0.7047
 6268SOL     OW19358   0.935   7.213   5.717  0.0731 -0.1762 -0.2326
 6268SOL    HW119359   0.878   7.137   5.724 -1.2076  0.6995 -0.7537
 6268SOL    HW219360   1.022   7.180   5.735 -0.5461 -1.6383  0.1777
 6269SOL     OW19361   5.817   6.674   5.544 -0.0824  0.1645 -0.1449
 6269SOL    HW119362   5.856   6.599   5.500  1.0250 -1.5365  3.3270
 6269SOL    HW219363   5.724   6.670   5.521 -0.1220 -2.5122  0.1229
 6270SOL     OW19364   5.461   5.215   5.581 -0.0865 -0.0195  0.2275
 6270SOL    HW119365   5.403   5.250   5.649 -0.7681 -1.6354  0.5111
 6270SOL    HW219366   5.548   5.246   5.606 -0.4224 -0.0429  1.4777
 6271SOL     OW19367   6.293   6.738   5.809  0.1026 -0.7211  0.2954
 6271SOL    HW119368   6.334   6.816   5.771 -0.5388 -1.1022 -1.2539
 6271SOL    HW219369   6.199   6.754   5.799 -0.1345 -0.5631  2.3621
 6272SOL     OW19370   7.119   6.131   0.419 -0.5248  0.8543 -0.1942
 6272SOL    HW119371   7.138   6.216   0.459 -1.3708  1.6845 -1.4739
 6272SOL    HW219372   7.038   6.145   0.369 -0.4896 -0.6099 -0.7270
 6273SOL     OW19373   7.103   7.530   4.540 -0.2279  0.0247  0.0796
 6273SOL    HW119374   7.194   7.502   4.535 -0.4475 -0.8442  0.7005
 6273SOL    HW219375   7.101   7.615   4.495  1.0485  0.4674  0.8118
 6274SOL     OW19376   5.494   6.154   7.196 -0.1531  0.8080  0.2752
 6274SOL    HW119377   5.452   6.221   7.142 -2.1334 -0.3885  0.2293
 6274SOL    HW219378   5.443   6.074   7.179  0.9229 -0.2586  1.7884
 6275SOL     OW19379   0.336   2.686   4.942  0.2907  1.2671 -0.0652
 6275SOL    HW119380   0.401   2.719   4.880 -2.4129  1.9200 -2.7882
 6275SOL    HW219381   0.333   2.592   4.927  1.4995  1.0403  1.0289
 6276SOL     OW19382   6.270   2.983   0.107  0.1279 -0.2700  0.2674
 6276SOL    HW119383   6.194   2.979   0.050 -1.2954 -2.2044  2.1339
 6276SOL    HW219384   6.251   3.055   0.168  0.1415 -0.3048  0.3125
 6277SOL     OW19385   2.350   0.848   3.358 -0.7473  0.1032  0.3009
 6277SOL    HW119386   2.426   0.884   3.404 -1.4982  0.6556  1.1455
 6277SOL    HW219387   2.377   0.759   3.334  0.9638  0.9903 -1.3995
 6278SOL     OW19388   1.175   4.953   0.880 -0.3316 -0.1364 -0.1255
 6278SOL    HW119389   1.263   4.937   0.913 -0.6177 -1.0509  0.2329
 6278SOL    HW219390   1.136   4.866   0.871 -0.7400  0.1727 -1.5850
 6279SOL     OW19391   6.949   0.168   2.087  0.2271  0.3987 -0.1358
 6279SOL    HW119392   6.859   0.171   2.120  0.0164  1.8191 -0.7679
 6279SOL    HW219393   6.942   0.115   2.007  0.3462 -1.1720  0.8446
 6280SOL     OW19394   5.619   5.734   1.793  0.0677 -0.3357 -0.3333
 6280SOL    HW119395   5.656   5.665   1.846  1.8773  0.1331 -0.9286
 6280SOL    HW219396   5.554   5.776   1.850  2.5110  0.7111  1.8822
 6281SOL     OW19397   0.227   2.095   5.366  0.1676 -0.0747  0.1818
 6281SOL    HW119398   0.228   2.000   5.366 -3.1092 -0.2277  1.3917
 6281SOL    HW219399   0.145   2.119   5.324 -0.1828  2.0991  1.8634
 6282SOL     OW19400   6.319   0.617   6.298 -0.3891 -0.2661 -0.2234
 6282SOL    HW119401   6.226   0.636   6.282 -0.0811  1.5137 -0.1382
 6282SOL    HW219402   6.354   0.699   6.332  2.0645  0.4180 -3.8468
 6283SOL     OW19403   7.594   3.842   3.257 -0.0205 -0.0583 -0.1149
 6283SOL    HW119404   7.667   3.793   3.219 -0.9719 -0.5466 -1.3820
 6283SOL    HW219405   7.517   3.787   3.240 -1.0230  1.5494 -0.9525
 6284SOL     OW19406   1.772   4.612   5.599 -0.2697 -0.5070  0.1052
 6284SOL    HW119407   1.780   4.650   5.511 -2.6748 -0.0018  0.0473
 6284SOL    HW219408   1.778   4.518   5.585  3.9832 -0.4075  0.0408
 6285SOL     OW19409   4.277   4.727   0.504  0.4578  0.2636 -0.3082
 6285SOL    HW119410   4.258   4.772   0.586  1.2015 -1.4180  0.8466
 6285SOL    HW219411   4.228   4.645   0.509 -0.1331  0.4776 -1.9304
 6286SOL     OW19412   1.975   7.288   0.356  0.2399  0.1916  0.2190
 6286SOL    HW119413   2.043   7.269   0.292  0.9391  1.5559  0.5240
 6286SOL    HW219414   1.926   7.206   0.365  1.2555 -0.5290 -0.7045
 6287SOL     OW19415   5.296   4.418   0.628 -0.3779 -0.3618 -0.4872
 6287SOL    HW119416   5.387   4.442   0.614 -0.4646  0.7816  0.7291
 6287SOL    HW219417   5.246   4.474   0.568 -0.4124  0.8370  0.6075
 6288SOL     OW19418   2.573   6.149   4.114 -0.1047  0.0306  0.1729
 6288SOL    HW119419   2.524   6.173   4.193 -0.5159 -0.3153  0.0240
 6288SOL    HW219420   2.565   6.054   4.109 -1.7940  0.2062 -1.3916
 6289SOL     OW19421   4.148   4.929   1.875  0.0757  0.8552 -0.4021
 6289SOL    HW119422   4.130   4.854   1.818 -0.1505 -1.0640  2.0508
 6289SOL    HW219423   4.218   4.900   1.932 -0.6803  2.1450  1.2778
 6290SOL     OW19424   6.613   4.061   3.615  0.1033 -0.5533  0.2453
 6290SOL    HW119425   6.673   4.103   3.678  0.8422 -1.3175  0.0707
 6290SOL    HW219426   6.569   4.134   3.572 -0.8345 -0.0167  2.0356
 6291SOL     OW19427   2.035   4.035   4.640 -0.5983  0.3153 -0.4687
 6291SOL    HW119428   1.943   4.034   4.615 -0.9016  1.7820  0.4255
 6291SOL    HW219429   2.036   4.081   4.724  0.9254  0.1185 -0.3492
 6292SOL     OW19430   2.376   4.715   5.549 -0.7226  0.3407 -0.4798
 6292SOL    HW119431   2.318   4.644   5.578  0.1388  0.2633  1.2047
 6292SOL    HW219432   2.333   4.794   5.581 -0.7843  0.4308 -0.7871
 6293SOL     OW19433   3.452   0.872   2.757 -0.1187 -0.4454 -0.7192
 6293SOL    HW119434   3.366   0.900   2.788  0.8029  1.6418  0.1965
 6293SOL    HW219435   3.494   0.836   2.835  0.2182 -0.4036 -0.8808
 6294SOL     OW19436   3.847   1.987   4.697  0.2306  0.3018 -0.2386
 6294SOL    HW119437   3.815   1.919   4.637  1.7722  0.1532 -0.9446
 6294SOL    HW219438   3.851   2.066   4.644 -2.0334  1.1324  0.7121
 6295SOL     OW19439   7.350   0.521   2.099 -0.2513  0.4842  0.0336
 6295SOL    HW119440   7.266   0.559   2.123  0.0967  0.7837  0.7944
 6295SOL    HW219441   7.365   0.452   2.163 -0.6877 -0.7035 -1.0941
 6296SOL     OW19442   7.212   6.879   0.559  0.2908 -0.2095  0.0926
 6296SOL    HW119443   7.164   6.867   0.477 -2.3084  0.3067  1.4299
 6296SOL    HW219444   7.161   6.831   0.624  1.8047  0.0826  1.5686
 6297SOL     OW19445   4.148   2.801   6.468  0.6067 -0.1838 -0.0826
 6297SOL    HW119446   4.172   2.894   6.462  1.4288 -0.4682 -2.3667
 6297SOL    HW219447   4.072   2.792   6.410 -0.0029 -0.8129  0.7833
 6298SOL     OW19448   3.169   6.833   0.799  0.4983 -0.3679  0.1359
 6298SOL    HW119449   3.192   6.859   0.710  0.3828  0.7610  0.4204
 6298SOL    HW219450   3.074   6.843   0.803  0.6109  0.5663  0.6774
 6299SOL     OW19451   3.553   6.654   1.496 -0.2946  0.5611  0.8398
 6299SOL    HW119452   3.626   6.715   1.512  0.4559  0.1416 -0.8076
 6299SOL    HW219453   3.507   6.690   1.421 -0.8435 -0.0388  0.8796
 6300SOL     OW19454   4.657   0.639   1.185  0.0904 -0.4412  0.2459
 6300SOL    HW119455   4.698   0.689   1.255  0.4239 -0.8772  0.3666
 6300SOL    HW219456   4.717   0.565   1.170  0.0293 -0.3430 -0.5019
 6301SOL     OW19457   5.895   0.721   6.636  0.0617  0.4203  0.2743
 6301SOL    HW119458   5.879   0.807   6.597  0.4994  0.9534  1.2328
 6301SOL    HW219459   5.914   0.664   6.562  0.4511  1.3138 -0.3249
 6302SOL     OW19460   5.961   4.129   3.015  0.2437  0.5479  0.1311
 6302SOL    HW119461   5.901   4.202   3.034  2.9067  2.8144  0.5625
 6302SOL    HW219462   5.995   4.149   2.928  5.8693  3.8918  2.5181
 6303SOL     OW19463   4.348   1.769   2.716 -0.0564 -0.4494 -0.4823
 6303SOL    HW119464   4.395   1.692   2.748  0.0656 -0.2050 -0.0756
 6303SOL    HW219465   4.403   1.803   2.646 -1.9003 -2.9574 -3.4293
 6304SOL     OW19466   0.402   2.208   0.694  0.5712  0.4059 -0.4000
 6304SOL    HW119467   0.367   2.166   0.773  0.3133  1.2591 -0.0431
 6304SOL    HW219468   0.360   2.294   0.692 -0.5488 -0.1290 -2.2887
 6305SOL     OW19469   4.512   6.903   1.313  0.3638 -0.3511 -0.8192
 6305SOL    HW119470   4.509   6.834   1.380  0.4844 -0.1279 -0.5835
 6305SOL    HW219471   4.534   6.983   1.362  0.0228 -0.1101 -1.0641
 6306SOL     OW19472   6.446   4.348   4.347 -0.3814  0.0433 -0.3159
 6306SOL    HW119473   6.450   4.253   4.358  2.6892  0.2348  1.5260
 6306SOL    HW219474   6.471   4.363   4.256  1.5071 -0.9156 -0.0105
 6307SOL     OW19475   6.381   6.887   0.412 -0.6318  0.0612 -0.6235
 6307SOL    HW119476   6.335   6.837   0.480  0.3385  0.5782  0.4517
 6307SOL    HW219477   6.330   6.967   0.402  0.1672  0.7836  0.8053
 6308SOL     OW19478   5.729   1.510   0.355 -0.1766 -0.2289 -0.0002
 6308SOL    HW119479   5.757   1.587   0.404 -3.3606  1.0851 -0.0059
 6308SOL    HW219480   5.688   1.453   0.420  2.8100 -2.4452  0.1516
 6309SOL     OW19481   6.474   1.666   0.545 -0.1519 -0.1171 -0.5601
 6309SOL    HW119482   6.501   1.581   0.579 -2.1291 -0.6324 -0.1709
 6309SOL    HW219483   6.500   1.729   0.612 -0.5761 -0.6780  0.1390
 6310SOL     OW19484   4.544   1.242   0.427  0.2324  0.4939 -0.1196
 6310SOL    HW119485   4.622   1.218   0.479 -0.7000 -0.5658  0.8499
 6310SOL    HW219486   4.545   1.180   0.354 -0.9166 -1.1068  1.1451
 6311SOL     OW19487   1.162   2.779   6.710  0.3391 -0.1011 -0.4604
 6311SOL    HW119488   1.180   2.696   6.755  0.5485  0.4045  0.4037
 6311SOL    HW219489   1.245   2.828   6.717  0.1733  0.2368 -0.8425
 6312SOL     OW19490   0.909   0.732   3.255 -0.0020  0.0629  0.1188
 6312SOL    HW119491   0.981   0.703   3.198  0.0966  0.3982  0.0720
 6312SOL    HW219492   0.947   0.803   3.307  0.1328 -0.7396  1.1409
 6313SOL     OW19493   0.052   1.728   5.184 -0.6622  0.2512  0.3483
 6313SOL    HW119494   0.141   1.758   5.201 -0.8317  0.7372  0.3740
 6313SOL    HW219495   0.038   1.747   5.091 -0.1605 -1.3184 -0.0784
 6314SOL     OW19496   5.498   6.862   1.981 -0.2164 -0.2104 -0.3680
 6314SOL    HW119497   5.408   6.873   2.011 -0.5220 -0.4069 -1.1683
 6314SOL    HW219498   5.552   6.866   2.060 -1.0787 -1.8842  0.3522
 6315SOL     OW19499   3.905   2.653   6.073 -0.0306 -0.3621 -0.7212
 6315SOL    HW119500   3.846   2.631   6.001 -1.3985  0.8457 -0.0173
 6315SOL    HW219501   3.981   2.596   6.060 -0.9836 -1.3764 -2.1253
 6316SOL     OW19502   2.947   1.089   7.524  0.1921 -0.0315 -0.5834
 6316SOL    HW119503   2.880   1.064   7.587  0.0639  0.0830 -0.6736
 6316SOL    HW219504   2.972   1.178   7.550  0.8949 -0.3813 -0.0506
 6317SOL     OW19505   4.182   6.703   0.891  0.3107  0.1339  0.4301
 6317SOL    HW119506   4.257   6.760   0.908  0.5597  0.4646 -1.6343
 6317SOL    HW219507   4.106   6.759   0.904  0.5238  0.6327 -0.4257
 6318SOL     OW19508   0.296   5.333   5.790 -0.1656 -0.1395 -0.3242
 6318SOL    HW119509   0.305   5.273   5.716 -0.8319 -0.7589  0.0876
 6318SOL    HW219510   0.202   5.353   5.793  0.0024  0.6422 -0.2404
 6319SOL     OW19511   4.691   4.152   3.199  0.1872 -0.2358  0.0882
 6319SOL    HW119512   4.753   4.082   3.215 -0.1102 -0.3619  0.7220
 6319SOL    HW219513   4.745   4.231   3.190  0.4058 -0.2251  1.3462
 6320SOL     OW19514   3.941   7.284   2.597  0.3179 -0.1544  0.2723
 6320SOL    HW119515   3.968   7.209   2.650 -0.5414 -1.3751 -0.9647
 6320SOL    HW219516   3.882   7.334   2.654 -2.5551 -2.7424 -0.1831
 6321SOL     OW19517   5.657   0.126   1.613  0.5002 -0.1319 -0.1657
 6321SOL    HW119518   5.730   0.141   1.673 -0.3520  1.7150  0.5141
 6321SOL    HW219519   5.612   0.050   1.649 -0.3559  1.3057  2.0131
 6322SOL     OW19520   1.429   5.226   3.789 -0.2221  0.3833 -0.5878
 6322SOL    HW119521   1.437   5.215   3.694 -0.8942  0.9669 -0.7197
 6322SOL    HW219522   1.445   5.139   3.824  0.7599  0.3031 -1.1878
 6323SOL     OW19523   1.677   7.222   5.025 -1.0450  0.3260 -0.0596
 6323SOL    HW119524   1.619   7.252   4.956 -1.2124 -0.3916 -0.2348
 6323SOL    HW219525   1.621   7.212   5.102 -1.5508 -1.9932 -0.6412
 6324SOL     OW19526   0.579   3.673   0.717 -0.3911 -0.5812  0.3174
 6324SOL    HW119527   0.518   3.670   0.643 -0.4577  4.1227 -0.1684
 6324SOL    HW219528   0.523   3.663   0.794 -0.6956 -2.8785 -0.1361
 6325SOL     OW19529   2.318   3.527   5.637  0.3001  0.5079  0.3019
 6325SOL    HW119530   2.411   3.546   5.650  0.7567 -0.1076 -1.7433
 6325SOL    HW219531   2.317   3.450   5.580 -1.4714  0.4385  0.3800
 6326SOL     OW19532   4.515   1.010   6.372 -0.2252 -0.0872  0.7067
 6326SOL    HW119533   4.605   1.040   6.379 -0.4466  1.1404 -1.0351
 6326SOL    HW219534   4.470   1.081   6.325 -1.2975 -2.1463 -1.5893
 6327SOL     OW19535   2.563   7.160   2.709  0.3360  0.0388 -0.4340
 6327SOL    HW119536   2.479   7.151   2.664  0.3729 -0.8765 -0.3322
 6327SOL    HW219537   2.546   7.132   2.798  0.7843 -0.3012 -0.4496
 6328SOL     OW19538   3.943   6.878   1.940  0.8923 -0.3422  0.1684
 6328SOL    HW119539   3.865   6.847   1.986 -0.4428  1.5895 -0.6515
 6328SOL    HW219540   3.984   6.938   2.002  0.2719  0.6229 -0.3370
 6329SOL     OW19541   4.561   5.674   2.995  0.4547 -0.1409 -0.2898
 6329SOL    HW119542   4.513   5.743   3.042 -2.0054  0.7990 -3.7733
 6329SOL    HW219543   4.645   5.714   2.972 -0.1485  1.0224 -0.5488
 6330SOL     OW19544   3.147   6.984   6.509  0.9684  0.3037  0.0209
 6330SOL    HW119545   3.201   6.907   6.494 -0.3820 -0.5065 -0.8986
 6330SOL    HW219546   3.166   7.010   6.599  0.6402 -1.7698  0.7289
 6331SOL     OW19547   2.599   4.825   1.826 -0.3374  0.0122 -0.4200
 6331SOL    HW119548   2.613   4.901   1.770 -3.7320  1.0174 -0.1156
 6331SOL    HW219549   2.590   4.861   1.914  2.0221 -1.2597  0.4315
 6332SOL     OW19550   3.482   2.449   2.354 -0.2059 -0.1266  0.7257
 6332SOL    HW119551   3.505   2.416   2.267  0.3511  0.0406  0.8078
 6332SOL    HW219552   3.399   2.406   2.374 -0.4521  0.0061  0.0180
 6333SOL     OW19553   4.811   0.624   1.945  0.0566 -0.3397  0.4597
 6333SOL    HW119554   4.824   0.627   2.040  1.2062 -2.2446  0.4136
 6333SOL    HW219555   4.734   0.679   1.930 -0.2400 -0.1031  2.5116
 6334SOL     OW19556   4.274   2.668   6.674 -0.3585  0.1734 -0.3898
 6334SOL    HW119557   4.366   2.666   6.648 -0.1060  0.3281  0.4547
 6334SOL    HW219558   4.227   2.697   6.596  0.4414  1.3313 -0.4602
 6335SOL     OW19559   2.502   5.053   0.858  0.0356 -0.5529  0.1039
 6335SOL    HW119560   2.568   5.069   0.926 -0.3705  2.0468 -0.0249
 6335SOL    HW219561   2.534   5.101   0.782 -1.9360  0.7186  0.0145
 6336SOL     OW19562   2.919   1.042   1.662 -0.5630 -0.0129 -0.5156
 6336SOL    HW119563   2.859   1.082   1.599 -0.0548  2.0721  0.2632
 6336SOL    HW219564   3.003   1.038   1.616 -0.1329  1.7365  0.0698
 6337SOL     OW19565   3.126   6.249   0.597  0.0570  0.2587 -1.1159
 6337SOL    HW119566   3.096   6.159   0.610  2.2685 -0.1031  2.8732
 6337SOL    HW219567   3.088   6.298   0.670  2.2673  1.5676 -0.7772
 6338SOL     OW19568   1.631   0.585   3.191  0.1849 -0.2903 -0.3597
 6338SOL    HW119569   1.669   0.544   3.113  0.5490  0.9176 -0.8390
 6338SOL    HW219570   1.611   0.674   3.163  3.1536  1.1761  1.7354
 6339SOL     OW19571   4.884   5.066   7.461  0.0602 -0.0785 -0.4502
 6339SOL    HW119572   4.925   5.139   7.509  0.3633 -1.0783  0.8677
 6339SOL    HW219573   4.862   5.103   7.376 -1.4955  2.1098  0.8045
 6340SOL     OW19574   0.340   4.290   3.031  0.0520 -0.1842 -0.2645
 6340SOL    HW119575   0.427   4.252   3.045 -0.4025 -0.9205  0.6868
 6340SOL    HW219576   0.356   4.367   2.977  1.4923  0.6420  1.2458
 6341SOL     OW19577   3.745   0.819   6.162  0.1657 -0.5040 -0.4340
 6341SOL    HW119578   3.719   0.783   6.246 -0.4817 -0.9201 -0.8013
 6341SOL    HW219579   3.725   0.749   6.099  0.7244 -0.2336 -0.9164
 6342SOL     OW19580   6.702   2.134   0.258  0.1952  0.2606 -0.0932
 6342SOL    HW119581   6.697   2.074   0.332  2.0792  0.3830  0.1763
 6342SOL    HW219582   6.689   2.079   0.181  0.0444 -0.1656  0.2349
 6343SOL     OW19583   4.387   2.958   5.379 -0.3289 -0.5217  0.0246
 6343SOL    HW119584   4.403   2.864   5.377  1.6684 -0.2251 -1.7203
 6343SOL    HW219585   4.412   2.985   5.467 -2.0977 -1.7420  0.9562
 6344SOL     OW19586   3.865   3.318   3.278  0.6227 -0.1493  0.1365
 6344SOL    HW119587   3.926   3.321   3.204 -0.4850  0.6539 -0.7852
 6344SOL    HW219588   3.898   3.248   3.334  1.0571 -1.3289 -1.5177
 6345SOL     OW19589   2.436   4.276   3.692  0.1270  0.3985  0.0694
 6345SOL    HW119590   2.429   4.236   3.605  0.1321 -0.9085  0.6449
 6345SOL    HW219591   2.385   4.218   3.749  0.9321  0.6810  1.1087
 6346SOL     OW19592   2.139   4.791   3.542  0.2561  0.4642  0.3766
 6346SOL    HW119593   2.129   4.756   3.453  0.4580  1.0892  0.1073
 6346SOL    HW219594   2.104   4.880   3.536 -0.4102  0.2574  1.1007
 6347SOL     OW19595   6.886   1.249   1.679  0.9069  0.1219  0.4279
 6347SOL    HW119596   6.935   1.178   1.639 -1.2602 -0.8908 -0.5578
 6347SOL    HW219597   6.899   1.237   1.773  1.4189 -0.9068  0.2363
 6348SOL     OW19598   6.166   6.046   0.492 -0.1536  0.7743  0.5602
 6348SOL    HW119599   6.096   5.982   0.509 -0.5315  0.9898 -0.1468
 6348SOL    HW219600   6.177   6.092   0.575  0.0731 -0.1635  1.0593
 6349SOL     OW19601   5.386   3.963   2.871  0.4998 -0.1382  0.5779
 6349SOL    HW119602   5.335   4.042   2.856  0.0075 -0.5414  0.0722
 6349SOL    HW219603   5.321   3.896   2.895  0.8204 -0.5694  0.2728
 6350SOL     OW19604   3.321   4.331   1.454  0.1151  0.3549 -0.1565
 6350SOL    HW119605   3.312   4.252   1.401  0.5795  0.6551 -0.6920
 6350SOL    HW219606   3.384   4.308   1.521  1.9339  0.9130 -1.6046
 6351SOL     OW19607   0.721   3.371   5.693  0.6437  0.3069 -0.5185
 6351SOL    HW119608   0.788   3.365   5.625 -1.7444  0.4139 -3.0339
 6351SOL    HW219609   0.686   3.460   5.685  0.4058  0.3800  1.0070
 6352SOL     OW19610   6.512   4.046   3.299  0.1826  0.3199 -0.7406
 6352SOL    HW119611   6.485   4.114   3.361 -0.7163  0.5462 -1.3693
 6352SOL    HW219612   6.555   4.093   3.228 -0.2764  0.2213 -1.0883
 6353SOL     OW19613   5.673   0.484   6.566  0.0852  0.7221  0.5040
 6353SOL    HW119614   5.761   0.510   6.537 -0.3724 -0.5877 -2.4942
 6353SOL    HW219615   5.685   0.401   6.611  0.5188  1.4047  1.6958
 6354SOL     OW19616   7.338   7.276   6.660  0.2800 -0.5275  0.2086
 6354SOL    HW119617   7.245   7.297   6.648 -0.0165 -1.1781  1.1979
 6354SOL    HW219618   7.384   7.353   6.628 -0.5239 -0.7644 -1.7144
 6355SOL     OW19619   5.174   7.525   5.154 -0.1623  0.1740  0.1857
 6355SOL    HW119620   5.218   7.490   5.231 -0.6413 -0.4360  0.1884
 6355SOL    HW219621   5.158   7.448   5.099 -4.6138 -0.3359  1.8255
 6356SOL     OW19622   3.023   3.628   7.473  0.2363 -0.1824 -0.1112
 6356SOL    HW119623   3.118   3.615   7.477  0.2760  0.1820  3.8542
 6356SOL    HW219624   3.012   3.723   7.482 -0.5613 -0.0885 -1.7124
 6357SOL     OW19625   6.890   7.564   5.093 -0.7726 -0.1960 -0.0950
 6357SOL    HW119626   6.804   7.530   5.118 -0.2351 -0.2578  1.8442
 6357SOL    HW219627   6.922   7.501   5.028 -1.5675 -1.0194  0.2842
 6358SOL     OW19628   7.725   6.743   3.372  0.3717 -0.3999  0.2509
 6358SOL    HW119629   7.802   6.797   3.388  1.1904 -1.3005 -0.4899
 6358SOL    HW219630   7.754   6.680   3.306 -1.3467 -0.0050 -0.9544
 6359SOL     OW19631   2.321   4.704   6.709 -0.4286  0.2985 -0.2945
 6359SOL    HW119632   2.363   4.658   6.782  1.3579  3.2797  0.7541
 6359SOL    HW219633   2.289   4.786   6.748  0.1873  1.8142 -2.7369
 6360SOL     OW19634   4.834   6.436   4.656  0.1207  0.0442 -0.0405
 6360SOL    HW119635   4.922   6.431   4.618 -0.6223 -0.1745 -1.7861
 6360SOL    HW219636   4.826   6.526   4.686  0.6269  0.2949 -0.6531
 6361SOL     OW19637   3.956   7.741   0.603 -0.3294  0.3226  0.3018
 6361SOL    HW119638   3.964   7.699   0.689  1.1984 -2.0309 -0.8896
 6361SOL    HW219639   3.883   7.697   0.562  0.1117  0.1206 -0.2765
 6362SOL     OW19640   7.424   6.123   0.797  0.6437  0.2119 -0.0618
 6362SOL    HW119641   7.345   6.070   0.799  0.9752 -0.2916  1.3094
 6362SOL    HW219642   7.394   6.212   0.777 -0.2815  0.0339  0.4838
 6363SOL     OW19643   1.829   4.504   1.520  0.2130 -0.2189  0.0835
 6363SOL    HW119644   1.920   4.526   1.501  0.1241  0.1457  0.0681
 6363SOL    HW219645   1.813   4.540   1.607  0.8812 -2.6690  1.3005
 6364SOL     OW19646   5.852   2.979   4.517 -0.2355  0.2296  0.2051
 6364SOL    HW119647   5.791   3.051   4.530  0.0325  0.2353  1.6080
 6364SOL    HW219648   5.937   3.015   4.540 -0.0283 -0.3968  0.4483
 6365SOL     OW19649   6.441   1.886   4.345  0.5931  0.3902 -0.3968
 6365SOL    HW119650   6.356   1.852   4.369  1.2525  0.3717  2.1239
 6365SOL    HW219651   6.436   1.897   4.250 -1.2252 -2.2345 -0.6984
 6366SOL     OW19652   5.606   5.064   2.249 -0.6571  1.3306  0.8253
 6366SOL    HW119653   5.549   4.988   2.263 -2.9178  2.9127  0.7045
 6366SOL    HW219654   5.550   5.129   2.207  1.7047  2.4319 -0.8404
 6367SOL     OW19655   4.655   2.345   5.369  0.5630  0.2054 -0.0619
 6367SOL    HW119656   4.690   2.372   5.453 -2.2579 -1.0244  1.6422
 6367SOL    HW219657   4.666   2.250   5.367 -0.3603  0.0952 -0.5775
 6368SOL     OW19658   4.546   3.465   1.808  0.0288  0.1248  0.3084
 6368SOL    HW119659   4.484   3.393   1.821  0.4606  0.0234  1.9324
 6368SOL    HW219660   4.508   3.539   1.855  0.5225  0.4107  0.2653
 6369SOL     OW19661   6.758   6.097   5.542  0.3742 -0.5450  0.2187
 6369SOL    HW119662   6.787   6.114   5.632  0.1352  0.6191  0.0913
 6369SOL    HW219663   6.825   6.038   5.507  0.5945 -0.8313  1.0850
 6370SOL     OW19664   2.783   6.877   5.482  0.6533 -0.2219  0.0577
 6370SOL    HW119665   2.796   6.858   5.575 -2.4017 -0.4218  0.5309
 6370SOL    HW219666   2.721   6.950   5.481  2.7773  1.6855 -1.8631
 6371SOL     OW19667   1.248   4.198   6.119 -0.0158  0.4571  0.0075
 6371SOL    HW119668   1.222   4.224   6.208 -0.1221 -0.5899  0.2926
 6371SOL    HW219669   1.339   4.226   6.112  0.0016  0.5194  0.4575
 6372SOL     OW19670   1.103   4.051   5.884 -0.2825  0.5018 -0.3182
 6372SOL    HW119671   1.165   4.116   5.918  0.3966  0.3417 -1.2225
 6372SOL    HW219672   1.157   3.987   5.838 -1.0817  0.1463 -0.7925
 6373SOL     OW19673   4.388   5.934   0.462 -0.0884 -0.5883 -0.2899
 6373SOL    HW119674   4.431   5.992   0.525  1.2604 -2.1040  0.2699
 6373SOL    HW219675   4.369   5.855   0.512  2.4617 -2.4754 -2.0625
 6374SOL     OW19676   0.230   6.054   3.022 -0.5050 -0.0088 -1.2843
 6374SOL    HW119677   0.157   6.116   3.034 -0.7282 -0.5797  0.6327
 6374SOL    HW219678   0.212   5.984   3.084  2.0164  0.1302 -0.3117
 6375SOL     OW19679   5.482   1.447   3.196  0.4852 -0.2376  0.1291
 6375SOL    HW119680   5.546   1.448   3.267 -0.6064 -2.0789  1.2234
 6375SOL    HW219681   5.411   1.392   3.229 -0.7144  0.0257 -1.8557
 6376SOL     OW19682   3.713   2.182   5.306 -0.5965 -0.0925  0.0044
 6376SOL    HW119683   3.683   2.210   5.392  1.3073 -0.3230  0.8044
 6376SOL    HW219684   3.796   2.229   5.293 -0.6592 -0.3423 -1.5536
 6377SOL     OW19685   5.785   6.600   0.352  0.2972  0.0773 -0.3044
 6377SOL    HW119686   5.724   6.535   0.388 -0.1624  1.1937  1.0390
 6377SOL    HW219687   5.870   6.558   0.357  0.1304 -0.1438  1.3826
 6378SOL     OW19688   2.758   0.116   3.205 -0.4803 -0.2606  0.2823
 6378SOL    HW119689   2.847   0.121   3.239 -0.5785  0.1459  0.4866
 6378SOL    HW219690   2.740   0.203   3.170 -0.4555 -0.6129 -0.6365
 6379SOL     OW19691   6.603   0.310   7.367 -0.5140  0.2264  0.0114
 6379SOL    HW119692   6.660   0.304   7.444  1.9081 -2.4922 -1.7432
 6379SOL    HW219693   6.647   0.373   7.309  0.3877 -1.2672 -1.0104
 6380SOL     OW19694   7.673   6.601   2.372 -0.4517  0.2389  0.4187
 6380SOL    HW119695   7.761   6.608   2.335  0.1580  1.5949  1.9830
 6380SOL    HW219696   7.663   6.680   2.426 -2.6229  0.1054  0.3226
 6381SOL     OW19697   6.005   4.252   2.213 -0.1845 -0.7718 -0.0457
 6381SOL    HW119698   6.074   4.192   2.243  0.9399  0.7772  0.6185
 6381SOL    HW219699   6.047   4.304   2.145 -0.6034  0.3544  0.5224
 6382SOL     OW19700   5.001   1.390   0.566 -0.8124 -0.0601  0.2514
 6382SOL    HW119701   5.043   1.463   0.521  0.4262 -1.0543 -0.2959
 6382SOL    HW219702   4.990   1.323   0.498 -2.5147 -0.1679  0.5925
 6383SOL     OW19703   3.803   7.360   4.305  0.2865 -0.0914 -0.2625
 6383SOL    HW119704   3.708   7.369   4.296  0.1228  1.2476  1.9921
 6383SOL    HW219705   3.839   7.410   4.232 -0.7727  1.0807 -0.0135
 6384SOL     OW19706   4.288   0.629   0.170  0.5372 -0.4177 -0.1270
 6384SOL    HW119707   4.246   0.697   0.117  1.7273 -0.0106 -0.5727
 6384SOL    HW219708   4.334   0.678   0.239  1.8932 -0.7079 -0.7955
 6385SOL     OW19709   4.084   0.734   1.315  0.1519 -0.0603 -0.3026
 6385SOL    HW119710   4.044   0.669   1.258  1.2421 -1.0959  0.0879
 6385SOL    HW219711   4.178   0.725   1.299  0.4488 -0.0955  1.3721
 6386SOL     OW19712   5.937   6.229   5.273  0.0830  0.8941 -0.0767
 6386SOL    HW119713   6.019   6.198   5.235  1.2236  3.2088  0.3123
 6386SOL    HW219714   5.916   6.165   5.341  1.0297 -0.2545 -0.8271
 6387SOL     OW19715   2.070   0.863   2.874 -0.1122  0.2097  0.5024
 6387SOL    HW119716   2.088   0.955   2.892  2.2413 -0.0069 -0.4374
 6387SOL    HW219717   2.156   0.824   2.858 -1.1721 -1.8504 -0.5681
 6388SOL     OW19718   5.967   1.573   5.680  0.0547  0.3287  0.2896
 6388SOL    HW119719   5.876   1.578   5.650 -0.1361 -0.4899  0.7037
 6388SOL    HW219720   6.010   1.647   5.637 -0.6117  0.2250 -0.6013
 6389SOL     OW19721   6.299   6.750   3.618 -0.0399  0.2079  0.0593
 6389SOL    HW119722   6.303   6.728   3.525  0.9113 -0.8642  0.3311
 6389SOL    HW219723   6.318   6.667   3.663  1.2868  1.0742  1.1750
 6390SOL     OW19724   0.868   5.975   4.678  0.0911  0.1309 -0.4831
 6390SOL    HW119725   0.893   6.000   4.590 -0.4481 -1.2697 -1.0752
 6390SOL    HW219726   0.793   5.915   4.666 -1.1932  1.3355  1.0150
 6391SOL     OW19727   0.731   3.541   4.411  0.5421  0.1168 -0.1519
 6391SOL    HW119728   0.686   3.560   4.329  2.8812  0.2489 -1.4737
 6391SOL    HW219729   0.763   3.451   4.401 -1.1870 -0.7891  1.6655
 6392SOL     OW19730   4.574   4.929   4.785  0.0377  0.3163  0.2146
 6392SOL    HW119731   4.485   4.961   4.800 -0.0415  0.3967 -0.4142
 6392SOL    HW219732   4.568   4.835   4.805  0.0136  0.4781  0.9910
 6393SOL     OW19733   2.730   0.840   6.161  0.1560 -0.4086  0.1630
 6393SOL    HW119734   2.750   0.772   6.098  2.1418 -0.0667  0.3743
 6393SOL    HW219735   2.732   0.921   6.111 -4.0032 -0.5109 -0.4901
 6394SOL     OW19736   6.510   2.153   4.286  0.2883  0.5305  0.8833
 6394SOL    HW119737   6.549   2.077   4.242 -0.8237  0.2632  0.3163
 6394SOL    HW219738   6.570   2.225   4.267 -0.3909  0.5587 -1.6091
 6395SOL     OW19739   6.745   2.710   1.575 -0.5314  0.1617  0.6902
 6395SOL    HW119740   6.819   2.738   1.629  0.0821  0.7282 -0.4073
 6395SOL    HW219741   6.764   2.746   1.488 -0.6109 -2.1721 -0.3593
 6396SOL     OW19742   3.909   1.130   4.959  0.1057 -0.2533  0.3937
 6396SOL    HW119743   3.954   1.201   5.004 -1.7243  0.6167  0.9407
 6396SOL    HW219744   3.929   1.051   5.010 -0.0873  0.3434  1.4127
 6397SOL     OW19745   3.847   5.980   6.234 -0.8683 -0.1364 -0.2466
 6397SOL    HW119746   3.813   5.957   6.321 -0.4962  0.7790  0.1518
 6397SOL    HW219747   3.875   5.897   6.196  1.2022 -0.2921  1.4767
 6398SOL     OW19748   4.518   2.686   5.307  0.1378 -0.4196 -0.1519
 6398SOL    HW119749   4.537   2.710   5.216  0.3332 -1.8948 -0.5168
 6398SOL    HW219750   4.599   2.705   5.355  0.1571  0.0130 -0.3543
 6399SOL     OW19751   2.709   6.499   0.204  0.1065 -0.1255  0.5902
 6399SOL    HW119752   2.708   6.403   0.200  0.9843 -0.1100 -2.4543
 6399SOL    HW219753   2.770   6.519   0.276 -0.1848 -1.8186  1.3521
 6400SOL     OW19754   5.292   2.593   7.728  0.1920 -0.3775 -0.0873
 6400SOL    HW119755   5.320   2.665   7.784 -1.0890 -0.5728  0.8644
 6400SOL    HW219756   5.372   2.545   7.709  0.7615  0.0651  1.0553
 6401SOL     OW19757   3.508   5.400   6.040  0.4390  0.1047 -0.1064
 6401SOL    HW119758   3.494   5.309   6.065  0.0368  0.1852 -0.0284
 6401SOL    HW219759   3.432   5.446   6.075 -1.8131 -0.2090 -4.0880
 6402SOL     OW19760   5.480   4.866   3.839  0.1222 -0.2840  0.4337
 6402SOL    HW119761   5.502   4.855   3.746 -0.5624  3.1905 -0.2584
 6402SOL    HW219762   5.561   4.844   3.885  0.9731 -0.5245 -1.0932
 6403SOL     OW19763   2.963   3.353   1.647 -0.1831  1.0883  0.1975
 6403SOL    HW119764   2.933   3.409   1.719 -1.2537  0.0989  0.5552
 6403SOL    HW219765   3.010   3.282   1.691 -1.4788  0.0819  0.0022
 6404SOL     OW19766   5.894   1.071   4.612  0.1535  0.1230 -0.0614
 6404SOL    HW119767   5.919   1.041   4.700  0.8883  1.5358  0.2264
 6404SOL    HW219768   5.948   1.019   4.553  0.9970  0.4496  0.4083
 6405SOL     OW19769   0.657   4.146   3.640  0.4542  0.6648  0.0353
 6405SOL    HW119770   0.679   4.145   3.547  0.6307 -0.7514  0.0779
 6405SOL    HW219771   0.562   4.159   3.642  0.5709  1.6156 -0.3058
 6406SOL     OW19772   1.789   1.891   7.177 -0.3252 -0.1856  0.4453
 6406SOL    HW119773   1.734   1.965   7.152  0.0058 -0.1874 -0.3207
 6406SOL    HW219774   1.860   1.891   7.112  1.8319  1.1458  2.6418
 6407SOL     OW19775   1.881   7.166   4.850  0.5053  0.6724  0.0779
 6407SOL    HW119776   1.811   7.186   4.912 -1.5581 -1.3533 -1.4085
 6407SOL    HW219777   1.902   7.075   4.866  2.8478  1.2153  0.4288
 6408SOL     OW19778   0.953   1.140   5.718 -0.2098 -0.6599  0.2877
 6408SOL    HW119779   0.860   1.142   5.695  0.1825  1.7238 -1.5539
 6408SOL    HW219780   0.992   1.084   5.652 -0.1528 -0.4385  0.1321
 6409SOL     OW19781   1.265   5.794   4.510 -0.0061  0.1468  0.1385
 6409SOL    HW119782   1.256   5.879   4.553  2.6174  0.8539 -0.5074
 6409SOL    HW219783   1.262   5.815   4.416  0.3933 -0.5009 -0.0233
 6410SOL     OW19784   5.239   0.042   5.787  0.1977  0.2796  0.0196
 6410SOL    HW119785   5.281   0.034   5.702  0.6493  0.0770  0.2605
 6410SOL    HW219786   5.145   0.031   5.769  0.3558 -0.5282 -0.3508
 6411SOL     OW19787   5.370   7.345   7.111  0.0819 -0.2240  0.4286
 6411SOL    HW119788   5.310   7.272   7.122  1.7388 -2.0189 -1.7404
 6411SOL    HW219789   5.455   7.312   7.140  0.5698  1.4340  1.0512
 6412SOL     OW19790   7.107   5.757   2.987  0.0292 -0.3606  0.5161
 6412SOL    HW119791   7.054   5.693   3.035 -1.5040  0.6391  0.2357
 6412SOL    HW219792   7.185   5.769   3.041 -1.1599 -0.0480  2.2517
 6413SOL     OW19793   0.996   6.529   3.427  0.2922 -0.0993  0.7045
 6413SOL    HW119794   1.062   6.598   3.427  0.2632 -0.0455 -1.1224
 6413SOL    HW219795   1.020   6.473   3.501  2.9420 -0.5954 -0.4299
 6414SOL     OW19796   2.093   7.480   5.689  0.0617  0.1693  0.0681
 6414SOL    HW119797   2.031   7.419   5.729  0.9104  0.6874  2.3230
 6414SOL    HW219798   2.057   7.567   5.705  0.9704  0.4394  0.7485
 6415SOL     OW19799   2.684   4.403   0.533  0.1082 -1.0430 -0.4283
 6415SOL    HW119800   2.689   4.432   0.442 -2.6751 -1.3086 -0.7649
 6415SOL    HW219801   2.773   4.412   0.567  0.8101  1.0010 -2.5680
 6416SOL     OW19802   1.256   5.534   4.739 -0.3027 -0.4104  0.1740
 6416SOL    HW119803   1.313   5.463   4.711 -1.5819 -0.5318 -2.5567
 6416SOL    HW219804   1.251   5.592   4.662 -2.3251  0.5679  0.9629
 6417SOL     OW19805   6.136   2.392   0.244 -0.0866 -0.2894  0.0014
 6417SOL    HW119806   6.211   2.355   0.197  2.1269  1.8749  1.5814
 6417SOL    HW219807   6.167   2.403   0.334 -2.0224  1.4358  0.5325
 6418SOL     OW19808   0.005   4.070   4.088  0.3573 -0.6592 -0.1684
 6418SOL    HW119809  -0.063   4.057   4.155  0.8892 -1.3804  0.2436
 6418SOL    HW219810  -0.009   4.160   4.058  0.3033 -0.1899  1.1540
 6419SOL     OW19811   4.619   6.852   4.360  0.2603  0.6539 -0.2217
 6419SOL    HW119812   4.547   6.910   4.337 -0.3866  0.3801  1.0569
 6419SOL    HW219813   4.598   6.769   4.316  0.2774  0.8547 -0.6085
 6420SOL     OW19814   3.873   4.758   5.137  0.3484  0.0492 -0.0552
 6420SOL    HW119815   3.797   4.729   5.087 -0.6149 -2.8315  2.7294
 6420SOL    HW219816   3.944   4.699   5.108  1.4704  2.2060 -2.0642
 6421SOL     OW19817   6.204   2.808   4.962  0.8483 -0.3798  0.4114
 6421SOL    HW119818   6.158   2.732   4.926 -0.6424  1.3063 -1.4914
 6421SOL    HW219819   6.297   2.788   4.949  0.4447 -1.1482 -1.7040
 6422SOL     OW19820   5.799   4.851   2.964 -0.6224  0.0550 -0.0819
 6422SOL    HW119821   5.844   4.768   2.978 -1.5316 -0.4481 -0.0265
 6422SOL    HW219822   5.868   4.913   2.938  0.1263 -0.6058  0.3023
 6423SOL     OW19823   7.462   7.478   4.700  0.3200  0.3899 -0.4252
 6423SOL    HW119824   7.415   7.419   4.758  1.4660  1.4707  1.7044
 6423SOL    HW219825   7.554   7.469   4.726  0.8381  1.1968 -1.8464
 6424SOL     OW19826   5.845   0.524   0.317 -0.3109 -0.0210 -0.4431
 6424SOL    HW119827   5.785   0.568   0.257 -2.2086 -1.6291  0.1978
 6424SOL    HW219828   5.845   0.433   0.288  1.2413 -0.2123  0.0702
 6425SOL     OW19829   7.553   2.457   6.298  0.2448 -0.4157 -0.2926
 6425SOL    HW119830   7.610   2.503   6.236  0.4288 -1.6627 -1.0630
 6425SOL    HW219831   7.600   2.463   6.381  1.6683 -1.6192 -0.9493
 6426SOL     OW19832   5.537   5.152   0.468 -0.3492  0.0542  0.7319
 6426SOL    HW119833   5.630   5.175   0.472  0.0280 -0.6168 -2.0349
 6426SOL    HW219834   5.499   5.218   0.410 -0.3090 -2.8376 -2.9448
 6427SOL     OW19835   1.856   5.425   1.508  0.3325  0.1293 -0.5631
 6427SOL    HW119836   1.928   5.362   1.512  1.0896  0.9289 -1.0994
 6427SOL    HW219837   1.828   5.435   1.599  0.9612 -0.1226 -0.3352
 6428SOL     OW19838   0.953   3.625   4.495 -0.0253  0.9497 -0.0963
 6428SOL    HW119839   0.962   3.586   4.582  0.4905  0.9799 -0.1296
 6428SOL    HW219840   0.866   3.600   4.466  0.6181 -0.9642 -0.5072
 6429SOL     OW19841   1.922   1.006   4.788 -0.1014  0.4277 -0.4162
 6429SOL    HW119842   1.852   0.945   4.762 -0.5771  0.0300  1.5440
 6429SOL    HW219843   1.994   0.987   4.729 -1.3182  0.1689 -1.8862
 6430SOL     OW19844   5.821   0.495   0.604 -0.3870  0.8213 -0.5046
 6430SOL    HW119845   5.817   0.528   0.514 -1.3455 -1.3469 -1.3498
 6430SOL    HW219846   5.733   0.460   0.620  0.8511 -2.5177 -0.3028
 6431SOL     OW19847   1.480   1.421   1.987  0.1183 -0.1331 -0.0621
 6431SOL    HW119848   1.459   1.331   2.012  0.7978 -0.2852 -0.0434
 6431SOL    HW219849   1.406   1.448   1.931 -0.2517 -0.5815  0.2064
 6432SOL     OW19850   4.323   2.892   3.945  0.1354 -0.0129 -0.5331
 6432SOL    HW119851   4.349   2.902   4.036 -0.6387  0.2976 -0.3415
 6432SOL    HW219852   4.406   2.882   3.897  0.5541  0.1000  0.1637
 6433SOL     OW19853   5.495   6.495   7.055 -0.2765  0.1958 -0.3972
 6433SOL    HW119854   5.447   6.421   7.017 -0.2410 -0.4375  0.7608
 6433SOL    HW219855   5.429   6.541   7.107  0.1660 -0.1831  0.5055
 6434SOL     OW19856   4.778   5.240   1.175  0.0405 -0.1538 -0.2724
 6434SOL    HW119857   4.861   5.282   1.202  1.6572 -1.8993 -2.2312
 6434SOL    HW219858   4.718   5.314   1.163  0.3049  1.0300  3.9501
 6435SOL     OW19859   5.697   5.617   1.111  0.0004 -0.0744 -0.3166
 6435SOL    HW119860   5.726   5.590   1.198  1.2179 -0.1156 -0.7191
 6435SOL    HW219861   5.652   5.700   1.125 -1.2858 -0.8747  0.5570
 6436SOL     OW19862   3.707   1.870   7.701 -0.4322  0.3745  0.1225
 6436SOL    HW119863   3.670   1.878   7.790 -0.2609  0.1148  0.2188
 6436SOL    HW219864   3.791   1.827   7.714 -0.5547  0.0313 -0.2001
 6437SOL     OW19865   7.570   3.498   5.911 -0.1031 -0.2264 -0.2511
 6437SOL    HW119866   7.525   3.557   5.851  2.7332  0.8832 -1.4489
 6437SOL    HW219867   7.569   3.543   5.996 -0.0880  0.4079 -0.5836
 6438SOL     OW19868   2.383   7.539   0.724  0.4970 -0.2624 -0.3788
 6438SOL    HW119869   2.343   7.504   0.645  1.1685 -1.8384 -0.0510
 6438SOL    HW219870   2.462   7.486   0.737 -0.2274 -0.8715  1.9911
 6439SOL     OW19871   3.155   5.298   0.030  0.5683 -0.3597  0.1945
 6439SOL    HW119872   3.090   5.307   0.099 -0.7620 -0.0049 -1.0400
 6439SOL    HW219873   3.158   5.384  -0.012  0.5713 -0.8411 -0.8286
 6440SOL     OW19874   7.596   1.441   5.533 -0.4029 -0.0502 -0.3935
 6440SOL    HW119875   7.688   1.414   5.532 -0.6686 -0.9740 -0.3260
 6440SOL    HW219876   7.570   1.441   5.441 -0.3657  0.1071 -0.4042
 6441SOL     OW19877   1.228   1.510   6.013  0.3554 -0.0014  0.0994
 6441SOL    HW119878   1.317   1.533   6.039 -0.1873  0.7781  1.3603
 6441SOL    HW219879   1.199   1.448   6.079 -0.2214  0.1471 -0.0070
 6442SOL     OW19880   2.416   3.726   3.442  0.0865  0.1005  0.0988
 6442SOL    HW119881   2.411   3.807   3.493  0.5680 -1.3931  2.6641
 6442SOL    HW219882   2.327   3.689   3.447  0.1878 -0.1576  0.0284
 6443SOL     OW19883   2.211   4.559   4.054  0.0842  0.1889  0.0926
 6443SOL    HW119884   2.303   4.578   4.071  0.2678 -1.4312  1.1184
 6443SOL    HW219885   2.204   4.555   3.959  1.4853 -1.4227  0.0244
 6444SOL     OW19886   3.363   4.880   4.688  0.0030 -0.0920 -0.2388
 6444SOL    HW119887   3.368   4.804   4.747  3.0582 -0.6871 -1.0932
 6444SOL    HW219888   3.270   4.893   4.674 -0.6863 -2.7006  1.2028
 6445SOL     OW19889   6.560   0.398   0.461 -0.4878 -0.1630 -0.1990
 6445SOL    HW119890   6.541   0.304   0.459 -1.4628 -0.0096  0.8888
 6445SOL    HW219891   6.551   0.423   0.553 -3.5280  1.5992 -0.8137
 6446SOL     OW19892   0.331   5.409   0.239  0.1216 -0.1267 -0.4129
 6446SOL    HW119893   0.293   5.458   0.166 -1.3846 -1.2120 -0.3949
 6446SOL    HW219894   0.317   5.465   0.316 -0.9288 -0.2363 -0.5096
 6447SOL     OW19895   4.651   6.920   6.214  0.3105 -0.4440 -0.2014
 6447SOL    HW119896   4.670   6.911   6.121 -0.8941 -1.0610 -0.4125
 6447SOL    HW219897   4.714   6.862   6.257  0.4799 -0.6222 -0.6815
 6448SOL     OW19898   2.620   0.095   1.704 -0.0690  1.0043 -0.5215
 6448SOL    HW119899   2.654   0.018   1.657 -0.4700  1.4740 -1.5916
 6448SOL    HW219900   2.683   0.108   1.775  0.6470  0.3778 -1.0203
 6449SOL     OW19901   3.599   4.155   4.694  0.6180 -0.2301 -0.0691
 6449SOL    HW119902   3.688   4.121   4.695  1.7999  2.5119 -1.8757
 6449SOL    HW219903   3.600   4.230   4.752 -1.1323 -1.2696  1.4488
 6450SOL     OW19904   7.118   6.343   4.872  0.7725 -0.4467  0.2708
 6450SOL    HW119905   7.034   6.333   4.917 -0.2386  4.1351 -0.1301
 6450SOL    HW219906   7.100   6.314   4.782 -0.1459 -0.2807  0.3900
 6451SOL     OW19907   6.418   0.726   3.606 -0.2571 -0.6316  0.3832
 6451SOL    HW119908   6.477   0.684   3.544 -0.5863  0.9215 -1.0695
 6451SOL    HW219909   6.472   0.743   3.683  0.6838 -0.9366 -0.1924
 6452SOL     OW19910   3.726   4.736   4.045  0.5107  0.1417  0.4154
 6452SOL    HW119911   3.651   4.704   3.995 -0.0866  2.5888 -0.4092
 6452SOL    HW219912   3.707   4.711   4.135 -0.6542 -0.4227  0.0366
 6453SOL     OW19913   4.573   5.433   6.158  0.1395  0.6670 -0.1296
 6453SOL    HW119914   4.629   5.482   6.099 -0.9114  1.3394 -0.6107
 6453SOL    HW219915   4.600   5.460   6.245  0.1762  1.4255 -0.3701
 6454SOL     OW19916   1.005   2.581   4.746 -0.1817 -0.4887  0.1785
 6454SOL    HW119917   1.093   2.607   4.719 -0.2411  0.2817  0.7034
 6454SOL    HW219918   0.948   2.652   4.718 -0.5788 -0.7813  0.2259
 6455SOL     OW19919   7.130   2.644   0.870  0.5532 -0.0613  0.2807
 6455SOL    HW119920   7.193   2.572   0.869  1.5759  0.8054 -1.4955
 6455SOL    HW219921   7.152   2.695   0.948  1.7856 -0.0068 -0.0906
 6456SOL     OW19922   3.136   5.438   1.610  0.4133  0.5555 -0.2869
 6456SOL    HW119923   3.176   5.361   1.649 -1.0206  0.2442  0.6385
 6456SOL    HW219924   3.081   5.404   1.540  0.7112  0.8417 -0.6570
 6457SOL     OW19925   5.433   3.035   0.800 -0.2896 -0.0621 -0.0840
 6457SOL    HW119926   5.469   3.048   0.888 -1.1178  0.1224  0.2339
 6457SOL    HW219927   5.374   2.960   0.809  0.4371 -0.7335 -0.7339
 6458SOL     OW19928   6.982   5.568   2.095  0.6565 -0.0979  0.1060
 6458SOL    HW119929   6.927   5.524   2.160  0.7034  1.9439  1.6666
 6458SOL    HW219930   6.967   5.521   2.014  0.1608 -2.4383  1.4725
 6459SOL     OW19931   1.638   1.967   4.551  0.0475 -0.3608  0.2433
 6459SOL    HW119932   1.722   2.013   4.554 -0.1446  0.0178 -0.0650
 6459SOL    HW219933   1.578   2.024   4.599 -0.8401  1.1123 -2.4050
 6460SOL     OW19934   4.698   5.703   4.584 -0.1276 -0.0463 -0.0818
 6460SOL    HW119935   4.764   5.709   4.514 -1.0527  1.6554 -0.8468
 6460SOL    HW219936   4.749   5.704   4.665  0.9494 -1.7528 -0.6814
 6461SOL     OW19937   4.916   3.439   3.573  0.2109 -0.0765 -0.1904
 6461SOL    HW119938   4.850   3.373   3.597  0.6519  0.4005  2.6526
 6461SOL    HW219939   4.876   3.522   3.599  2.0506  0.1796  2.1398
 6462SOL     OW19940   5.944   6.436   4.030 -0.3497 -0.0745  0.2004
 6462SOL    HW119941   5.922   6.378   4.102  0.8490 -1.0800 -0.2116
 6462SOL    HW219942   5.992   6.508   4.071  1.6705 -1.4056  0.2681
 6463SOL     OW19943   0.834   6.826   3.940 -0.5109  0.2618 -0.1193
 6463SOL    HW119944   0.793   6.757   3.888  0.8739 -0.8612  0.2088
 6463SOL    HW219945   0.772   6.842   4.011 -1.1643 -0.1631 -0.5832
 6464SOL     OW19946   2.366   0.417   1.093 -0.5990 -0.0631  0.4091
 6464SOL    HW119947   2.317   0.365   1.157 -0.4377 -0.6890  0.0376
 6464SOL    HW219948   2.384   0.356   1.022 -0.7934  0.6298 -0.2478
 6465SOL     OW19949   7.086   6.695   7.116 -0.0729 -0.1208 -0.1938
 6465SOL    HW119950   7.016   6.731   7.170 -0.3058 -0.0744 -0.5196
 6465SOL    HW219951   7.105   6.610   7.154 -0.8018 -0.4420 -0.5263
 6466SOL     OW19952   1.039   4.347   2.159 -0.3487 -0.4495 -0.4310
 6466SOL    HW119953   0.968   4.406   2.132 -0.5007  0.1818  1.2326
 6466SOL    HW219954   1.000   4.260   2.155 -0.6766 -0.2776 -1.1939
 6467SOL     OW19955   0.271   1.493   4.255 -0.1679 -0.4355 -0.0215
 6467SOL    HW119956   0.299   1.452   4.337  0.5536  0.9601  0.4692
 6467SOL    HW219957   0.221   1.425   4.210 -1.0136 -1.0929  1.7995
 6468SOL     OW19958   5.865   7.478   4.302 -0.0069  0.8252  0.3226
 6468SOL    HW119959   5.947   7.489   4.254 -0.1299 -1.1157 -0.4108
 6468SOL    HW219960   5.801   7.450   4.235 -0.4251 -0.9439  1.3879
 6469SOL     OW19961   3.812   0.959   1.177 -0.4955 -0.3587  0.0916
 6469SOL    HW119962   3.864   1.040   1.176 -1.6029  0.3747 -0.4064
 6469SOL    HW219963   3.836   0.916   1.258  0.3172  0.3451  0.2391
 6470SOL     OW19964   6.811   5.072   7.144 -0.6256  0.2635  0.1203
 6470SOL    HW119965   6.722   5.098   7.121 -0.5599  0.6391  0.2714
 6470SOL    HW219966   6.867   5.135   7.098 -0.2055 -2.2684 -3.2182
 6471SOL     OW19967   5.628   2.122   1.846 -0.3875 -0.1305  0.5343
 6471SOL    HW119968   5.664   2.153   1.929  0.1792  0.0952  0.2055
 6471SOL    HW219969   5.645   2.028   1.846  2.5694  0.2874 -0.7344
 6472SOL     OW19970   1.207   5.614   7.630  0.1586 -0.9400 -0.4982
 6472SOL    HW119971   1.233   5.665   7.553  0.2257 -0.0214  0.1277
 6472SOL    HW219972   1.281   5.622   7.690 -0.8318  0.3182  0.6143
 6473SOL     OW19973   0.447   0.340   5.997  0.5893  0.0446  0.4296
 6473SOL    HW119974   0.507   0.298   6.059  1.7182 -0.3983 -0.9202
 6473SOL    HW219975   0.401   0.267   5.955 -0.2704  0.3474  0.8271
 6474SOL     OW19976   0.228   0.575   4.094 -0.1836 -0.3662  0.1732
 6474SOL    HW119977   0.245   0.631   4.169  0.7395  3.9851 -2.9202
 6474SOL    HW219978   0.311   0.571   4.048 -1.1146 -1.4548 -1.5054
 6475SOL     OW19979   0.093   5.909   7.394 -0.2482  0.4756 -0.2576
 6475SOL    HW119980   0.030   5.853   7.440  0.6962  1.0231  1.8156
 6475SOL    HW219981   0.039   5.977   7.353 -1.1002  0.4638  0.7794
 6476SOL     OW19982   1.556   5.761   5.248 -0.2200  0.0166  0.4901
 6476SOL    HW119983   1.502   5.683   5.244 -1.4857  0.9066 -0.5466
 6476SOL    HW219984   1.522   5.811   5.322 -0.7879  0.5382 -0.1114
 6477SOL     OW19985   5.032   0.506   4.759  0.1574  0.5559  0.5503
 6477SOL    HW119986   5.025   0.427   4.706 -1.1897 -0.1247  1.6847
 6477SOL    HW219987   4.942   0.538   4.768  0.5443  1.5348  1.1304
 6478SOL     OW19988   5.205   0.353   3.197  0.1676  0.1623  0.0324
 6478SOL    HW119989   5.176   0.269   3.161  1.2496 -0.0890 -0.2965
 6478SOL    HW219990   5.277   0.330   3.256 -0.2207  0.7702  0.7652
 6479SOL     OW19991   0.248   4.641   6.960 -0.5136 -0.5784  0.0187
 6479SOL    HW119992   0.318   4.698   6.928  1.4002 -1.9178  1.6715
 6479SOL    HW219993   0.174   4.701   6.973  0.2927  0.8992 -1.6539
 6480SOL     OW19994   1.259   6.374   6.939  0.2310 -1.0063  0.3209
 6480SOL    HW119995   1.227   6.388   7.029  1.7096  0.4425  0.6735
 6480SOL    HW219996   1.308   6.292   6.944  1.6890 -0.1308  1.2925
 6481SOL     OW19997   2.507   5.205   7.090  0.6122  0.0745  0.3717
 6481SOL    HW119998   2.447   5.250   7.031  0.5504 -0.4070  0.0637
 6481SOL    HW219999   2.457   5.193   7.171 -0.6650 -2.5716 -0.6728
 6482SOL     OW20000   4.108   4.823   4.799  0.5980  0.2035  0.0545
 6482SOL    HW120001   4.145   4.837   4.712  0.2986  1.0694  0.0571
 6482SOL    HW220002   4.018   4.854   4.792 -0.2189 -2.0315  0.0000
 6483SOL     OW20003   3.181   6.964   0.480 -0.4507  0.5383 -0.0314
 6483SOL    HW120004   3.086   6.968   0.494 -0.5215 -0.6594 -0.0061
 6483SOL    HW220005   3.190   6.945   0.387 -0.2117  1.0878 -0.1238
 6484SOL     OW20006   4.032   2.140   3.231 -0.2346  0.4192  0.6216
 6484SOL    HW120007   4.097   2.128   3.301  0.6027 -0.2570 -0.2344
 6484SOL    HW220008   4.080   2.118   3.151 -1.6837 -0.6963  0.0176
 6485SOL     OW20009   1.340   1.351   2.530 -0.0873 -0.4710  0.9367
 6485SOL    HW120010   1.371   1.436   2.563 -0.9553 -0.5312  1.9601
 6485SOL    HW220011   1.396   1.287   2.575  0.5443 -0.4597  0.1907
 6486SOL     OW20012   3.861   6.425   1.121  0.2035  0.2153  0.2547
 6486SOL    HW120013   3.802   6.363   1.080 -0.1202 -0.9252  2.2857
 6486SOL    HW220014   3.804   6.495   1.153  0.0857 -0.2443  1.0814
 6487SOL     OW20015   1.844   4.474   2.031 -0.5870  0.1214 -0.0441
 6487SOL    HW120016   1.911   4.444   2.093 -0.2325 -1.2133 -1.0256
 6487SOL    HW220017   1.842   4.569   2.042 -0.5151 -0.0702  1.9808
 6488SOL     OW20018   7.404   6.829   1.480  0.1310 -0.5960 -0.4397
 6488SOL    HW120019   7.498   6.831   1.498  0.2834 -2.2643 -0.8900
 6488SOL    HW220020   7.363   6.822   1.567  0.5264 -1.7598 -0.3369
 6489SOL     OW20021   2.258   7.535   1.500  0.1401  0.0137 -0.1687
 6489SOL    HW120022   2.206   7.530   1.420  0.2437 -0.6641 -0.2000
 6489SOL    HW220023   2.342   7.495   1.477 -0.1734 -1.1131  0.5377
 6490SOL     OW20024   6.961   1.464   6.309 -0.1734  0.1192  0.1107
 6490SOL    HW120025   6.963   1.509   6.394  3.8102 -0.9944  0.7927
 6490SOL    HW220026   6.883   1.409   6.313 -1.6545  2.1425  1.8160
 6491SOL     OW20027   2.441   0.630   3.702  0.1660 -0.6404  0.0594
 6491SOL    HW120028   2.398   0.704   3.659  0.6152 -0.0565  0.6098
 6491SOL    HW220029   2.371   0.564   3.708 -0.3783 -0.0838  0.0219
 6492SOL     OW20030   2.196   3.943   0.262  0.4201 -0.4435  0.4451
 6492SOL    HW120031   2.207   4.034   0.291  0.0542 -0.4988  0.7781
 6492SOL    HW220032   2.107   3.940   0.227  0.8182 -0.4107 -0.5899
 6493SOL     OW20033   6.608   0.542   0.686  0.0994  0.6757 -0.1220
 6493SOL    HW120034   6.587   0.613   0.626 -1.1250  1.8720  1.6339
 6493SOL    HW220035   6.659   0.583   0.756 -0.8916 -0.0835  1.0884
 6494SOL     OW20036   0.082   0.484   0.853  0.1321  0.0512  0.2357
 6494SOL    HW120037   0.061   0.543   0.925 -1.9982 -0.5386  0.1621
 6494SOL    HW220038   0.117   0.406   0.895  1.0696  0.5654  0.4493
 6495SOL     OW20039   2.880   7.387   7.180 -0.8091 -0.1162  0.5657
 6495SOL    HW120040   2.818   7.402   7.108 -0.2992  1.1103  0.3704
 6495SOL    HW220041   2.826   7.394   7.259 -1.1973 -0.5771  0.3533
 6496SOL     OW20042   2.370   4.477   2.566  0.1359  0.1851 -0.1048
 6496SOL    HW120043   2.450   4.446   2.609 -0.8410 -1.3129  0.7151
 6496SOL    HW220044   2.323   4.397   2.544 -1.3955  1.0541 -0.0893
 6497SOL     OW20045   6.118   3.109   5.349  0.0321  0.2737 -0.4541
 6497SOL    HW120046   6.162   3.078   5.269 -0.0710 -2.0906  0.3294
 6497SOL    HW220047   6.165   3.066   5.420 -0.6104  1.4352  0.6967
 6498SOL     OW20048   6.300   3.671   0.504  0.0988 -0.1425 -0.2492
 6498SOL    HW120049   6.390   3.641   0.508 -0.0214 -0.3346  2.1576
 6498SOL    HW220050   6.282   3.679   0.410  3.1014  1.4905 -0.8005
 6499SOL     OW20051   2.771   4.676   2.675  0.9062 -0.0898 -0.4106
 6499SOL    HW120052   2.843   4.669   2.613 -0.3684  0.3851 -2.0460
 6499SOL    HW220053   2.697   4.635   2.629 -0.3832  1.3821  0.2835
 6500SOL     OW20054   7.425   2.770   5.231 -0.1894  0.1109  0.2876
 6500SOL    HW120055   7.418   2.816   5.147  0.3204  1.0275  0.7381
 6500SOL    HW220056   7.469   2.831   5.289  0.6705 -1.0094  0.8690
 6501SOL     OW20057   4.585   6.597   3.307  0.3543  0.3721  0.0788
 6501SOL    HW120058   4.606   6.605   3.400  1.0238  0.0296 -0.0305
 6501SOL    HW220059   4.666   6.565   3.268  0.2112  0.9441 -0.6941
 6502SOL     OW20060   0.899   0.342   4.726  0.0175 -0.9586 -0.1387
 6502SOL    HW120061   0.954   0.272   4.762  2.2907  1.6395  1.8751
 6502SOL    HW220062   0.823   0.345   4.784  2.0396  0.9740  2.6382
 6503SOL     OW20063   2.280   3.303   7.466  0.5177 -0.0587 -0.1921
 6503SOL    HW120064   2.314   3.389   7.494  3.2405 -0.5267 -1.6294
 6503SOL    HW220065   2.208   3.324   7.406 -0.3064  1.1229  1.1646
 6504SOL     OW20066   7.175   0.125   1.336 -0.0789  0.2075  0.2241
 6504SOL    HW120067   7.139   0.204   1.378  1.4248  0.9922  0.1178
 6504SOL    HW220068   7.101   0.086   1.291 -1.1165  0.9244  1.2446
 6505SOL     OW20069   6.081   0.383   0.586  0.0330 -0.2627  0.7625
 6505SOL    HW120070   6.141   0.448   0.624 -0.7147  1.5260 -0.9332
 6505SOL    HW220071   5.997   0.428   0.583 -0.6657 -1.5724  0.1571
 6506SOL     OW20072   4.604   3.254   7.001  0.5912  0.1707  0.3563
 6506SOL    HW120073   4.564   3.173   6.970 -1.6102  1.5435 -0.6746
 6506SOL    HW220074   4.698   3.238   6.994  0.2212 -1.9198 -0.7904
 6507SOL     OW20075   1.512   2.191   5.770  0.4178 -0.2583 -0.5010
 6507SOL    HW120076   1.542   2.280   5.788  1.4463 -0.4585 -1.1026
 6507SOL    HW220077   1.463   2.166   5.848 -0.7582  1.1885 -0.7318
 6508SOL     OW20078   0.561   2.204   1.439 -0.2149  0.0952  0.1670
 6508SOL    HW120079   0.577   2.118   1.476  0.2585  0.0732 -0.0790
 6508SOL    HW220080   0.617   2.208   1.361  0.7711  1.1202  0.8919
 6509SOL     OW20081   6.436   4.718   1.293  0.7843  0.4860 -0.6286
 6509SOL    HW120082   6.365   4.782   1.281 -0.0471 -0.4767 -1.0101
 6509SOL    HW220083   6.405   4.640   1.247  1.8758 -0.1230 -0.3485
 6510SOL     OW20084   1.114   4.577   5.743 -0.0756  0.1177 -0.3524
 6510SOL    HW120085   1.036   4.540   5.701 -0.8355 -0.2385  1.2845
 6510SOL    HW220086   1.081   4.618   5.823  1.6018 -1.5766  1.3089
 6511SOL     OW20087   6.115   5.965   4.183  0.1708 -0.4654 -0.3904
 6511SOL    HW120088   6.026   5.983   4.153  0.2302 -1.5186 -1.2364
 6511SOL    HW220089   6.158   6.050   4.182  0.4103 -0.4755 -4.1102
 6512SOL     OW20090   1.237   3.520   3.619 -0.1382 -0.2506  0.1468
 6512SOL    HW120091   1.190   3.476   3.690 -0.5735  1.6779  1.1137
 6512SOL    HW220092   1.180   3.512   3.543 -1.8620  1.5687  1.1599
 6513SOL     OW20093   0.215   5.080   7.026 -0.3696  0.2291  0.6096
 6513SOL    HW120094   0.213   5.175   7.035 -0.7884  0.2110  0.7256
 6513SOL    HW220095   0.177   5.047   7.107  1.2492 -0.0915  1.2865
 6514SOL     OW20096   4.989   2.980   5.799 -0.2875 -0.2117 -0.4631
 6514SOL    HW120097   4.980   2.965   5.705 -1.3102  1.1568 -0.6110
 6514SOL    HW220098   5.009   3.073   5.807  1.5681 -0.6396  0.6091
 6515SOL     OW20099   5.817   1.339   1.712 -0.7109  0.1730  0.0678
 6515SOL    HW120100   5.844   1.253   1.742 -0.5451  0.2647  0.1825
 6515SOL    HW220101   5.861   1.400   1.771  0.8539  0.4132 -1.2858
 6516SOL     OW20102   0.842   5.116   1.123 -0.4717  0.1183  0.1151
 6516SOL    HW120103   0.802   5.087   1.205 -0.2999 -0.0620  0.1359
 6516SOL    HW220104   0.848   5.037   1.069 -2.5365  0.6009 -0.9162
 6517SOL     OW20105   1.613   5.726   1.710 -0.1256 -0.2208 -0.5421
 6517SOL    HW120106   1.603   5.749   1.618  1.6802 -0.0471 -0.7420
 6517SOL    HW220107   1.589   5.633   1.715 -0.2002 -0.2365 -1.1859
 6518SOL     OW20108   1.606   7.223   7.087  0.6924  0.2603  0.2476
 6518SOL    HW120109   1.538   7.219   7.155  0.9213 -0.2832  0.4450
 6518SOL    HW220110   1.646   7.310   7.099  1.3313 -0.1633  1.3951
 6519SOL     OW20111   7.496   0.602   1.441  0.2310  0.5412 -0.0879
 6519SOL    HW120112   7.485   0.511   1.416  0.0421  0.3109  0.8181
 6519SOL    HW220113   7.561   0.600   1.511  0.9944  1.2122 -0.7504
 6520SOL     OW20114   4.927   2.450   6.906 -0.4073  0.1087  0.2997
 6520SOL    HW120115   4.893   2.474   6.820  0.3069  0.7159  0.1737
 6520SOL    HW220116   5.019   2.428   6.890  0.3816  2.4136  1.2298
 6521SOL     OW20117   5.780   5.450   2.584  0.8099 -0.3313  0.2595
 6521SOL    HW120118   5.803   5.515   2.517  1.7398 -1.6499 -0.7355
 6521SOL    HW220119   5.863   5.428   2.626  0.2679  0.3113  1.7299
 6522SOL     OW20120   6.356   4.181   0.877  0.4756  0.1241  0.0716
 6522SOL    HW120121   6.323   4.091   0.874 -0.3710  0.4439 -0.6026
 6522SOL    HW220122   6.435   4.175   0.930 -0.1086 -0.8427  0.8698
 6523SOL     OW20123   7.107   0.001   5.661  0.2488 -0.1961 -0.0405
 6523SOL    HW120124   7.187   0.042   5.628  0.3679 -0.8531 -0.5900
 6523SOL    HW220125   7.066  -0.037   5.583 -1.8384  2.1593 -0.2386
 6524SOL     OW20126   1.431   7.096   0.246  0.5797 -1.2178 -0.2916
 6524SOL    HW120127   1.387   7.011   0.251 -0.8967 -0.6349 -2.2561
 6524SOL    HW220128   1.429   7.120   0.153  0.2584  1.3037  0.2755
 6525SOL     OW20129   1.600   7.205   7.413 -0.3864 -0.2309 -0.5335
 6525SOL    HW120130   1.651   7.286   7.410  0.3579 -0.7107 -2.5148
 6525SOL    HW220131   1.612   7.173   7.503  0.7359  0.9638 -0.2195
 6526SOL     OW20132   0.103   3.627   4.094 -0.0441  0.8535 -0.1222
 6526SOL    HW120133   0.119   3.595   4.183 -1.5827  4.0784  1.4789
 6526SOL    HW220134   0.031   3.574   4.061  0.8428 -0.6806  0.3260
 6527SOL     OW20135   7.431   7.039   0.633 -0.2138  0.2428  0.2580
 6527SOL    HW120136   7.391   7.121   0.605 -1.9415 -0.0835  1.6141
 6527SOL    HW220137   7.432   6.985   0.553  1.1501  1.5888 -0.7040
 6528SOL     OW20138   0.351   6.750   4.355 -0.1757 -0.3838  0.8575
 6528SOL    HW120139   0.346   6.819   4.289 -3.4931 -0.3438  0.9390
 6528SOL    HW220140   0.401   6.680   4.314  0.2526  0.7170 -0.5881
 6529SOL     OW20141   0.229   6.365   7.172 -0.4446  0.3790 -0.0407
 6529SOL    HW120142   0.138   6.334   7.168 -0.1910 -0.3058 -0.5727
 6529SOL    HW220143   0.281   6.292   7.141  0.5440 -0.2137  2.6841
 6530SOL     OW20144   5.644   5.486   0.319  0.1900  0.0992 -0.0441
 6530SOL    HW120145   5.567   5.461   0.370 -0.0748  1.8790  0.5144
 6530SOL    HW220146   5.719   5.465   0.375  0.0166 -0.0171  0.1438
 6531SOL     OW20147   3.849   1.048   0.286 -0.4164  0.2335  0.3670
 6531SOL    HW120148   3.925   1.051   0.343 -0.7369  0.1253  0.8020
 6531SOL    HW220149   3.830   1.140   0.266 -0.0902  0.2538  0.1423
 6532SOL     OW20150   4.011   5.283   1.660 -0.0222 -0.2248  0.4637
 6532SOL    HW120151   3.947   5.267   1.591  0.0922  1.0144  0.0422
 6532SOL    HW220152   3.987   5.223   1.730 -0.8012 -0.7415 -0.2274
 6533SOL     OW20153   4.052   4.218   1.634  0.6865 -0.4840 -0.1205
 6533SOL    HW120154   3.983   4.160   1.603 -0.1387  0.1894  0.4141
 6533SOL    HW220155   4.133   4.168   1.624 -0.2955 -3.5108  4.3027
 6534SOL     OW20156   3.626   5.817   2.190  0.4122 -0.3102  0.1658
 6534SOL    HW120157   3.704   5.783   2.147  0.6712  0.0550  0.3387
 6534SOL    HW220158   3.659   5.862   2.268  0.2151  1.3342 -0.6444
 6535SOL     OW20159   0.315   5.700   1.502 -0.1633  0.4216 -0.1215
 6535SOL    HW120160   0.237   5.705   1.557 -1.0629  0.2458 -1.3165
 6535SOL    HW220161   0.334   5.606   1.496 -1.7289  0.1667 -2.2516
 6536SOL     OW20162   1.924   6.153   5.464 -0.2082 -0.2301 -0.3347
 6536SOL    HW120163   1.939   6.246   5.449 -1.9865  0.3082  0.9231
 6536SOL    HW220164   1.896   6.120   5.378  1.1616  0.2003 -0.9724
 6537SOL     OW20165   4.239   1.233   2.134 -0.4764 -0.5054  0.7871
 6537SOL    HW120166   4.265   1.148   2.170  0.7186 -1.1410 -1.4431
 6537SOL    HW220167   4.255   1.295   2.205  0.7545 -1.8408  1.7256
 6538SOL     OW20168   3.971   0.234   1.763  0.0812 -0.5840 -0.5430
 6538SOL    HW120169   3.997   0.210   1.674  2.0137 -0.1373 -0.1284
 6538SOL    HW220170   4.052   0.255   1.807 -1.0772  2.1216  0.4892
 6539SOL     OW20171   5.792   4.471   2.664  0.2217  0.7817  0.0182
 6539SOL    HW120172   5.779   4.462   2.570 -0.1121  1.6251 -0.0251
 6539SOL    HW220173   5.705   4.491   2.699  0.1104 -0.7259  0.6766
 6540SOL     OW20174   1.454   1.466   4.180  0.5782 -0.0571 -0.0520
 6540SOL    HW120175   1.411   1.551   4.180 -3.1746 -1.7239  0.3300
 6540SOL    HW220176   1.397   1.411   4.233  1.8461 -3.2482 -1.7165
 6541SOL     OW20177   7.426   4.049   1.858  0.0621  0.2776 -0.0834
 6541SOL    HW120178   7.368   4.089   1.794  1.4085  0.8026 -1.0301
 6541SOL    HW220179   7.472   3.981   1.809  1.4495  0.9881  0.1906
 6542SOL     OW20180   2.931   4.031   5.217  0.1630  0.0500  0.0226
 6542SOL    HW120181   3.006   4.076   5.255  0.0378  0.0324  0.2914
 6542SOL    HW220182   2.955   3.938   5.218  0.2702  0.0744 -0.1935
 6543SOL     OW20183   3.064   2.859   5.418 -1.1304  0.4770  0.0203
 6543SOL    HW120184   3.145   2.812   5.438 -0.2692  1.8256 -0.1173
 6543SOL    HW220185   3.055   2.852   5.324 -0.5244  1.2772 -0.1123
 6544SOL     OW20186   3.906   2.694   2.889 -0.2037 -0.0674  1.0209
 6544SOL    HW120187   3.972   2.760   2.867  0.4471 -0.8381  0.6243
 6544SOL    HW220188   3.946   2.611   2.865 -1.4780 -0.5220  0.4039
 6545SOL     OW20189   6.273   0.802   4.564 -0.0333 -0.2193 -0.2816
 6545SOL    HW120190   6.287   0.878   4.620 -2.3779 -1.0458  1.6092
 6545SOL    HW220191   6.361   0.768   4.547  0.8707  1.0892  1.4572
 6546SOL     OW20192   4.932   4.852   5.152  0.0809 -0.3309  0.0488
 6546SOL    HW120193   4.962   4.933   5.109 -0.9425 -1.4081 -2.9391
 6546SOL    HW220194   4.899   4.881   5.237 -1.1952  2.5992 -1.3121
 6547SOL     OW20195   1.451   4.057   2.314 -0.2563 -0.7378 -0.2869
 6547SOL    HW120196   1.360   4.061   2.285 -0.5107 -0.9503  0.4554
 6547SOL    HW220197   1.500   4.099   2.244 -1.2442  2.2337  0.6094
 6548SOL     OW20198   2.828   2.154   5.295  0.0552  0.4726  0.2088
 6548SOL    HW120199   2.846   2.063   5.318  1.7781  0.6411 -0.3613
 6548SOL    HW220200   2.735   2.155   5.273 -0.0872 -1.0531  0.6560
 6549SOL     OW20201   5.329   2.078   6.705  0.5784  0.2005 -0.0709
 6549SOL    HW120202   5.302   2.031   6.785  0.7042  0.1257 -0.0720
 6549SOL    HW220203   5.423   2.061   6.698  0.7228  0.8750  0.2060
 6550SOL     OW20204   2.669   5.769   5.493  0.4297 -0.3092 -0.6267
 6550SOL    HW120205   2.745   5.801   5.541  0.0592 -1.1116  0.5197
 6550SOL    HW220206   2.622   5.714   5.555 -2.5886  2.2804 -0.3523
 6551SOL     OW20207   0.742   3.329   2.510 -0.0286 -0.2875 -0.2172
 6551SOL    HW120208   0.806   3.296   2.447 -0.4981 -1.8195  0.0490
 6551SOL    HW220209   0.789   3.332   2.593 -0.0457 -0.5081 -0.1995
 6552SOL     OW20210   1.819   2.499   4.662  0.5399  0.1068  0.5156
 6552SOL    HW120211   1.872   2.574   4.688  0.5762  0.3302 -0.1658
 6552SOL    HW220212   1.848   2.480   4.572 -0.0123 -0.2323  0.4039
 6553SOL     OW20213   3.447   5.854   2.862  0.2607  0.3147 -0.0461
 6553SOL    HW120214   3.444   5.943   2.896  1.0062 -0.2737  1.6809
 6553SOL    HW220215   3.539   5.841   2.838  0.3440 -0.2499  0.5413
 6554SOL     OW20216   0.315   3.952   5.680 -0.6272  0.4349 -0.2725
 6554SOL    HW120217   0.254   4.023   5.700 -0.0065  0.4931  1.6342
 6554SOL    HW220218   0.398   3.979   5.719 -0.4416 -1.4394  0.7749
 6555SOL     OW20219   3.314   1.483   2.548 -0.1958 -0.2594 -0.0406
 6555SOL    HW120220   3.358   1.565   2.527  1.2032 -0.8856  0.2737
 6555SOL    HW220221   3.296   1.442   2.463  1.0285 -0.5686 -0.1756
 6556SOL     OW20222   7.252   5.202   3.724 -0.8197  0.6200  0.0228
 6556SOL    HW120223   7.172   5.170   3.682 -0.5032 -2.3163  1.4476
 6556SOL    HW220224   7.323   5.177   3.665 -0.7216  0.5691  0.1615
 6557SOL     OW20225   6.759   2.441   3.471 -0.1848 -0.1777  0.6394
 6557SOL    HW120226   6.830   2.423   3.410  0.4035  2.6550  0.3329
 6557SOL    HW220227   6.774   2.381   3.544  1.7008 -0.6090 -0.0457
 6558SOL     OW20228   6.587   0.823   3.039 -0.3532  0.2877 -0.2219
 6558SOL    HW120229   6.548   0.852   3.121 -1.2093  0.6868 -0.7622
 6558SOL    HW220230   6.681   0.818   3.057 -0.4155  1.4542  0.4598
 6559SOL     OW20231   5.836   1.570   1.898 -0.3176 -0.2664 -0.2733
 6559SOL    HW120232   5.781   1.533   1.968 -0.9676  0.6877 -0.2678
 6559SOL    HW220233   5.773   1.605   1.835  0.2782 -0.5563 -1.0407
 6560SOL     OW20234   3.635   1.001   5.983  1.0387  0.3571  0.6020
 6560SOL    HW120235   3.700   0.947   6.028  0.5261 -0.0536  0.8620
 6560SOL    HW220236   3.553   0.952   5.992  0.5311  1.2689  1.0064
 6561SOL     OW20237   5.711   0.066   7.567 -0.2894  0.2226 -0.0072
 6561SOL    HW120238   5.734   0.137   7.507 -1.6545  1.0744  0.4417
 6561SOL    HW220239   5.687  -0.007   7.510  1.2949  0.0136 -0.4737
 6562SOL     OW20240   1.255   2.340   4.599  0.5737 -0.2126  0.1215
 6562SOL    HW120241   1.260   2.245   4.611  0.3427 -0.0774  1.4572
 6562SOL    HW220242   1.170   2.364   4.637  1.6036  0.7969  1.9461
 6563SOL     OW20243   3.642   1.172   6.686 -0.4865  0.1463  0.0848
 6563SOL    HW120244   3.620   1.263   6.669 -0.9208 -0.3509 -2.4737
 6563SOL    HW220245   3.561   1.134   6.721  0.1758  1.0376  2.7528
 6564SOL     OW20246   7.529   6.810   4.151 -0.8605 -0.1664  0.2919
 6564SOL    HW120247   7.505   6.725   4.188 -0.6204  0.3745  1.7678
 6564SOL    HW220248   7.553   6.790   4.060 -3.5019 -1.2279 -0.2651
 6565SOL     OW20249   0.481   3.148   0.031 -0.3025 -0.3813  0.2760
 6565SOL    HW120250   0.422   3.120   0.101  1.2242  0.4262  1.9476
 6565SOL    HW220251   0.535   3.071   0.012  0.5911 -0.0566  1.4046
 6566SOL     OW20252   0.859   6.959   5.297 -0.4509  1.3297  0.2287
 6566SOL    HW120253   0.953   6.961   5.317 -0.1689  0.8610 -0.9731
 6566SOL    HW220254   0.819   6.916   5.373  0.7737 -2.0395 -0.8938
 6567SOL     OW20255   4.320   2.464   6.443 -0.2507  0.6430 -0.2372
 6567SOL    HW120256   4.232   2.464   6.479 -1.0597 -0.4487 -2.0819
 6567SOL    HW220257   4.375   2.430   6.514 -1.6267 -0.6068  0.2692
 6568SOL     OW20258   5.875   2.397   0.436  0.3381  0.0353 -0.4982
 6568SOL    HW120259   5.785   2.410   0.464  0.2611  1.9286 -1.4496
 6568SOL    HW220260   5.871   2.322   0.376 -0.5493 -0.0558 -0.3384
 6569SOL     OW20261   2.854   3.951   2.137 -1.1118 -0.0239 -0.0573
 6569SOL    HW120262   2.888   3.982   2.222  0.1903  0.9195 -0.8770
 6569SOL    HW220263   2.768   3.992   2.129 -0.3432  1.6530 -0.1209
 6570SOL     OW20264   1.352   0.184   7.748  0.1044  0.3268 -0.0267
 6570SOL    HW120265   1.341   0.091   7.771  0.5136 -0.0351 -1.2343
 6570SOL    HW220266   1.424   0.185   7.685 -0.6632  1.3284 -0.9241
 6571SOL     OW20267   4.736   0.758   1.440  0.5538 -0.5699 -0.1434
 6571SOL    HW120268   4.676   0.813   1.490 -1.6910 -2.0907 -0.9975
 6571SOL    HW220269   4.756   0.685   1.498  1.4277 -0.1801  0.0563
 6572SOL     OW20270   1.855   6.112   0.507 -0.3999  0.7507  0.8864
 6572SOL    HW120271   1.889   6.199   0.526  2.1011  0.2680 -0.8941
 6572SOL    HW220272   1.927   6.052   0.528 -0.0817 -0.3776 -2.7571
 6573SOL     OW20273   7.515   7.061   1.767  0.1278 -0.2283  0.5201
 6573SOL    HW120274   7.485   7.122   1.699  0.3661 -1.5167 -0.7984
 6573SOL    HW220275   7.605   7.040   1.743  0.6945  0.3274  2.0364
 6574SOL     OW20276   2.163   7.411   3.480  0.1858 -0.4051  0.4292
 6574SOL    HW120277   2.121   7.480   3.533 -1.0235 -0.0862 -0.8863
 6574SOL    HW220278   2.093   7.381   3.422  1.6693 -0.1933 -1.5371
 6575SOL     OW20279   6.382   0.699   5.781  0.4278 -0.6698  0.2957
 6575SOL    HW120280   6.434   0.640   5.726  1.0348  0.5652 -0.5132
 6575SOL    HW220281   6.292   0.669   5.771  0.6494 -1.0390 -0.6367
 6576SOL     OW20282   2.739   6.832   1.594 -0.2242  0.8882 -0.0584
 6576SOL    HW120283   2.798   6.906   1.610  1.2017 -0.1438 -0.3593
 6576SOL    HW220284   2.724   6.793   1.680  2.7666 -1.1798 -0.3278
 6577SOL     OW20285   2.726   3.801   5.786 -0.0450  0.1452 -0.8283
 6577SOL    HW120286   2.655   3.836   5.839 -1.9077 -1.9551 -1.7572
 6577SOL    HW220287   2.805   3.814   5.838 -1.6198 -0.8940  2.0206
 6578SOL     OW20288   2.181   4.601   7.004 -0.2765 -0.7296  0.2855
 6578SOL    HW120289   2.121   4.541   7.048 -1.4611  0.1412 -0.0740
 6578SOL    HW220290   2.255   4.610   7.064 -1.3142 -0.4782  1.5615
 6579SOL     OW20291   1.339   4.153   4.604 -0.5657 -0.4423 -0.6988
 6579SOL    HW120292   1.271   4.102   4.648 -1.6964  0.8553 -0.8727
 6579SOL    HW220293   1.343   4.118   4.515 -1.1391 -0.3921 -0.7429
 6580SOL     OW20294   2.700   5.607   2.919  0.3075 -0.3316 -0.6738
 6580SOL    HW120295   2.710   5.574   3.009  0.5288 -0.4247 -0.7334
 6580SOL    HW220296   2.739   5.540   2.864 -1.1548 -0.9953 -0.9536
 6581SOL     OW20297   6.011   4.556   6.500  0.4134  0.1173 -0.7370
 6581SOL    HW120298   6.052   4.538   6.584  0.0150  0.4315 -0.4691
 6581SOL    HW220299   6.085   4.569   6.440  0.7275  1.2969 -0.1284
 6582SOL     OW20300   2.715   4.959   7.585  0.4043 -0.0372  1.0270
 6582SOL    HW120301   2.693   5.033   7.529  0.2048 -1.4185 -0.7823
 6582SOL    HW220302   2.644   4.897   7.573  1.5112 -1.3481  0.9971
 6583SOL     OW20303   7.090   5.608   7.352 -0.0081 -0.0061 -0.7187
 6583SOL    HW120304   7.061   5.576   7.437  0.4079  1.9082  0.1885
 6583SOL    HW220305   7.183   5.587   7.349  0.6078  2.2173  0.4995
 6584SOL     OW20306   4.509   6.607   4.290 -0.0236 -0.1335 -0.1260
 6584SOL    HW120307   4.532   6.567   4.374  0.3420  0.5596  0.1106
 6584SOL    HW220308   4.510   6.534   4.228  0.3253 -0.5489  0.3555
 6585SOL     OW20309   1.686   5.068   2.813  0.0634 -0.0656  0.1115
 6585SOL    HW120310   1.601   5.111   2.812  0.8209  1.5824 -2.2197
 6585SOL    HW220311   1.667   4.975   2.828 -1.9386  0.5054  1.4318
 6586SOL     OW20312   3.175   2.183   7.146  0.3096  0.1057 -0.3488
 6586SOL    HW120313   3.080   2.186   7.156  0.3107 -0.0326 -0.3086
 6586SOL    HW220314   3.203   2.274   7.157  0.4163 -0.1509  1.8262
 6587SOL     OW20315   0.022   4.403   6.298  0.1868  0.2650  0.1846
 6587SOL    HW120316   0.102   4.406   6.246  0.8200 -0.7732  1.0492
 6587SOL    HW220317   0.053   4.389   6.388 -0.9249  0.9601  0.6953
 6588SOL     OW20318   4.896   4.014   1.471  0.1589 -0.0604 -0.3984
 6588SOL    HW120319   4.980   3.985   1.434 -0.5060  0.8290 -2.8295
 6588SOL    HW220320   4.911   4.105   1.496 -0.2955  0.4263 -1.7891
 6589SOL     OW20321   5.020   7.532   6.736  0.1796  0.3204 -0.3401
 6589SOL    HW120322   5.030   7.569   6.824  1.8527  1.7297 -1.0686
 6589SOL    HW220323   4.947   7.581   6.697 -0.2236  0.0491  0.0623
 6590SOL     OW20324   0.331   1.401   0.510 -0.2282 -0.0706 -0.2893
 6590SOL    HW120325   0.386   1.473   0.480 -2.8856  0.9570 -3.2212
 6590SOL    HW220326   0.246   1.442   0.528 -0.4938 -1.7554  2.9781
 6591SOL     OW20327   5.023   0.861   0.797 -0.4674 -0.0078 -0.3205
 6591SOL    HW120328   4.972   0.877   0.877  1.0523 -1.7443  1.0840
 6591SOL    HW220329   5.106   0.905   0.812 -0.7195  0.9961 -1.6764
 6592SOL     OW20330   6.248   5.024   3.800  0.1381  0.4138  0.7397
 6592SOL    HW120331   6.226   5.108   3.840 -3.4367 -0.2368  0.5075
 6592SOL    HW220332   6.280   4.970   3.873 -0.0070  1.1923  1.3932
 6593SOL     OW20333   3.288   3.448   5.327  0.0457  1.2716 -0.1112
 6593SOL    HW120334   3.219   3.485   5.272 -0.2381  1.4863  0.3838
 6593SOL    HW220335   3.368   3.459   5.276 -0.5744 -1.1289 -1.7353
 6594SOL     OW20336   4.573   4.749   2.673  0.3199  0.2722  0.2584
 6594SOL    HW120337   4.636   4.677   2.674 -1.0622 -0.9827 -0.0441
 6594SOL    HW220338   4.578   4.786   2.761  2.7503  1.4044 -0.2549
 6595SOL     OW20339   0.366   6.041   6.805 -0.1934  0.0601  0.0277
 6595SOL    HW120340   0.340   6.065   6.717 -0.7016  0.1798  0.2050
 6595SOL    HW220341   0.285   6.011   6.847  0.1624 -0.6038  0.2519
 6596SOL     OW20342   2.565   5.055   6.551  0.4660  0.3452  0.4191
 6596SOL    HW120343   2.489   5.102   6.586  0.8747  1.4858 -0.1849
 6596SOL    HW220344   2.561   5.070   6.457  1.7126  0.8344  0.4294
 6597SOL     OW20345   0.613   2.144   3.318 -0.3212  0.7311 -0.5785
 6597SOL    HW120346   0.607   2.083   3.391  1.2843  0.5733 -0.5341
 6597SOL    HW220347   0.616   2.231   3.359 -0.6196  0.7162 -0.5262
 6598SOL     OW20348   0.457   3.114   6.845  0.2053 -0.0457 -0.0701
 6598SOL    HW120349   0.417   3.166   6.775 -1.2524 -0.1495  0.6620
 6598SOL    HW220350   0.544   3.092   6.811  0.8904  2.8385 -0.3955
 6599SOL     OW20351   0.098   5.378   1.916 -0.1805 -0.1571 -0.2225
 6599SOL    HW120352   0.091   5.294   1.962 -0.8523  0.4029  0.7635
 6599SOL    HW220353   0.027   5.376   1.852 -3.3998  1.4003  2.8868
 6600SOL     OW20354   7.147   2.682   7.159 -0.6085  0.1159 -0.0650
 6600SOL    HW120355   7.065   2.680   7.209  0.0635  0.6535  1.1047
 6600SOL    HW220356   7.189   2.599   7.178 -1.3499 -0.6524 -1.5573
 6601SOL     OW20357   4.389   2.381   5.261  0.1891 -0.6734 -0.1340
 6601SOL    HW120358   4.474   2.341   5.277  0.4926 -0.0373 -0.1461
 6601SOL    HW220359   4.406   2.447   5.194  0.3165  1.6188  2.0067
 6602SOL     OW20360   6.825   3.277   5.566 -0.0602  0.3703 -0.1003
 6602SOL    HW120361   6.780   3.287   5.650 -1.0816  0.0177 -0.5832
 6602SOL    HW220362   6.770   3.324   5.503  1.0097  1.1479 -0.4835
 6603SOL     OW20363   3.298   7.732   4.730  0.0028 -0.2113  0.0993
 6603SOL    HW120364   3.239   7.748   4.656 -0.9064  1.8710  1.1719
 6603SOL    HW220365   3.374   7.689   4.692  0.1747  1.9983 -2.3072
 6604SOL     OW20366   3.637   7.412   1.377 -0.2921  0.1594  0.1930
 6604SOL    HW120367   3.594   7.446   1.455 -1.8691 -2.3449  0.5365
 6604SOL    HW220368   3.571   7.422   1.308 -1.0072 -2.3947  0.4031
 6605SOL     OW20369   7.079   4.051   1.909  0.1694 -0.1354  0.2132
 6605SOL    HW120370   7.103   4.135   1.949 -1.5490  0.4362  0.1614
 6605SOL    HW220371   7.074   3.990   1.983 -2.5554  0.8136  0.9486
 6606SOL     OW20372   5.818   1.057   4.257  0.0478 -0.1575 -0.3472
 6606SOL    HW120373   5.867   1.135   4.232  0.2655 -0.5483 -1.1636
 6606SOL    HW220374   5.879   1.005   4.309 -0.2195  0.3817  0.5341
 6607SOL     OW20375   1.806   1.628   4.597  0.2912 -0.4488 -0.0779
 6607SOL    HW120376   1.863   1.551   4.597  2.1963  0.8838  0.5536
 6607SOL    HW220377   1.865   1.701   4.578 -1.1706  1.0473  0.9125
 6608SOL     OW20378   1.490   4.290   3.045 -0.2805 -0.1733 -0.0050
 6608SOL    HW120379   1.454   4.218   2.992 -0.0143 -0.5413  0.3111
 6608SOL    HW220380   1.490   4.256   3.134  2.2554 -0.7522 -0.1725
 6609SOL     OW20381   3.995   4.026   3.974  0.3619 -0.1139  1.2939
 6609SOL    HW120382   3.978   4.065   3.888  0.6242 -1.6727  0.4937
 6609SOL    HW220383   4.084   4.056   3.996  0.6182 -0.3521  0.6322
 6610SOL     OW20384   7.533   4.503   5.023  0.2531  0.4003  0.0757
 6610SOL    HW120385   7.542   4.598   5.035 -0.9325  0.5508 -0.1402
 6610SOL    HW220386   7.448   4.482   5.062  1.0516 -0.7888  1.2705
 6611SOL     OW20387   4.948   2.269   7.640 -0.0841  0.5775 -0.0984
 6611SOL    HW120388   4.889   2.318   7.696  0.0223 -0.0952  0.6181
 6611SOL    HW220389   4.908   2.183   7.632  0.1960  0.4858 -0.5835
 6612SOL     OW20390   3.947   0.503   2.691 -0.2562  0.0168 -0.2641
 6612SOL    HW120391   3.984   0.590   2.673 -0.1728  0.3119  1.2168
 6612SOL    HW220392   4.023   0.446   2.704 -0.2965  0.1245  0.5115
 6613SOL     OW20393   2.382   6.721   3.103 -0.4117  0.5396  0.3546
 6613SOL    HW120394   2.314   6.653   3.110 -1.4661  1.0402 -3.1925
 6613SOL    HW220395   2.341   6.799   3.141 -0.0315 -0.1603  2.3554
 6614SOL     OW20396   6.058   6.170   3.663 -0.3911  0.3041 -0.3705
 6614SOL    HW120397   5.986   6.113   3.639  1.2266 -0.6508 -3.4925
 6614SOL    HW220398   6.134   6.112   3.670  0.2797  1.3324  2.3979
 6615SOL     OW20399   3.643   1.806   6.062 -0.1414 -0.1344 -0.3010
 6615SOL    HW120400   3.588   1.820   5.986  1.3212  0.4162 -1.3138
 6615SOL    HW220401   3.646   1.711   6.073  0.0966 -0.2506 -1.3042
 6616SOL     OW20402   1.080   0.055   3.793  0.8134  0.4992  0.2613
 6616SOL    HW120403   1.128   0.129   3.831  0.2814  2.0917 -1.9571
 6616SOL    HW220404   1.102   0.058   3.700  0.1431 -1.6987 -0.0062
 6617SOL     OW20405   3.727   2.281   1.287  0.3625 -0.3393 -0.1105
 6617SOL    HW120406   3.803   2.274   1.344  0.3172  0.3370  0.0429
 6617SOL    HW220407   3.702   2.373   1.292 -0.0113 -0.4028 -0.7482
 6618SOL     OW20408   4.136   5.875   2.536 -0.0117  0.1876 -0.4239
 6618SOL    HW120409   4.146   5.891   2.442 -0.7136 -2.7460 -1.0992
 6618SOL    HW220410   4.204   5.811   2.556 -0.8090 -0.3123  0.7394
 6619SOL     OW20411   3.474   0.776   5.197  0.3350 -0.3123 -0.2068
 6619SOL    HW120412   3.479   0.849   5.136 -0.5372 -0.8649 -0.9604
 6619SOL    HW220413   3.430   0.706   5.148 -0.7319 -0.6388  1.1690
 6620SOL     OW20414   3.323   4.549   7.737  0.5660 -0.3191  0.2521
 6620SOL    HW120415   3.392   4.521   7.798  0.3036 -0.9121  0.2888
 6620SOL    HW220416   3.352   4.518   7.652  1.4732  1.4736 -0.1383
 6621SOL     OW20417   4.949   4.812   6.095 -0.5766 -0.2161  0.1989
 6621SOL    HW120418   4.992   4.727   6.093 -0.3670 -0.0981 -0.9481
 6621SOL    HW220419   5.005   4.869   6.042 -0.1001  0.9458  1.8552
 6622SOL     OW20420   1.184   3.308   4.672  0.1336  0.0747  0.4444
 6622SOL    HW120421   1.220   3.295   4.584  0.5851  1.4743  0.3880
 6622SOL    HW220422   1.240   3.255   4.729  1.2555  0.9028  0.1423
 6623SOL     OW20423   3.391   6.696   0.346  0.5093 -0.3988 -0.5984
 6623SOL    HW120424   3.444   6.621   0.321 -0.2611 -0.6823 -1.4078
 6623SOL    HW220425   3.422   6.718   0.434  1.7212 -0.7637 -0.9077
 6624SOL     OW20426   1.988   3.489   0.133  0.1455  0.5396  0.5895
 6624SOL    HW120427   1.947   3.490   0.046 -1.0493  0.6467  1.1309
 6624SOL    HW220428   2.038   3.408   0.135 -0.3659  0.1978  0.0384
 6625SOL     OW20429   2.101   5.462   4.573  0.2017  0.2745  0.5634
 6625SOL    HW120430   2.084   5.372   4.601  0.8365 -0.0158  0.0472
 6625SOL    HW220431   2.015   5.505   4.574  0.1929  0.3431  3.0820
 6626SOL     OW20432   5.897   1.099   1.777  0.7640  0.1680 -0.3172
 6626SOL    HW120433   5.937   1.101   1.864  2.3972 -0.1469 -1.0246
 6626SOL    HW220434   5.966   1.067   1.720 -0.0587  1.0189 -1.8544
 6627SOL     OW20435   2.709   0.611   4.936 -0.3098 -0.5050  0.4771
 6627SOL    HW120436   2.796   0.592   4.970  0.8262  0.6369 -1.5735
 6627SOL    HW220437   2.668   0.666   5.003  1.6945  1.3748  0.2750
 6628SOL     OW20438   2.722   2.484   6.316 -0.2302 -0.1663 -0.8761
 6628SOL    HW120439   2.628   2.467   6.311  0.0484 -1.6966 -1.3871
 6628SOL    HW220440   2.762   2.398   6.328  1.2249  0.2118 -2.5097
 6629SOL     OW20441   2.237   0.810   3.604  0.0123 -0.1101 -0.8056
 6629SOL    HW120442   2.191   0.820   3.520  0.0373 -0.3279 -0.8449
 6629SOL    HW220443   2.232   0.897   3.644 -0.4813 -0.1480 -0.7820
 6630SOL     OW20444   1.419   6.222   4.016  0.1583  0.6395 -0.6659
 6630SOL    HW120445   1.398   6.261   4.101  0.4530 -1.6048  0.5177
 6630SOL    HW220446   1.430   6.129   4.035  0.6289  0.1354 -3.1207
 6631SOL     OW20447   4.071   4.315   6.295 -0.4123 -0.1204  0.5150
 6631SOL    HW120448   4.068   4.314   6.199  0.2421 -0.5051  0.4934
 6631SOL    HW220449   3.984   4.344   6.321 -0.9736 -1.1065 -0.1815
 6632SOL     OW20450   3.888   4.190   5.714  0.4193  0.0549  0.1190
 6632SOL    HW120451   3.877   4.096   5.727  0.5675  0.2850  2.3607
 6632SOL    HW220452   3.961   4.214   5.771 -0.0411  1.6422  0.1008
 6633SOL     OW20453   6.120   7.631   2.411  0.1118 -0.3945  0.3532
 6633SOL    HW120454   6.110   7.599   2.501  0.9181  0.0212  0.5953
 6633SOL    HW220455   6.163   7.716   2.420 -2.3500  1.0219 -0.2574
 6634SOL     OW20456   6.865   6.261   2.400  0.3034  0.2682  0.2882
 6634SOL    HW120457   6.799   6.279   2.334  1.2415 -0.3730 -0.8635
 6634SOL    HW220458   6.815   6.245   2.480 -0.9097  0.1970 -0.4623
 6635SOL     OW20459   2.048   4.936   4.383  0.1921 -0.1525 -0.0475
 6635SOL    HW120460   1.964   4.972   4.355  0.2577 -0.7681 -1.1062
 6635SOL    HW220461   2.052   4.850   4.341  1.1908 -0.2745  0.2780
 6636SOL     OW20462   6.890   2.153   6.777 -0.0174 -0.0593  0.2358
 6636SOL    HW120463   6.802   2.118   6.770  0.3862 -1.1633  0.3857
 6636SOL    HW220464   6.918   2.129   6.866  0.7262 -0.4837 -0.0965
 6637SOL     OW20465   2.809   1.750   5.043 -0.0134 -0.2541 -0.0574
 6637SOL    HW120466   2.751   1.815   5.083 -1.3932 -0.8680 -1.0020
 6637SOL    HW220467   2.836   1.789   4.961 -0.3825 -0.6192 -0.3579
 6638SOL     OW20468   6.910   0.460   1.295 -0.2809 -0.0128  0.4828
 6638SOL    HW120469   6.876   0.379   1.259  0.1009 -0.1381  0.4052
 6638SOL    HW220470   6.834   0.501   1.338 -0.5946 -0.1470  0.0568
 6639SOL     OW20471   7.102   5.759   1.668  0.4148 -0.0979  0.1053
 6639SOL    HW120472   7.040   5.809   1.722 -0.4051 -1.8007  0.8303
 6639SOL    HW220473   7.183   5.760   1.717  0.3808  0.4273  0.1574
 6640SOL     OW20474   5.696   3.410   0.877  0.3427 -0.2605 -0.1721
 6640SOL    HW120475   5.758   3.341   0.902  1.1937  0.2204 -0.8715
 6640SOL    HW220476   5.683   3.397   0.783  0.0610  0.1835 -0.1942
 6641SOL     OW20477   6.639   2.051   6.426  0.2696  0.3251  0.2798
 6641SOL    HW120478   6.727   2.059   6.463  0.5616  0.3473 -0.3947
 6641SOL    HW220479   6.638   2.115   6.354  0.0169 -0.3024 -0.2870
 6642SOL     OW20480   1.121   0.791   0.533  0.0775  0.1384  0.1774
 6642SOL    HW120481   1.136   0.873   0.485 -0.9108 -0.3443 -0.9987
 6642SOL    HW220482   1.150   0.810   0.622 -1.1684  2.1285  0.2184
 6643SOL     OW20483   3.007   7.666   1.809 -0.6683  0.0379 -0.4102
 6643SOL    HW120484   3.057   7.746   1.828  1.2183 -0.9411 -0.9680
 6643SOL    HW220485   2.987   7.672   1.716 -0.2377 -0.2638 -0.5279
 6644SOL     OW20486   7.663   1.547   6.448 -0.3347  0.2828  0.3410
 6644SOL    HW120487   7.684   1.614   6.513 -1.3524  1.1187 -0.1673
 6644SOL    HW220488   7.715   1.571   6.371 -0.1691  0.0731  0.3847
 6645SOL     OW20489   7.521   7.659   0.785 -0.2987  0.4317 -0.1381
 6645SOL    HW120490   7.581   7.734   0.789  0.1616  0.0104  1.5500
 6645SOL    HW220491   7.578   7.582   0.789 -0.6492 -0.1150 -3.3731
 6646SOL     OW20492   5.191   1.880   2.405  0.3341 -0.1469 -0.1064
 6646SOL    HW120493   5.163   1.801   2.360  1.2989 -0.4009 -0.2927
 6646SOL    HW220494   5.281   1.862   2.431  0.3252  0.6160  0.4947
 6647SOL     OW20495   7.506   1.998   0.789 -0.3037 -0.6589 -0.3403
 6647SOL    HW120496   7.490   2.065   0.723 -2.4020 -0.7227  0.0156
 6647SOL    HW220497   7.479   2.039   0.871  2.0010 -0.6738  0.5019
 6648SOL     OW20498   7.608   3.936   0.836 -0.2530  0.6427  0.3955
 6648SOL    HW120499   7.535   3.875   0.845 -0.5798  0.6011 -1.9395
 6648SOL    HW220500   7.575   4.019   0.872 -1.6581  0.7521 -1.0286
 6649SOL     OW20501   0.176   4.009   3.216 -0.8386 -0.0742  0.0929
 6649SOL    HW120502   0.102   4.038   3.269 -1.5075  2.0982 -1.8601
 6649SOL    HW220503   0.249   4.064   3.245 -0.7147 -0.2293  0.0747
 6650SOL     OW20504   3.122   0.962   5.546  0.5241  0.3476 -0.0814
 6650SOL    HW120505   3.064   1.030   5.513  0.5489  0.0006 -0.8500
 6650SOL    HW220506   3.173   0.935   5.470  1.9243  0.8703  0.6465
 6651SOL     OW20507   2.248   0.264   3.580  0.2730  0.1982  0.1545
 6651SOL    HW120508   2.201   0.346   3.594 -0.3912 -0.1046 -0.2481
 6651SOL    HW220509   2.272   0.235   3.668 -0.3606  0.3288  0.3798
 6652SOL     OW20510   5.390   2.606   2.178 -0.2029 -0.5271  0.0968
 6652SOL    HW120511   5.363   2.595   2.087  0.7294  2.3225 -0.6257
 6652SOL    HW220512   5.475   2.561   2.184  1.4499  2.1373 -1.5063
 6653SOL     OW20513   3.121   6.950   6.158 -0.1885  0.0015 -0.4071
 6653SOL    HW120514   3.185   6.880   6.169 -0.2461  0.2487  2.0300
 6653SOL    HW220515   3.036   6.907   6.170 -0.1920  0.5607  1.8390
 6654SOL     OW20516   1.879   4.109   1.963  0.1570 -0.0553  0.3124
 6654SOL    HW120517   1.817   4.051   1.919  0.5645 -0.8667  0.7748
 6654SOL    HW220518   1.922   4.157   1.892 -2.2068  1.8684  0.0249
 6655SOL     OW20519   7.227   4.001   3.876  0.1022  0.6434  0.8750
 6655SOL    HW120520   7.272   3.920   3.850  0.0138 -0.2473  3.1742
 6655SOL    HW220521   7.154   4.008   3.815  0.9221 -0.2201 -0.2664
 6656SOL     OW20522   2.632   3.104   5.859  0.1591  0.1515  0.1030
 6656SOL    HW120523   2.568   3.172   5.878 -1.5255 -1.2952 -0.1259
 6656SOL    HW220524   2.707   3.124   5.916 -1.1226  1.0046  1.5505
 6657SOL     OW20525   7.578   7.602   2.795  0.4544  0.0506  0.1810
 6657SOL    HW120526   7.487   7.597   2.824 -0.2375  3.7042 -0.8798
 6657SOL    HW220527   7.629   7.583   2.874 -1.2160 -0.4185  1.2054
 6658SOL     OW20528   4.359   0.231   1.944 -0.1037 -0.0494 -0.1007
 6658SOL    HW120529   4.302   0.255   2.017  2.6796  1.5453  1.7398
 6658SOL    HW220530   4.412   0.309   1.928  0.8533 -1.0754 -2.4391
 6659SOL     OW20531   0.412   4.941   7.429  0.2948 -0.3214  0.3766
 6659SOL    HW120532   0.416   4.985   7.514 -2.1762  1.4399 -0.2887
 6659SOL    HW220533   0.450   5.004   7.368  0.3615 -0.7846 -0.0608
 6660SOL     OW20534   2.495   4.587   4.089 -0.8288 -0.2865 -0.0855
 6660SOL    HW120535   2.533   4.611   4.173 -0.1426  0.4892 -0.6024
 6660SOL    HW220536   2.559   4.615   4.024 -1.2948 -0.9713 -0.8710
 6661SOL     OW20537   0.610   6.920   3.041 -0.4913 -0.1919 -0.4641
 6661SOL    HW120538   0.705   6.930   3.044 -0.4485 -0.8123  0.3337
 6661SOL    HW220539   0.580   6.947   3.127 -1.2070  1.4943 -1.1891
 6662SOL     OW20540   2.520   7.493   1.246 -0.1062 -0.6078 -0.1881
 6662SOL    HW120541   2.441   7.447   1.219 -0.1475 -0.2691 -0.6572
 6662SOL    HW220542   2.549   7.540   1.168  0.2999 -0.3609  0.1034
 6663SOL     OW20543   5.314   6.240   0.704  0.5503  0.2325  0.4068
 6663SOL    HW120544   5.322   6.311   0.767  0.4673 -0.5874  1.3649
 6663SOL    HW220545   5.337   6.161   0.753  1.7957 -0.2872 -0.9279
 6664SOL     OW20546   4.122   1.895   1.836 -0.3135 -0.0191 -0.1307
 6664SOL    HW120547   4.199   1.951   1.829 -0.2790 -0.1018 -0.4185
 6664SOL    HW220548   4.072   1.912   1.756  0.3704 -1.3909 -0.8720
 6665SOL     OW20549   5.866   3.397   4.596  0.2941  0.3793 -0.2967
 6665SOL    HW120550   5.863   3.415   4.690 -1.7945  2.4976 -0.6811
 6665SOL    HW220551   5.886   3.482   4.557 -0.0091 -0.2304 -1.8173
 6666SOL     OW20552   1.649   4.192   6.967 -0.0845  0.0029 -0.0393
 6666SOL    HW120553   1.639   4.242   6.886  0.2410  0.6595  0.3182
 6666SOL    HW220554   1.743   4.174   6.974 -0.3350 -1.7942 -0.8177
 6667SOL     OW20555   2.491   5.917   5.912  0.7248 -0.1801  0.4208
 6667SOL    HW120556   2.435   5.933   5.836 -0.7166 -1.7507  1.0909
 6667SOL    HW220557   2.461   5.982   5.977  1.5098  0.7233 -0.0920
 6668SOL     OW20558   6.844   2.720   0.806  0.4065 -0.0770  0.2585
 6668SOL    HW120559   6.859   2.814   0.800 -0.1590 -0.0532 -1.6629
 6668SOL    HW220560   6.918   2.686   0.855  1.5438  1.1646 -0.5403
 6669SOL     OW20561   1.348   4.241   1.793  0.0213  0.1543  0.1137
 6669SOL    HW120562   1.266   4.243   1.743 -0.2873  0.4069  0.6246
 6669SOL    HW220563   1.324   4.275   1.879  0.3175 -1.2649  0.7830
 6670SOL     OW20564   5.633   6.531   1.206  0.1198 -0.0377 -0.1199
 6670SOL    HW120565   5.615   6.494   1.293 -1.5022  1.4018  0.2132
 6670SOL    HW220566   5.724   6.560   1.211 -0.1359  0.6019  1.3510
 6671SOL     OW20567   6.362   6.532   0.727 -0.2485 -0.3123 -0.4540
 6671SOL    HW120568   6.411   6.532   0.809  0.1522  0.5014 -0.6842
 6671SOL    HW220569   6.410   6.473   0.670  0.2731  0.2027 -0.5573
 6672SOL     OW20570   4.309   2.970   4.250  0.3066 -0.0741 -0.7340
 6672SOL    HW120571   4.378   2.991   4.313  1.2361  0.2206 -1.8205
 6672SOL    HW220572   4.268   2.891   4.286  1.9912 -0.9635 -0.6427
 6673SOL     OW20573   2.300   4.461   2.125 -0.0328 -0.0568 -0.1832
 6673SOL    HW120574   2.250   4.524   2.176  1.3125  0.5631  0.4272
 6673SOL    HW220575   2.253   4.378   2.135 -0.5654  0.3587  0.9099
 6674SOL     OW20576   7.458   0.437   7.186  0.1174 -0.6233  0.1216
 6674SOL    HW120577   7.436   0.377   7.257  2.0619 -2.2493 -0.5404
 6674SOL    HW220578   7.374   0.468   7.154 -1.0940 -3.7761 -0.0992
 6675SOL     OW20579   4.105   4.435   7.195  0.0580  0.1480  0.1326
 6675SOL    HW120580   4.186   4.445   7.144 -0.7826  1.4059 -1.0224
 6675SOL    HW220581   4.037   4.425   7.129 -0.8268 -0.2392  1.0792
 6676SOL     OW20582   6.143   6.486   3.226 -0.8481  0.1552  0.3491
 6676SOL    HW120583   6.218   6.435   3.196 -0.3172  0.5376  0.9892
 6676SOL    HW220584   6.168   6.516   3.313 -1.5506  0.6936  0.3746
 6677SOL     OW20585   3.451   1.593   0.621 -0.0462  0.0702  0.0269
 6677SOL    HW120586   3.501   1.627   0.695 -0.5436 -0.5621  0.6627
 6677SOL    HW220587   3.379   1.544   0.661 -0.5726  0.0885 -0.8735
 6678SOL     OW20588   3.032   6.260   3.738 -0.0904  0.0539  0.3959
 6678SOL    HW120589   2.937   6.258   3.746 -0.2864  1.2501 -1.1322
 6678SOL    HW220590   3.048   6.275   3.645  1.6545 -2.0666  0.2703
 6679SOL     OW20591   1.124   3.525   2.006  0.2213 -0.3774 -0.2134
 6679SOL    HW120592   1.113   3.605   2.058  0.9185  0.6555 -1.5749
 6679SOL    HW220593   1.061   3.464   2.043 -2.2088  1.6376 -0.7192
 6680SOL     OW20594   4.860   1.185   4.484 -0.1675  0.3114 -0.5277
 6680SOL    HW120595   4.797   1.131   4.531  1.6638 -1.3730  0.0929
 6680SOL    HW220596   4.831   1.182   4.393 -0.4903 -1.1400 -0.3882
 6681SOL     OW20597   0.256   1.118   5.351  0.4928 -0.1983 -0.5235
 6681SOL    HW120598   0.175   1.093   5.395 -0.1649  0.3643 -1.3750
 6681SOL    HW220599   0.249   1.078   5.264  0.6305  0.7366 -0.9763
 6682SOL     OW20600   5.594   6.164   4.404  0.6525 -0.2080 -0.6368
 6682SOL    HW120601   5.502   6.159   4.377  0.3958 -0.8674  0.2974
 6682SOL    HW220602   5.596   6.122   4.490  1.1962  2.8410  0.9837
 6683SOL     OW20603   4.736   4.138   0.243 -0.2330  0.2348  0.6426
 6683SOL    HW120604   4.683   4.217   0.253 -1.7494 -0.5184 -1.0024
 6683SOL    HW220605   4.685   4.082   0.184  1.9977 -0.9165 -0.2905
 6684SOL     OW20606   4.364   7.142   2.020 -0.0581 -0.1254  0.0858
 6684SOL    HW120607   4.288   7.121   1.965 -0.1337  2.2405 -0.8144
 6684SOL    HW220608   4.353   7.234   2.042  1.8679 -0.0885  1.0943
 6685SOL     OW20609   1.616   2.940   1.141  0.2576 -0.1004 -0.3474
 6685SOL    HW120610   1.643   2.861   1.094 -1.1813  0.5312 -2.4068
 6685SOL    HW220611   1.651   3.013   1.089 -0.8276  0.6272 -0.0974
 6686SOL     OW20612   5.782   4.683   1.467  0.4073  0.0168 -0.2425
 6686SOL    HW120613   5.693   4.696   1.435 -0.1623 -0.5220  1.0402
 6686SOL    HW220614   5.774   4.688   1.562  1.7944  0.2106 -0.1140
 6687SOL     OW20615   2.262   0.171   7.202  0.0901  0.1459  0.0674
 6687SOL    HW120616   2.171   0.175   7.171  0.2449  1.3487 -0.2805
 6687SOL    HW220617   2.279   0.077   7.213 -0.8571 -0.1590 -0.8462
 6688SOL     OW20618   4.807   4.040   5.207  0.1369 -0.1580  1.0360
 6688SOL    HW120619   4.726   4.016   5.163  0.7475 -0.4612  0.0583
 6688SOL    HW220620   4.786   4.036   5.301 -1.2104  0.6219  0.7913
 6689SOL     OW20621   1.158   4.020   3.902  0.4882  0.1425  0.3712
 6689SOL    HW120622   1.151   3.937   3.855  1.0708  1.3500 -2.0527
 6689SOL    HW220623   1.069   4.039   3.931  0.1614 -0.8168  0.0505
 6690SOL     OW20624   1.679   3.495   7.475 -0.6908  0.3092  0.2363
 6690SOL    HW120625   1.730   3.436   7.530 -1.1606  0.2261  0.5864
 6690SOL    HW220626   1.637   3.438   7.412  1.4703  0.5702 -1.5830
 6691SOL     OW20627   2.084   2.338   6.839  0.2025  0.1015 -0.1983
 6691SOL    HW120628   2.159   2.317   6.784  0.7562  2.7112 -0.5884
 6691SOL    HW220629   2.033   2.400   6.787 -1.9617 -1.1424  0.3074
 6692SOL     OW20630   5.100   3.960   3.447  0.3702  0.3713  0.1216
 6692SOL    HW120631   5.055   4.041   3.472 -0.2116  0.2555 -0.5186
 6692SOL    HW220632   5.179   3.989   3.401 -0.8703  0.6129 -1.9609
 6693SOL     OW20633   2.226   6.406   0.840  0.2719 -0.4126  0.1331
 6693SOL    HW120634   2.299   6.384   0.783  0.9311 -0.5392  1.0026
 6693SOL    HW220635   2.175   6.470   0.791 -0.7837 -2.5645 -1.7770
 6694SOL     OW20636   2.316   2.444   3.247 -0.4401 -0.5313  0.0484
 6694SOL    HW120637   2.253   2.481   3.186  0.5233  2.4175  0.6795
 6694SOL    HW220638   2.402   2.464   3.209  0.1945 -3.0113  0.0143
 6695SOL     OW20639   4.540   7.267   4.913 -0.0075  0.3506  0.6515
 6695SOL    HW120640   4.601   7.323   4.959  1.0110 -0.3106  0.1380
 6695SOL    HW220641   4.585   7.244   4.832 -1.0921  0.1570  0.0810
 6696SOL     OW20642   7.130   0.018   2.250 -0.7439  0.0009 -0.3849
 6696SOL    HW120643   7.179   0.100   2.258 -2.2713  0.7955  1.4107
 6696SOL    HW220644   7.050   0.042   2.203 -0.3363 -0.9156 -1.6245
 6697SOL     OW20645   3.850   0.244   1.387 -0.6106 -0.3977 -0.0642
 6697SOL    HW120646   3.789   0.171   1.370 -0.2209 -1.0502  1.1990
 6697SOL    HW220647   3.927   0.202   1.425  0.2916  0.5150 -0.8396
 6698SOL     OW20648   2.400   2.548   0.218  0.6116  0.4004 -0.2278
 6698SOL    HW120649   2.463   2.552   0.290  0.6644  2.9654 -0.3178
 6698SOL    HW220650   2.322   2.591   0.253 -0.6326 -1.4031 -0.6145
 6699SOL     OW20651   5.963   1.963   0.759  0.1214 -0.0155 -0.0816
 6699SOL    HW120652   6.016   1.897   0.716 -1.2233 -1.4076  0.3138
 6699SOL    HW220653   5.932   1.921   0.840 -0.2065  1.3283  0.5317
 6700SOL     OW20654   6.301   6.182   6.398 -0.4485  0.7420 -0.0735
 6700SOL    HW120655   6.317   6.233   6.477  0.4952  0.8875 -0.3393
 6700SOL    HW220656   6.319   6.244   6.327 -0.6081  0.4196 -0.3956
 6701SOL     OW20657   5.042   5.343   2.073  0.0014  0.0754  0.2238
 6701SOL    HW120658   5.110   5.305   2.018 -0.1408  1.1482 -0.7339
 6701SOL    HW220659   4.960   5.326   2.025 -0.1858  0.5095  0.3845
 6702SOL     OW20660   0.840   5.284   6.446 -0.4682 -0.0526  0.7516
 6702SOL    HW120661   0.918   5.291   6.500 -0.5208 -0.0572  0.8287
 6702SOL    HW220662   0.791   5.210   6.482 -0.9397  0.5001  1.2689
 6703SOL     OW20663   6.167   6.632   4.491  0.2471  0.3253  0.1122
 6703SOL    HW120664   6.152   6.723   4.515 -1.1633  1.1601 -3.2832
 6703SOL    HW220665   6.241   6.635   4.430 -0.9963 -0.4410 -1.5259
 6704SOL     OW20666   4.410   3.013   1.998 -0.1211 -0.3211 -0.3341
 6704SOL    HW120667   4.480   3.071   1.967  0.2441  0.4614  1.7829
 6704SOL    HW220668   4.440   2.983   2.084 -2.3343 -0.0079  0.6257
 6705SOL     OW20669   3.712   5.820   4.879 -0.1580  0.1186  0.8827
 6705SOL    HW120670   3.746   5.845   4.793  0.5168  3.5507  1.9802
 6705SOL    HW220671   3.619   5.804   4.864  0.4378 -2.1118 -0.8939
 6706SOL     OW20672   2.092   5.136   0.411 -0.2925  0.5403  0.4526
 6706SOL    HW120673   2.112   5.099   0.325  1.4623  1.1004  0.5697
 6706SOL    HW220674   1.998   5.155   0.408 -0.4097 -0.1364 -1.0643
 6707SOL     OW20675   2.090   4.603   1.539  0.5729 -0.3827 -0.5350
 6707SOL    HW120676   2.145   4.676   1.512  0.2945  0.2186  0.4498
 6707SOL    HW220677   2.145   4.526   1.530  1.3185  0.1169 -0.3167
 6708SOL     OW20678   5.375   5.864   4.779 -0.0533 -0.3383 -0.5537
 6708SOL    HW120679   5.393   5.771   4.769 -0.7815 -0.6162  0.5297
 6708SOL    HW220680   5.453   5.899   4.823 -1.1957 -1.1921  2.4383
 6709SOL     OW20681   5.552   1.901   3.970 -0.2473 -0.0999  0.0706
 6709SOL    HW120682   5.493   1.947   4.030  1.1134  1.7767  0.0456
 6709SOL    HW220683   5.638   1.942   3.984  0.4572 -0.7463 -1.9690
 6710SOL     OW20684   0.272   4.634   6.533  0.0192  0.3474  0.6063
 6710SOL    HW120685   0.328   4.623   6.456  1.1946  0.8768  1.3691
 6710SOL    HW220686   0.194   4.582   6.513  0.7408 -0.3525 -0.5029
 6711SOL     OW20687   1.021   5.350   7.753 -0.1109 -0.0457 -0.1258
 6711SOL    HW120688   0.997   5.432   7.711 -0.1008 -0.4019 -0.8321
 6711SOL    HW220689   1.002   5.365   7.846 -0.7165  0.5321 -0.3323
 6712SOL     OW20690   2.928   3.570   1.297 -0.1707 -0.8829  0.0171
 6712SOL    HW120691   3.008   3.621   1.314  0.4843 -2.0482  0.5824
 6712SOL    HW220692   2.858   3.635   1.293  1.0930  0.4840 -3.0691
 6713SOL     OW20693   2.276   1.060   5.111 -0.1492 -0.6674 -0.2552
 6713SOL    HW120694   2.208   1.041   5.175  0.6912  0.3820  1.0252
 6713SOL    HW220695   2.256   1.149   5.080  1.4717  0.3494  1.3774
 6714SOL     OW20696   7.272   5.497   1.601  0.0003  0.1663  0.0526
 6714SOL    HW120697   7.187   5.503   1.558  0.4197  0.4791 -0.7512
 6714SOL    HW220698   7.252   5.496   1.694 -0.9997 -1.6281 -0.1372
 6715SOL     OW20699   6.462   7.060   2.886  0.5270 -0.7232 -0.1299
 6715SOL    HW120700   6.478   6.998   2.816  0.4418 -0.4895 -0.3601
 6715SOL    HW220701   6.532   7.125   2.878  1.0182 -1.1569  0.5371
 6716SOL     OW20702   3.468   2.690   2.062  0.6428  0.0410  0.0850
 6716SOL    HW120703   3.489   2.662   1.973  0.6969  0.2290  0.0400
 6716SOL    HW220704   3.539   2.654   2.115  1.9023  1.9118 -0.2600
 6717SOL     OW20705   2.899   7.373   5.792 -0.7194 -0.4359 -0.7227
 6717SOL    HW120706   2.829   7.385   5.727 -3.5317  0.2690  2.1885
 6717SOL    HW220707   2.913   7.278   5.795 -1.6773 -0.6096 -1.2603
 6718SOL     OW20708   3.829   4.293   3.069 -0.5365  0.3688 -0.0492
 6718SOL    HW120709   3.907   4.241   3.086 -1.0226  0.0316  1.2914
 6718SOL    HW220710   3.847   4.338   2.987  1.3613  0.8865  0.6124
 6719SOL     OW20711   7.653   2.397   0.285  0.6482  0.6994 -0.2073
 6719SOL    HW120712   7.738   2.427   0.315  2.2818 -2.5297 -1.1138
 6719SOL    HW220713   7.648   2.423   0.193  0.5656  1.0168 -0.1147
 6720SOL     OW20714   1.545   0.936   5.133  0.3277 -0.2677  0.1812
 6720SOL    HW120715   1.555   0.963   5.041  0.8506  1.7011  0.7670
 6720SOL    HW220716   1.458   0.969   5.158  0.6366  0.1738  0.6908
 6721SOL     OW20717   1.551   2.065   4.310  0.0274 -0.2486  0.6892
 6721SOL    HW120718   1.569   2.060   4.404 -0.9632 -0.8496  0.8613
 6721SOL    HW220719   1.461   2.035   4.301 -0.5602  1.6054 -0.2481
 6722SOL     OW20720   5.021   5.837   4.078 -0.2070  0.0469 -0.2179
 6722SOL    HW120721   5.002   5.893   4.153 -1.1980 -0.4095 -0.1182
 6722SOL    HW220722   5.091   5.883   4.032 -0.9508  1.3478 -0.1069
 6723SOL     OW20723   0.498   7.489   4.795 -0.2742  0.0097 -0.5953
 6723SOL    HW120724   0.572   7.508   4.853  0.7602  0.2186 -1.9094
 6723SOL    HW220725   0.448   7.421   4.840  0.3792  0.2935  0.6004
 6724SOL     OW20726   3.377   6.957   3.092 -0.0602 -0.0621 -0.2248
 6724SOL    HW120727   3.466   6.964   3.057  0.4572  0.3693  1.0763
 6724SOL    HW220728   3.363   7.041   3.137 -1.0621 -0.1919 -0.2819
 6725SOL     OW20729   5.173   0.461   0.195 -0.6954  0.5556  0.0924
 6725SOL    HW120730   5.246   0.446   0.135 -0.8699 -2.3740  0.4280
 6725SOL    HW220731   5.190   0.546   0.234  0.2012  1.9158 -2.9728
 6726SOL     OW20732   7.419   6.704   0.041  0.1976 -0.3043 -0.5296
 6726SOL    HW120733   7.414   6.644  -0.033 -2.5396 -0.0422 -0.6547
 6726SOL    HW220734   7.486   6.768   0.016  1.1449 -1.6705 -1.6062
 6727SOL     OW20735   5.635   7.310   7.096 -0.0947 -0.7473 -0.2083
 6727SOL    HW120736   5.665   7.399   7.112 -1.0611 -0.7525  1.9381
 6727SOL    HW220737   5.705   7.270   7.043  0.8255  0.9460 -0.3306
 6728SOL     OW20738   4.613   7.403   6.692 -0.0785  0.6489  0.0805
 6728SOL    HW120739   4.632   7.332   6.753 -0.3976  0.8998  0.4747
 6728SOL    HW220740   4.669   7.385   6.616  1.0210  0.8414  0.8185
 6729SOL     OW20741   3.192   1.180   2.749 -0.1394 -0.2431 -0.2192
 6729SOL    HW120742   3.125   1.240   2.782 -0.0164  0.2413 -0.8342
 6729SOL    HW220743   3.219   1.130   2.826 -1.1423 -0.3873  0.0556
 6730SOL     OW20744   3.534   2.643   2.741 -0.1640  0.4745  0.6885
 6730SOL    HW120745   3.440   2.649   2.757 -0.2966 -0.9829  0.6107
 6730SOL    HW220746   3.542   2.606   2.653  0.4208 -1.1770  1.3829
 6731SOL     OW20747   5.445   1.869   1.720 -0.1021  0.0849  0.2931
 6731SOL    HW120748   5.392   1.859   1.641 -0.3336  0.6093  0.3776
 6731SOL    HW220749   5.382   1.872   1.791  0.0367  0.6666  0.3982
 6732SOL     OW20750   3.206   6.511   0.590 -0.5132  0.2916  0.4334
 6732SOL    HW120751   3.219   6.416   0.587  0.8847  0.4912 -1.3359
 6732SOL    HW220752   3.138   6.528   0.526 -0.3111  0.5475  0.2857
 6733SOL     OW20753   6.264   6.216   4.190  0.0318  0.0795  0.0089
 6733SOL    HW120754   6.304   6.226   4.276  2.5478 -1.4007 -0.8862
 6733SOL    HW220755   6.297   6.290   4.139 -0.3699  0.1987 -0.0853
 6734SOL     OW20756   5.244   6.350   7.237 -0.7000  0.2565 -0.3828
 6734SOL    HW120757   5.193   6.396   7.171 -2.2133 -0.5997  0.1267
 6734SOL    HW220758   5.189   6.355   7.316 -0.2828 -1.2158  0.0235
 6735SOL     OW20759   4.992   1.015   3.151 -0.3225  0.8865  0.0477
 6735SOL    HW120760   5.009   0.999   3.244  0.9251 -0.0281 -0.3104
 6735SOL    HW220761   5.071   1.058   3.119  0.3546 -1.0560 -1.0900
 6736SOL     OW20762   2.757   4.075   3.408  0.0007  0.4401 -0.4315
 6736SOL    HW120763   2.787   4.011   3.473 -3.1397 -1.1688 -0.3580
 6736SOL    HW220764   2.771   4.159   3.450  0.9573 -0.3815  0.9959
 6737SOL     OW20765   6.890   6.832   4.677  0.4968  0.4216  0.1740
 6737SOL    HW120766   6.834   6.787   4.740  2.1389 -0.6142  0.9551
 6737SOL    HW220767   6.950   6.884   4.731  0.9358  0.7289 -0.5876
 6738SOL     OW20768   3.381   6.716   4.810 -0.7361 -0.0864  0.4492
 6738SOL    HW120769   3.341   6.719   4.723  1.6130 -3.1052 -0.9278
 6738SOL    HW220770   3.314   6.677   4.866 -0.9983 -1.8381 -0.9814
 6739SOL     OW20771   5.716   0.116   1.078 -0.0254  0.2869 -0.4501
 6739SOL    HW120772   5.643   0.094   1.021  0.0569 -1.5161  0.0908
 6739SOL    HW220773   5.791   0.072   1.040  0.2533  0.0049  0.4008
 6740SOL     OW20774   1.598   4.180   5.477  0.1119 -0.3302  0.5463
 6740SOL    HW120775   1.545   4.121   5.531 -0.6595 -0.4052 -0.2540
 6740SOL    HW220776   1.540   4.204   5.405  0.7480  0.6392  0.3371
 6741SOL     OW20777   4.255   6.614   1.229  0.0913 -0.3285  0.2811
 6741SOL    HW120778   4.170   6.575   1.208 -0.1513  0.9093 -1.1602
 6741SOL    HW220779   4.319   6.549   1.200 -0.3232  0.0224 -1.5584
 6742SOL     OW20780   2.978   6.996   1.580 -0.0817 -0.1795  0.0000
 6742SOL    HW120781   3.046   6.929   1.582  0.8836  0.7691 -0.0282
 6742SOL    HW220782   2.977   7.027   1.489 -0.5505 -0.1907 -0.0005
 6743SOL     OW20783   3.281   1.045   4.253 -0.4123  0.1697  0.3074
 6743SOL    HW120784   3.246   1.134   4.242  0.6573  0.5931  0.1725
 6743SOL    HW220785   3.297   1.014   4.164 -0.9081 -0.2135  0.3507
 6744SOL     OW20786   4.370   1.509   0.276  0.2270 -0.2498 -0.3021
 6744SOL    HW120787   4.402   1.592   0.310 -0.3655  0.0848 -0.5431
 6744SOL    HW220788   4.441   1.447   0.291  0.8105  0.3802 -0.4433
 6745SOL     OW20789   0.955   5.755   1.757  0.0467 -0.2349  0.5567
 6745SOL    HW120790   0.953   5.846   1.786 -1.2460 -0.6409  1.8225
 6745SOL    HW220791   0.996   5.758   1.670 -0.9077  1.6704  0.1279
 6746SOL     OW20792   4.749   5.822   5.504  0.1685  0.1180 -0.3018
 6746SOL    HW120793   4.834   5.847   5.538 -0.6389 -0.5396  2.4540
 6746SOL    HW220794   4.712   5.903   5.469  2.3415  0.1808 -2.7689
 6747SOL     OW20795   5.530   7.458   2.194  0.7344 -0.8053  0.1636
 6747SOL    HW120796   5.495   7.494   2.276 -0.2936 -0.4245 -0.4350
 6747SOL    HW220797   5.469   7.487   2.127  0.6601 -2.4923 -0.5340
 6748SOL     OW20798   0.750   5.150   7.353  0.3456  0.1592 -0.0697
 6748SOL    HW120799   0.712   5.216   7.409  0.5461 -0.0943  0.3702
 6748SOL    HW220800   0.811   5.198   7.297  0.4124  0.3638  0.1768
 6749SOL     OW20801   0.304   7.737   0.837 -0.0825 -0.6875 -0.3363
 6749SOL    HW120802   0.319   7.643   0.827 -2.4091 -1.3202  1.3350
 6749SOL    HW220803   0.279   7.767   0.749  2.0525 -1.2620 -1.2102
 6750SOL     OW20804   0.303   3.790   3.131  0.0851  0.0300  0.8512
 6750SOL    HW120805   0.267   3.878   3.143 -1.7150  0.1112 -3.4389
 6750SOL    HW220806   0.312   3.755   3.220 -3.0307  3.0472  2.5597
 6751SOL     OW20807   1.809   2.180   2.803  0.0445 -0.0267  0.4213
 6751SOL    HW120808   1.882   2.123   2.779  1.4749  1.4573  1.0816
 6751SOL    HW220809   1.743   2.120   2.838  1.1430 -1.3728  0.2794
 6752SOL     OW20810   0.732   6.497   3.227  0.3433  0.0006  0.1481
 6752SOL    HW120811   0.728   6.446   3.146 -1.2013 -0.1851  0.3162
 6752SOL    HW220812   0.800   6.454   3.279  1.1406 -0.0688 -0.9035
 6753SOL     OW20813   4.478   1.735   0.414  0.0250  0.1681 -0.4019
 6753SOL    HW120814   4.424   1.751   0.491 -1.1826  0.5037 -1.2881
 6753SOL    HW220815   4.534   1.812   0.406 -1.5347  1.2569 -1.2078
 6754SOL     OW20816   6.363   5.316   5.553  0.1313  0.1662 -0.0282
 6754SOL    HW120817   6.378   5.288   5.644  0.2331 -0.3863 -0.2095
 6754SOL    HW220818   6.314   5.243   5.514 -1.8995  1.3488  0.1860
 6755SOL     OW20819   5.572   2.763   0.486 -0.3351  0.2455 -0.0124
 6755SOL    HW120820   5.601   2.681   0.525 -0.6913 -1.1899 -2.5605
 6755SOL    HW220821   5.582   2.828   0.557  2.3497 -1.4558  1.3486
 6756SOL     OW20822   5.067   7.043   3.916 -0.6267  0.2543  0.3169
 6756SOL    HW120823   4.972   7.044   3.903 -0.8014  0.3201  1.5563
 6756SOL    HW220824   5.103   7.081   3.835 -1.6115 -0.3458 -0.4233
 6757SOL     OW20825   0.430   6.748   6.031  0.7541  0.0082  0.0524
 6757SOL    HW120826   0.338   6.750   6.058  0.9461  0.0936  0.7230
 6757SOL    HW220827   0.445   6.658   6.002  0.2649  0.1839 -0.7884
 6758SOL     OW20828   3.188   6.193   1.933 -0.5676 -0.6494  0.0355
 6758SOL    HW120829   3.199   6.288   1.934 -0.7678 -0.6216  1.2317
 6758SOL    HW220830   3.151   6.172   2.019  2.0985 -2.1181  0.9393
 6759SOL     OW20831   3.000   2.329   4.412 -0.2092 -0.1556  0.1117
 6759SOL    HW120832   2.928   2.287   4.459 -0.1417 -0.3374  0.0545
 6759SOL    HW220833   2.961   2.363   4.332 -0.3371  0.2095  0.3320
 6760SOL     OW20834   2.647   0.946   1.708  0.5903  0.7654 -0.5081
 6760SOL    HW120835   2.614   0.900   1.631  2.1155 -3.2765  0.9721
 6760SOL    HW220836   2.739   0.962   1.690  1.0691 -0.6125  0.5612
 6761SOL     OW20837   4.910   4.875   2.902  0.3406  0.1800 -0.1126
 6761SOL    HW120838   4.872   4.962   2.890  0.6784  0.1653 -1.5087
 6761SOL    HW220839   4.966   4.884   2.979 -2.6722  0.0997  2.2773
 6762SOL     OW20840   3.536   3.983   1.055  0.0678  0.0856 -0.5304
 6762SOL    HW120841   3.522   4.057   0.996  2.4631  0.2262 -1.0084
 6762SOL    HW220842   3.607   3.933   1.015 -0.0913 -1.3314  0.8612
 6763SOL     OW20843   7.241   5.309   7.034  0.2168  0.1412  0.4210
 6763SOL    HW120844   7.334   5.330   7.021  0.4006 -0.0443  1.3464
 6763SOL    HW220845   7.226   5.325   7.127 -1.1900  2.1102 -0.0676
 6764SOL     OW20846   0.016   6.028   1.516 -0.7725 -0.1464  0.3162
 6764SOL    HW120847   0.097   6.033   1.566 -0.1953 -1.5395 -0.4306
 6764SOL    HW220848  -0.051   6.007   1.580 -0.9153  2.6859  1.2412
 6765SOL     OW20849   4.216   5.032   0.999  0.2890  0.8258 -0.6293
 6765SOL    HW120850   4.311   5.042   1.007  0.2805  0.0294  0.7464
 6765SOL    HW220851   4.180   5.091   1.065 -0.0732 -0.4099  0.3219
 6766SOL     OW20852   2.714   3.565   2.235  0.4177 -0.2863  0.1886
 6766SOL    HW120853   2.665   3.618   2.173  0.1739  0.0814  0.6904
 6766SOL    HW220854   2.668   3.576   2.318  0.2578 -1.4231  0.2680
 6767SOL     OW20855   7.698   1.809   7.217 -0.2610 -0.3735 -0.3715
 6767SOL    HW120856   7.682   1.902   7.234 -2.2600 -0.7082 -0.2497
 6767SOL    HW220857   7.736   1.776   7.298 -0.6534  0.1030  0.0118
 6768SOL     OW20858   0.168   1.604   1.149 -0.2077  0.7214  0.1316
 6768SOL    HW120859   0.129   1.650   1.223  0.4900  0.2954  0.7815
 6768SOL    HW220860   0.203   1.523   1.187 -0.5714  0.1049 -0.8101
 6769SOL     OW20861   5.469   4.234   7.323 -0.2995 -0.8931  0.0245
 6769SOL    HW120862   5.552   4.272   7.351 -1.3272  0.1903  1.7483
 6769SOL    HW220863   5.435   4.297   7.258 -1.1690  0.2968  1.5752
 6770SOL     OW20864   5.401   3.850   4.516 -0.1632 -0.2149  0.0796
 6770SOL    HW120865   5.349   3.916   4.469  0.1533 -1.0398 -1.4881
 6770SOL    HW220866   5.412   3.887   4.604 -1.0363  1.2449 -0.3827
 6771SOL     OW20867   7.294   2.961   2.424 -0.6078  0.4542 -0.4568
 6771SOL    HW120868   7.379   2.917   2.416  0.2084  1.8733  0.1240
 6771SOL    HW220869   7.254   2.922   2.501  0.1007  0.7032  0.0443
 6772SOL     OW20870   3.214   1.083   7.433  0.1723 -0.2511  0.1871
 6772SOL    HW120871   3.256   0.999   7.413 -0.1613 -0.0801 -1.3116
 6772SOL    HW220872   3.121   1.061   7.444 -0.2956  0.1658 -2.3419
 6773SOL     OW20873   7.463   7.582   1.398 -0.5134 -0.7309  0.1442
 6773SOL    HW120874   7.534   7.548   1.453 -0.1969  0.0287  0.2154
 6773SOL    HW220875   7.463   7.525   1.321  1.9546  0.7913 -1.1280
 6774SOL     OW20876   4.125   1.259   6.322  0.3922 -0.2598 -0.7649
 6774SOL    HW120877   4.092   1.172   6.302  0.1881 -0.1192 -1.0414
 6774SOL    HW220878   4.078   1.286   6.401  0.5339 -0.4413 -0.6166
 6775SOL     OW20879   5.215   3.443   6.914 -0.0633 -0.2803 -0.0944
 6775SOL    HW120880   5.138   3.397   6.948  0.5684 -2.1917 -1.1176
 6775SOL    HW220881   5.208   3.434   6.819  1.5380 -0.7091 -0.1905
 6776SOL     OW20882   6.487   0.437   3.795  0.2960 -0.4806 -0.0278
 6776SOL    HW120883   6.551   0.505   3.772 -1.1045  1.0318  0.3980
 6776SOL    HW220884   6.478   0.444   3.890 -0.2005 -0.9860 -0.0356
 6777SOL     OW20885   4.555   4.428   2.354  0.1042  0.4911  0.2947
 6777SOL    HW120886   4.624   4.363   2.367 -1.2688 -1.1177 -0.0516
 6777SOL    HW220887   4.494   4.413   2.426 -0.8813  0.5227 -0.5109
 6778SOL     OW20888   0.791   3.709   3.920  0.2007 -0.0190  0.4797
 6778SOL    HW120889   0.758   3.678   4.004 -0.4798 -0.9092 -0.0967
 6778SOL    HW220890   0.805   3.803   3.933 -0.2165 -0.0832  1.4776
 6779SOL     OW20891   6.735   1.183   5.548 -0.9042 -0.3631 -0.0691
 6779SOL    HW120892   6.752   1.177   5.642 -0.8245  1.0062  0.0128
 6779SOL    HW220893   6.640   1.192   5.540 -0.9280 -0.6420 -0.1453
 6780SOL     OW20894   5.569   4.537   2.806  0.3440 -0.1093  0.0467
 6780SOL    HW120895   5.503   4.536   2.736 -0.9120 -3.0893  1.0938
 6780SOL    HW220896   5.541   4.606   2.865  0.5208  1.3807 -1.5416
 6781SOL     OW20897   6.208   6.096   5.255  0.0930 -0.2408  0.1014
 6781SOL    HW120898   6.228   6.003   5.245  0.1990 -0.2349  0.2539
 6781SOL    HW220899   6.291   6.140   5.233  0.2571 -0.2146  0.7532
 6782SOL     OW20900   6.636   0.910   7.388 -0.1301 -0.0316  0.0061
 6782SOL    HW120901   6.728   0.935   7.401  0.3125 -1.2991 -0.4991
 6782SOL    HW220902   6.611   0.869   7.471 -0.0025 -0.3430 -0.1065
 6783SOL     OW20903   0.930   6.642   6.544 -0.5490  0.4610 -0.2132
 6783SOL    HW120904   0.945   6.683   6.629  0.3636 -0.5705  0.1589
 6783SOL    HW220905   0.921   6.715   6.483 -1.6897  1.2309  0.8279
 6784SOL     OW20906   1.038   6.155   2.404 -0.3958 -0.5846  0.2642
 6784SOL    HW120907   0.978   6.192   2.468  1.2196  1.0159  0.9251
 6784SOL    HW220908   1.022   6.060   2.409 -0.8337 -0.4479  2.5091
 6785SOL     OW20909   3.500   3.650   2.534 -1.1475  0.0790 -0.0224
 6785SOL    HW120910   3.477   3.740   2.558 -1.5250 -0.2706  0.9866
 6785SOL    HW220911   3.595   3.652   2.524 -0.7687  0.0118  2.7978
 6786SOL     OW20912   4.346   3.420   0.408  0.3024 -0.1616  0.1698
 6786SOL    HW120913   4.273   3.359   0.396  1.3614 -1.5336  0.4993
 6786SOL    HW220914   4.308   3.493   0.457 -1.3133  0.1104 -1.4118
 6787SOL     OW20915   2.135   6.833   6.536  0.6902  0.1378 -0.2202
 6787SOL    HW120916   2.040   6.831   6.532  0.7321 -0.4217 -1.7208
 6787SOL    HW220917   2.155   6.847   6.628 -0.8411  0.7768  0.0450
 6788SOL     OW20918   4.611   4.433   3.759 -0.4210 -0.7522  0.1376
 6788SOL    HW120919   4.578   4.522   3.749  0.3139 -0.6741 -2.2121
 6788SOL    HW220920   4.650   4.431   3.847 -0.8845  1.0820  0.4076
 6789SOL     OW20921   3.730   7.320   0.691  0.2371 -0.3109  0.0573
 6789SOL    HW120922   3.723   7.310   0.596 -0.2870 -0.9456  0.1570
 6789SOL    HW220923   3.694   7.407   0.708 -0.7475 -0.6540 -0.2138
 6790SOL     OW20924   4.303   4.205   0.707  0.3893  0.0775  0.4984
 6790SOL    HW120925   4.220   4.233   0.667 -0.3882 -3.6473 -0.8958
 6790SOL    HW220926   4.370   4.238   0.648 -0.5019 -1.4198 -1.4675
 6791SOL     OW20927   7.259   0.659   0.897 -0.0835 -0.1101  0.0851
 6791SOL    HW120928   7.275   0.653   0.991 -1.6468 -2.5727  0.2872
 6791SOL    HW220929   7.300   0.581   0.861 -0.7754  0.0314 -1.0538
 6792SOL     OW20930   5.012   5.052   0.017  0.2720 -0.1844 -0.1276
 6792SOL    HW120931   4.981   5.106   0.089  2.0068 -0.6868  1.0805
 6792SOL    HW220932   5.064   5.111  -0.037  0.0737 -0.1033 -0.2317
 6793SOL     OW20933   1.163   6.063   6.008  0.4489  0.0863 -0.2939
 6793SOL    HW120934   1.149   6.100   6.095 -0.5359  0.7907 -0.7257
 6793SOL    HW220935   1.078   6.028   5.983  0.2256  1.5069 -1.6884
 6794SOL     OW20936   7.275   3.127   1.390 -0.0368 -0.0061  0.1739
 6794SOL    HW120937   7.341   3.174   1.340 -0.6283 -0.9024 -1.5187
 6794SOL    HW220938   7.225   3.195   1.435 -0.1335  0.9259 -1.2782
 6795SOL     OW20939   2.761   3.188   4.893 -0.3772 -1.0609 -0.1073
 6795SOL    HW120940   2.803   3.241   4.961 -0.0490  0.4421 -1.4134
 6795SOL    HW220941   2.828   3.124   4.868  0.3289 -0.2008 -0.5157
 6796SOL     OW20942   6.026   4.005   4.409  0.2759  0.1486  0.0055
 6796SOL    HW120943   5.955   4.013   4.345 -0.2150  1.9746  0.7077
 6796SOL    HW220944   6.076   3.929   4.380 -1.3435 -0.5417 -1.1210
 6797SOL     OW20945   1.560   4.453   0.165 -0.3130 -0.7645  0.2292
 6797SOL    HW120946   1.467   4.474   0.160 -0.1470  0.4740  1.5218
 6797SOL    HW220947   1.565   4.359   0.146 -1.8901 -0.9734  0.6764
 6798SOL     OW20948   3.934   0.430   4.204 -0.5561 -0.4466  0.7211
 6798SOL    HW120949   3.995   0.385   4.263 -1.2451 -1.0114  1.0202
 6798SOL    HW220950   3.938   0.522   4.231  1.2019 -0.2259 -0.1830
 6799SOL     OW20951   2.468   5.573   4.755  0.1113  0.1695  0.1218
 6799SOL    HW120952   2.391   5.625   4.777  1.2899  2.1317 -0.2430
 6799SOL    HW220953   2.431   5.489   4.726 -1.9792  1.3772 -1.0333
 6800SOL     OW20954   5.267   0.733   6.540  0.3543 -0.1021 -0.2066
 6800SOL    HW120955   5.314   0.653   6.514 -0.4992 -0.5617 -0.3611
 6800SOL    HW220956   5.238   0.715   6.630  1.0657  0.4664  0.1548
 6801SOL     OW20957   7.549   0.553   3.017 -0.0732 -0.3397  0.3264
 6801SOL    HW120958   7.616   0.488   3.039 -1.0713 -1.1420  1.0734
 6801SOL    HW220959   7.498   0.564   3.097 -1.4276 -0.4516 -0.4928
 6802SOL     OW20960   4.878   6.042   0.912 -0.5482  0.5296  0.4805
 6802SOL    HW120961   4.898   6.112   0.974  2.3294  0.4850 -0.2411
 6802SOL    HW220962   4.873   5.963   0.966  1.8951  0.4971  0.8040
 6803SOL     OW20963   7.252   1.071   0.370 -0.0773 -0.5196 -0.3348
 6803SOL    HW120964   7.328   1.050   0.317  0.2620 -0.0829 -0.0327
 6803SOL    HW220965   7.202   0.989   0.374 -0.4696 -0.3885 -1.8815
 6804SOL     OW20966   3.071   3.577   6.705  0.1152  0.1412 -0.1331
 6804SOL    HW120967   2.984   3.564   6.668  0.0998 -0.0448 -0.0324
 6804SOL    HW220968   3.078   3.672   6.716 -1.0101  0.0281  2.1111
 6805SOL     OW20969   4.181   0.021   2.685 -0.0222  0.0946 -0.0578
 6805SOL    HW120970   4.130   0.046   2.762  1.9834  1.9250  0.7925
 6805SOL    HW220971   4.272   0.020   2.716  1.1859  3.2154 -2.7984
 6806SOL     OW20972   4.584   6.813   0.133 -0.2875 -0.3533 -0.3315
 6806SOL    HW120973   4.618   6.756   0.202 -1.4028 -1.0222 -0.3132
 6806SOL    HW220974   4.662   6.851   0.093  0.3991 -0.0833  1.1780
 6807SOL     OW20975   5.134   3.965   1.337  0.0182  0.4160  0.4472
 6807SOL    HW120976   5.102   3.876   1.321 -1.1684  0.5575  1.7864
 6807SOL    HW220977   5.216   3.953   1.384  0.2706  0.0346 -0.0832
 6808SOL     OW20978   0.962   0.426   3.321  0.0613  0.5191  0.4735
 6808SOL    HW120979   0.885   0.478   3.344  0.7172  1.1589  1.2771
 6808SOL    HW220980   0.963   0.354   3.384 -1.2048 -0.8895 -1.0337
 6809SOL     OW20981   4.191   0.832   4.349  0.1244  0.4486 -0.1335
 6809SOL    HW120982   4.168   0.925   4.347  0.9202  0.6467 -0.2171
 6809SOL    HW220983   4.229   0.815   4.263 -1.0936 -0.2490 -0.5687
 6810SOL     OW20984   7.479   0.642   4.617  0.0994 -0.3875 -0.4625
 6810SOL    HW120985   7.452   0.728   4.583 -1.9402 -1.0269 -0.6339
 6810SOL    HW220986   7.490   0.588   4.539 -1.4527 -1.0063 -0.2953
 6811SOL     OW20987   0.543   3.473   2.392  0.3103 -0.1454 -0.2744
 6811SOL    HW120988   0.594   3.436   2.464  0.1841  3.4453  1.9328
 6811SOL    HW220989   0.455   3.484   2.429 -0.2411  0.0942 -1.6274
 6812SOL     OW20990   0.094   3.003   1.649 -0.2389  0.7700 -0.3450
 6812SOL    HW120991   0.120   2.950   1.573 -0.7686  0.3469 -0.2445
 6812SOL    HW220992   0.176   3.031   1.689  0.0557 -0.0451 -0.3617
 6813SOL     OW20993   0.441   3.385   2.790  0.0948  0.0378  0.1596
 6813SOL    HW120994   0.465   3.329   2.716  0.8460  0.3405  0.1582
 6813SOL    HW220995   0.468   3.473   2.763 -0.2926  0.2668  0.5039
 6814SOL     OW20996   4.925   5.407   4.561  0.2426 -0.1077  0.3167
 6814SOL    HW120997   4.873   5.476   4.520 -0.1194 -0.7459 -0.3400
 6814SOL    HW220998   5.016   5.435   4.549  0.0914  0.3655  0.2575
 6815SOL     OW20999   4.420   3.487   7.429  0.4619  0.4897  0.0263
 6815SOL    HW121000   4.494   3.429   7.414 -0.7190 -0.9237 -0.5743
 6815SOL    HW221001   4.401   3.479   7.522  0.7494  0.4713  0.0834
 6816SOL     OW21002   0.345   5.646   6.329  0.2717 -0.0679  0.2438
 6816SOL    HW121003   0.346   5.677   6.238  1.4103  0.0594  0.2840
 6816SOL    HW221004   0.273   5.694   6.370 -0.2466 -0.1180 -0.5844
 6817SOL     OW21005   7.142   1.784   2.893  0.1434  0.2810  0.1976
 6817SOL    HW121006   7.069   1.846   2.894  0.0707  0.2245 -0.8005
 6817SOL    HW221007   7.218   1.837   2.867  0.4152  0.2839  0.9700
 6818SOL     OW21008   3.059   1.189   5.843 -0.4138  0.3373 -0.0976
 6818SOL    HW121009   3.056   1.285   5.848  0.5484  0.3572  0.4436
 6818SOL    HW221010   2.994   1.166   5.777 -1.2434  1.3094  0.3457
 6819SOL     OW21011   3.228   3.008   6.334  0.5571 -0.1156  0.4786
 6819SOL    HW121012   3.162   3.056   6.384  0.8372 -0.8129  1.5497
 6819SOL    HW221013   3.286   3.076   6.300 -2.0280  0.7729 -2.6346
 6820SOL     OW21014   7.317   0.505   2.404 -0.5856 -0.1580  0.6612
 6820SOL    HW121015   7.271   0.577   2.446  1.6659  0.9149  1.4613
 6820SOL    HW221016   7.381   0.476   2.469 -0.3701 -1.8366 -0.2386
 6821SOL     OW21017   5.067   7.095   3.644  0.4737  0.8651  0.3110
 6821SOL    HW121018   5.074   7.016   3.590 -1.2872  0.8948 -0.0042
 6821SOL    HW221019   4.981   7.090   3.684  1.0823  1.7083  1.7983
 6822SOL     OW21020   6.221   0.375   6.804  0.2646 -0.6164 -0.1008
 6822SOL    HW121021   6.269   0.292   6.814 -0.0397 -0.8246 -0.3639
 6822SOL    HW221022   6.246   0.407   6.717  0.0180 -0.6691 -0.1927
 6823SOL     OW21023   5.909   5.874   5.488  0.1549  0.3728  0.3555
 6823SOL    HW121024   5.984   5.852   5.543 -0.1641 -0.8590  0.3362
 6823SOL    HW221025   5.871   5.952   5.529  0.6171  0.1752  1.1890
 6824SOL     OW21026   0.455   7.094   5.603 -0.1597 -0.4212  0.6259
 6824SOL    HW121027   0.403   7.013   5.612  0.0652 -0.6617 -0.1696
 6824SOL    HW221028   0.394   7.164   5.626 -0.5854 -0.7666  0.5753
 6825SOL     OW21029   2.268   6.275   3.313 -0.1684 -0.7123 -0.0650
 6825SOL    HW121030   2.237   6.234   3.232  1.0734 -1.9759  0.0417
 6825SOL    HW221031   2.194   6.269   3.373 -1.0428  0.0597 -1.0277
 6826SOL     OW21032   6.360   5.140   4.824 -0.0404 -0.7835 -0.0953
 6826SOL    HW121033   6.450   5.157   4.797 -0.6068  0.9698 -1.1317
 6826SOL    HW221034   6.366   5.074   4.892  2.0726 -0.2166  0.3204
 6827SOL     OW21035   0.308   1.838   5.325  0.0087 -0.0803  0.1952
 6827SOL    HW121036   0.321   1.744   5.335  1.4091  0.0792  0.0530
 6827SOL    HW221037   0.376   1.866   5.263  0.1070  1.1486  0.8223
 6828SOL     OW21038   3.141   6.455   2.029 -0.2430  0.4547 -0.2581
 6828SOL    HW121039   3.178   6.541   2.011  0.4593  0.4316  0.9345
 6828SOL    HW221040   3.200   6.417   2.094  0.2277 -1.4748 -1.7301
 6829SOL     OW21041   7.201   1.624   7.516  0.1405  0.0000  0.4126
 6829SOL    HW121042   7.262   1.622   7.589  1.2380  0.4996 -0.4634
 6829SOL    HW221043   7.170   1.715   7.514  0.0409 -0.0360  0.3097
 6830SOL     OW21044   5.819   5.574   7.419 -0.8332 -0.2298 -0.3165
 6830SOL    HW121045   5.888   5.634   7.447 -0.2614 -1.1224  0.2550
 6830SOL    HW221046   5.743   5.598   7.471 -0.3289 -0.6116  0.6289
 6831SOL     OW21047   4.862   5.144   5.301  0.7171 -0.0458 -0.1649
 6831SOL    HW121048   4.886   5.137   5.209 -0.1607 -2.7626 -0.2843
 6831SOL    HW221049   4.798   5.216   5.304 -0.3961 -0.8929 -1.9798
 6832SOL     OW21050   5.553   4.783   2.291  0.4808 -0.3772 -0.5116
 6832SOL    HW121051   5.487   4.727   2.251 -0.8948  0.8573 -0.0726
 6832SOL    HW221052   5.554   4.757   2.383 -0.4415  0.5197 -0.2237
 6833SOL     OW21053   5.688   3.272   0.623  0.1227 -0.5716 -0.3841
 6833SOL    HW121054   5.599   3.241   0.609  0.0109 -0.4864  0.1295
 6833SOL    HW221055   5.743   3.212   0.573 -0.1915 -0.8269 -0.4231
 6834SOL     OW21056   3.990   3.919   3.314  0.0427 -0.0635 -0.2057
 6834SOL    HW121057   3.987   3.836   3.268 -0.3081  0.9913 -2.2016
 6834SOL    HW221058   4.053   3.972   3.265 -1.7702  1.7561 -0.7215
 6835SOL     OW21059   1.452   6.385   2.597 -0.0679 -0.0231 -0.6239
 6835SOL    HW121060   1.388   6.320   2.569  1.4986 -1.7378 -0.4154
 6835SOL    HW221061   1.470   6.364   2.689 -2.8030  3.5665  0.9683
 6836SOL     OW21062   1.793   0.000   3.464 -0.7105  1.2186 -0.3756
 6836SOL    HW121063   1.698   0.009   3.469 -0.7390  0.3491  1.5996
 6836SOL    HW221064   1.810  -0.031   3.375 -2.5210 -1.0079 -0.0345
 6837SOL     OW21065   1.233   0.533   6.516  0.0349 -0.0822  0.0855
 6837SOL    HW121066   1.139   0.524   6.534 -0.5101  2.9457 -0.6096
 6837SOL    HW221067   1.270   0.566   6.597  0.0672  0.7981 -0.2768
 6838SOL     OW21068   2.821   5.490   5.456 -0.0528 -0.4571  0.2278
 6838SOL    HW121069   2.850   5.455   5.540 -0.0387  0.2873  0.5463
 6838SOL    HW221070   2.726   5.489   5.462 -0.0625 -0.9341  0.0227
 6839SOL     OW21071   4.087   0.911   3.962  0.1902 -0.0548  0.6251
 6839SOL    HW121072   4.029   0.987   3.974  1.7841  1.1192  1.3361
 6839SOL    HW221073   4.075   0.886   3.871 -0.8907  0.5996  0.5587
 6840SOL     OW21074   6.773   1.631   4.773 -0.4953  0.2021 -0.1064
 6840SOL    HW121075   6.837   1.695   4.741  1.7165 -1.3834  0.8513
 6840SOL    HW221076   6.779   1.558   4.712  0.6953 -1.0933  1.4731
 6841SOL     OW21077   5.663   4.868   6.318 -0.2211  0.2569 -0.0104
 6841SOL    HW121078   5.737   4.904   6.366 -0.3632 -0.6201  0.9032
 6841SOL    HW221079   5.702   4.808   6.255 -0.1526 -0.4624  0.6985
 6842SOL     OW21080   3.739   5.967   4.058 -0.1170  0.4498 -0.7965
 6842SOL    HW121081   3.662   6.013   4.091 -0.7187 -2.5442  2.5993
 6842SOL    HW221082   3.814   6.019   4.088 -0.7815  1.3614 -0.6979
 6843SOL     OW21083   1.881   6.199   1.283 -0.4744 -0.0564 -0.8003
 6843SOL    HW121084   1.834   6.282   1.290  1.3632  0.9613  0.2296
 6843SOL    HW221085   1.860   6.167   1.195 -1.5558  1.2870 -1.0697
 6844SOL     OW21086   7.386   3.658   3.141 -0.7617  0.2154 -0.0372
 6844SOL    HW121087   7.321   3.589   3.150 -0.0180 -0.4154  0.6703
 6844SOL    HW221088   7.440   3.632   3.066 -0.8176  0.3171 -0.1138
 6845SOL     OW21089   2.149   6.666   6.284 -0.1569  0.3531  0.5824
 6845SOL    HW121090   2.130   6.757   6.263  1.6041  0.4366 -0.9253
 6845SOL    HW221091   2.149   6.663   6.380  0.1461  2.0231  0.6633
 6846SOL     OW21092   1.427   0.312   6.620 -0.1366 -0.2657  0.5635
 6846SOL    HW121093   1.427   0.319   6.525  0.6157 -0.2216  0.5660
 6846SOL    HW221094   1.390   0.395   6.650  1.1879  0.4304  0.3505
 6847SOL     OW21095   5.684   2.098   7.026 -0.0152  0.2256 -0.1519
 6847SOL    HW121096   5.640   2.183   7.017  0.9081  0.7296 -0.0262
 6847SOL    HW221097   5.706   2.073   6.936 -1.0918 -0.3378 -0.2810
 6848SOL     OW21098   2.070   7.262   1.039  0.4424 -0.1854 -0.2475
 6848SOL    HW121099   2.047   7.242   0.948 -0.0999  0.3547 -0.2341
 6848SOL    HW221100   1.991   7.243   1.089 -0.5706  3.0220 -0.3840
 6849SOL     OW21101   4.983   2.003   0.245  0.1713  0.3265 -0.9461
 6849SOL    HW121102   5.042   2.073   0.217  0.0876  1.7082  1.9647
 6849SOL    HW221103   4.899   2.024   0.204  0.2473  1.7330 -0.4105
 6850SOL     OW21104   3.751   3.047   0.708 -0.2692 -0.7792  0.5352
 6850SOL    HW121105   3.723   3.138   0.708 -0.7559 -0.9188  1.6159
 6850SOL    HW221106   3.761   3.024   0.800 -0.4336 -1.9064  0.2927
 6851SOL     OW21107   2.489   7.109   1.368 -0.1791  0.0140  0.5527
 6851SOL    HW121108   2.577   7.077   1.349 -0.1968 -0.4475  1.2085
 6851SOL    HW221109   2.494   7.203   1.352 -0.6185 -0.4622 -3.2440
 6852SOL     OW21110   0.107   3.027   5.166  0.0576  0.2254  0.3894
 6852SOL    HW121111   0.195   3.021   5.203  0.6228 -0.3670 -0.9545
 6852SOL    HW221112   0.053   2.975   5.225  0.6793  0.3178  1.0515
 6853SOL     OW21113   7.566   5.156   1.159 -0.1437  0.0940  0.0289
 6853SOL    HW121114   7.575   5.203   1.076  1.1290  0.0861  0.1440
 6853SOL    HW221115   7.492   5.096   1.144 -2.0084  2.2505 -0.0298
 6854SOL     OW21116   1.185   4.069   6.671  0.1474  0.2408 -0.1386
 6854SOL    HW121117   1.175   4.138   6.737 -2.8204 -1.6125  1.5883
 6854SOL    HW221118   1.261   4.019   6.699 -0.2972  0.2625  1.1656
 6855SOL     OW21119   5.207   2.464   6.856  0.2428  0.2883  0.5254
 6855SOL    HW121120   5.219   2.391   6.795 -1.4951  0.6827 -0.3480
 6855SOL    HW221121   5.244   2.540   6.810 -0.9207  0.5541 -0.0163
 6856SOL     OW21122   1.182   2.659   7.538  0.9639  0.6547 -0.0802
 6856SOL    HW121123   1.145   2.739   7.502 -0.2344 -0.3446 -1.1720
 6856SOL    HW221124   1.239   2.625   7.468  0.4866 -0.0782 -0.1269
 6857SOL     OW21125   5.324   1.816   1.477  0.2238  0.3031 -0.6970
 6857SOL    HW121126   5.371   1.757   1.418 -0.6234 -0.2897 -0.8052
 6857SOL    HW221127   5.240   1.830   1.434 -0.2797  0.1193  0.2107
 6858SOL     OW21128   4.426   1.543   0.986 -0.2879 -0.2250 -0.1628
 6858SOL    HW121129   4.466   1.468   0.941  1.2010  0.4921 -0.1093
 6858SOL    HW221130   4.388   1.596   0.916 -1.8596 -1.2845 -0.1524
 6859SOL     OW21131   7.374   7.079   3.089 -0.0671  0.2313  0.4091
 6859SOL    HW121132   7.359   7.158   3.037 -0.2963  1.2911  2.0225
 6859SOL    HW221133   7.367   7.108   3.180 -0.2221 -1.6635  1.0488
 6860SOL     OW21134   0.593   1.853   6.379  0.0384 -0.3493  0.4553
 6860SOL    HW121135   0.567   1.824   6.467 -1.2699 -0.2757  0.1070
 6860SOL    HW221136   0.513   1.891   6.342  0.9457  0.9689 -0.2210
 6861SOL     OW21137   6.322   0.549   0.657  0.5517 -0.3851 -0.3280
 6861SOL    HW121138   6.412   0.519   0.674  1.1198  0.6776 -1.2700
 6861SOL    HW221139   6.316   0.633   0.704 -0.1817 -0.7803  0.2854
 6862SOL     OW21140   3.897   0.994   2.153  0.2313  0.1248  0.2350
 6862SOL    HW121141   3.822   0.953   2.112 -0.2873  1.4479 -0.2018
 6862SOL    HW221142   3.910   0.945   2.234 -0.6839 -0.5494 -0.0116
 6863SOL     OW21143   0.773   0.491   3.775  0.3737 -0.3233 -0.0060
 6863SOL    HW121144   0.794   0.554   3.844 -2.5538  0.1419  0.5799
 6863SOL    HW221145   0.679   0.497   3.765  0.0342 -4.0898 -0.4763
 6864SOL     OW21146   0.892   5.270   7.148  0.4709 -0.4829  0.1759
 6864SOL    HW121147   0.833   5.296   7.078  0.6133 -0.3313  0.1138
 6864SOL    HW221148   0.976   5.256   7.105  0.5842 -0.2861  0.3318
 6865SOL     OW21149   4.590   5.059   4.538  0.2793  0.4240  0.1331
 6865SOL    HW121150   4.619   5.140   4.579  0.0543  0.5431  0.0583
 6865SOL    HW221151   4.603   4.992   4.605 -0.1312  0.6250  0.4194
 6866SOL     OW21152   1.483   6.625   3.473 -0.2494  0.1580 -0.3152
 6866SOL    HW121153   1.571   6.647   3.443 -0.6522  0.5238 -1.2577
 6866SOL    HW221154   1.491   6.621   3.569  0.3570  2.2661 -0.2170
 6867SOL     OW21155   0.917   6.154   5.368 -0.8214 -0.2571 -0.3919
 6867SOL    HW121156   0.983   6.216   5.336  0.9452 -1.1725  1.2689
 6867SOL    HW221157   0.928   6.076   5.315 -0.5128 -0.4291 -0.0795
 6868SOL     OW21158   2.661   4.805   2.236 -0.3818  0.1839 -0.6482
 6868SOL    HW121159   2.604   4.851   2.174 -0.9955 -0.4598 -0.5830
 6868SOL    HW221160   2.623   4.717   2.242  0.3900 -0.1315 -0.2886
 6869SOL     OW21161   3.131   0.904   6.828 -0.0984  0.0163 -0.2943
 6869SOL    HW121162   3.184   0.868   6.899  0.2045 -0.6050 -0.8191
 6869SOL    HW221163   3.064   0.837   6.812 -0.3272  0.2727 -0.4139
 6870SOL     OW21164   4.032   0.907   3.700 -0.2338 -0.2837  0.5007
 6870SOL    HW121165   4.116   0.952   3.687 -0.3508  0.0885  1.0036
 6870SOL    HW221166   3.967   0.977   3.693 -0.5313 -0.6190 -0.1892
 6871SOL     OW21167   1.327   6.403   1.944 -0.6100  0.4138 -0.3709
 6871SOL    HW121168   1.296   6.394   2.034 -1.4571  1.2800 -0.5704
 6871SOL    HW221169   1.254   6.374   1.890 -0.5173  0.9873 -0.8105
 6872SOL     OW21170   6.672   3.325   3.223 -0.0771 -0.5307 -0.3994
 6872SOL    HW121171   6.715   3.403   3.256 -0.9156  0.6541 -1.9584
 6872SOL    HW221172   6.628   3.354   3.143 -0.0101 -2.7027 -1.3046
 6873SOL     OW21173   3.000   2.597   6.925 -0.1702 -0.4463  0.1979
 6873SOL    HW121174   2.919   2.554   6.951 -1.0370  1.3763  0.7119
 6873SOL    HW221175   2.971   2.670   6.869  0.7798  1.9284  2.5693
 6874SOL     OW21176   3.497   5.635   7.053 -0.3414 -0.0724  0.0476
 6874SOL    HW121177   3.485   5.644   7.148 -0.0238 -1.9577  0.3063
 6874SOL    HW221178   3.428   5.574   7.026 -0.0566 -0.0082 -0.8433
 6875SOL     OW21179   6.018   0.286   7.101 -0.1611 -0.2130 -0.1034
 6875SOL    HW121180   6.088   0.247   7.153  1.6877 -0.2589 -2.4934
 6875SOL    HW221181   5.967   0.211   7.069  0.5128 -0.3932 -0.7786
 6876SOL     OW21182   3.665   3.957   6.091 -0.0141  0.3844 -0.5766
 6876SOL    HW121183   3.729   4.025   6.071 -0.6945  0.5881 -2.2246
 6876SOL    HW221184   3.588   4.004   6.122 -1.2164  0.6449 -3.5978
 6877SOL     OW21185   1.100   3.814   1.377 -0.0343 -0.1621 -0.1934
 6877SOL    HW121186   1.022   3.870   1.375  2.3698  3.5952  0.4005
 6877SOL    HW221187   1.133   3.822   1.467  1.0117 -1.7335 -0.3952
 6878SOL     OW21188   3.034   6.002   6.137 -0.2763 -0.1801  0.0443
 6878SOL    HW121189   2.971   6.071   6.115  1.5143  1.5561 -0.0106
 6878SOL    HW221190   3.003   5.967   6.221 -1.9352 -0.2331 -0.5593
 6879SOL     OW21191   2.605   7.741   1.380 -0.1076  0.3738  0.2954
 6879SOL    HW121192   2.588   7.686   1.304  0.0410  0.0992  0.4567
 6879SOL    HW221193   2.663   7.688   1.435  0.1454  0.7454  0.3905
 6880SOL     OW21194   1.635   3.709   6.238 -0.1403  0.6352  0.1624
 6880SOL    HW121195   1.561   3.667   6.194  0.3191 -0.3973  0.3461
 6880SOL    HW221196   1.616   3.802   6.233 -2.0150  0.3465  1.2121
 6881SOL     OW21197   5.636   2.451   2.247  0.5234  0.3876 -0.1691
 6881SOL    HW121198   5.627   2.379   2.309  1.2356 -0.0687 -0.5758
 6881SOL    HW221199   5.680   2.411   2.171  0.4448  1.1286 -0.6121
 6882SOL     OW21200   4.824   5.848   7.491 -0.0661  0.7490  0.5374
 6882SOL    HW121201   4.879   5.821   7.564 -0.7136  0.1447  0.8169
 6882SOL    HW221202   4.755   5.900   7.530 -0.8878 -0.2729  0.4770
 6883SOL     OW21203   3.617   2.353   3.206  0.8910  0.4009 -0.0818
 6883SOL    HW121204   3.690   2.313   3.159  0.1779  0.3700 -1.2176
 6883SOL    HW221205   3.658   2.412   3.269  1.8999 -0.1274 -0.2203
 6884SOL     OW21206   3.197   4.653   1.264 -0.7185 -0.1157 -0.3141
 6884SOL    HW121207   3.292   4.667   1.263 -0.5323 -1.3093 -0.6587
 6884SOL    HW221208   3.178   4.628   1.355 -0.4858 -1.1864 -0.5485
 6885SOL     OW21209   7.148   2.601   6.744  0.0466 -0.5275 -0.3869
 6885SOL    HW121210   7.088   2.528   6.732  1.5956 -1.5813 -2.5407
 6885SOL    HW221211   7.146   2.620   6.837 -2.1677 -1.7513 -0.1327
 6886SOL     OW21212   1.728   0.106   1.362 -0.3477 -0.0201  0.1773
 6886SOL    HW121213   1.700   0.197   1.366 -1.8082 -0.4382  0.1673
 6886SOL    HW221214   1.787   0.102   1.287  1.4663  1.3273  1.4717
 6887SOL     OW21215   0.561   4.521   5.483  0.1829  0.3766 -0.1784
 6887SOL    HW121216   0.476   4.476   5.481  0.5816 -0.8704  3.5282
 6887SOL    HW221217   0.539   4.613   5.491 -0.8242  0.1203  0.1695
 6888SOL     OW21218   2.518   3.762   0.703 -0.2333  0.3055 -0.1281
 6888SOL    HW121219   2.438   3.754   0.756 -0.0484 -0.1154  0.0909
 6888SOL    HW221220   2.486   3.776   0.614 -0.5483  2.0575  0.2312
 6889SOL     OW21221   1.473   0.281   5.400  0.9822  0.8864 -0.0903
 6889SOL    HW121222   1.542   0.260   5.462 -0.5934 -1.3814  1.0248
 6889SOL    HW221223   1.434   0.197   5.377 -2.5868  2.0704  0.8314
 6890SOL     OW21224   6.401   2.621   1.343  0.3211  0.0093 -0.1333
 6890SOL    HW121225   6.311   2.609   1.373  1.2067 -1.5411  2.2061
 6890SOL    HW221226   6.395   2.622   1.247 -2.2905  1.3559 -0.0113
 6891SOL     OW21227   4.598   3.226   4.767 -0.3164  0.2031  0.2948
 6891SOL    HW121228   4.613   3.253   4.677 -1.2464  2.6801  0.7874
 6891SOL    HW221229   4.508   3.192   4.767  0.1445 -1.0631  0.0679
 6892SOL     OW21230   1.415   1.519   2.813 -0.7797  0.2415  0.2299
 6892SOL    HW121231   1.490   1.475   2.772 -1.5941 -0.1708 -0.8993
 6892SOL    HW221232   1.415   1.607   2.775 -1.6493 -0.2024 -0.8809
 6893SOL     OW21233   7.716   7.658   6.505  0.0161 -0.2581  0.3239
 6893SOL    HW121234   7.704   7.565   6.522 -1.9633 -0.2211 -0.6138
 6893SOL    HW221235   7.674   7.701   6.579  2.4131 -0.0229  1.6691
 6894SOL     OW21236   0.424   7.505   7.130 -0.0340  0.0538  0.1199
 6894SOL    HW121237   0.453   7.418   7.155  0.0611  0.0827  0.1099
 6894SOL    HW221238   0.498   7.543   7.083  0.2538  0.4762  0.9084
 6895SOL     OW21239   4.592   1.921   0.709  0.2537  0.2982  0.1216
 6895SOL    HW121240   4.597   1.964   0.624  0.0024 -3.2973 -1.8881
 6895SOL    HW221241   4.682   1.901   0.733  0.1917 -2.4601 -1.5466
 6896SOL     OW21242   5.336   6.242   3.688 -0.1605 -0.3266  0.0679
 6896SOL    HW121243   5.363   6.217   3.776  0.5123  1.3360  0.3676
 6896SOL    HW221244   5.247   6.210   3.680 -0.6286  0.4557  1.7746
 6897SOL     OW21245   1.341   4.984   1.604  0.2128  0.0201 -0.4369
 6897SOL    HW121246   1.357   4.972   1.698 -2.4908 -0.4253  0.0478
 6897SOL    HW221247   1.322   4.895   1.572 -1.1577  0.4481 -0.8754
 6898SOL     OW21248   7.067   7.323   7.144 -0.1613 -0.4884 -0.3012
 6898SOL    HW121249   7.124   7.400   7.135 -0.4155 -0.4437 -1.7539
 6898SOL    HW221250   7.127   7.252   7.166  0.1775 -0.0287  0.2915
 6899SOL     OW21251   0.300   6.599   6.904 -0.5412 -0.3292 -0.0985
 6899SOL    HW121252   0.377   6.635   6.950 -0.9842 -0.9816  1.1808
 6899SOL    HW221253   0.268   6.672   6.851 -0.4258  0.6823  1.1768
 6900SOL     OW21254   2.789   6.330   6.455 -0.2731  0.0363 -0.1120
 6900SOL    HW121255   2.704   6.349   6.415  0.1151  1.2559 -0.4108
 6900SOL    HW221256   2.788   6.379   6.537  0.2709  0.3732 -0.2963
 6901SOL     OW21257   1.242   0.015   0.370 -0.1203  0.1998 -0.3605
 6901SOL    HW121258   1.305   0.079   0.401  0.8956 -0.6175 -0.7042
 6901SOL    HW221259   1.169   0.068   0.337  0.1567  1.1397  0.4715
 6902SOL     OW21260   0.367   3.572   3.352  0.5950 -0.2150 -0.2999
 6902SOL    HW121261   0.342   3.569   3.445  1.9704 -0.1333  0.1058
 6902SOL    HW221262   0.307   3.512   3.309  0.9160 -1.4757  0.9234
 6903SOL     OW21263   2.804   7.461   6.065  0.3000  0.4544  0.3868
 6903SOL    HW121264   2.736   7.524   6.089 -0.0678 -0.1641  1.0175
 6903SOL    HW221265   2.775   7.425   5.981 -0.3004  0.0113  0.7719
 6904SOL     OW21266   0.257   5.684   5.383 -0.0518 -0.1299  0.5325
 6904SOL    HW121267   0.303   5.646   5.458  0.2262  1.7154  1.3465
 6904SOL    HW221268   0.203   5.612   5.350  0.4718 -1.2417  1.9608
 6905SOL     OW21269   6.248   0.145   2.394  0.9495  0.1462 -0.4177
 6905SOL    HW121270   6.325   0.133   2.450  0.6482  1.4758  0.3116
 6905SOL    HW221271   6.276   0.210   2.329  0.0117  1.8758  0.8113
 6906SOL     OW21272   1.632   2.246   6.370  0.2312 -0.5340 -0.0204
 6906SOL    HW121273   1.680   2.217   6.448  0.4661 -1.5306 -0.5220
 6906SOL    HW221274   1.554   2.191   6.368  1.0341 -1.6981 -1.3792
 6907SOL     OW21275   5.605   6.320   0.429 -0.3648 -0.3036 -0.1002
 6907SOL    HW121276   5.673   6.254   0.438 -1.0863 -1.2497 -1.3112
 6907SOL    HW221277   5.523   6.273   0.447 -0.6825  1.3273  3.9288
 6908SOL     OW21278   4.547   6.010   0.214 -0.0727  0.1191 -0.4536
 6908SOL    HW121279   4.498   6.006   0.297  0.6861  0.2100  0.0083
 6908SOL    HW221280   4.479   6.015   0.147 -0.6997  1.7781  0.2568
 6909SOL     OW21281   7.147   4.728   2.882 -0.1614  0.4458 -0.2686
 6909SOL    HW121282   7.056   4.739   2.911 -0.1373 -0.6964  0.3174
 6909SOL    HW221283   7.143   4.661   2.815  0.4012 -0.7101  0.8067
 6910SOL     OW21284   3.963   6.843   1.001  0.2086  0.6307  0.4879
 6910SOL    HW121285   3.890   6.884   0.954 -0.2369  1.1217  1.5856
 6910SOL    HW221286   3.929   6.827   1.089  0.5849 -1.5033  0.2988
 6911SOL     OW21287   7.697   0.281   7.135  0.3332  0.3003 -0.1381
 6911SOL    HW121288   7.722   0.351   7.075  0.8267  0.1857 -0.0726
 6911SOL    HW221289   7.623   0.317   7.184  0.7084  0.8561  0.0356
 6912SOL     OW21290   7.344   1.204   1.078 -0.5367 -0.0159  0.5889
 6912SOL    HW121291   7.255   1.239   1.067  0.3305  2.9241  1.9471
 6912SOL    HW221292   7.370   1.231   1.166  1.6148 -1.0790  0.3386
 6913SOL     OW21293   1.085   6.817   4.895  0.4449 -0.1713 -0.4010
 6913SOL    HW121294   1.015   6.822   4.829 -1.5362  1.0314  1.6555
 6913SOL    HW221295   1.057   6.750   4.956 -0.0458  1.7120  1.5763
 6914SOL     OW21296   2.913   0.197   4.608  0.5289 -0.3023  0.1493
 6914SOL    HW121297   2.968   0.121   4.594 -1.7193 -2.3375  1.5257
 6914SOL    HW221298   2.906   0.238   4.521  1.7972 -1.6602 -0.6330
 6915SOL     OW21299   0.037   3.658   3.214  0.0356  0.0501  0.4283
 6915SOL    HW121300   0.094   3.612   3.153  1.2550  0.1349  1.4583
 6915SOL    HW221301   0.041   3.605   3.294 -1.2498  0.1288  0.5669
 6916SOL     OW21302   4.427   4.452   7.588 -0.1494 -0.7454  0.2273
 6916SOL    HW121303   4.381   4.373   7.618  1.0530 -1.8380 -0.7174
 6916SOL    HW221304   4.365   4.523   7.605 -0.9900 -1.7770  1.7597
 6917SOL     OW21305   7.085   1.886   6.347  0.0795  0.0865 -0.0855
 6917SOL    HW121306   7.157   1.851   6.399  0.6411  1.3320  0.0048
 6917SOL    HW221307   7.050   1.810   6.301  0.2565 -0.8616  1.2694
 6918SOL     OW21308   0.718   4.716   4.130 -0.0485  0.2720 -0.1411
 6918SOL    HW121309   0.630   4.733   4.163  0.7860  1.7378  1.4937
 6918SOL    HW221310   0.713   4.630   4.090 -2.2128  0.3225 -0.0817
 6919SOL     OW21311   3.704   7.197   5.424 -0.7918  1.1000 -0.0866
 6919SOL    HW121312   3.636   7.245   5.376 -1.7133  1.3365  1.3645
 6919SOL    HW221313   3.668   7.188   5.512  0.0259 -0.9226  0.0935
 6920SOL     OW21314   1.845   5.387   2.182 -0.4693 -0.7180 -0.6996
 6920SOL    HW121315   1.789   5.367   2.257  1.6854 -1.9374  0.7125
 6920SOL    HW221316   1.821   5.323   2.115 -0.5643 -1.4306  0.0032
 6921SOL     OW21317   7.196   2.122   5.343  0.1616 -1.0472  0.3637
 6921SOL    HW121318   7.135   2.089   5.410 -0.4886  0.6454  0.6618
 6921SOL    HW221319   7.194   2.217   5.355  1.2252 -0.8268 -1.0694
 6922SOL     OW21320   1.768   3.947   4.673 -0.3703 -0.1761  0.2816
 6922SOL    HW121321   1.771   3.907   4.760  0.5515  0.0958  0.3834
 6922SOL    HW221322   1.701   4.014   4.680 -0.2377 -0.0928  0.8161
 6923SOL     OW21323   1.155   7.659   1.618  0.3260 -0.7071  0.0655
 6923SOL    HW121324   1.153   7.577   1.569 -1.8620 -1.0500  0.6206
 6923SOL    HW221325   1.063   7.680   1.634  0.8282  1.6061  0.3874
 6924SOL     OW21326   0.759   6.545   3.599 -0.3985 -0.0096  0.4363
 6924SOL    HW121327   0.853   6.543   3.580 -0.3799 -0.6091  0.5574
 6924SOL    HW221328   0.744   6.464   3.649 -1.2490 -0.7187 -0.9082
 6925SOL     OW21329   2.235   4.153   4.096  0.0871  0.3715 -0.0044
 6925SOL    HW121330   2.215   4.177   4.186 -2.8499 -0.3608 -0.3366
 6925SOL    HW221331   2.292   4.222   4.064 -1.9964  2.8447  1.2730
 6926SOL     OW21332   0.620   6.524   4.669  0.2169  0.3797  0.0967
 6926SOL    HW121333   0.599   6.433   4.646 -0.1349  0.5418 -0.2300
 6926SOL    HW221334   0.592   6.533   4.760  1.2012 -0.1370  0.4635
 6927SOL     OW21335   2.249   3.753   3.964  0.4652  0.1986  0.3800
 6927SOL    HW121336   2.172   3.774   3.911  0.0012  2.3100  1.7576
 6927SOL    HW221337   2.244   3.813   4.039  2.7401 -0.5370  1.2220
 6928SOL     OW21338   3.759   5.113   0.364 -0.3140 -0.2516  0.4346
 6928SOL    HW121339   3.733   5.035   0.315 -0.8499  0.9587 -1.3005
 6928SOL    HW221340   3.726   5.187   0.312  0.4576  1.1599  1.8415
 6929SOL     OW21341   6.736   7.664   1.578 -0.3699 -0.5663  0.1948
 6929SOL    HW121342   6.709   7.630   1.493 -1.7944  0.5587  0.1442
 6929SOL    HW221343   6.804   7.604   1.608 -0.9003 -1.8494 -1.0632
 6930SOL     OW21344   4.049   1.185   0.460 -0.1312  0.4008 -0.0996
 6930SOL    HW121345   4.073   1.162   0.370 -0.2314 -0.3671  0.0636
 6930SOL    HW221346   4.133   1.197   0.505  0.1177  5.1538 -1.2785
 6931SOL     OW21347   5.378   4.486   6.370 -0.1122 -0.2684 -0.6677
 6931SOL    HW121348   5.458   4.470   6.322  0.8642  1.3131  0.3134
 6931SOL    HW221349   5.349   4.573   6.341 -0.6482 -0.1963  0.0356
 6932SOL     OW21350   6.815   1.475   5.000 -0.3343  0.1639 -0.5541
 6932SOL    HW121351   6.784   1.384   5.004 -1.7790  0.6050 -0.9791
 6932SOL    HW221352   6.777   1.509   4.919  1.5553  0.6976 -1.2733
 6933SOL     OW21353   1.282   3.451   6.571  0.5976  0.1940  0.4579
 6933SOL    HW121354   1.348   3.492   6.628 -0.4048  2.5873  0.0318
 6933SOL    HW221355   1.202   3.499   6.590 -0.6787 -1.5955 -0.1831
 6934SOL     OW21356   4.145   2.440   4.375 -0.2693  0.0008 -0.5308
 6934SOL    HW121357   4.113   2.455   4.464  1.8809 -1.6837  0.6338
 6934SOL    HW221358   4.078   2.386   4.334 -0.0229 -1.5737  1.0493
 6935SOL     OW21359   1.222   7.065   2.937 -0.9839 -0.1221  0.0761
 6935SOL    HW121360   1.168   7.020   3.002 -1.5403  0.2219 -0.1416
 6935SOL    HW221361   1.288   7.000   2.912  0.7059  0.4343  2.6494
 6936SOL     OW21362   6.219   6.094   3.329 -0.2927  0.2360 -0.3552
 6936SOL    HW121363   6.143   6.151   3.337 -0.3445  0.3136 -1.3646
 6936SOL    HW221364   6.272   6.134   3.260  1.1449  0.7162  0.9527
 6937SOL     OW21365   6.410   5.597   2.565 -0.3762  0.4009  0.5222
 6937SOL    HW121366   6.373   5.682   2.587  1.6954  1.4557  0.1587
 6937SOL    HW221367   6.378   5.578   2.477 -1.8227  0.2012  1.0729
 6938SOL     OW21368   0.327   6.055   4.145 -0.4768  0.0527 -0.4124
 6938SOL    HW121369   0.260   6.067   4.077  1.9042 -0.5880 -3.0181
 6938SOL    HW221370   0.408   6.041   4.097  1.1609 -1.7034  2.5874
 6939SOL     OW21371   3.695   1.794   3.971 -0.3020 -0.4714 -0.8143
 6939SOL    HW121372   3.600   1.804   3.969 -0.3962 -0.8135  0.7902
 6939SOL    HW221373   3.711   1.736   4.045  1.1602 -0.4169 -1.0685
 6940SOL     OW21374   5.174   6.992   1.474 -0.4731  0.6220  0.4013
 6940SOL    HW121375   5.124   6.939   1.412 -1.2806 -0.7957  2.1618
 6940SOL    HW221376   5.156   7.082   1.447 -2.5602  0.1133 -0.1338
 6941SOL     OW21377   3.627   6.440   5.260  0.5257  0.6138  0.0056
 6941SOL    HW121378   3.593   6.526   5.236  0.7300  0.2828 -1.6271
 6941SOL    HW221379   3.630   6.392   5.177  0.3030 -1.0076  0.8972
 6942SOL     OW21380   0.485   0.051   1.022 -0.0568 -0.0150  0.1576
 6942SOL    HW121381   0.432   0.090   1.092  1.1973  2.5215 -0.1969
 6942SOL    HW221382   0.422   0.027   0.954 -1.1175 -0.9207  1.4145
 6943SOL     OW21383   0.743   6.757   3.302  0.4732  0.2519 -0.5310
 6943SOL    HW121384   0.815   6.758   3.239 -0.5380 -1.2647 -1.7826
 6943SOL    HW221385   0.715   6.665   3.306 -1.3894  0.7831 -0.1005
 6944SOL     OW21386   5.331   6.631   7.487  0.1393  0.2873  0.1663
 6944SOL    HW121387   5.323   6.723   7.461  2.1772  0.8197  1.2226
 6944SOL    HW221388   5.331   6.633   7.583  0.5541 -0.7801  0.2000
 6945SOL     OW21389   5.098   4.539   2.497 -0.2616 -0.1209  0.1330
 6945SOL    HW121390   5.078   4.450   2.527 -0.8707 -0.4405 -1.1546
 6945SOL    HW221391   5.081   4.594   2.572  1.6004 -1.2369  1.4608
 6946SOL     OW21392   6.681   4.502   2.131  0.2590 -0.6589  0.0682
 6946SOL    HW121393   6.759   4.551   2.157 -1.3089  1.9897  0.1618
 6946SOL    HW221394   6.695   4.480   2.039  1.0601 -0.1097  0.0541
 6947SOL     OW21395   2.411   1.089   4.069  0.2505  0.2923 -0.4754
 6947SOL    HW121396   2.319   1.094   4.045 -0.3421  1.3726  1.7590
 6947SOL    HW221397   2.411   1.093   4.165  2.6751  1.2995 -0.4491
 6948SOL     OW21398   3.314   7.692   2.388 -0.2337  0.2154 -0.2699
 6948SOL    HW121399   3.403   7.721   2.365 -1.0750  1.9568 -1.5471
 6948SOL    HW221400   3.313   7.598   2.368  1.8513 -0.2947  1.6004
 6949SOL     OW21401   3.263   2.243   1.989 -0.2621  0.2005 -0.4105
 6949SOL    HW121402   3.190   2.222   2.047 -1.0232  0.8046 -1.1347
 6949SOL    HW221403   3.264   2.173   1.924  0.1788 -0.1194 -0.0692
 6950SOL     OW21404   4.335   4.194   4.201  0.0420 -0.8178  0.2616
 6950SOL    HW121405   4.265   4.258   4.209 -0.3781 -1.2716  0.3081
 6950SOL    HW221406   4.291   4.109   4.210  0.7363 -1.0909  1.3566
 6951SOL     OW21407   6.074   6.989   1.317 -0.1726 -0.2209  0.0928
 6951SOL    HW121408   6.098   6.897   1.303  0.9623 -0.1590  1.3906
 6951SOL    HW221409   6.032   6.989   1.403  0.0923  0.5126  0.2263
 6952SOL     OW21410   1.201   5.365   1.980  0.4422  0.1099 -0.3858
 6952SOL    HW121411   1.252   5.320   1.912  0.7713 -0.0136 -0.0616
 6952SOL    HW221412   1.238   5.453   1.984  1.4070 -0.3098  0.6268
 6953SOL     OW21413   0.573   3.064   0.605 -0.3065 -0.2871 -0.1231
 6953SOL    HW121414   0.547   3.151   0.635  0.4821 -0.4379  1.0322
 6953SOL    HW221415   0.524   3.004   0.661  1.5042 -0.5704  1.2107
 6954SOL     OW21416   2.524   5.869   4.086  0.4308  0.3104 -0.6817
 6954SOL    HW121417   2.455   5.836   4.030 -0.5016 -1.3191  1.3004
 6954SOL    HW221418   2.605   5.838   4.046 -0.1484  0.0123 -1.6393
 6955SOL     OW21419   1.106   6.973   5.419  0.5522 -0.1176  0.4555
 6955SOL    HW121420   1.122   6.904   5.483  0.2684  0.1004  0.7656
 6955SOL    HW221421   1.169   6.956   5.349  0.2895 -0.8652  0.3925
 6956SOL     OW21422   6.056   1.827   4.033 -0.5234 -0.5113 -0.5853
 6956SOL    HW121423   6.034   1.777   4.112 -1.5331  1.7937  0.6858
 6956SOL    HW221424   5.993   1.797   3.968 -0.7651 -1.2508 -0.0283
 6957SOL     OW21425   6.124   1.280   0.153  0.0890  0.4091  0.1781
 6957SOL    HW121426   6.115   1.320   0.067  0.3707 -0.1230 -0.1093
 6957SOL    HW221427   6.218   1.285   0.172  0.5215 -2.0480 -0.8625
 6958SOL     OW21428   6.645   4.978   2.175 -0.0270  0.2181 -0.1667
 6958SOL    HW121429   6.593   5.038   2.122  0.5798  0.3429 -0.6256
 6958SOL    HW221430   6.580   4.923   2.219 -0.5622  0.7094 -0.3322
 6959SOL     OW21431   2.222   1.937   6.474  0.3725 -0.1107  0.0183
 6959SOL    HW121432   2.280   1.944   6.398 -1.2742  1.1467 -1.1936
 6959SOL    HW221433   2.278   1.959   6.549  1.6443  0.2545 -0.9954
 6960SOL     OW21434   6.458   3.250   5.286  0.0840  0.3094  0.0491
 6960SOL    HW121435   6.401   3.294   5.349 -1.2406 -0.3344 -0.6481
 6960SOL    HW221436   6.401   3.234   5.210  1.5928  0.9458 -1.2542
 6961SOL     OW21437   5.391   5.184   1.148 -0.4662  0.0216 -0.6134
 6961SOL    HW121438   5.440   5.256   1.108 -1.3425 -0.2226 -2.1917
 6961SOL    HW221439   5.304   5.220   1.163  0.1039  0.4672  2.2304
 6962SOL     OW21440   5.089   0.541   1.216 -0.0362 -0.3020 -0.0002
 6962SOL    HW121441   5.151   0.586   1.159 -0.4636 -0.5895 -0.7040
 6962SOL    HW221442   5.091   0.591   1.298  0.1156  0.4940 -0.4776
 6963SOL     OW21443   4.501   2.309   4.377 -0.0367 -0.0252  0.0126
 6963SOL    HW121444   4.443   2.260   4.319 -0.5181  0.9484 -0.3470
 6963SOL    HW221445   4.442   2.363   4.430  0.5575  1.6559 -0.9739
 6964SOL     OW21446   3.122   3.611   1.870  0.0809  0.3413  0.1162
 6964SOL    HW121447   3.062   3.649   1.934 -0.7779  0.1786 -0.5691
 6964SOL    HW221448   3.064   3.571   1.804  0.9081 -2.7228  1.1020
 6965SOL     OW21449   4.258   5.769   1.253 -0.4733 -0.1074  0.8456
 6965SOL    HW121450   4.289   5.845   1.303 -2.1649  0.4024  1.1911
 6965SOL    HW221451   4.169   5.754   1.284 -1.4672 -0.0336 -1.6629
 6966SOL     OW21452   2.206   2.951   1.316 -0.1956  0.6433 -0.4155
 6966SOL    HW121453   2.118   2.943   1.278 -1.5705 -1.4569  2.7456
 6966SOL    HW221454   2.213   3.043   1.341 -2.1139  0.6105  0.4190
 6967SOL     OW21455   6.974   0.988   7.100  0.4054  0.1859 -0.4315
 6967SOL    HW121456   7.028   1.065   7.119  1.0824  0.1235 -1.9265
 6967SOL    HW221457   6.963   0.990   7.005 -0.3339 -1.0724 -0.3932
 6968SOL     OW21458   7.439   4.866   4.621 -0.1378  0.5160  0.3464
 6968SOL    HW121459   7.355   4.879   4.576  0.4256  0.0880 -0.8783
 6968SOL    HW221460   7.421   4.799   4.686 -0.6015 -0.0429 -0.3429
 6969SOL     OW21461   6.382   4.817   1.844 -0.1436  0.3992 -0.1130
 6969SOL    HW121462   6.433   4.827   1.925  0.4982  1.8172 -0.6650
 6969SOL    HW221463   6.352   4.727   1.846  0.5423  0.1722  1.3191
 6970SOL     OW21464   1.468   0.789   1.381  0.1476 -0.2034 -0.0631
 6970SOL    HW121465   1.546   0.734   1.376  0.6473  0.4489  0.4341
 6970SOL    HW221466   1.410   0.755   1.313 -0.0114 -2.0755  0.9385
 6971SOL     OW21467   1.957   5.680   7.109  0.0302  0.3976 -0.1444
 6971SOL    HW121468   1.960   5.773   7.134  1.5752  0.5995 -0.9899
 6971SOL    HW221469   1.916   5.637   7.184  2.5346  1.2842  1.8863
 6972SOL     OW21470   7.433   6.614   3.140  0.2199 -0.7111 -0.0478
 6972SOL    HW121471   7.484   6.630   3.060  0.5142  0.2245  0.3168
 6972SOL    HW221472   7.437   6.519   3.152 -1.0299 -1.0487 -1.9271
 6973SOL     OW21473   0.941   4.802   4.003 -0.5755 -0.3724 -0.1893
 6973SOL    HW121474   0.851   4.779   4.029 -0.1302  0.0172  1.9032
 6973SOL    HW221475   0.955   4.889   4.040  1.5435 -1.5334  2.0430
 6974SOL     OW21476   1.739   3.550   2.495  0.4028  0.1567  0.1067
 6974SOL    HW121477   1.750   3.588   2.407  1.8996  2.9786  1.3812
 6974SOL    HW221478   1.826   3.517   2.518 -0.0764 -0.9572  0.4241
 6975SOL     OW21479   6.460   3.976   2.153 -0.2848  0.1203  0.0565
 6975SOL    HW121480   6.500   3.889   2.151  0.3845  0.4311 -0.4185
 6975SOL    HW221481   6.374   3.964   2.113 -0.4962 -0.4613  0.6588
 6976SOL     OW21482   4.521   7.387   5.823 -0.0383 -0.0361  0.1282
 6976SOL    HW121483   4.567   7.311   5.857 -0.4219 -0.1119  0.4819
 6976SOL    HW221484   4.512   7.370   5.729  0.9628  0.1459 -0.0158
 6977SOL     OW21485   5.716   6.447   0.946  0.6388 -0.4993 -0.1265
 6977SOL    HW121486   5.673   6.498   1.014  2.6059  0.0041  0.7849
 6977SOL    HW221487   5.659   6.371   0.934 -1.2677  0.8409 -0.0629
 6978SOL     OW21488   3.434   0.854   2.250  0.5295  0.3414  0.3514
 6978SOL    HW121489   3.394   0.796   2.315 -0.0825  0.1162 -0.2128
 6978SOL    HW221490   3.512   0.807   2.222 -0.5387 -0.7617 -0.9022
 6979SOL     OW21491   5.006   5.272   6.489  0.6602  0.3511  0.4937
 6979SOL    HW121492   5.064   5.228   6.427  0.4644  0.7027  0.0539
 6979SOL    HW221493   4.922   5.278   6.444  0.5715  0.7925  0.7078
 6980SOL     OW21494   4.859   6.527   5.674 -0.1038  0.0904  0.5482
 6980SOL    HW121495   4.884   6.492   5.589  0.0807  1.1668  0.1325
 6980SOL    HW221496   4.899   6.614   5.676 -0.8581  0.4334  1.3572
 6981SOL     OW21497   1.352   6.844   5.626 -0.2902  0.0541  0.2012
 6981SOL    HW121498   1.344   6.781   5.554 -1.2976  2.0254 -1.5322
 6981SOL    HW221499   1.264   6.846   5.665 -0.0854 -0.0614  0.6745
 6982SOL     OW21500   1.507   3.180   3.624  0.2441 -0.0228 -0.4346
 6982SOL    HW121501   1.476   3.095   3.592 -0.6555 -0.3692  1.2122
 6982SOL    HW221502   1.500   3.173   3.719  1.7593  1.3173 -0.1795
 6983SOL     OW21503   6.102   5.722   6.315  0.1924  0.4838  0.6363
 6983SOL    HW121504   6.046   5.645   6.326  0.6220 -0.0044 -0.5269
 6983SOL    HW221505   6.165   5.715   6.386 -0.5426  0.4626  1.3090
 6984SOL     OW21506   4.870   7.252   4.973  0.2855  0.7586 -0.2582
 6984SOL    HW121507   4.966   7.255   4.973  0.3314 -0.0613 -1.5507
 6984SOL    HW221508   4.848   7.195   4.900 -1.1780 -0.0783  0.8034
 6985SOL     OW21509   1.605   4.161   5.847  0.1904  0.0260 -0.4969
 6985SOL    HW121510   1.560   4.139   5.765 -0.1013  0.9960 -0.6021
 6985SOL    HW221511   1.554   4.116   5.915 -1.0312  1.2108 -0.6012
 6986SOL     OW21512   5.205   3.917   1.002  0.4192  0.1975 -0.3519
 6986SOL    HW121513   5.241   3.828   1.002  0.3167  0.1089  1.6640
 6986SOL    HW221514   5.234   3.954   1.085  1.2191  2.3913 -1.5517
 6987SOL     OW21515   0.104   6.535   4.162 -0.1098  0.6207 -0.0010
 6987SOL    HW121516   0.122   6.600   4.230 -0.4620 -0.2802  0.9795
 6987SOL    HW221517   0.048   6.470   4.205 -0.7932  0.3072 -1.3128
 6988SOL     OW21518   0.242   4.449   0.510  0.4894  0.6216 -0.2196
 6988SOL    HW121519   0.286   4.370   0.540 -2.5765 -1.2194 -0.1192
 6988SOL    HW221520   0.263   4.515   0.577  1.3611 -0.7122  0.8886
 6989SOL     OW21521   5.634   3.988   2.874  0.0702  0.4738 -0.0768
 6989SOL    HW121522   5.644   4.065   2.930 -0.0358 -0.3222  1.0533
 6989SOL    HW221523   5.539   3.980   2.860  0.0909  0.6233 -0.3217
 6990SOL     OW21524   3.833   5.604   5.012  0.2167 -0.0496  0.3173
 6990SOL    HW121525   3.913   5.617   4.961 -0.4478 -0.6895 -0.9399
 6990SOL    HW221526   3.775   5.674   4.983  0.1581  0.1411  0.8933
 6991SOL     OW21527   5.603   3.581   4.281 -0.5298 -0.0170 -0.1334
 6991SOL    HW121528   5.623   3.589   4.375 -1.3615  2.0168 -0.0782
 6991SOL    HW221529   5.510   3.600   4.275  0.0002  2.6130 -1.6167
 6992SOL     OW21530   5.521   2.983   1.941  0.5863 -0.4787  0.2530
 6992SOL    HW121531   5.429   2.997   1.963  0.5572  1.6793 -0.9790
 6992SOL    HW221532   5.523   2.980   1.845  2.0646  2.6846  0.0384
 6993SOL     OW21533   5.658   3.713   1.225  0.1459 -0.2389  0.3838
 6993SOL    HW121534   5.702   3.662   1.157 -0.3286 -0.7590  0.4593
 6993SOL    HW221535   5.632   3.649   1.291 -1.8378 -0.1552 -0.2450
 6994SOL     OW21536   0.643   2.385   4.726  0.7105 -0.2114 -0.4997
 6994SOL    HW121537   0.692   2.337   4.793  1.7977  2.8512  1.0954
 6994SOL    HW221538   0.552   2.376   4.752  1.0462  0.1351  0.8738
 6995SOL     OW21539   3.809   2.580   1.937  0.1612  0.5374 -0.2188
 6995SOL    HW121540   3.799   2.601   2.030  0.7843 -1.3471  0.3220
 6995SOL    HW221541   3.744   2.634   1.893 -0.5890  0.9953  1.3797
 6996SOL     OW21542   2.479   4.514   7.206 -0.2063 -0.2434 -0.2245
 6996SOL    HW121543   2.436   4.573   7.268  1.3879  0.9605 -0.2111
 6996SOL    HW221544   2.423   4.437   7.204 -0.2686 -0.4106  2.8495
 6997SOL     OW21545   1.412   4.909   2.702 -0.1829 -0.2496 -0.0315
 6997SOL    HW121546   1.376   4.865   2.625 -2.1761 -0.1907  0.7991
 6997SOL    HW221547   1.432   4.837   2.763  2.5824 -0.4074 -0.9694
 6998SOL     OW21548   5.695   6.612   1.625 -0.3710 -0.1915 -0.3731
 6998SOL    HW121549   5.664   6.529   1.587 -0.1882 -0.9589  1.0896
 6998SOL    HW221550   5.615   6.661   1.644 -0.5960 -0.8893  0.5817
 6999SOL     OW21551   1.890   1.060   2.318 -0.5131 -0.2888  0.0962
 6999SOL    HW121552   1.931   1.141   2.286  1.1911 -0.7554  0.9421
 6999SOL    HW221553   1.891   1.070   2.414 -0.2088 -1.3318  0.2078
 7000SOL     OW21554   6.455   6.206   5.180 -0.2230 -0.5037 -0.6757
 7000SOL    HW121555   6.498   6.180   5.261 -0.3542  0.6245 -0.2187
 7000SOL    HW221556   6.521   6.196   5.112 -0.0055 -1.1337 -0.3703
 7001SOL     OW21557   1.981   3.356   5.518 -0.7709  0.2434 -0.1456
 7001SOL    HW121558   1.939   3.408   5.586 -0.0097  0.4044  0.2215
 7001SOL    HW221559   1.924   3.280   5.507  0.2347 -1.0323  2.4099
 7002SOL     OW21560   5.464   0.018   4.579  0.2028  0.0014 -0.9405
 7002SOL    HW121561   5.425   0.053   4.659 -0.2072 -0.6900 -0.8342
 7002SOL    HW221562   5.521   0.088   4.548  0.8526  0.0401  0.2909
 7003SOL     OW21563   0.524   7.652   6.193  0.0975  0.1216 -0.5229
 7003SOL    HW121564   0.573   7.686   6.118  0.5243 -1.0192 -0.7817
 7003SOL    HW221565   0.516   7.558   6.175 -0.1544 -0.0886  0.6604
 7004SOL     OW21566   1.617   5.195   3.100 -0.1137  0.1398  0.4337
 7004SOL    HW121567   1.603   5.102   3.117 -2.9784  0.5646  0.9529
 7004SOL    HW221568   1.571   5.211   3.017 -0.0663  1.1759  0.5984
 7005SOL     OW21569   1.942   1.523   3.899 -0.0263 -0.3881 -0.1903
 7005SOL    HW121570   1.982   1.606   3.875 -0.8218  1.0015  2.8180
 7005SOL    HW221571   2.015   1.460   3.897  0.6926  0.4247 -1.9861
 7006SOL     OW21572   5.427   3.644   3.214 -0.0726 -0.3146 -0.0258
 7006SOL    HW121573   5.485   3.670   3.142 -0.4836  0.0277 -0.2436
 7006SOL    HW221574   5.415   3.550   3.202  2.1359 -0.8293  1.2804
 7007SOL     OW21575   5.060   5.467   3.757  0.4685 -0.0039 -0.4628
 7007SOL    HW121576   4.990   5.411   3.791 -0.2304  0.5818 -0.9124
 7007SOL    HW221577   5.024   5.504   3.677  0.8372  1.2599 -0.0654
 7008SOL     OW21578   1.577   5.331   1.392  0.6073 -1.1285  0.0564
 7008SOL    HW121579   1.644   5.397   1.409  0.7535 -1.3944  0.5419
 7008SOL    HW221580   1.597   5.299   1.304  1.3273 -1.4313  0.3149
 7009SOL     OW21581   5.273   1.065   2.063 -0.4777 -0.0078  0.5107
 7009SOL    HW121582   5.310   1.054   1.975  0.7677 -0.7972  1.1053
 7009SOL    HW221583   5.277   0.978   2.102 -0.8202  0.3759  1.4291
 7010SOL     OW21584   4.112   7.635   3.635 -0.3109  0.1239 -0.5522
 7010SOL    HW121585   4.069   7.709   3.678  0.6105  1.1378 -1.3202
 7010SOL    HW221586   4.199   7.632   3.675 -0.3759 -0.6024 -0.4642
 7011SOL     OW21587   5.052   2.216   7.368  0.0658 -0.1559  0.0950
 7011SOL    HW121588   5.032   2.188   7.457 -0.1989 -0.4346 -0.0499
 7011SOL    HW221589   5.035   2.311   7.369  2.2270  0.2691  0.9315
 7012SOL     OW21590   5.197   6.064   3.398  0.1167  0.2192 -0.2564
 7012SOL    HW121591   5.260   5.993   3.386 -0.3474  0.0238 -1.6683
 7012SOL    HW221592   5.251   6.142   3.410  0.6327 -0.0924 -0.5249
 7013SOL     OW21593   2.914   7.503   4.219 -0.9145  0.2466  0.1615
 7013SOL    HW121594   2.885   7.544   4.301  2.2692 -2.0988  2.7331
 7013SOL    HW221595   2.866   7.420   4.216  0.6789 -0.7527  1.0319
 7014SOL     OW21596   2.429   0.550   7.692 -0.1064  0.1893 -0.0470
 7014SOL    HW121597   2.488   0.519   7.761  1.9658  0.2923 -1.6818
 7014SOL    HW221598   2.350   0.497   7.702  0.4301 -0.3136  1.8958
 7015SOL     OW21599   7.018   6.177   7.370 -0.3205 -0.4908 -0.3265
 7015SOL    HW121600   6.932   6.207   7.339  0.2262  1.2242 -0.2886
 7015SOL    HW221601   7.066   6.155   7.291 -0.6637 -1.1165 -0.3682
 7016SOL     OW21602   0.343   6.978   1.552  0.4640 -0.1724  0.4343
 7016SOL    HW121603   0.368   6.899   1.505 -0.2171  0.6089 -1.3337
 7016SOL    HW221604   0.386   6.970   1.638  2.1539 -1.4291 -0.4757
 7017SOL     OW21605   5.858   3.475   3.607 -0.4912 -0.3746 -0.4708
 7017SOL    HW121606   5.824   3.533   3.675  1.2012 -0.1154  0.1908
 7017SOL    HW221607   5.789   3.410   3.595 -0.2443 -1.3955  2.6858
 7018SOL     OW21608   6.225   5.638   5.898 -0.1560  0.0803  0.2063
 7018SOL    HW121609   6.306   5.679   5.929 -0.9510  0.2798  2.1712
 7018SOL    HW221610   6.229   5.549   5.934 -1.3541  0.4869  1.4347
 7019SOL     OW21611   7.393   0.091   2.568 -0.0917 -0.0094 -0.4079
 7019SOL    HW121612   7.410   0.039   2.490 -2.7474  0.2787 -1.2873
 7019SOL    HW221613   7.300   0.111   2.564  0.2892  2.6255  1.2698
 7020SOL     OW21614   5.378   7.511   3.077  0.0968  0.4439  0.3884
 7020SOL    HW121615   5.385   7.419   3.101 -1.7108  0.1254 -0.1111
 7020SOL    HW221616   5.312   7.547   3.136 -1.6213  0.5674 -1.4694
 7021SOL     OW21617   2.249   2.253   6.311  0.2354 -0.2695 -0.2114
 7021SOL    HW121618   2.291   2.170   6.287 -0.6718 -0.8848  0.2595
 7021SOL    HW221619   2.193   2.275   6.236 -0.3479 -0.6582  0.1001
 7022SOL     OW21620   4.818   2.350   2.923 -0.1716 -0.1296  0.1455
 7022SOL    HW121621   4.836   2.424   2.981 -0.5339  1.3244 -1.5303
 7022SOL    HW221622   4.782   2.283   2.981  0.0894  1.0157  1.6964
 7023SOL     OW21623   6.883   3.531   4.644 -0.5681  0.1611  0.2928
 7023SOL    HW121624   6.801   3.488   4.666 -0.3141 -0.4190  0.1175
 7023SOL    HW221625   6.905   3.581   4.723 -1.7634  1.4024 -0.1410
 7024SOL     OW21626   7.109   6.477   5.832 -0.0600 -0.1588 -0.4107
 7024SOL    HW121627   7.038   6.493   5.769 -0.8215  1.8045  0.8618
 7024SOL    HW221628   7.068   6.488   5.918  1.5335 -0.1751  0.3801
 7025SOL     OW21629   4.261   2.920   4.700 -0.4080 -0.0337  0.2142
 7025SOL    HW121630   4.205   2.899   4.626 -1.9174  1.5206  0.8215
 7025SOL    HW221631   4.349   2.897   4.672 -0.7198  1.7964 -2.6331
 7026SOL     OW21632   6.959   2.218   2.680 -0.5842  0.2550  0.1549
 7026SOL    HW121633   6.967   2.238   2.587  1.3089 -1.2699 -0.0595
 7026SOL    HW221634   6.865   2.210   2.694 -0.8793 -0.1476 -1.7673
 7027SOL     OW21635   0.285   3.301   5.427 -0.0521  0.4382  0.6366
 7027SOL    HW121636   0.197   3.331   5.448  0.6762  0.5463  4.1923
 7027SOL    HW221637   0.277   3.206   5.417 -0.5348  0.4114  1.2431
 7028SOL     OW21638   7.437   6.423   0.285  0.1558  0.0267  0.9306
 7028SOL    HW121639   7.486   6.382   0.356  0.7801 -0.9268 -0.0225
 7028SOL    HW221640   7.500   6.430   0.213 -0.6639  0.2564  0.2162
 7029SOL     OW21641   0.393   4.740   5.672  0.1031 -0.2969  0.1255
 7029SOL    HW121642   0.321   4.681   5.691  0.8537 -1.4030 -0.3530
 7029SOL    HW221643   0.391   4.752   5.578  0.7783 -0.6831  0.0487
 7030SOL     OW21644   3.566   5.150   4.247 -0.2768  0.5167  0.1653
 7030SOL    HW121645   3.643   5.140   4.191 -0.0951 -0.7624  0.6141
 7030SOL    HW221646   3.551   5.244   4.250 -2.1038  0.6018 -4.4239
 7031SOL     OW21647   2.666   2.477   2.254  0.4616 -0.9935  0.0388
 7031SOL    HW121648   2.735   2.485   2.188  0.4616 -0.5147  0.0904
 7031SOL    HW221649   2.587   2.459   2.203  0.4349 -0.4793 -0.1129
 7032SOL     OW21650   1.038   6.574   1.494 -0.1379 -1.1253  0.0580
 7032SOL    HW121651   1.126   6.597   1.522  0.7592 -0.8605 -2.7557
 7032SOL    HW221652   0.986   6.653   1.512 -0.0247 -1.4733  2.2514
 7033SOL     OW21653   0.565   3.769   5.261  0.8154 -0.3982  0.1590
 7033SOL    HW121654   0.470   3.785   5.267  0.7853 -0.7520  0.6259
 7033SOL    HW221655   0.593   3.823   5.187  0.2740 -0.1712  0.1131
 7034SOL     OW21656   0.421   6.029   5.144  0.4112  0.1066 -0.0469
 7034SOL    HW121657   0.336   6.016   5.101 -0.8487  0.6262  2.1254
 7034SOL    HW221658   0.432   6.124   5.148  0.9404  0.0487  0.0023
 7035SOL     OW21659   4.257   3.133   3.212 -0.1071  0.8200  0.2748
 7035SOL    HW121660   4.333   3.110   3.159 -0.7688  1.0246 -0.8062
 7035SOL    HW221661   4.225   3.050   3.247  1.7835  0.9250  2.4612
 7036SOL     OW21662   7.748   2.273   1.377  0.2591 -0.0373  0.2657
 7036SOL    HW121663   7.833   2.278   1.421  0.5145 -0.3485 -0.1881
 7036SOL    HW221664   7.686   2.252   1.446  0.1362  2.6887  1.1050
 7037SOL     OW21665   0.950   0.846   3.869 -0.5594 -0.9881  0.2139
 7037SOL    HW121666   0.968   0.933   3.831 -0.3518 -1.4967 -0.8955
 7037SOL    HW221667   0.858   0.851   3.897 -1.2127 -1.0296 -1.7228
 7038SOL     OW21668   0.419   6.889   2.031 -0.1211 -0.2329 -0.7016
 7038SOL    HW121669   0.366   6.964   2.059  0.5051  0.0550 -0.2667
 7038SOL    HW221670   0.466   6.920   1.954 -2.3391 -1.2299 -2.5881
 7039SOL     OW21671   4.109   6.657   4.465 -0.1728 -0.3933 -0.1972
 7039SOL    HW121672   4.016   6.636   4.466 -1.3712  3.9828  1.1889
 7039SOL    HW221673   4.135   6.656   4.557  0.5445  0.5695 -0.3759
 7040SOL     OW21674   7.666   4.891   1.972  0.3241  0.0452 -0.0841
 7040SOL    HW121675   7.573   4.876   1.959  0.1468  1.3383 -0.3883
 7040SOL    HW221676   7.708   4.813   1.937 -0.5203  0.4248 -2.0625
 7041SOL     OW21677   6.468   3.720   2.231  0.9958 -0.0816  0.0187
 7041SOL    HW121678   6.513   3.638   2.254  1.1905  0.0958  0.2827
 7041SOL    HW221679   6.418   3.742   2.309 -0.3331 -0.7833 -0.6073
 7042SOL     OW21680   0.721   1.403   3.715  0.1563 -0.1857  0.1699
 7042SOL    HW121681   0.740   1.410   3.809 -0.6056  1.0671  0.2661
 7042SOL    HW221682   0.638   1.451   3.705 -2.3003 -4.1230 -0.4209
 7043SOL     OW21683   4.168   7.415   2.784 -0.4471 -0.2325 -0.2915
 7043SOL    HW121684   4.198   7.341   2.731 -0.2942  0.0544 -0.6108
 7043SOL    HW221685   4.074   7.400   2.795  0.0785 -2.2496  2.4723
 7044SOL     OW21686   4.025   6.067   5.243 -0.0154 -0.5693  0.3089
 7044SOL    HW121687   3.972   6.032   5.172  2.4720 -1.0224 -1.4498
 7044SOL    HW221688   4.029   5.996   5.307 -1.2070 -0.6437  0.3232
 7045SOL     OW21689   0.932   5.566   3.112  0.0143  0.2750 -0.2699
 7045SOL    HW121690   0.921   5.610   3.028  0.8886  2.4383  0.6561
 7045SOL    HW221691   0.930   5.473   3.092 -2.2900  0.6865 -2.3343
 7046SOL     OW21692   7.248   1.458   1.572 -0.0176  0.3216  0.2682
 7046SOL    HW121693   7.175   1.519   1.584  0.8164  1.3950  0.0573
 7046SOL    HW221694   7.316   1.511   1.531 -0.1872 -1.3759 -2.4750
 7047SOL     OW21695   2.422   0.398   6.069 -0.1971 -0.2987 -0.5692
 7047SOL    HW121696   2.459   0.358   5.990  1.4056 -0.3341  0.1508
 7047SOL    HW221697   2.422   0.328   6.134  1.5268  0.5042  0.3575
 7048SOL     OW21698   6.681   5.558   4.412 -0.4129 -0.0603 -0.4938
 7048SOL    HW121699   6.627   5.592   4.483  1.4575  0.0370  0.9634
 7048SOL    HW221700   6.621   5.547   4.338 -2.1747  0.9967  0.7299
 7049SOL     OW21701   7.386   2.725   3.356  0.1344  0.3777  0.0732
 7049SOL    HW121702   7.447   2.689   3.421 -0.0963  1.4712  0.9187
 7049SOL    HW221703   7.388   2.819   3.371 -2.7033  0.3785  0.9984
 7050SOL     OW21704   2.968   5.650   7.536 -0.7843 -0.3178  0.0787
 7050SOL    HW121705   3.028   5.609   7.599 -0.9152 -2.0349 -0.8692
 7050SOL    HW221706   2.952   5.737   7.572 -0.3771 -1.0317  2.0973
 7051SOL     OW21707   0.986   4.819   3.593  0.2654  0.4978  0.2656
 7051SOL    HW121708   1.049   4.747   3.600 -1.2310 -0.8049  1.2560
 7051SOL    HW221709   0.956   4.817   3.503 -2.3098 -2.5244  1.0251
 7052SOL     OW21710   2.916   1.141   3.864  0.5040  0.4760  0.4239
 7052SOL    HW121711   2.874   1.057   3.845  1.0986  0.4347 -0.8561
 7052SOL    HW221712   2.848   1.193   3.906 -0.8128  0.3695 -1.4650
 7053SOL     OW21713   3.162   1.070   7.750  0.1761  0.1410  0.1625
 7053SOL    HW121714   3.089   1.127   7.728  1.8495  2.2345 -0.3531
 7053SOL    HW221715   3.179   1.020   7.670 -0.1575  0.2722  0.0124
 7054SOL     OW21716   3.422   4.008   4.092 -0.2162 -0.7676  0.5690
 7054SOL    HW121717   3.387   4.068   4.158  0.9761  0.1489  0.3977
 7054SOL    HW221718   3.345   3.980   4.042 -1.0150 -0.7310  1.7174
 7055SOL     OW21719   3.074   7.145   2.855  0.2451 -0.3254  0.4035
 7055SOL    HW121720   3.009   7.128   2.923 -0.5350  1.7367  0.2375
 7055SOL    HW221721   3.154   7.168   2.903  0.9150 -2.7736  0.6056
 7056SOL     OW21722   4.767   5.306   2.020 -0.0783  0.2385 -0.1647
 7056SOL    HW121723   4.704   5.377   2.006 -0.6756  0.0543  1.4437
 7056SOL    HW221724   4.761   5.253   1.940 -1.1901  0.7964 -0.4723
 7057SOL     OW21725   6.691   5.144   4.745 -0.1588 -0.2824 -0.3491
 7057SOL    HW121726   6.698   5.110   4.835 -2.4783 -0.4087 -0.1716
 7057SOL    HW221727   6.709   5.237   4.753 -0.4611 -0.2737  0.2725
 7058SOL     OW21728   6.602   0.430   5.375 -0.3456 -0.4780 -0.2110
 7058SOL    HW121729   6.620   0.346   5.334 -1.1878 -0.3149 -0.9473
 7058SOL    HW221730   6.649   0.493   5.320  0.7955 -0.5054  0.6943
 7059SOL     OW21731   1.087   6.787   5.611 -0.0778 -0.1078  0.0251
 7059SOL    HW121732   1.017   6.791   5.676 -1.1134  0.1252 -1.0707
 7059SOL    HW221733   1.077   6.702   5.569 -0.4763  0.4093 -0.9555
 7060SOL     OW21734   0.506   0.272   1.968 -0.9128  0.4969 -0.2591
 7060SOL    HW121735   0.542   0.327   1.899 -0.0167  1.5621  1.0057
 7060SOL    HW221736   0.577   0.264   2.032 -1.6635 -0.5682  0.4727
 7061SOL     OW21737   6.255   7.066   7.334  0.3959 -0.1062  0.8024
 7061SOL    HW121738   6.331   7.102   7.379  0.7027  2.2948 -1.4215
 7061SOL    HW221739   6.180   7.109   7.375  0.4442 -0.1249  0.9116
 7062SOL     OW21740   5.040   4.895   3.150 -0.2177 -0.1103 -0.3438
 7062SOL    HW121741   5.101   4.968   3.136  1.0988 -0.6044  2.2460
 7062SOL    HW221742   4.973   4.931   3.208  0.2563 -0.8065  0.6759
 7063SOL     OW21743   2.440   6.471   1.843  0.3184  0.0821 -0.2784
 7063SOL    HW121744   2.417   6.540   1.781 -1.4633  0.2306  0.4904
 7063SOL    HW221745   2.509   6.510   1.898  0.6757  0.5601 -1.0478
 7064SOL     OW21746   3.361   7.531   1.866  0.3563 -0.1543 -0.2940
 7064SOL    HW121747   3.347   7.508   1.775  0.0583 -2.9554  0.3691
 7064SOL    HW221748   3.455   7.549   1.873  0.3553  0.1997 -1.1591
 7065SOL     OW21749   3.017   1.515   0.119 -0.4088 -0.2044 -0.2139
 7065SOL    HW121750   3.004   1.609   0.129  3.5777  0.4045  0.7327
 7065SOL    HW221751   3.009   1.481   0.208  0.9042 -0.2678 -0.1007
 7066SOL     OW21752   6.080   2.312   5.969 -0.1142 -0.1237  0.3619
 7066SOL    HW121753   6.041   2.398   5.989 -1.2822 -0.1598 -1.5215
 7066SOL    HW221754   6.118   2.323   5.882  2.6690 -0.6180  1.4202
 7067SOL     OW21755   2.166   0.751   6.660 -0.8872 -0.1882  0.0844
 7067SOL    HW121756   2.134   0.677   6.609  0.9679 -0.4662 -0.7380
 7067SOL    HW221757   2.252   0.724   6.691 -0.1203  1.6509 -0.3165
 7068SOL     OW21758   6.159   4.495   0.714  0.6586  0.1624 -0.4685
 7068SOL    HW121759   6.135   4.444   0.636  0.6669  0.8606 -0.9347
 7068SOL    HW221760   6.199   4.574   0.680 -0.1066  0.8654  0.2347
 7069SOL     OW21761   7.406   1.044   4.160 -0.3796 -0.0402  0.9928
 7069SOL    HW121762   7.473   1.092   4.111 -2.0139  0.9572 -0.3717
 7069SOL    HW221763   7.345   1.014   4.094 -1.0697 -1.3101  2.1631
 7070SOL     OW21764   5.163   5.210   4.861  0.1005  0.4887 -0.1665
 7070SOL    HW121765   5.251   5.245   4.845  0.9698 -1.5060 -0.1003
 7070SOL    HW221766   5.123   5.205   4.774  0.6932 -0.1429 -0.4094
 7071SOL     OW21767   0.981   2.284   4.195 -0.4752  0.1520 -0.5106
 7071SOL    HW121768   0.997   2.352   4.260  0.2543 -0.5882  0.1096
 7071SOL    HW221769   1.049   2.297   4.129 -0.1110 -0.1871 -0.2075
 7072SOL     OW21770   0.537   3.178   7.232  0.1424  0.2512  0.2100
 7072SOL    HW121771   0.582   3.103   7.195 -1.1988 -0.2067 -0.5689
 7072SOL    HW221772   0.586   3.254   7.199  0.5585 -0.2324 -0.3101
 7073SOL     OW21773   3.778   6.468   2.843 -0.5831  0.0836 -0.1190
 7073SOL    HW121774   3.728   6.534   2.891 -0.5445  1.3468 -1.7611
 7073SOL    HW221775   3.822   6.516   2.774  2.2877 -1.1156  0.7383
 7074SOL     OW21776   7.258   6.179   1.401  0.3229  0.0560 -0.4379
 7074SOL    HW121777   7.323   6.228   1.450  0.8213  0.4486 -1.4545
 7074SOL    HW221778   7.290   6.180   1.311 -1.1710  0.4052 -1.0006
 7075SOL     OW21779   3.341   6.544   7.335  0.2570  0.2994  0.0416
 7075SOL    HW121780   3.311   6.517   7.248 -0.8232  0.4004  0.3695
 7075SOL    HW221781   3.436   6.537   7.330  0.1617 -0.6365 -0.8387
 7076SOL     OW21782   5.395   6.414   3.244  0.1177 -0.2530  0.3479
 7076SOL    HW121783   5.419   6.341   3.302 -0.9690  0.8728  2.3196
 7076SOL    HW221784   5.442   6.489   3.280  2.2903 -0.0984 -2.4481
 7077SOL     OW21785   3.510   4.505   0.194  0.2507 -0.2042 -0.1171
 7077SOL    HW121786   3.603   4.483   0.184  0.4079  0.5220 -0.2533
 7077SOL    HW221787   3.468   4.420   0.207  0.9167 -0.5539 -0.1689
 7078SOL     OW21788   2.315   2.311   2.263  0.4440  0.3807 -0.0624
 7078SOL    HW121789   2.271   2.229   2.241 -0.3257  0.5416  0.8202
 7078SOL    HW221790   2.351   2.342   2.180 -0.2069 -0.2943 -0.6073
 7079SOL     OW21791   0.236   0.279   2.359  0.0954  0.1644 -0.4868
 7079SOL    HW121792   0.317   0.277   2.410 -0.1549  0.1714 -0.0838
 7079SOL    HW221793   0.211   0.187   2.352 -0.7441  0.2582  0.8307
 7080SOL     OW21794   5.241   2.524   3.357  0.1455  0.0816 -0.0203
 7080SOL    HW121795   5.152   2.554   3.336  0.1981 -0.0308 -0.4048
 7080SOL    HW221796   5.244   2.524   3.453 -0.4013 -0.2935  0.0020
 7081SOL     OW21797   7.191   3.811   1.228  0.3590  0.5573  0.3972
 7081SOL    HW121798   7.241   3.890   1.212  0.6897  0.5540  1.3536
 7081SOL    HW221799   7.144   3.828   1.309  0.9744 -0.4754  0.9924
 7082SOL     OW21800   2.903   7.388   1.949  0.1220 -0.7924 -0.1029
 7082SOL    HW121801   2.927   7.306   1.907 -0.7576 -1.6574  1.0252
 7082SOL    HW221802   2.905   7.453   1.878  0.0569 -1.9227 -1.1685
 7083SOL     OW21803   2.622   4.252   7.275  0.1380  0.2814 -0.1058
 7083SOL    HW121804   2.534   4.289   7.270 -0.3237 -0.5195  1.4238
 7083SOL    HW221805   2.609   4.158   7.260  0.7000  0.1389  0.2861
 7084SOL     OW21806   4.724   0.363   1.012  0.2194  0.3703  0.5548
 7084SOL    HW121807   4.748   0.379   1.103  1.9042  0.4190  0.1361
 7084SOL    HW221808   4.787   0.297   0.982 -0.0200  0.6818 -0.6951
 7085SOL     OW21809   5.727   7.117   3.799 -0.1152  0.1642 -0.0075
 7085SOL    HW121810   5.808   7.103   3.751 -0.1156 -0.2792  0.1201
 7085SOL    HW221811   5.739   7.202   3.843 -0.6675  1.2824 -1.9069
 7086SOL     OW21812   4.049   1.340   4.379  0.6377 -0.4465 -0.0675
 7086SOL    HW121813   4.011   1.369   4.462  0.6242 -0.8801  0.0785
 7086SOL    HW221814   4.141   1.325   4.399  0.7904  0.1350 -0.3064
 7087SOL     OW21815   0.807   5.413   0.814 -0.6043  0.2012  0.2330
 7087SOL    HW121816   0.898   5.425   0.785 -1.4821  1.0722 -2.4376
 7087SOL    HW221817   0.809   5.432   0.908  1.8055  1.0654  0.0737
 7088SOL     OW21818   2.077   4.518   1.785  0.0033 -0.5955 -0.4858
 7088SOL    HW121819   2.086   4.570   1.705 -2.4788  1.6811  0.5412
 7088SOL    HW221820   2.061   4.583   1.854  0.5858 -2.5536  1.6439
 7089SOL     OW21821   0.313   5.616   7.029  0.1133  0.1693  0.2459
 7089SOL    HW121822   0.299   5.698   7.076 -0.0322  0.9065 -1.0245
 7089SOL    HW221823   0.408   5.612   7.015  0.1616 -0.0734  0.6505
 7090SOL     OW21824   6.042   0.100   7.511  0.1955 -0.5741 -0.1957
 7090SOL    HW121825   6.032   0.015   7.469 -0.3523 -0.0817 -1.1088
 7090SOL    HW221826   5.986   0.159   7.459 -0.5696  0.0539  1.2781
 7091SOL     OW21827   5.435   1.739   7.159 -0.0420  0.1673  0.3769
 7091SOL    HW121828   5.470   1.729   7.070  1.2866  0.9418  0.7910
 7091SOL    HW221829   5.420   1.649   7.189  2.6075 -0.2904  0.5460
 7092SOL     OW21830   1.151   6.402   3.944 -0.0578  0.5516  0.2860
 7092SOL    HW121831   1.225   6.353   3.979  0.4448  1.1927  0.1497
 7092SOL    HW221832   1.085   6.400   4.013  0.8200  1.5698  1.1967
 7093SOL     OW21833   6.235   4.645   5.687  0.5979 -0.2221  0.6138
 7093SOL    HW121834   6.225   4.738   5.706  1.5708  0.0338 -0.0178
 7093SOL    HW221835   6.146   4.611   5.681  0.1856  1.0011 -0.6837
 7094SOL     OW21836   0.608   5.786   6.342 -0.7541  0.2208  0.0595
 7094SOL    HW121837   0.571   5.865   6.302 -0.4856  0.3337  0.0350
 7094SOL    HW221838   0.558   5.714   6.303  0.5008  0.2078 -1.6314
 7095SOL     OW21839   0.054   6.005   2.730  0.0759  0.0476  0.0757
 7095SOL    HW121840   0.065   6.098   2.750 -0.9139  0.0359  0.7788
 7095SOL    HW221841   0.133   5.980   2.683  0.2599  1.2925 -0.2957
 7096SOL     OW21842   7.457   3.402   2.949 -0.4747 -0.3209 -0.2611
 7096SOL    HW121843   7.384   3.377   3.006 -1.4747  0.7999 -0.9892
 7096SOL    HW221844   7.415   3.429   2.867  0.7924  0.0514 -0.8149
 7097SOL     OW21845   3.161   4.995   0.177  0.2251  0.0286  0.7394
 7097SOL    HW121846   3.148   5.072   0.122  0.4900  1.0041  2.0153
 7097SOL    HW221847   3.192   5.029   0.261  1.7291 -1.5591  0.8875
 7098SOL     OW21848   0.602   3.615   5.580 -0.0078  0.5669 -0.4306
 7098SOL    HW121849   0.604   3.711   5.574  0.0349  0.5004 -2.5809
 7098SOL    HW221850   0.582   3.587   5.490  2.1614 -1.5014 -0.3519
 7099SOL     OW21851   0.632   7.175   0.703 -0.2095 -0.0600  0.0679
 7099SOL    HW121852   0.617   7.122   0.624  1.0586  0.9500 -0.9055
 7099SOL    HW221853   0.558   7.154   0.760  0.3807 -3.0847 -0.1253
 7100SOL     OW21854   2.666   4.437   5.355 -0.6127 -0.1604  0.2870
 7100SOL    HW121855   2.650   4.528   5.381  0.4330  0.6574 -1.6824
 7100SOL    HW221856   2.740   4.409   5.409 -1.3355 -0.0914  1.3519
 7101SOL     OW21857   6.024   0.083   5.643 -0.4585  0.0640  0.6411
 7101SOL    HW121858   5.965   0.088   5.719 -2.5359  2.7017 -0.9720
 7101SOL    HW221859   6.079   0.161   5.650 -0.5410  0.2290 -0.4402
 7102SOL     OW21860   3.850   5.653   4.600  0.0719 -0.2199 -0.5593
 7102SOL    HW121861   3.836   5.584   4.665  1.5210 -0.7670 -0.8118
 7102SOL    HW221862   3.778   5.642   4.538  0.0968 -1.2869 -0.4099
 7103SOL     OW21863   1.298   7.618   2.253 -1.0716  0.0260 -0.2477
 7103SOL    HW121864   1.365   7.657   2.197 -1.7653  0.7996 -0.5594
 7103SOL    HW221865   1.308   7.524   2.240 -0.9194  0.1766 -1.3293
 7104SOL     OW21866   3.610   3.673   4.343 -0.3765  0.3906  0.3443
 7104SOL    HW121867   3.589   3.580   4.340  0.6679  0.0207  2.5595
 7104SOL    HW221868   3.630   3.696   4.252 -0.7144 -1.5180 -0.2536
 7105SOL     OW21869   5.288   5.000   6.926  0.3057  0.6122  0.2924
 7105SOL    HW121870   5.278   5.007   6.831 -0.8292  0.3898  0.3791
 7105SOL    HW221871   5.327   5.083   6.952  2.6192 -0.1148 -0.5819
 7106SOL     OW21872   7.733   6.570   3.590  0.3711  0.0973 -0.3923
 7106SOL    HW121873   7.808   6.515   3.566  1.1255  1.1118 -0.4272
 7106SOL    HW221874   7.725   6.632   3.518  0.9347  1.4348  0.6607
 7107SOL     OW21875   2.969   0.511   5.801  0.0799 -0.2790 -0.1332
 7107SOL    HW121876   2.981   0.574   5.730 -1.5271 -0.0207 -0.2231
 7107SOL    HW221877   2.887   0.467   5.779 -0.1531 -0.5844  1.2673
 7108SOL     OW21878   3.078   4.391   2.232  0.7452  0.0982 -0.3119
 7108SOL    HW121879   3.141   4.462   2.227 -0.2208  0.9373 -0.9991
 7108SOL    HW221880   3.040   4.386   2.144 -1.6597  1.0647  0.5866
 7109SOL     OW21881   1.240   0.838   1.543  0.3189  0.2587  0.3166
 7109SOL    HW121882   1.331   0.844   1.515  0.4627  0.8283  0.8850
 7109SOL    HW221883   1.225   0.745   1.559 -0.0829 -0.2716 -2.6453
 7110SOL     OW21884   5.682   6.550   7.265  0.2483 -0.6592 -0.3287
 7110SOL    HW121885   5.633   6.489   7.320  0.5738  0.0542  0.7979
 7110SOL    HW221886   5.667   6.520   7.176 -1.9835 -0.6407  0.0008
 7111SOL     OW21887   7.249   7.238   4.458 -0.0812  0.1344 -0.0730
 7111SOL    HW121888   7.206   7.179   4.396 -0.1347  0.0846  0.0109
 7111SOL    HW221889   7.317   7.282   4.407  0.9429 -1.0628  0.2143
 7112SOL     OW21890   7.625   2.449   6.578  0.5416  0.2225  0.1797
 7112SOL    HW121891   7.698   2.415   6.629 -0.9706 -1.4405  1.3944
 7112SOL    HW221892   7.569   2.493   6.642 -0.1156  0.4138 -0.5100
 7113SOL     OW21893   1.027   0.248   5.713 -0.1398 -0.5468  0.3311
 7113SOL    HW121894   0.943   0.288   5.689  0.5654  0.7140 -0.1065
 7113SOL    HW221895   1.059   0.209   5.632 -0.8774 -2.1857  0.7782
 7114SOL     OW21896   2.747   4.563   6.489  0.1080 -0.3904 -0.1840
 7114SOL    HW121897   2.752   4.638   6.548  0.9644 -1.3125  0.9710
 7114SOL    HW221898   2.656   4.562   6.459 -0.0792  0.7144  0.2958
 7115SOL     OW21899   2.518   3.557   4.874  0.2503 -0.0617 -0.2182
 7115SOL    HW121900   2.594   3.545   4.931  1.4792  0.7424 -1.6325
 7115SOL    HW221901   2.548   3.531   4.787 -0.5431  1.8162 -1.1284
 7116SOL     OW21902   4.365   1.687   4.542  0.1577  0.8616  0.0453
 7116SOL    HW121903   4.275   1.654   4.537  0.4745 -0.1886  0.9674
 7116SOL    HW221904   4.418   1.621   4.497  0.8126 -0.0353  2.0193
 7117SOL     OW21905   5.893   0.546   5.800 -0.0080 -0.5270 -0.1042
 7117SOL    HW121906   5.955   0.498   5.745  0.3100 -1.0045  0.6573
 7117SOL    HW221907   5.948   0.607   5.849 -0.2209 -0.5129  0.1162
 7118SOL     OW21908   6.415   6.988   2.468 -0.2399 -0.1847  0.0406
 7118SOL    HW121909   6.362   6.941   2.404 -0.8984 -0.9028  1.0862
 7118SOL    HW221910   6.440   6.922   2.532  1.2205  0.3222  0.0341
 7119SOL     OW21911   6.719   1.958   1.726 -0.1234  0.4835 -0.2004
 7119SOL    HW121912   6.754   1.890   1.782 -0.1302  1.2958  0.8165
 7119SOL    HW221913   6.756   2.040   1.760 -1.7909  1.2170 -0.0210
 7120SOL     OW21914   4.236   0.105   5.920 -0.1014  0.0154  0.1838
 7120SOL    HW121915   4.294   0.148   5.983  0.6076 -1.2640  0.4194
 7120SOL    HW221916   4.235   0.013   5.946 -2.3342  0.0073  0.2498
 7121SOL     OW21917   0.904   1.814   2.933  0.5322 -0.1786  0.2925
 7121SOL    HW121918   0.841   1.867   2.885  0.3095  0.1967  0.9913
 7121SOL    HW221919   0.853   1.773   3.003  0.7267 -1.2105 -0.1451
 7122SOL     OW21920   0.173   1.769   4.777  0.2428 -0.0110  0.1224
 7122SOL    HW121921   0.112   1.716   4.725  1.1145 -0.0793 -0.8602
 7122SOL    HW221922   0.138   1.858   4.773  0.5025  0.0530 -0.9098
 7123SOL     OW21923   3.691   4.738   0.505  0.2254 -0.4709  0.5180
 7123SOL    HW121924   3.760   4.802   0.492  1.4995 -1.6572  1.0915
 7123SOL    HW221925   3.717   4.662   0.452 -2.2095  0.0675 -1.7008
 7124SOL     OW21926   0.020   2.468   3.790  0.1963  0.4049 -0.5017
 7124SOL    HW121927  -0.069   2.499   3.769  0.3076  0.7359 -0.4873
 7124SOL    HW221928   0.006   2.381   3.827 -0.1461  0.5672 -0.2402
 7125SOL     OW21929   4.774   4.529   1.585  0.5662 -0.1740  0.1427
 7125SOL    HW121930   4.802   4.543   1.495 -2.3893  1.4320 -0.6561
 7125SOL    HW221931   4.787   4.614   1.628  0.6098 -0.5226  0.8337
 7126SOL     OW21932   1.539   0.287   4.777  0.2322 -0.5597  0.4246
 7126SOL    HW121933   1.608   0.283   4.844 -0.5774  2.0678  1.5285
 7126SOL    HW221934   1.579   0.333   4.703  0.0788 -0.2553  0.5289
 7127SOL     OW21935   2.303   2.297   6.650  0.2113 -0.1802  0.4588
 7127SOL    HW121936   2.369   2.343   6.703 -0.4121 -0.7080  1.7379
 7127SOL    HW221937   2.287   2.354   6.576  2.1075 -0.0270  0.1146
 7128SOL     OW21938   7.251   1.966   7.352  0.1841 -0.2368 -0.1519
 7128SOL    HW121939   7.186   1.917   7.403 -1.1287 -0.1252 -1.6063
 7128SOL    HW221940   7.334   1.949   7.395 -0.6699 -1.2582  1.1731
 7129SOL     OW21941   1.812   7.054   5.683  0.1764 -0.4953  0.1021
 7129SOL    HW121942   1.763   7.011   5.612  2.2957 -1.2985 -0.9467
 7129SOL    HW221943   1.746   7.069   5.751 -1.5470 -1.4000 -1.2809
 7130SOL     OW21944   1.465   2.511   5.006  0.5050  0.1203  0.2751
 7130SOL    HW121945   1.555   2.478   5.002  0.8629  1.1706 -0.7567
 7130SOL    HW221946   1.432   2.480   5.091  1.0052 -2.3444 -0.3472
 7131SOL     OW21947   5.425   2.641   6.483  0.8732  0.2345  0.5209
 7131SOL    HW121948   5.452   2.564   6.434 -1.4090  0.2535 -0.9319
 7131SOL    HW221949   5.457   2.715   6.432  1.9177  0.2866  1.2173
 7132SOL     OW21950   4.143   1.233   5.544 -0.5389  0.6425 -0.4378
 7132SOL    HW121951   4.077   1.297   5.519  0.9356  1.3328 -3.0293
 7132SOL    HW221952   4.226   1.281   5.540  0.2454 -0.3239  2.1351
 7133SOL     OW21953   4.939   3.479   0.690 -0.0971  0.3109 -0.1155
 7133SOL    HW121954   4.992   3.555   0.713  1.0573 -0.2942 -0.6779
 7133SOL    HW221955   4.988   3.436   0.619 -1.6478  0.0652 -1.0938
 7134SOL     OW21956   7.312   2.908   6.816  0.1493 -0.2106  0.1184
 7134SOL    HW121957   7.226   2.880   6.848 -0.5283  3.0191  1.5536
 7134SOL    HW221958   7.293   2.981   6.758  1.9021  0.6639  0.5688
 7135SOL     OW21959   5.723   3.479   0.411 -0.2300 -0.3829 -0.3067
 7135SOL    HW121960   5.668   3.553   0.435  1.1514  0.1778  1.3318
 7135SOL    HW221961   5.721   3.421   0.487  0.8603 -0.6890 -0.4914
 7136SOL     OW21962   7.742   3.473   6.748  0.0047 -0.0716 -0.2202
 7136SOL    HW121963   7.796   3.535   6.797 -0.0646  0.9012 -1.3342
 7136SOL    HW221964   7.797   3.443   6.677  0.6614 -2.7210  1.2840
 7137SOL     OW21965   3.475   2.034   6.574 -0.7175  0.1227 -0.0204
 7137SOL    HW121966   3.548   2.087   6.543 -1.1000  1.1375  0.7653
 7137SOL    HW221967   3.405   2.049   6.509 -0.6973  0.2794 -0.0069
 7138SOL     OW21968   1.989   4.259   3.574  0.1115  0.1857 -0.4826
 7138SOL    HW121969   1.929   4.202   3.526  1.5618 -0.6535 -1.4003
 7138SOL    HW221970   1.993   4.220   3.662 -0.2631 -0.0852 -0.5835
 7139SOL     OW21971   2.675   0.329   2.586 -0.1074  0.0345  0.2728
 7139SOL    HW121972   2.670   0.269   2.512  0.0061  0.9792 -0.5250
 7139SOL    HW221973   2.642   0.279   2.660 -1.3076 -0.5739 -0.6395
 7140SOL     OW21974   2.158   0.575   5.232 -0.1728 -0.2012  0.1875
 7140SOL    HW121975   2.129   0.564   5.322  1.9485 -0.7760  0.8631
 7140SOL    HW221976   2.121   0.501   5.185  0.4999 -1.1325  1.0899
 7141SOL     OW21977   3.489   1.434   3.731 -0.5718 -0.1615  0.4981
 7141SOL    HW121978   3.442   1.461   3.810 -0.4772 -0.2575  0.5885
 7141SOL    HW221979   3.546   1.509   3.711  0.7737 -0.8373  1.5991
 7142SOL     OW21980   5.377   6.841   5.054  0.0364 -0.4367 -0.4738
 7142SOL    HW121981   5.307   6.875   5.109 -0.4857  0.5015 -1.6772
 7142SOL    HW221982   5.418   6.919   5.016  0.2248 -1.0555 -1.5879
 7143SOL     OW21983   7.640   0.334   5.258 -0.0123  0.1021  0.0564
 7143SOL    HW121984   7.621   0.264   5.319  1.6459 -0.7548 -0.3791
 7143SOL    HW221985   7.728   0.363   5.279 -0.5307  1.8709  0.0169
 7144SOL     OW21986   3.639   5.923   1.274  0.1822 -0.0008  0.3284
 7144SOL    HW121987   3.581   5.999   1.271 -0.7369 -0.6961 -0.9049
 7144SOL    HW221988   3.621   5.881   1.358 -1.2351 -0.2678 -0.0834
 7145SOL     OW21989   2.154   5.874   2.935  0.2614  0.0149  0.0429
 7145SOL    HW121990   2.144   5.779   2.940  0.4108  0.0524  2.5506
 7145SOL    HW221991   2.083   5.903   2.878 -0.6480 -1.4864  0.3498
 7146SOL     OW21992   4.613   0.797   1.986 -0.5197  0.2802 -0.1517
 7146SOL    HW121993   4.634   0.890   1.977  0.8874  0.1970  1.6215
 7146SOL    HW221994   4.518   0.793   1.982 -0.8176  2.1963  2.3064
 7147SOL     OW21995   7.385   5.048   5.300  0.2352 -0.1953  0.1039
 7147SOL    HW121996   7.472   5.089   5.300  0.3478 -0.4164  0.8437
 7147SOL    HW221997   7.379   5.006   5.386 -0.1963 -1.0579 -0.3375
 7148SOL     OW21998   6.335   1.922   4.086 -0.5660  0.4088  0.4627
 7148SOL    HW121999   6.388   1.916   4.007 -0.1254  1.0727  0.6987
 7148SOL    HW222000   6.276   1.847   4.081 -1.8056  1.4344 -1.3957
 7149SOL     OW22001   5.766   2.856   1.633  0.4099  0.5106  0.2773
 7149SOL    HW122002   5.757   2.831   1.541 -0.3812  0.7055  0.2972
 7149SOL    HW222003   5.734   2.780   1.682  0.6430  0.4837  0.3888
 7150SOL     OW22004   6.019   1.167   0.388  0.2735  0.1922 -0.2995
 7150SOL    HW122005   6.026   1.188   0.295 -0.2678 -1.3052 -0.7151
 7150SOL    HW222006   6.038   1.249   0.433  2.7535  0.4387 -1.6530
 7151SOL     OW22007   1.103   4.935   0.557  0.3124 -0.2760  0.2384
 7151SOL    HW122008   1.089   4.897   0.644  0.3877  0.8216  0.7533
 7151SOL    HW222009   1.039   5.005   0.551  2.5144  1.9689  0.8816
 7152SOL     OW22010   0.681   6.887   7.729 -0.2942 -0.1049 -0.2726
 7152SOL    HW122011   0.642   6.972   7.749 -0.2034 -0.5763  2.3562
 7152SOL    HW222012   0.712   6.895   7.639 -0.6994  2.4721 -0.2606
 7153SOL     OW22013   7.426   4.227   3.837 -0.2273  0.4920  0.3475
 7153SOL    HW122014   7.383   4.146   3.865 -0.9512  0.5990 -0.3975
 7153SOL    HW222015   7.354   4.288   3.824  0.3380  1.3902  1.2721
 7154SOL     OW22016   5.018   4.766   0.121 -0.2841  0.0925 -0.0085
 7154SOL    HW122017   4.994   4.832   0.056  2.6764  0.7913 -0.5465
 7154SOL    HW222018   5.112   4.752   0.107  0.2796 -0.4777  3.4657
 7155SOL     OW22019   4.718   7.237   0.855 -0.1244 -0.3547 -0.5512
 7155SOL    HW122020   4.679   7.189   0.928  1.0535 -0.5085 -0.0139
 7155SOL    HW222021   4.779   7.176   0.815  0.1913  0.1585 -0.8726
 7156SOL     OW22022   2.513   1.510   1.645  0.5137  0.2517  0.2069
 7156SOL    HW122023   2.488   1.601   1.628  0.1226  0.0041 -0.6129
 7156SOL    HW222024   2.568   1.514   1.723 -1.1421  0.9598  1.4107
 7157SOL     OW22025   1.018   7.658   2.425  0.0384  0.6775 -0.4826
 7157SOL    HW122026   1.085   7.681   2.490 -0.8615 -2.8036  2.0008
 7157SOL    HW222027   1.067   7.617   2.354  0.7825  0.9263 -0.1279
 7158SOL     OW22028   0.342   6.435   4.452  0.4873  0.4899  0.0492
 7158SOL    HW122029   0.382   6.459   4.368  1.7203  0.6115  0.6604
 7158SOL    HW222030   0.410   6.452   4.517  0.3266 -1.6565  0.8503
 7159SOL     OW22031   0.576   1.770   6.663  0.2429  0.5287 -0.3398
 7159SOL    HW122032   0.578   1.761   6.758  0.2409  1.0949 -0.2874
 7159SOL    HW222033   0.608   1.685   6.631  0.3719  0.3827  0.1628
 7160SOL     OW22034   6.139   3.234   3.851 -0.2137 -0.2407  0.1929
 7160SOL    HW122035   6.215   3.285   3.880 -0.2083 -0.5302  0.7030
 7160SOL    HW222036   6.170   3.144   3.851 -0.5584 -0.3631  0.4168
 7161SOL     OW22037   4.017   0.404   3.131 -0.0641  0.9186 -0.2736
 7161SOL    HW122038   3.994   0.317   3.164  0.0848  0.8341 -0.3949
 7161SOL    HW222039   3.992   0.464   3.202  0.9712  0.6691  0.3235
 7162SOL     OW22040   7.034   5.553   7.623 -0.4670 -0.3970  0.2892
 7162SOL    HW122041   7.085   5.607   7.683 -0.3046  0.2925 -0.4535
 7162SOL    HW222042   6.943   5.581   7.638 -0.3271  0.5722 -0.5487
 7163SOL     OW22043   4.360   0.498   2.601  0.5333 -0.1419  0.1244
 7163SOL    HW122044   4.380   0.488   2.508 -2.3299  1.7242 -0.8166
 7163SOL    HW222045   4.433   0.549   2.636 -0.2656  2.9195 -2.1764
 7164SOL     OW22046   2.902   1.304   1.451  0.2659  0.8328  0.3546
 7164SOL    HW122047   2.864   1.359   1.382 -0.1723  2.6707  1.9983
 7164SOL    HW222048   2.977   1.354   1.483  0.2612  0.1724  1.4416
 7165SOL     OW22049   7.085   2.567   4.582  0.1891 -0.2948 -0.4219
 7165SOL    HW122050   7.099   2.472   4.580  0.5794 -0.2330 -1.6279
 7165SOL    HW222051   7.071   2.588   4.675  1.8985 -1.2775  0.1119
 7166SOL     OW22052   1.143   4.921   2.170 -0.1603  0.5085  0.5244
 7166SOL    HW122053   1.050   4.911   2.191 -1.1392  1.2785 -2.8366
 7166SOL    HW222054   1.183   4.839   2.200 -2.5182 -1.1518 -0.5188
 7167SOL     OW22055   2.650   3.857   0.416  0.0760 -0.2230  0.3309
 7167SOL    HW122056   2.728   3.894   0.374  0.5970 -0.6141  0.9358
 7167SOL    HW222057   2.576   3.898   0.370  0.6312 -0.2316 -0.5843
 7168SOL     OW22058   4.364   1.988   2.297 -0.0021  0.0587  0.3234
 7168SOL    HW122059   4.282   2.025   2.265  0.5286  2.0047  1.0712
 7168SOL    HW222060   4.375   2.025   2.384  2.0494  0.4982 -0.0572
 7169SOL     OW22061   3.168   0.418   6.058  0.1221  0.2187  0.4799
 7169SOL    HW122062   3.072   0.415   6.065  0.2095 -0.6027  1.7973
 7169SOL    HW222063   3.197   0.335   6.096  1.3789  0.6822  0.5751
 7170SOL     OW22064   1.582   7.370   5.382  0.1151 -0.5514 -0.0236
 7170SOL    HW122065   1.527   7.323   5.445 -1.3196 -0.0312 -0.8473
 7170SOL    HW222066   1.531   7.448   5.359  0.9235 -0.3731 -1.2963
 7171SOL     OW22067   3.782   4.995   6.865  0.4489  0.6317 -0.4459
 7171SOL    HW122068   3.794   5.071   6.807 -1.3530  1.1360 -0.2078
 7171SOL    HW222069   3.690   4.973   6.857  0.5457 -0.3982  0.9161
 7172SOL     OW22070   6.465   6.566   3.280  0.9233 -0.0169 -0.0680
 7172SOL    HW122071   6.496   6.648   3.242  2.1523 -0.5478 -0.2792
 7172SOL    HW222072   6.441   6.512   3.204  1.9981 -0.5550 -0.0397
 7173SOL     OW22073   3.821   0.587   0.320 -0.2420 -0.2711  0.0920
 7173SOL    HW122074   3.869   0.518   0.273  1.6567  0.6990  0.4884
 7173SOL    HW222075   3.846   0.574   0.411 -1.7408 -0.4689  0.4902
 7174SOL     OW22076   7.334   4.877   2.748 -0.0913  0.0542 -0.2525
 7174SOL    HW122077   7.374   4.957   2.783  0.4214 -0.7260  1.0695
 7174SOL    HW222078   7.256   4.864   2.802  0.1001 -0.5813 -0.1174
 7175SOL     OW22079   6.456   3.667   1.948  0.6103 -0.0512  0.0154
 7175SOL    HW122080   6.469   3.686   2.040 -3.8047  0.3165  0.7395
 7175SOL    HW222081   6.434   3.574   1.946  0.2938  0.0339 -0.6384
 7176SOL     OW22082   2.079   4.692   5.999 -1.0380 -0.2602  0.1078
 7176SOL    HW122083   2.107   4.654   5.916  1.1257 -1.9594  1.5203
 7176SOL    HW222084   1.987   4.665   6.007 -1.1372 -0.4910 -1.4640
 7177SOL     OW22085   6.669   2.104   5.332  0.4791  0.1917 -0.3654
 7177SOL    HW122086   6.617   2.176   5.299 -1.1290 -0.1289  1.3026
 7177SOL    HW222087   6.691   2.052   5.254 -2.4182 -0.0963 -1.0878
 7178SOL     OW22088   1.637   1.245   1.622  0.3188 -0.3246  0.4442
 7178SOL    HW122089   1.583   1.172   1.652  0.7664 -0.1799  1.6977
 7178SOL    HW222090   1.715   1.242   1.678  0.4346  0.9916  0.3970
 7179SOL     OW22091   1.652   3.124   4.140  0.2125  0.7789  0.9263
 7179SOL    HW122092   1.725   3.075   4.101 -0.6495  0.5176 -0.4077
 7179SOL    HW222093   1.695   3.189   4.196  1.4406 -0.0282  0.9644
 7180SOL     OW22094   2.666   0.150   1.140  0.3098 -0.4127 -0.4120
 7180SOL    HW122095   2.583   0.117   1.105  0.8293  0.1558 -2.3519
 7180SOL    HW222096   2.646   0.179   1.228 -1.2217 -1.5590 -0.3439
 7181SOL     OW22097   5.735   5.535   6.921 -0.0925 -0.2669  0.3315
 7181SOL    HW122098   5.674   5.503   6.988 -1.8354  0.8097 -0.6478
 7181SOL    HW222099   5.778   5.456   6.888  0.2739 -0.8953  2.1825
 7182SOL     OW22100   4.498   0.876   0.747 -0.7534  0.1595 -0.0011
 7182SOL    HW122101   4.543   0.861   0.664  1.0829  0.8313  0.8003
 7182SOL    HW222102   4.540   0.816   0.809 -1.4681  0.2930  0.6275
 7183SOL     OW22103   3.390   0.440   7.005  0.0726  0.4396  0.1466
 7183SOL    HW122104   3.424   0.353   6.987 -1.1437 -0.9128  3.5158
 7183SOL    HW222105   3.462   0.486   7.048  0.0587  0.2951  0.3279
 7184SOL     OW22106   6.310   0.041   7.507 -0.2423 -0.2689 -0.2726
 7184SOL    HW122107   6.216   0.038   7.523 -0.3933 -0.0388 -1.0858
 7184SOL    HW222108   6.325   0.127   7.469  0.3105 -0.2826 -0.0974
 7185SOL     OW22109   6.626   5.873   6.451  0.3543 -0.0133 -0.2228
 7185SOL    HW122110   6.712   5.851   6.487  1.0385  0.9200 -1.2038
 7185SOL    HW222111   6.587   5.789   6.428  0.3486 -0.5606  1.6136
 7186SOL     OW22112   5.322   3.450   3.039 -1.2056 -0.1372  0.0993
 7186SOL    HW122113   5.331   3.356   3.026  0.5234 -0.1342  1.0113
 7186SOL    HW222114   5.404   3.487   3.006 -1.3710  0.9411  0.8454
 7187SOL     OW22115   1.533   0.988   4.686 -0.2575  0.2315  0.1952
 7187SOL    HW122116   1.524   1.076   4.650 -0.6956  1.7163  3.5225
 7187SOL    HW222117   1.593   0.943   4.627  0.7760  3.0947 -1.0808
 7188SOL     OW22118   2.559   2.061   6.517  0.4853  0.7479  0.2587
 7188SOL    HW122119   2.486   2.048   6.577  0.1003  1.9511  0.0603
 7188SOL    HW222120   2.519   2.085   6.434  1.0396 -0.3310 -0.3532
 7189SOL     OW22121   7.689   3.527   0.382 -0.3960 -0.7885 -0.0797
 7189SOL    HW122122   7.702   3.432   0.384  0.6286 -0.6941 -1.0627
 7189SOL    HW222123   7.759   3.562   0.437  0.4140 -0.5235 -1.2471
 7190SOL     OW22124   6.406   1.337   2.010 -0.3235  0.0915 -0.2022
 7190SOL    HW122125   6.439   1.327   2.099 -0.8875 -0.8290 -0.0845
 7190SOL    HW222126   6.422   1.429   1.989  1.0280  0.0028  0.3444
 7191SOL     OW22127   6.999   0.716   0.789 -0.4647 -0.1219  0.2157
 7191SOL    HW122128   6.977   0.801   0.750 -0.1295 -0.5373 -0.9061
 7191SOL    HW222129   7.094   0.720   0.801 -0.4447 -0.3606  0.1291
 7192SOL     OW22130   6.534   6.998   4.612  0.0175 -0.0068 -0.3175
 7192SOL    HW122131   6.571   6.913   4.593  1.3203  0.6293 -0.7059
 7192SOL    HW222132   6.492   6.988   4.697  0.9488 -0.7927  0.0562
 7193SOL     OW22133   2.017   0.927   5.928 -0.2031  0.1673  0.1638
 7193SOL    HW122134   1.949   0.887   5.874 -1.1323  0.6024  0.9813
 7193SOL    HW222135   2.087   0.861   5.932 -0.5606 -0.2816 -0.6892
 7194SOL     OW22136   2.141   2.069   1.430  0.4530  0.2351 -0.2586
 7194SOL    HW122137   2.127   2.059   1.336 -0.8837 -1.6570  0.0808
 7194SOL    HW222138   2.210   2.006   1.451 -0.3196 -0.4868  0.2230
 7195SOL     OW22139   7.673   4.667   7.722 -0.3074  0.5451 -0.0851
 7195SOL    HW122140   7.612   4.636   7.789 -2.6273 -0.1056 -2.3689
 7195SOL    HW222141   7.650   4.759   7.708  1.0118  1.0468  0.8127
 7196SOL     OW22142   3.030   0.742   3.431 -0.3179 -0.0515 -0.0347
 7196SOL    HW122143   3.010   0.829   3.398 -1.3104 -0.3242 -0.2024
 7196SOL    HW222144   2.998   0.742   3.521  0.4053  0.0058  0.2258
 7197SOL     OW22145   1.412   2.975   0.968 -0.3200 -0.0998 -0.1524
 7197SOL    HW122146   1.477   2.937   1.027 -0.7210 -1.4051 -0.5163
 7197SOL    HW222147   1.435   3.068   0.963  2.2171 -0.7174 -1.1804
 7198SOL     OW22148   4.120   6.568   7.071  0.2080 -0.2598  0.4147
 7198SOL    HW122149   4.102   6.622   7.148 -0.9242  0.3907 -0.2709
 7198SOL    HW222150   4.035   6.560   7.027  1.1582  1.0969 -1.8466
 7199SOL     OW22151   2.241   2.434   5.186  0.5921 -0.5039  0.0774
 7199SOL    HW122152   2.211   2.438   5.277 -0.3250  2.2048 -0.2492
 7199SOL    HW222153   2.309   2.500   5.180  1.0149 -1.0184 -1.1036
 7200SOL     OW22154   5.217   1.136   6.241  0.2568 -0.9183  0.0208
 7200SOL    HW122155   5.271   1.107   6.168  2.4963  1.1766  0.7064
 7200SOL    HW222156   5.254   1.092   6.318  0.3009 -0.3062  0.3593
 7201SOL     OW22157   5.562   7.041   5.836 -0.2624 -0.5748 -0.2086
 7201SOL    HW122158   5.617   7.020   5.911  2.2031  0.7456 -1.5188
 7201SOL    HW222159   5.611   7.011   5.760 -0.9791  1.2834 -1.4955
 7202SOL     OW22160   1.439   3.097   5.228 -0.0940  0.1254  0.1456
 7202SOL    HW122161   1.451   3.143   5.311 -0.1737 -2.6822  1.8322
 7202SOL    HW222162   1.363   3.139   5.188  0.7504  2.4203  0.7708
 7203SOL     OW22163   2.272   2.569   1.859  0.2543 -0.3782  0.0428
 7203SOL    HW122164   2.201   2.591   1.799  1.5952  0.3472 -1.3630
 7203SOL    HW222165   2.251   2.614   1.940 -0.6989  0.1328 -0.4786
 7204SOL     OW22166   3.317   3.263   5.573 -0.3833 -0.2269  0.3181
 7204SOL    HW122167   3.361   3.342   5.605 -0.8429 -0.4470  1.5634
 7204SOL    HW222168   3.279   3.289   5.490  0.2634  0.5905  0.2592
 7205SOL     OW22169   1.639   1.141   4.959 -0.8490 -0.3101  0.4128
 7205SOL    HW122170   1.555   1.188   4.961 -1.1425 -0.7985 -0.1333
 7205SOL    HW222171   1.647   1.110   4.869  0.4733  0.6939  0.1573
 7206SOL     OW22172   2.311   6.677   5.460 -0.4216  0.4505 -0.2774
 7206SOL    HW122173   2.368   6.754   5.464  0.2492  0.0713 -1.8321
 7206SOL    HW222174   2.227   6.708   5.495  0.4758  1.2333  1.3037
 7207SOL     OW22175   5.067   0.396   7.525 -0.9368  0.3168  0.1685
 7207SOL    HW122176   5.156   0.397   7.561 -0.9258  0.4135  0.1397
 7207SOL    HW222177   5.014   0.442   7.589 -1.2292 -0.9159  0.8493
 7208SOL     OW22178   4.845   1.608   3.400 -0.3810 -0.4825  0.0365
 7208SOL    HW122179   4.878   1.544   3.336  1.5185  1.3503 -0.9451
 7208SOL    HW222180   4.908   1.604   3.472  0.3747  0.9804 -0.5125
 7209SOL     OW22181   2.393   0.888   1.352  0.0074  0.4034  0.1427
 7209SOL    HW122182   2.476   0.873   1.305  0.1735  1.0800  0.2035
 7209SOL    HW222183   2.407   0.850   1.438  0.6525  1.4607  0.5174
 7210SOL     OW22184   5.780   6.351   6.280 -0.3310 -0.1242 -0.6004
 7210SOL    HW122185   5.726   6.352   6.201 -0.9541 -0.2572 -0.1867
 7210SOL    HW222186   5.870   6.348   6.248 -0.5358  0.8630 -1.3172
 7211SOL     OW22187   2.580   6.787   4.031  0.1350  0.4698  0.1778
 7211SOL    HW122188   2.600   6.695   4.050 -2.7125 -0.0292  1.2380
 7211SOL    HW222189   2.629   6.807   3.951  0.8206 -1.9493 -0.0693
 7212SOL     OW22190   2.882   0.985   2.674  0.3113 -0.2406  0.3722
 7212SOL    HW122191   2.934   1.057   2.639 -0.8230  0.6825  0.5381
 7212SOL    HW222192   2.821   1.026   2.735 -0.9610 -1.2130 -0.1904
 7213SOL     OW22193   3.323   3.445   0.282 -0.6510  0.1994  0.1120
 7213SOL    HW122194   3.230   3.431   0.268 -0.8248  0.5247  0.8843
 7213SOL    HW222195   3.362   3.438   0.194 -1.4226  0.2791 -0.2443
 7214SOL     OW22196   2.912   5.869   1.906 -0.0478 -0.0780  0.6200
 7214SOL    HW122197   2.924   5.940   1.843 -1.3597 -0.2721  0.1193
 7214SOL    HW222198   2.997   5.825   1.909 -0.0403 -0.2562 -1.2559
 7215SOL     OW22199   3.103   2.415   2.583 -0.2220 -0.1861 -0.3767
 7215SOL    HW122200   3.154   2.480   2.534 -0.9156  0.5546 -0.1472
 7215SOL    HW222201   3.150   2.403   2.665  1.6676 -2.4063 -1.6804
 7216SOL     OW22202   7.569   0.170   3.616 -0.0120 -0.0772 -0.1868
 7216SOL    HW122203   7.551   0.123   3.698  0.9767 -0.1268  0.0142
 7216SOL    HW222204   7.536   0.258   3.631  1.3683  0.3130  0.7964
 7217SOL     OW22205   0.346   0.324   3.641  0.0602  0.3874  0.0739
 7217SOL    HW122206   0.265   0.369   3.664 -0.2471 -0.4255  0.6536
 7217SOL    HW222207   0.351   0.328   3.546 -1.3676 -0.7075 -0.0794
 7218SOL     OW22208   3.300   1.196   3.372  0.0391 -0.0418  0.9432
 7218SOL    HW122209   3.303   1.237   3.286 -0.2681 -2.7317 -0.4442
 7218SOL    HW222210   3.213   1.217   3.406 -2.0368 -3.2150 -1.8004
 7219SOL     OW22211   7.701   0.007   4.345 -0.6175 -0.1059 -0.4909
 7219SOL    HW122212   7.687  -0.052   4.270  0.6106  1.6894 -2.2438
 7219SOL    HW222213   7.613   0.034   4.371 -1.0619 -0.2975 -1.7055
 7220SOL     OW22214   7.438   2.120   1.048 -0.0207  0.0739 -0.1361
 7220SOL    HW122215   7.498   2.104   1.120  0.5884  1.9360 -0.1802
 7220SOL    HW222216   7.391   2.200   1.073 -1.3516 -0.4721 -0.8200
 7221SOL     OW22217   4.827   7.086   3.762 -0.2065 -0.3914 -0.4425
 7221SOL    HW122218   4.836   7.055   3.852  0.0492 -0.7159 -0.5767
 7221SOL    HW222219   4.757   7.151   3.766 -0.0774 -0.2744  0.0228
 7222SOL     OW22220   4.743   5.497   4.248 -0.1096  0.3655 -0.5950
 7222SOL    HW122221   4.667   5.494   4.189 -0.3540  0.0731 -0.2680
 7222SOL    HW222222   4.781   5.409   4.242  0.3325  0.5734 -0.9205
 7223SOL     OW22223   6.713   4.892   4.619  0.1573  0.0554  0.5586
 7223SOL    HW122224   6.654   4.912   4.546  0.7260  1.1162  0.3669
 7223SOL    HW222225   6.701   4.965   4.680  0.0585 -0.5683  1.2958
 7224SOL     OW22226   4.227   5.696   5.654  0.3136  0.1185 -0.3117
 7224SOL    HW122227   4.318   5.677   5.630  0.1616  0.0084 -0.8230
 7224SOL    HW222228   4.178   5.620   5.623 -0.1412  0.7970 -1.2979
 7225SOL     OW22229   4.433   2.657   1.521 -0.1991  0.2099 -0.6156
 7225SOL    HW122230   4.476   2.574   1.540 -0.0757 -0.1310 -2.2043
 7225SOL    HW222231   4.372   2.671   1.594  0.2258 -0.9560 -0.0211
 7226SOL     OW22232   3.220   6.055   6.845 -0.7562 -0.4693  0.0039
 7226SOL    HW122233   3.273   6.103   6.780 -0.0447 -1.1869  0.0333
 7226SOL    HW222234   3.151   6.116   6.869 -1.7729 -0.5775 -2.3053
 7227SOL     OW22235   3.767   4.895   3.304 -0.1278 -0.5186 -0.6842
 7227SOL    HW122236   3.860   4.899   3.324 -0.5278 -2.2813  2.0914
 7227SOL    HW222237   3.730   4.973   3.345 -0.1904 -1.2860  0.7927
 7228SOL     OW22238   2.908   0.288   2.097  0.8108  0.3558 -0.5323
 7228SOL    HW122239   2.974   0.355   2.117 -0.0925  1.2230 -0.3517
 7228SOL    HW222240   2.915   0.276   2.002 -0.2507  2.0915 -0.8767
 7229SOL     OW22241   0.138   5.450   5.309 -0.4283  0.4040 -0.2767
 7229SOL    HW122242   0.052   5.452   5.352  0.3959  1.4239  1.4172
 7229SOL    HW222243   0.170   5.361   5.324 -1.2083 -0.0157 -1.0086
 7230SOL     OW22244   2.086   6.091   7.240 -0.1187 -0.3089  0.3486
 7230SOL    HW122245   2.003   6.054   7.270 -0.5892 -0.4674 -1.0683
 7230SOL    HW222246   2.067   6.184   7.225  1.2156  0.8765  4.5094
 7231SOL     OW22247   5.512   4.673   0.409  0.0556 -0.6431  0.4899
 7231SOL    HW122248   5.579   4.680   0.477 -1.5355 -1.3412  2.2132
 7231SOL    HW222249   5.478   4.762   0.399  0.3004 -0.5359  0.5921
 7232SOL     OW22250   5.535   3.016   7.422 -0.1330 -0.4211 -0.5654
 7232SOL    HW122251   5.474   3.053   7.358  1.8488  1.5457 -1.4604
 7232SOL    HW222252   5.573   2.940   7.377 -0.0938 -0.1345 -1.0284
 7233SOL     OW22253   4.371   3.717   7.301 -0.3262  0.0881  0.1197
 7233SOL    HW122254   4.458   3.739   7.268 -0.2975 -0.7064 -0.3726
 7233SOL    HW222255   4.378   3.626   7.328 -1.3057 -0.3553 -1.0201
 7234SOL     OW22256   1.082   0.715   6.272 -0.2816 -0.1204 -0.0192
 7234SOL    HW122257   1.139   0.677   6.339 -0.0531  3.8276  2.3719
 7234SOL    HW222258   1.137   0.721   6.194  0.8386 -1.1561  0.6573
 7235SOL     OW22259   5.336   7.032   3.936 -0.0325 -0.0723 -0.1955
 7235SOL    HW122260   5.241   7.037   3.948  0.0212  0.4272  0.0656
 7235SOL    HW222261   5.348   6.975   3.861 -0.6743  2.2929 -2.2221
 7236SOL     OW22262   4.592   3.634   1.569  0.2576 -0.0001  0.1314
 7236SOL    HW122263   4.597   3.609   1.662 -1.8876 -0.1875  0.2478
 7236SOL    HW222264   4.504   3.609   1.542  0.2797  1.5190 -1.5467
 7237SOL     OW22265   1.990   4.807   3.240  0.1806  0.0970  0.2676
 7237SOL    HW122266   1.984   4.881   3.180 -0.2660 -0.2531 -0.1323
 7237SOL    HW222267   1.907   4.807   3.288  0.3322  0.0778  0.5339
 7238SOL     OW22268   5.014   3.587   6.629 -0.1516  0.2252  0.2737
 7238SOL    HW122269   4.969   3.505   6.652 -0.0333  0.7330  2.4673
 7238SOL    HW222270   5.107   3.568   6.642 -0.2390  1.3586  3.3737
 7239SOL     OW22271   0.468   3.238   5.067 -0.0925 -0.4014  0.3080
 7239SOL    HW122272   0.517   3.184   5.129 -0.0236 -0.0962  0.5208
 7239SOL    HW222273   0.533   3.296   5.028 -0.3428  0.3046  0.9130
 7240SOL     OW22274   2.177   5.156   2.263  0.0510  0.1686 -0.1775
 7240SOL    HW122275   2.248   5.179   2.204  2.5418 -1.9330  1.7366
 7240SOL    HW222276   2.220   5.141   2.348 -2.5423 -1.9543  0.9272
 7241SOL     OW22277   7.435   4.475   2.784  0.0111 -0.2970 -0.1780
 7241SOL    HW122278   7.513   4.492   2.732  0.2815 -0.2123  0.2464
 7241SOL    HW222279   7.373   4.542   2.758  0.0682 -0.3834 -0.5415
 7242SOL     OW22280   5.553   0.305   5.148  0.1863 -0.1002 -0.0235
 7242SOL    HW122281   5.552   0.376   5.085 -1.4808 -0.4757 -0.4728
 7242SOL    HW222282   5.581   0.228   5.098  0.4229 -0.0838  0.0812
 7243SOL     OW22283   6.255   6.463   6.850  0.4317 -0.4424 -0.1464
 7243SOL    HW122284   6.303   6.514   6.915 -0.5639 -0.9499  1.0243
 7243SOL    HW222285   6.204   6.527   6.802  0.3269 -0.1757  0.3168
 7244SOL     OW22286   2.915   1.400   3.971  0.0152 -0.2236  0.0769
 7244SOL    HW122287   2.938   1.479   4.018 -0.6446  0.2339 -0.3500
 7244SOL    HW222288   2.953   1.412   3.884  1.3636 -1.1306  0.5000
 7245SOL     OW22289   3.920   7.742   4.609 -0.0373  0.4008  0.1926
 7245SOL    HW122290   3.929   7.648   4.596  2.2972  0.5323  0.4018
 7245SOL    HW222291   3.830   7.761   4.585 -0.5182 -1.8509 -0.0277
 7246SOL     OW22292   5.971   6.033   2.353 -0.2136 -0.4717  0.2268
 7246SOL    HW122293   6.009   5.951   2.385  1.9048  0.1581 -0.5322
 7246SOL    HW222294   5.969   6.023   2.258  4.6268  2.0137 -0.4169
 7247SOL     OW22295   5.557   4.432   4.710  0.2482  0.1808  0.0012
 7247SOL    HW122296   5.555   4.504   4.773  1.5271 -1.4655  2.0590
 7247SOL    HW222297   5.640   4.441   4.664  0.5734 -0.1601  0.5137
 7248SOL     OW22298   4.686   0.121   2.970 -0.1024  0.4639  0.2903
 7248SOL    HW122299   4.715   0.210   2.991  3.3524 -0.2033 -0.9167
 7248SOL    HW222300   4.657   0.127   2.878  2.6753 -0.0041 -0.7214
 7249SOL     OW22301   2.229   0.079   5.390 -0.5339 -0.8756 -0.2151
 7249SOL    HW122302   2.323   0.072   5.406 -0.5608 -0.3523  0.1922
 7249SOL    HW222303   2.203  -0.009   5.362  0.1553 -0.9148 -0.7763
 7250SOL     OW22304   6.660   2.423   2.047 -0.1463  0.1154 -0.1284
 7250SOL    HW122305   6.638   2.430   1.954  1.3486  3.0636 -0.3801
 7250SOL    HW222306   6.585   2.463   2.092  0.5039  1.7132 -0.3711
 7251SOL     OW22307   2.327   4.630   1.258 -0.1027  0.0938  0.3220
 7251SOL    HW122308   2.311   4.705   1.316  0.5414  0.8272 -0.4163
 7251SOL    HW222309   2.386   4.665   1.191  0.3331 -1.1322  0.0555
 7252SOL     OW22310   3.734   6.002   0.339 -0.4938  0.5116 -0.2318
 7252SOL    HW122311   3.820   5.974   0.371  0.0522  0.1219 -1.9355
 7252SOL    HW222312   3.731   6.096   0.357  0.5441  0.6397 -0.6504
 7253SOL     OW22313   5.563   7.382   5.413  0.1748  0.3042 -0.4933
 7253SOL    HW122314   5.597   7.306   5.460  2.8052  1.5406 -0.2153
 7253SOL    HW222315   5.594   7.370   5.323  1.6558  1.5456 -0.1948
 7254SOL     OW22316   1.004   7.405   6.471 -0.2008  0.2058 -0.7335
 7254SOL    HW122317   0.946   7.329   6.461 -0.1054  0.2002 -1.2910
 7254SOL    HW222318   0.957   7.464   6.530 -0.8263  0.2445 -1.2584
 7255SOL     OW22319   7.641   0.652   2.156  0.8394 -0.0237  0.0831
 7255SOL    HW122320   7.666   0.568   2.194  1.2831  0.1771  0.2484
 7255SOL    HW222321   7.586   0.629   2.081  1.8223 -0.5146 -0.5223
 7256SOL     OW22322   2.407   0.412   3.153 -0.0050  0.6246  0.6502
 7256SOL    HW122323   2.371   0.363   3.080  0.5365 -0.0659  0.8266
 7256SOL    HW222324   2.401   0.352   3.228  2.5695 -0.0374  0.4447
 7257SOL     OW22325   2.555   7.685   3.012 -0.3979 -0.3826 -0.4118
 7257SOL    HW122326   2.559   7.780   3.022 -0.2545 -0.5180  1.0138
 7257SOL    HW222327   2.621   7.652   3.073 -1.8571 -1.4592  0.6568
 7258SOL     OW22328   3.082   2.940   0.590  0.0492  0.2464  0.2761
 7258SOL    HW122329   3.163   2.981   0.560  0.4315 -0.1096  0.8007
 7258SOL    HW222330   3.021   2.951   0.517  0.9923 -0.7239 -0.6998
 7259SOL     OW22331   5.247   3.472   4.098  0.0363  0.0860  0.1883
 7259SOL    HW122332   5.277   3.549   4.147 -1.3534  0.6197  0.2560
 7259SOL    HW222333   5.310   3.404   4.119  0.2313  0.6804  1.6522
 7260SOL     OW22334   5.430   6.077   6.738 -0.4226  0.7923 -0.1504
 7260SOL    HW122335   5.460   5.996   6.780  1.9882  1.6289 -0.0988
 7260SOL    HW222336   5.384   6.048   6.660 -2.1224 -0.6912  1.3312
 7261SOL     OW22337   1.672   1.370   5.779 -0.3750  0.8960  0.6374
 7261SOL    HW122338   1.613   1.418   5.837  0.4065  0.1708  2.0694
 7261SOL    HW222339   1.638   1.280   5.781 -0.7180  0.9783 -0.5572
 7262SOL     OW22340   5.765   6.011   2.005  0.0271 -0.0225 -0.1332
 7262SOL    HW122341   5.853   6.006   2.043  0.2470  0.6299 -0.5384
 7262SOL    HW222342   5.779   6.047   1.918 -0.6666  0.2592 -0.1281
 7263SOL     OW22343   6.596   3.611   7.083  0.3912  0.3673 -0.3996
 7263SOL    HW122344   6.618   3.522   7.056  2.5902  0.1902  1.6952
 7263SOL    HW222345   6.624   3.666   7.010 -1.4853 -0.6024 -1.9494
 7264SOL     OW22346   2.508   2.993   0.555  0.2681 -0.2135  0.6015
 7264SOL    HW122347   2.562   2.917   0.534 -0.9908 -0.2673 -3.3904
 7264SOL    HW222348   2.428   2.957   0.593  0.0137 -0.9002 -0.5243
 7265SOL     OW22349   4.280   5.807   6.048  0.4334 -0.3663  0.4031
 7265SOL    HW122350   4.302   5.717   6.022 -2.4258 -0.3779 -2.7530
 7265SOL    HW222351   4.219   5.796   6.121  0.3332 -1.0189  0.2302
 7266SOL     OW22352   3.392   7.517   7.010  0.5313  0.4182 -0.2447
 7266SOL    HW122353   3.397   7.589   7.073  0.9447  0.2760 -0.1148
 7266SOL    HW222354   3.343   7.449   7.055 -1.0536  1.0997 -0.8404
 7267SOL     OW22355   4.265   3.994   6.658  0.6611 -0.4523 -0.1352
 7267SOL    HW122356   4.256   4.065   6.722 -1.9816 -0.7612 -0.0744
 7267SOL    HW222357   4.216   4.025   6.582 -1.8678 -2.7418  0.4207
 7268SOL     OW22358   2.215   4.209   0.334  0.1859  0.6285  0.5246
 7268SOL    HW122359   2.241   4.296   0.303  1.9918 -0.0707 -0.0743
 7268SOL    HW222360   2.203   4.220   0.429  0.4895  1.5076  0.4700
 7269SOL     OW22361   3.801   5.908   6.768  0.4279 -0.1070  0.7439
 7269SOL    HW122362   3.714   5.900   6.807  0.5490 -2.2500  0.7010
 7269SOL    HW222363   3.856   5.849   6.819  1.2762 -0.6925 -0.7685
 7270SOL     OW22364   7.082   0.255   4.685 -0.2393  0.4852 -0.5372
 7270SOL    HW122365   7.086   0.262   4.781 -2.1983  0.8295 -0.4403
 7270SOL    HW222366   7.017   0.320   4.659 -3.2789 -2.6718 -1.6140
 7271SOL     OW22367   3.740   5.476   0.831  0.0036 -0.2780  0.1394
 7271SOL    HW122368   3.813   5.500   0.774 -0.0048  2.8433  1.2466
 7271SOL    HW222369   3.768   5.394   0.872  2.0091 -0.2029 -0.9411
 7272SOL     OW22370   1.505   2.784   6.160 -0.2685  0.2011  0.0073
 7272SOL    HW122371   1.488   2.875   6.134 -0.8177  0.3447  0.8449
 7272SOL    HW222372   1.444   2.767   6.231  1.0926 -0.2246  1.1339
 7273SOL     OW22373   1.408   4.820   4.393 -0.2822 -0.3249  0.4208
 7273SOL    HW122374   1.313   4.807   4.399 -0.4804  0.7634 -0.0886
 7273SOL    HW222375   1.426   4.824   4.300 -0.0085  1.1601  0.5074
 7274SOL     OW22376   1.864   6.359   0.717 -0.2702 -0.3563  0.2712
 7274SOL    HW122377   1.900   6.377   0.630 -0.9989 -0.6954 -0.1089
 7274SOL    HW222378   1.783   6.408   0.720  0.2349  0.4481  1.1513
 7275SOL     OW22379   5.436   2.375   6.353  0.0158 -0.1906  0.1084
 7275SOL    HW122380   5.471   2.291   6.384  2.3398  0.2928 -0.9443
 7275SOL    HW222381   5.477   2.387   6.267  1.5154  2.9781  1.1280
 7276SOL     OW22382   0.004   0.379   3.084  0.4197  0.0026  0.4043
 7276SOL    HW122383   0.093   0.394   3.116  0.7212 -2.8934  1.2258
 7276SOL    HW222384  -0.018   0.291   3.115 -2.3950  0.2470 -0.5930
 7277SOL     OW22385   5.254   1.553   4.945  0.0512 -0.2879  0.1995
 7277SOL    HW122386   5.330   1.597   4.907  0.5735 -0.3479  1.1498
 7277SOL    HW222387   5.233   1.485   4.882  0.5374 -0.0118 -0.2736
 7278SOL     OW22388   1.424   7.179   4.276  0.6916 -0.3273 -0.8945
 7278SOL    HW122389   1.438   7.195   4.369  0.4960 -1.7593 -0.5837
 7278SOL    HW222390   1.418   7.266   4.236  2.4672  0.3107  0.1490
 7279SOL     OW22391   2.071   0.053   1.210 -0.1258  0.1373  0.2987
 7279SOL    HW122392   2.156   0.078   1.248  0.5857 -1.1921 -0.3393
 7279SOL    HW222393   2.046  -0.026   1.257 -0.1929 -0.4183 -0.6431
 7280SOL     OW22394   2.367   7.042   6.069 -0.2847 -0.6683  0.5871
 7280SOL    HW122395   2.413   7.123   6.092  0.4365 -0.4497 -1.3800
 7280SOL    HW222396   2.412   6.974   6.119  1.1077 -0.2245 -0.0163
 7281SOL     OW22397   3.653   4.925   5.553 -0.2378  0.4486 -0.2072
 7281SOL    HW122398   3.578   4.909   5.497 -0.9919 -0.3160  0.9729
 7281SOL    HW222399   3.727   4.934   5.493 -1.2629  1.3162 -1.3935
 7282SOL     OW22400   5.312   4.709   0.150 -0.4115  0.2610  0.0364
 7282SOL    HW122401   5.302   4.739   0.240  0.3872 -0.2616  0.3121
 7282SOL    HW222402   5.311   4.613   0.156  3.4214  0.0799  0.0382
 7283SOL     OW22403   7.609   0.373   1.033 -0.1211 -0.2119 -0.1916
 7283SOL    HW122404   7.594   0.342   1.123  2.2481  0.9678  0.7018
 7283SOL    HW222405   7.672   0.311   0.997  1.5978  1.2309  0.2226
 7284SOL     OW22406   7.487   0.100   0.438  0.6412 -0.0973 -0.5511
 7284SOL    HW122407   7.418   0.050   0.482  0.9779 -0.8622 -0.8815
 7284SOL    HW222408   7.461   0.192   0.450  0.7486 -0.2815  1.2686
 7285SOL     OW22409   4.984   0.707   5.537 -0.0594  0.2786  0.5542
 7285SOL    HW122410   4.983   0.623   5.583 -2.3013  0.3860  0.7741
 7285SOL    HW222411   5.060   0.702   5.479 -0.9805 -2.5074 -0.5496
 7286SOL     OW22412   6.898   5.644   2.593 -0.2719  0.0599  0.2682
 7286SOL    HW122413   6.903   5.739   2.582  2.0938 -0.0353  0.1278
 7286SOL    HW222414   6.812   5.630   2.634 -0.5486  2.2759  0.5853
 7287SOL     OW22415   4.380   1.241   6.234  0.6317 -0.1199 -0.5256
 7287SOL    HW122416   4.291   1.244   6.271  0.5500 -1.3579 -0.6053
 7287SOL    HW222417   4.368   1.210   6.145  1.1597 -0.3793 -0.5071
 7288SOL     OW22418   7.145   2.150   3.050  0.1155 -0.1119 -0.1580
 7288SOL    HW122419   7.223   2.166   2.998 -0.1463  0.1480 -0.4705
 7288SOL    HW222420   7.102   2.235   3.059 -0.2752 -0.2960 -0.2189
 7289SOL     OW22421   0.625   0.257   6.185 -0.5978 -0.6229 -0.2753
 7289SOL    HW122422   0.622   0.195   6.258 -1.3279  1.1667  1.2879
 7289SOL    HW222423   0.706   0.307   6.199 -0.1237 -1.0464 -1.4016
 7290SOL     OW22424   6.006   6.304   6.656 -0.1701 -0.8341 -0.0725
 7290SOL    HW122425   6.095   6.281   6.626 -0.2046 -0.0855 -0.7852
 7290SOL    HW222426   6.011   6.397   6.677 -0.8095 -0.7707 -0.1953
 7291SOL     OW22427   3.426   0.255   2.445  0.3963  0.1601 -0.2215
 7291SOL    HW122428   3.373   0.227   2.520  0.3763 -0.1470 -0.3472
 7291SOL    HW222429   3.493   0.187   2.437 -0.2120 -0.3503 -1.1173
 7292SOL     OW22430   3.122   2.762   6.187  0.0221  0.7494  0.2406
 7292SOL    HW122431   3.166   2.700   6.244 -4.2674 -0.4961  2.7029
 7292SOL    HW222432   3.133   2.847   6.231  1.7916  0.9294 -0.4798
 7293SOL     OW22433   1.670   1.237   3.580 -0.1173  0.0318 -0.1405
 7293SOL    HW122434   1.583   1.240   3.541 -0.2253 -1.1108 -0.0242
 7293SOL    HW222435   1.696   1.145   3.573  0.3117  0.0025  1.5032
 7294SOL     OW22436   2.227   5.727   5.086 -0.0211  0.4141 -0.2886
 7294SOL    HW122437   2.261   5.649   5.129 -0.2220  0.6550  0.3239
 7294SOL    HW222438   2.170   5.694   5.017 -1.8018 -0.0132  1.3120
 7295SOL     OW22439   1.207   5.674   5.399  0.4512  0.5486 -0.5882
 7295SOL    HW122440   1.136   5.613   5.379  1.4176  0.0239 -2.7234
 7295SOL    HW222441   1.225   5.660   5.492 -1.7486  0.2272 -0.1572
 7296SOL     OW22442   2.915   6.823   4.837 -0.0777 -0.2405 -0.1878
 7296SOL    HW122443   2.840   6.773   4.869  1.4512 -1.8124  1.1705
 7296SOL    HW222444   2.954   6.861   4.916 -0.1727  1.7217 -1.0100
 7297SOL     OW22445   0.003   0.124   6.079  0.1601 -0.2082  0.1088
 7297SOL    HW122446   0.070   0.058   6.094 -0.4648 -1.0892 -0.8833
 7297SOL    HW222447  -0.046   0.128   6.161  1.2409  0.2681  0.7591
 7298SOL     OW22448   0.848   1.094   0.818  0.0369 -0.1539 -0.0787
 7298SOL    HW122449   0.891   1.061   0.897  0.4692 -0.3069 -0.3774
 7298SOL    HW222450   0.918   1.138   0.769 -0.6503  1.9514  0.6884
 7299SOL     OW22451   1.328   3.007   2.629 -0.1727  0.1967 -0.2119
 7299SOL    HW122452   1.353   2.964   2.548 -2.4280  0.6054 -1.2026
 7299SOL    HW222453   1.389   3.080   2.638  1.4740 -1.1061 -0.3340
 7300SOL     OW22454   1.565   4.659   1.356  0.1587  0.0125  0.0535
 7300SOL    HW122455   1.535   4.716   1.285  0.5275  0.4575  0.2443
 7300SOL    HW222456   1.656   4.685   1.370 -0.2025  0.6671  1.3840
 7301SOL     OW22457   5.011   5.845   2.496 -0.3587 -0.1490 -0.3937
 7301SOL    HW122458   4.928   5.882   2.465  0.2316  0.1786 -1.6327
 7301SOL    HW222459   4.987   5.798   2.576 -1.3810  1.6571  0.4292
 7302SOL     OW22460   3.644   5.745   3.644  0.6614 -0.6836 -0.3697
 7302SOL    HW122461   3.605   5.728   3.559 -1.3860  0.8235  0.2049
 7302SOL    HW222462   3.576   5.790   3.694  2.8783  1.4405  0.9730
 7303SOL     OW22463   1.695   1.808   2.692 -0.3278 -0.1753  0.1334
 7303SOL    HW122464   1.661   1.757   2.618  0.2137  0.5277 -0.6190
 7303SOL    HW222465   1.737   1.883   2.651 -2.3448  1.6767  1.2443
 7304SOL     OW22466   2.311   0.521   5.841 -0.3812 -0.1281  0.2994
 7304SOL    HW122467   2.254   0.448   5.864  0.7152 -1.0763  0.0917
 7304SOL    HW222468   2.351   0.496   5.758  2.3011 -0.7276  1.6556
 7305SOL     OW22469   2.873   2.209   1.955 -0.6876  0.1809 -0.3400
 7305SOL    HW122470   2.780   2.227   1.957 -1.0801 -1.6491  0.0213
 7305SOL    HW222471   2.887   2.157   1.876 -0.4069 -1.3874  0.6798
 7306SOL     OW22472   6.216   3.658   6.916 -0.1940  0.1884  0.0083
 7306SOL    HW122473   6.147   3.600   6.948  0.1265 -1.6222 -2.3285
 7306SOL    HW222474   6.296   3.606   6.921  0.9089  1.8866  1.6447
 7307SOL     OW22475   4.307   1.497   3.525 -0.2159  0.4782  0.4731
 7307SOL    HW122476   4.399   1.515   3.541 -0.5242  1.5187  1.1316
 7307SOL    HW222477   4.301   1.401   3.525  1.4779  0.2075 -3.1396
 7308SOL     OW22478   0.884   6.690   0.053  0.0277 -0.2937 -0.1320
 7308SOL    HW122479   0.855   6.599   0.055  0.2167 -0.4328 -1.7607
 7308SOL    HW222480   0.831   6.731  -0.016  2.0115  0.0255 -1.5610
 7309SOL     OW22481   2.747   6.045   0.026  0.0336  0.6491 -0.1289
 7309SOL    HW122482   2.667   6.081   0.064 -0.4006  1.0736 -1.3761
 7309SOL    HW222483   2.802   6.121   0.008 -1.5233  1.0880 -4.2308
 7310SOL     OW22484   1.500   4.869   0.706 -0.4508  0.0412  0.3838
 7310SOL    HW122485   1.596   4.867   0.703 -0.4435 -0.7444  0.8971
 7310SOL    HW222486   1.474   4.876   0.614  0.1014  1.3505  0.3075
 7311SOL     OW22487   0.989   5.939   2.994 -0.3138 -0.6997  0.2710
 7311SOL    HW122488   1.085   5.939   3.001 -0.2386 -2.5745 -0.3648
 7311SOL    HW222489   0.959   5.932   3.085  0.1579 -0.5365  0.4436
 7312SOL     OW22490   5.327   4.309   1.429  0.0274 -0.2324  0.2873
 7312SOL    HW122491   5.384   4.244   1.386 -1.8337 -1.5913 -0.2605
 7312SOL    HW222492   5.266   4.336   1.360 -0.5269  0.5536  1.0790
 7313SOL     OW22493   1.481   5.489   7.420  0.1664  0.1874  0.2662
 7313SOL    HW122494   1.402   5.542   7.432 -0.2420 -0.4827  0.5694
 7313SOL    HW222495   1.462   5.407   7.466  0.5753 -0.4428 -0.6707
 7314SOL     OW22496   5.361   2.561   1.848 -0.3443  0.4009 -0.2384
 7314SOL    HW122497   5.339   2.521   1.764 -1.0352 -0.3408  0.2829
 7314SOL    HW222498   5.290   2.536   1.906 -0.1959  1.4460  0.4102
 7315SOL     OW22499   5.057   3.236   1.673  0.3132  0.5415 -0.3193
 7315SOL    HW122500   4.979   3.283   1.701  1.0784  1.0350  1.0551
 7315SOL    HW222501   5.129   3.298   1.687  1.0737 -0.2485 -0.6401
 7316SOL     OW22502   0.294   6.964   6.565 -0.5717  0.3695 -0.6279
 7316SOL    HW122503   0.327   7.027   6.501  1.1653 -2.2686 -2.5038
 7316SOL    HW222504   0.370   6.913   6.591 -2.0407 -1.6597 -0.0065
 7317SOL     OW22505   2.233   5.435   1.033 -0.4209  0.2564  0.0254
 7317SOL    HW122506   2.325   5.421   1.053 -0.3281 -0.0679 -0.5862
 7317SOL    HW222507   2.215   5.525   1.058  0.5048  0.8757 -1.4028
 7318SOL     OW22508   0.624   0.076   6.395  0.4180 -0.3801 -0.0329
 7318SOL    HW122509   0.597  -0.011   6.366  0.3832 -0.0297 -1.0610
 7318SOL    HW222510   0.704   0.061   6.445  0.8900 -0.9095 -0.9402
 7319SOL     OW22511   5.896   3.265   5.895  0.0140  0.7467 -0.0933
 7319SOL    HW122512   5.910   3.358   5.913  2.9476  0.4414 -0.4596
 7319SOL    HW222513   5.888   3.225   5.982  0.8897  1.0667  0.1425
 7320SOL     OW22514   7.468   3.736   6.795  0.2933  0.4135 -0.1832
 7320SOL    HW122515   7.447   3.820   6.836 -0.2134  0.0913  0.2198
 7320SOL    HW222516   7.510   3.761   6.712  1.4938  1.0708  0.5891
 7321SOL     OW22517   3.844   3.219   4.207 -0.1837 -0.9750  0.5694
 7321SOL    HW122518   3.792   3.246   4.131  2.2505 -1.9128 -1.5746
 7321SOL    HW222519   3.786   3.161   4.256 -1.5268 -1.1953 -1.1580
 7322SOL     OW22520   0.628   5.658   6.676  0.8194  0.7750  0.2909
 7322SOL    HW122521   0.662   5.582   6.722  0.1591 -0.0958 -0.6025
 7322SOL    HW222522   0.540   5.670   6.712  0.3414  0.1551 -0.6284
 7323SOL     OW22523   4.113   2.709   3.700  0.0218  0.1703 -0.0438
 7323SOL    HW122524   4.180   2.758   3.652 -1.3307  0.6028 -1.5993
 7323SOL    HW222525   4.158   2.630   3.731  0.9136 -0.2893 -2.3077
 7324SOL     OW22526   5.627   1.190   7.119 -0.0385  0.1666  0.4598
 7324SOL    HW122527   5.623   1.261   7.183  1.3738  0.0015  0.7693
 7324SOL    HW222528   5.604   1.111   7.167  0.2069  0.1617  0.5720
 7325SOL     OW22529   3.577   4.128   1.515  0.3016 -0.5722 -0.5267
 7325SOL    HW122530   3.604   4.042   1.483 -0.7709 -0.6473 -1.3118
 7325SOL    HW222531   3.507   4.154   1.455  0.1638  0.5584  0.1011
 7326SOL     OW22532   6.266   5.993   3.686 -0.2197 -0.4505  0.0791
 7326SOL    HW122533   6.225   5.980   3.772 -2.6848 -3.6392 -1.3684
 7326SOL    HW222534   6.357   5.966   3.699 -0.9277 -2.4128  1.4102
 7327SOL     OW22535   2.483   2.161   0.392 -0.2473 -0.4392  0.2178
 7327SOL    HW122536   2.450   2.078   0.426  0.7264 -1.2277 -0.6847
 7327SOL    HW222537   2.516   2.207   0.469 -0.4457 -1.0553  0.6807
 7328SOL     OW22538   6.370   6.978   3.792 -0.3020 -0.4734 -0.3303
 7328SOL    HW122539   6.453   7.014   3.759  1.1282 -3.5614 -0.5536
 7328SOL    HW222540   6.339   6.923   3.720 -1.6506 -0.6876  0.3922
 7329SOL     OW22541   5.490   4.859   0.890  0.3483  0.6145  0.3251
 7329SOL    HW122542   5.518   4.945   0.860  2.1026  1.4282  3.7840
 7329SOL    HW222543   5.400   4.872   0.920  0.8375  1.5021  1.4867
 7330SOL     OW22544   2.304   6.470   1.084  0.2079 -0.2431 -0.2580
 7330SOL    HW122545   2.384   6.521   1.072 -0.2696  0.5875  0.0452
 7330SOL    HW222546   2.289   6.428   0.999  1.0200 -0.5001 -0.2844
 7331SOL     OW22547   1.831   4.981   1.293 -0.3420 -0.2477 -0.1434
 7331SOL    HW122548   1.806   4.979   1.201 -0.8836 -1.0804  0.0134
 7331SOL    HW222549   1.927   4.977   1.292 -0.0832  3.0721 -0.7556
 7332SOL     OW22550   4.484   5.586   1.343  0.6588 -0.6025  0.3254
 7332SOL    HW122551   4.472   5.603   1.436 -2.1515 -2.8620  0.5395
 7332SOL    HW222552   4.435   5.655   1.298  2.1427  0.5751  0.4657
 7333SOL     OW22553   6.325   3.637   1.170  0.0648 -0.2363 -0.4794
 7333SOL    HW122554   6.245   3.617   1.121 -0.6545 -1.5402  1.0858
 7333SOL    HW222555   6.298   3.703   1.234  0.8829  1.1301 -1.4891
 7334SOL     OW22556   3.146   7.467   2.287 -0.4167  0.0413 -0.6443
 7334SOL    HW122557   3.071   7.415   2.315  0.4887 -1.3264 -0.7122
 7334SOL    HW222558   3.111   7.557   2.282 -1.4165 -0.1288  1.7217
 7335SOL     OW22559   0.866   4.508   1.977  0.2549 -0.1114 -0.2022
 7335SOL    HW122560   0.829   4.557   2.050  1.1045 -0.9472  0.8224
 7335SOL    HW222561   0.938   4.563   1.945  2.1882 -1.2308  1.9041
 7336SOL     OW22562   6.896   3.869   3.463  0.2900 -0.0325 -0.4247
 7336SOL    HW122563   6.803   3.856   3.446  0.0590  0.2134  0.5901
 7336SOL    HW222564   6.919   3.947   3.414 -0.1668  0.2131 -0.2466
 7337SOL     OW22565   1.519   0.990   0.995 -0.1717  0.1306 -0.3511
 7337SOL    HW122566   1.426   0.998   1.017 -0.1229  1.1596 -0.4851
 7337SOL    HW222567   1.565   1.037   1.065  0.2267 -0.0178 -0.5086
 7338SOL     OW22568   2.491   5.305   1.571 -0.1474  0.0670 -0.3537
 7338SOL    HW122569   2.427   5.322   1.501  2.6559  1.4455 -2.7804
 7338SOL    HW222570   2.496   5.388   1.619  0.5773  0.3334 -0.8732
 7339SOL     OW22571   0.488   7.249   1.773 -0.2276  0.0244 -0.5655
 7339SOL    HW122572   0.515   7.158   1.778  2.2992  0.6549 -0.9242
 7339SOL    HW222573   0.462   7.272   1.862  1.5891 -0.4288  0.1288
 7340SOL     OW22574   1.573   4.662   6.784 -0.2476 -0.0464  0.2531
 7340SOL    HW122575   1.668   4.665   6.771 -0.0448  0.0899  1.6661
 7340SOL    HW222576   1.562   4.666   6.878 -1.6885  0.3768  0.0766
 7341SOL     OW22577   4.910   2.567   4.486  0.3293 -0.1125  0.2347
 7341SOL    HW122578   4.901   2.628   4.413 -1.7373  0.4593  0.8785
 7341SOL    HW222579   4.963   2.615   4.550 -0.9046  0.9012  0.5555
 7342SOL     OW22580   1.917   4.236   6.456 -0.1683  0.0276 -0.0188
 7342SOL    HW122581   1.823   4.239   6.437 -0.2041  1.6605  0.3105
 7342SOL    HW222582   1.923   4.187   6.538 -0.4888 -2.1459 -1.2154
 7343SOL     OW22583   0.915   4.701   5.022 -0.2568 -0.4400 -0.1189
 7343SOL    HW122584   0.899   4.778   4.966  1.7382 -0.7298 -1.1607
 7343SOL    HW222585   0.842   4.701   5.083 -0.0995  2.5466  0.2077
 7344SOL     OW22586   7.381   4.369   2.461  0.3291  0.1169  0.2491
 7344SOL    HW122587   7.472   4.386   2.486  1.0297 -1.8669 -0.6962
 7344SOL    HW222588   7.334   4.448   2.486  1.8620  0.2818  2.9891
 7345SOL     OW22589   1.394   1.080   0.325  0.6349  0.1707  0.0970
 7345SOL    HW122590   1.411   1.007   0.266 -2.4691  0.2431 -1.1167
 7345SOL    HW222591   1.321   1.050   0.379  1.9903  0.9251  2.4789
 7346SOL     OW22592   6.465   4.879   2.369  0.4037 -0.2486  0.6049
 7346SOL    HW122593   6.491   4.818   2.439 -2.1358  0.2902  2.1728
 7346SOL    HW222594   6.426   4.953   2.416 -3.8362 -0.9817 -1.2685
 7347SOL     OW22595   5.961   7.034   5.570  0.4660 -0.3871  0.2377
 7347SOL    HW122596   5.981   6.981   5.493  1.5338  0.2986  0.0255
 7347SOL    HW222597   6.045   7.043   5.615 -0.0077 -0.1655  1.0940
 7348SOL     OW22598   2.590   6.141   3.117  0.3153 -0.2979  0.3515
 7348SOL    HW122599   2.523   6.124   3.051 -0.4296 -0.1208  1.0451
 7348SOL    HW222600   2.645   6.063   3.117  0.7984  0.0081 -1.0077
 7349SOL     OW22601   4.879   4.057   7.390  0.0730 -0.1593  0.0028
 7349SOL    HW122602   4.873   4.103   7.474  0.6449 -0.5046  0.2390
 7349SOL    HW222603   4.899   4.126   7.327  0.2867  0.0124  0.2548
 7350SOL     OW22604   4.086   3.498   5.928 -1.2695  0.1828 -0.0405
 7350SOL    HW122605   4.146   3.484   5.855 -0.3807 -2.3527  1.0671
 7350SOL    HW222606   4.143   3.522   6.001 -1.3459 -3.1072  1.2528
 7351SOL     OW22607   3.198   3.894   3.139  0.6913 -0.2141 -0.0124
 7351SOL    HW122608   3.263   3.939   3.195  0.4212 -0.7209  0.7226
 7351SOL    HW222609   3.208   3.802   3.161 -0.4604 -0.2726  0.2977
 7352SOL     OW22610   3.083   6.949   5.005 -0.0487  0.0315 -0.3288
 7352SOL    HW122611   3.048   6.952   5.094 -1.0492 -0.4709 -0.6896
 7352SOL    HW222612   3.143   7.023   5.000  1.8883 -1.2924  1.5121
 7353SOL     OW22613   0.373   3.585   7.125 -0.2942  0.0198 -1.0304
 7353SOL    HW122614   0.401   3.494   7.119  0.5053  0.1779  0.0058
 7353SOL    HW222615   0.426   3.631   7.060  1.0133  0.1126  0.0663
 7354SOL     OW22616   1.513   3.801   4.595  0.4313  0.0502 -0.2611
 7354SOL    HW122617   1.519   3.705   4.590 -1.8049 -0.2052  0.7435
 7354SOL    HW222618   1.512   3.829   4.503  1.6858 -0.8006 -0.5751
 7355SOL     OW22619   4.997   7.327   0.638  0.0547 -0.2660  0.1835
 7355SOL    HW122620   5.067   7.341   0.574  0.4525 -0.2952  0.6070
 7355SOL    HW222621   4.927   7.284   0.588  0.4115 -0.4100 -0.2013
 7356SOL     OW22622   7.709   4.845   5.266  0.6680  0.1100  0.3758
 7356SOL    HW122623   7.698   4.822   5.358  2.3426  0.3550  0.6662
 7356SOL    HW222624   7.787   4.798   5.238  2.0183  2.4076 -0.0236
 7357SOL     OW22625   3.621   1.512   4.429  0.3920  0.0495 -0.1940
 7357SOL    HW122626   3.587   1.582   4.485  1.1496  0.0907  0.2215
 7357SOL    HW222627   3.549   1.449   4.423 -0.0788  0.5636 -0.0739
 7358SOL     OW22628   2.770   3.305   3.550 -0.3952 -0.4953 -0.1414
 7358SOL    HW122629   2.785   3.312   3.456  1.1781 -0.1622  0.1061
 7358SOL    HW222630   2.678   3.330   3.562  0.0934  2.1112 -1.2919
 7359SOL     OW22631   4.711   5.264   6.401 -0.8927  0.1898 -0.0821
 7359SOL    HW122632   4.660   5.189   6.432  2.3654 -0.5902  4.3601
 7359SOL    HW222633   4.660   5.340   6.429 -0.7567 -0.5496  2.4590
 7360SOL     OW22634   2.947   6.182   5.800 -0.2554 -0.0391  0.1053
 7360SOL    HW122635   2.954   6.235   5.720  0.1737  0.3988  0.4234
 7360SOL    HW222636   2.862   6.138   5.793  0.3962 -1.1407 -1.2743
 7361SOL     OW22637   5.208   4.917   1.518 -0.1970  0.5863  0.3585
 7361SOL    HW122638   5.276   4.945   1.457  0.9861 -2.3695  0.1453
 7361SOL    HW222639   5.125   4.935   1.473  0.5681  0.9117 -0.9629
 7362SOL     OW22640   5.513   0.966   1.015 -0.2893 -0.1195 -0.1904
 7362SOL    HW122641   5.563   1.010   1.084  2.7683 -1.6225 -1.2541
 7362SOL    HW222642   5.535   0.873   1.025  0.7073 -0.3520 -3.3941
 7363SOL     OW22643   0.274   4.884   3.758 -0.5991  0.0507 -0.2551
 7363SOL    HW122644   0.213   4.811   3.747 -0.7180 -0.1658  1.4446
 7363SOL    HW222645   0.255   4.943   3.685 -0.8306 -1.3723 -1.3910
 7364SOL     OW22646   4.796   1.797   1.139 -0.0975  0.2813  0.1082
 7364SOL    HW122647   4.870   1.855   1.156 -0.4012  0.4489  0.9265
 7364SOL    HW222648   4.831   1.708   1.150  0.5160  0.2563 -1.7450
 7365SOL     OW22649   1.846   0.266   6.429 -0.2984  0.5249  0.4198
 7365SOL    HW122650   1.856   0.241   6.338  1.5047  0.9619  0.4659
 7365SOL    HW222651   1.769   0.216   6.459  0.1336 -0.9868 -0.8387
 7366SOL     OW22652   1.435   0.250   3.035  0.0091  0.2612  0.4027
 7366SOL    HW122653   1.500   0.319   3.022  1.0895 -0.9095 -0.5697
 7366SOL    HW222654   1.351   0.297   3.040  0.7718  1.6767  0.3244
 7367SOL     OW22655   0.557   6.471   7.178  0.0556  0.3792 -0.0912
 7367SOL    HW122656   0.535   6.549   7.127  0.3363  0.4834 -0.0569
 7367SOL    HW222657   0.474   6.426   7.191 -0.4626  1.6784  1.5593
 7368SOL     OW22658   7.678   0.779   1.299  0.0965  0.0274  0.4787
 7368SOL    HW122659   7.583   0.769   1.308  0.3623 -2.1066  1.4602
 7368SOL    HW222660   7.688   0.845   1.230 -2.0831  0.6603  0.6808
 7369SOL     OW22661   5.123   5.854   1.379  0.3666 -0.5326  0.0144
 7369SOL    HW122662   5.159   5.827   1.295 -0.2047 -0.3898 -0.2849
 7369SOL    HW222663   5.085   5.773   1.415 -2.0930 -0.0668 -1.2608
 7370SOL     OW22664   4.673   1.126   4.253  0.3345  0.3510 -0.4297
 7370SOL    HW122665   4.654   1.164   4.167 -1.2246  0.0670 -0.2479
 7370SOL    HW222666   4.675   1.032   4.238 -2.4088  0.1086  0.1936
 7371SOL     OW22667   4.758   2.237   0.921 -0.3929  0.0300 -0.7704
 7371SOL    HW122668   4.757   2.290   0.841 -0.1718  1.2604  0.0100
 7371SOL    HW222669   4.672   2.196   0.924 -1.5030  2.2326 -0.2131
 7372SOL     OW22670   7.181   3.806   1.787 -0.3182 -0.1689 -0.0080
 7372SOL    HW122671   7.128   3.743   1.837 -1.3785 -0.0479 -0.9472
 7372SOL    HW222672   7.143   3.891   1.809  0.4065  0.0591  0.3995
 7373SOL     OW22673   0.109   7.673   3.971 -0.5482 -0.2255  0.2870
 7373SOL    HW122674   0.166   7.598   3.955 -2.0733 -1.4799  0.5181
 7373SOL    HW222675   0.152   7.721   4.041  1.2617  0.0275 -0.9250
 7374SOL     OW22676   2.128   6.829   3.704 -0.1318 -0.0230  0.3859
 7374SOL    HW122677   2.202   6.842   3.762  0.1762 -0.0941  0.0103
 7374SOL    HW222678   2.053   6.819   3.763  0.0855  0.4726  0.7556
 7375SOL     OW22679   3.338   2.497   1.157 -0.3561 -0.3932 -0.3801
 7375SOL    HW122680   3.341   2.453   1.242 -0.2680  1.0241  0.3855
 7375SOL    HW222681   3.249   2.530   1.151  0.0650  0.8527 -0.1003
 7376SOL     OW22682   5.900   4.839   5.737 -0.2983 -0.0114  0.8639
 7376SOL    HW122683   5.926   4.749   5.717 -0.7272 -0.0559  0.4873
 7376SOL    HW222684   5.980   4.881   5.769  0.6289  0.2837 -1.6683
 7377SOL     OW22685   3.845   0.136   3.468  0.0685  0.1969  0.0124
 7377SOL    HW122686   3.801   0.081   3.532  0.7750 -0.7588 -0.2944
 7377SOL    HW222687   3.902   0.192   3.520  0.2762 -0.2393  0.2634
 7378SOL     OW22688   5.976   4.205   5.633 -0.3836 -0.1534  0.0257
 7378SOL    HW122689   6.072   4.208   5.635 -0.3941  1.3252 -0.4459
 7378SOL    HW222690   5.955   4.181   5.543 -0.4358  1.7524 -0.5220
 7379SOL     OW22691   7.159   3.745   0.649  0.2572 -1.3368 -0.0912
 7379SOL    HW122692   7.167   3.797   0.569  0.0121 -0.1584  0.6234
 7379SOL    HW222693   7.217   3.671   0.635  0.8528 -0.7214 -1.0320
 7380SOL     OW22694   4.025   4.217   2.478 -0.2890  0.0785  0.2979
 7380SOL    HW122695   4.112   4.220   2.440  0.4000  0.0051  1.8133
 7380SOL    HW222696   3.968   4.254   2.410  0.5392 -1.9517 -1.6276
 7381SOL     OW22697   1.843   5.732   5.247  0.0607  0.3944  0.0982
 7381SOL    HW122698   1.752   5.726   5.277 -0.0764 -0.1750 -0.4090
 7381SOL    HW222699   1.838   5.716   5.153  0.5692  1.4499 -0.1231
 7382SOL     OW22700   3.224   7.583   5.145 -0.1962 -0.4192  0.0308
 7382SOL    HW122701   3.219   7.597   5.239 -2.2331  1.3820 -0.2692
 7382SOL    HW222702   3.237   7.488   5.135  1.7629 -0.4383  2.0872
 7383SOL     OW22703   3.263   2.997   7.087  0.2635 -0.0266  0.2364
 7383SOL    HW122704   3.271   3.084   7.127  0.4142  0.0358  0.0720
 7383SOL    HW222705   3.190   3.006   7.025 -0.3171 -0.2668  0.8693
 7384SOL     OW22706   6.037   5.389   6.138  0.0716 -0.2055 -0.4579
 7384SOL    HW122707   6.073   5.348   6.059 -0.2105  1.2917 -1.3909
 7384SOL    HW222708   6.113   5.426   6.183  0.1890 -0.7392 -0.2131
 7385SOL     OW22709   2.926   0.741   2.591  0.1902 -0.1637 -0.1796
 7385SOL    HW122710   2.891   0.828   2.614 -0.7510  0.3627 -3.1734
 7385SOL    HW222711   2.848   0.688   2.573  0.8122 -0.8923 -0.7742
 7386SOL     OW22712   1.448   4.392   6.095 -0.0438  0.0340  0.5789
 7386SOL    HW122713   1.469   4.393   6.002 -1.4165 -0.1504  0.2472
 7386SOL    HW222714   1.433   4.484   6.117  4.3653  0.7210  1.6760
 7387SOL     OW22715   7.439   4.023   6.715  0.2000 -0.7074  0.1677
 7387SOL    HW122716   7.421   4.113   6.741 -1.4404 -0.2490 -2.1947
 7387SOL    HW222717   7.354   3.980   6.717  0.5604 -1.5411 -0.9286
 7388SOL     OW22718   3.459   4.669   3.957 -0.5496 -0.0529 -0.5666
 7388SOL    HW122719   3.409   4.650   4.037  0.1959  0.3409  0.0168
 7388SOL    HW222720   3.393   4.683   3.890 -1.1847 -0.9646 -0.1512
 7389SOL     OW22721   2.486   4.317   3.386  0.5575 -0.1780  0.0149
 7389SOL    HW122722   2.397   4.293   3.363  0.3208 -0.9240  1.6009
 7389SOL    HW222723   2.504   4.395   3.334 -1.3573  0.5471  0.3822
 7390SOL     OW22724   7.493   2.868   1.896  0.3328  0.0042 -0.1129
 7390SOL    HW122725   7.547   2.890   1.821  0.3953  0.3271  0.0239
 7390SOL    HW222726   7.532   2.916   1.969  0.2241 -0.2418  0.1083
 7391SOL     OW22727   4.546   6.466   4.758 -0.8983 -0.0748 -0.7668
 7391SOL    HW122728   4.526   6.422   4.840 -1.0853 -0.4894 -1.0290
 7391SOL    HW222729   4.512   6.554   4.769 -0.2541  0.1045 -0.1218
 7392SOL     OW22730   1.308   5.690   2.307 -0.4914 -0.0611  0.3265
 7392SOL    HW122731   1.257   5.628   2.255 -0.6531 -0.7138  1.2456
 7392SOL    HW222732   1.384   5.640   2.338  0.2067  0.6352 -0.2207
 7393SOL     OW22733   5.637   2.396   3.568  0.2481 -0.1893 -0.0562
 7393SOL    HW122734   5.693   2.389   3.491 -1.1175  1.0769 -1.2100
 7393SOL    HW222735   5.576   2.322   3.560 -0.5484  0.5279 -0.7687
 7394SOL     OW22736   7.740   7.419   3.173  0.2832 -0.1052  0.1380
 7394SOL    HW122737   7.740   7.392   3.081 -1.2604 -1.8469  0.5783
 7394SOL    HW222738   7.764   7.340   3.222  2.0566  1.0367  1.2333
 7395SOL     OW22739   2.712   1.318   3.355 -0.5596  0.1193  0.1854
 7395SOL    HW122740   2.650   1.282   3.419 -1.8583  3.3328  0.9313
 7395SOL    HW222741   2.794   1.328   3.404 -0.7485 -0.0044  0.5303
 7396SOL     OW22742   3.847   3.964   6.507 -0.1942 -0.5697  0.3113
 7396SOL    HW122743   3.874   4.042   6.555 -0.7139 -1.0807  1.4743
 7396SOL    HW222744   3.792   3.916   6.569 -2.3368 -0.4098 -1.3493
 7397SOL     OW22745   5.423   1.427   1.599  0.0334  0.0733 -0.3206
 7397SOL    HW122746   5.334   1.453   1.575 -0.2648 -1.7451 -1.3253
 7397SOL    HW222747   5.435   1.465   1.686 -2.0181 -0.2497  0.1754
 7398SOL     OW22748   6.823   3.165   1.967  0.1897  0.0935  0.6969
 7398SOL    HW122749   6.757   3.187   1.901  1.5699  2.1816 -0.1095
 7398SOL    HW222750   6.774   3.158   2.049 -1.0037  2.6763  0.3209
 7399SOL     OW22751   1.947   4.239   3.252  0.0088 -0.3936 -0.3430
 7399SOL    HW122752   1.875   4.188   3.216 -1.3339 -0.3950  2.1263
 7399SOL    HW222753   1.912   4.328   3.260  1.9900  0.8766 -3.6604
 7400SOL     OW22754   7.633   2.898   6.589  0.6993 -0.0986 -0.5906
 7400SOL    HW122755   7.553   2.846   6.585 -0.5334  1.7858 -2.3480
 7400SOL    HW222756   7.625   2.949   6.670 -0.3347  0.7112 -1.1805
 7401SOL     OW22757   5.072   1.712   3.972 -0.4048  0.3635 -0.4343
 7401SOL    HW122758   5.104   1.787   4.022  1.7988  0.6537 -2.1420
 7401SOL    HW222759   5.073   1.639   4.034  0.2296  1.1285  0.4784
 7402SOL     OW22760   4.109   5.283   3.974 -0.0180  0.2086  0.6319
 7402SOL    HW122761   4.124   5.362   3.922  0.4181  0.0742  0.5527
 7402SOL    HW222762   4.089   5.215   3.909 -1.1671  0.4160  0.7390
 7403SOL     OW22763   5.151   4.541   0.357 -0.7713 -0.2819 -0.0765
 7403SOL    HW122764   5.062   4.505   0.347 -1.1236  0.9155 -1.7504
 7403SOL    HW222765   5.137   4.633   0.379  0.0240  0.0994 -1.0751
 7404SOL     OW22766   5.492   2.026   1.421 -0.3744  0.1739  0.3545
 7404SOL    HW122767   5.432   1.956   1.446  2.3123 -3.1203 -1.6127
 7404SOL    HW222768   5.556   2.031   1.492 -0.0350 -0.0080  0.0615
 7405SOL     OW22769   5.688   4.926   5.986  0.3085 -0.2558  0.1369
 7405SOL    HW122770   5.775   4.887   6.001  0.4927  0.5446  1.3214
 7405SOL    HW222771   5.629   4.873   6.038  0.2304 -0.2440  0.0595
 7406SOL     OW22772   7.737   3.303   4.275 -0.6611 -0.1123 -0.1519
 7406SOL    HW122773   7.739   3.356   4.354 -2.5432 -2.4383  1.6239
 7406SOL    HW222774   7.644   3.285   4.260 -0.1791 -1.9243 -1.3176
 7407SOL     OW22775   4.853   5.239   4.263  0.3720  0.4458  0.0919
 7407SOL    HW122776   4.945   5.220   4.247  0.8309  3.0235 -0.8504
 7407SOL    HW222777   4.813   5.154   4.280  3.0975 -0.6470  1.6688
 7408SOL     OW22778   1.557   7.728   3.816 -0.1966 -0.6609  0.1831
 7408SOL    HW122779   1.492   7.777   3.867  0.7360  0.8325  0.0226
 7408SOL    HW222780   1.509   7.694   3.741 -0.8004  0.5113  0.0134
 7409SOL     OW22781   6.505   4.189   7.566  0.6714  0.0942  0.2715
 7409SOL    HW122782   6.511   4.194   7.470 -0.1867 -0.8528  0.1536
 7409SOL    HW222783   6.419   4.224   7.586  0.3685 -0.7873  0.5804
 7410SOL     OW22784   1.220   5.597   4.078  0.1170 -0.0022 -0.5323
 7410SOL    HW122785   1.245   5.546   4.001 -0.4524 -0.1869 -0.5991
 7410SOL    HW222786   1.124   5.593   4.079  0.0763  0.8480 -0.3926
 7411SOL     OW22787   5.196   3.966   6.562  0.1676 -0.2461 -0.0767
 7411SOL    HW122788   5.110   3.977   6.603  0.7189 -0.2695  1.1479
 7411SOL    HW222789   5.219   4.054   6.531 -0.6014 -0.3844 -1.0584
 7412SOL     OW22790   6.084   5.770   5.058  0.3351  0.0017 -0.1553
 7412SOL    HW122791   6.159   5.796   5.112 -0.6705  2.4509  0.2098
 7412SOL    HW222792   6.090   5.675   5.053  3.2566  0.0861  0.1250
 7413SOL     OW22793   5.219   0.926   5.527  0.3310 -0.3776  0.3892
 7413SOL    HW122794   5.312   0.944   5.512  0.5569 -0.9949  1.0426
 7413SOL    HW222795   5.217   0.867   5.602 -0.6398  0.3097  0.9291
 7414SOL     OW22796   4.376   2.904   1.051 -0.2215  0.0182 -0.0927
 7414SOL    HW122797   4.355   2.820   1.092 -1.8942 -0.3452 -1.6003
 7414SOL    HW222798   4.292   2.948   1.041  0.3915  1.0020 -1.1503
 7415SOL     OW22799   3.348   4.689   2.265 -0.5447 -0.3128  0.3187
 7415SOL    HW122800   3.308   4.651   2.343  2.0137 -0.5332  1.5886
 7415SOL    HW222801   3.440   4.664   2.269  0.1902  1.7458 -1.4942
 7416SOL     OW22802   5.303   4.979   0.065 -0.2548  0.4862  0.1526
 7416SOL    HW122803   5.217   4.984   0.024  0.0760  0.7844 -0.5173
 7416SOL    HW222804   5.322   4.885   0.070 -0.8871  0.3865  0.8941
 7417SOL     OW22805   7.466   5.468   7.130 -0.1090  0.2833 -0.3110
 7417SOL    HW122806   7.542   5.524   7.150  0.2862 -0.1951 -0.4678
 7417SOL    HW222807   7.487   5.383   7.168 -0.6908  0.2217 -0.1145
 7418SOL     OW22808   6.867   2.726   2.155  0.1980  0.2514 -0.3288
 7418SOL    HW122809   6.955   2.731   2.193 -0.3616 -0.0016  1.0942
 7418SOL    HW222810   6.879   2.681   2.072  1.2712 -0.8776  0.4033
 7419SOL     OW22811   0.377   0.058   3.075  0.3493 -0.7064 -0.1318
 7419SOL    HW122812   0.308   0.016   3.024 -1.1494  0.7775  0.5664
 7419SOL    HW222813   0.331   0.101   3.147  2.0920 -0.2270  0.7524
 7420SOL     OW22814   6.041   3.592   2.117 -0.2544 -0.1276 -0.0548
 7420SOL    HW122815   6.078   3.636   2.193 -1.1933  0.3963  0.1077
 7420SOL    HW222816   5.957   3.557   2.147 -0.3722 -0.4155 -0.6925
 7421SOL     OW22817   1.814   4.058   3.510  0.1490  0.2048 -0.2527
 7421SOL    HW122818   1.768   4.040   3.427 -1.1663  0.5550  0.3754
 7421SOL    HW222819   1.748   4.044   3.577  1.0189  0.5978  0.7050
 7422SOL     OW22820   2.111   0.122   0.205  0.0865  0.1582  0.6888
 7422SOL    HW122821   2.051   0.117   0.130 -0.7350 -2.5058  1.3944
 7422SOL    HW222822   2.133   0.214   0.212 -1.8714  0.8727 -1.2303
 7423SOL     OW22823   5.786   1.515   4.821 -0.1978 -0.2425 -0.2410
 7423SOL    HW122824   5.744   1.559   4.747  1.5128 -0.5216 -1.4428
 7423SOL    HW222825   5.873   1.493   4.788  0.4538 -0.7550  1.7441
 7424SOL     OW22826   6.840   5.939   7.002  0.2027 -0.1551  0.0967
 7424SOL    HW122827   6.787   5.861   6.987 -1.8093  1.0988  0.2615
 7424SOL    HW222828   6.814   6.000   6.932  2.3458  0.1022 -0.5456
 7425SOL     OW22829   6.265   6.463   3.467  0.2915 -0.3633 -0.0528
 7425SOL    HW122830   6.347   6.485   3.424  0.4080 -0.7885 -0.0507
 7425SOL    HW222831   6.279   6.376   3.504  0.3341  0.1531  1.2013
 7426SOL     OW22832   3.687   2.992   7.670 -0.4710 -0.1092 -0.0364
 7426SOL    HW122833   3.704   2.898   7.674  0.4644  0.0669  0.4882
 7426SOL    HW222834   3.760   3.028   7.619 -0.0741  0.4808  0.9131
 7427SOL     OW22835   6.236   1.357   4.882 -0.5085  0.0897  0.1151
 7427SOL    HW122836   6.307   1.323   4.828 -0.2154  0.7877  0.0464
 7427SOL    HW222837   6.273   1.360   4.971 -0.0117  1.6305 -0.1229
 7428SOL     OW22838   5.762   2.986   7.633 -0.8019 -0.1764  0.6171
 7428SOL    HW122839   5.714   2.991   7.550 -0.7415 -0.6597  0.5499
 7428SOL    HW222840   5.753   2.895   7.660  0.1633 -0.3010  0.5542
 7429SOL     OW22841   3.887   3.566   0.706 -0.0651 -0.4224 -0.0284
 7429SOL    HW122842   3.906   3.494   0.765 -2.3884 -0.9772  0.1469
 7429SOL    HW222843   3.909   3.533   0.619  1.2368 -0.4031  0.2733
 7430SOL     OW22844   4.215   7.472   6.872 -0.1170 -0.1117  0.1737
 7430SOL    HW122845   4.180   7.435   6.791 -0.6829  0.6570  0.0657
 7430SOL    HW222846   4.213   7.566   6.859  2.8767 -0.0165 -0.1984
 7431SOL     OW22847   4.533   7.304   6.369  0.1477 -0.2295 -0.5842
 7431SOL    HW122848   4.623   7.296   6.402  0.0910  2.7585  0.5684
 7431SOL    HW222849   4.479   7.266   6.439  0.4437 -2.0777 -1.3004
 7432SOL     OW22850   4.175   7.038   1.850 -0.3544 -0.0499 -0.2638
 7432SOL    HW122851   4.195   7.079   1.765  0.0889  0.0622 -0.1075
 7432SOL    HW222852   4.147   6.949   1.827  0.8908 -0.4143 -0.4658
 7433SOL     OW22853   2.154   5.296   6.556  0.4636 -0.1534  0.6159
 7433SOL    HW122854   2.061   5.316   6.541 -0.7855 -2.6749  3.7585
 7433SOL    HW222855   2.187   5.372   6.604 -0.9127 -0.4417  2.1396
 7434SOL     OW22856   6.179   5.842   3.430 -0.2364  0.0881  0.0223
 7434SOL    HW122857   6.177   5.928   3.387  1.8731  0.4825  0.5930
 7434SOL    HW222858   6.186   5.861   3.523  0.9865 -0.6581  0.1112
 7435SOL     OW22859   0.387   3.257   6.586  0.1164 -0.0763  0.7913
 7435SOL    HW122860   0.465   3.304   6.556 -0.6908 -0.1356 -1.6249
 7435SOL    HW222861   0.403   3.166   6.560 -0.1271 -0.3736  1.6552
 7436SOL     OW22862   6.233   5.088   7.470  0.1620 -0.2270  0.1465
 7436SOL    HW122863   6.242   4.997   7.442  1.6833 -0.5285  1.4870
 7436SOL    HW222864   6.139   5.098   7.488 -0.5312 -0.6618 -2.6701
 7437SOL     OW22865   0.502   1.745   2.283  0.3815 -0.2880  0.5972
 7437SOL    HW122866   0.554   1.820   2.253  0.4522 -1.3021 -2.0817
 7437SOL    HW222867   0.562   1.694   2.337  0.8223  0.7671  1.1151
 7438SOL     OW22868   0.014   1.784   6.948  0.3025 -0.3511  0.3580
 7438SOL    HW122869  -0.004   1.699   6.989  0.3893 -0.6188 -0.1512
 7438SOL    HW222870  -0.038   1.846   6.999  1.0347 -0.5588  1.3846
 7439SOL     OW22871   6.428   6.989   6.031 -0.2871 -0.0491 -0.2269
 7439SOL    HW122872   6.461   6.963   5.945 -0.7756 -1.0725 -0.1253
 7439SOL    HW222873   6.507   7.006   6.083  0.0463  3.6053 -1.6927
 7440SOL     OW22874   2.154   2.923   3.310  0.0342 -0.4999 -0.1184
 7440SOL    HW122875   2.165   2.863   3.236  1.5441  0.5521 -0.8042
 7440SOL    HW222876   2.107   2.998   3.272  0.0677 -0.3190  0.1992
 7441SOL     OW22877   1.103   0.193   5.468 -0.3062  0.3800  0.0865
 7441SOL    HW122878   1.163   0.234   5.406 -0.2260 -1.2367 -0.9587
 7441SOL    HW222879   1.159   0.142   5.525 -0.5611  0.1913  0.1693
 7442SOL     OW22880   3.997   3.070   5.385  0.2420  0.5518  0.0731
 7442SOL    HW122881   4.005   3.148   5.440 -1.5235  0.9483 -0.1730
 7442SOL    HW222882   4.000   2.997   5.447  1.7729  0.7832  0.3191
 7443SOL     OW22883   0.702   1.077   5.650 -0.1986  0.4844 -0.8354
 7443SOL    HW122884   0.673   1.009   5.711 -0.7621  3.4629  2.5838
 7443SOL    HW222885   0.638   1.075   5.579 -1.9253 -0.6668  0.6597
 7444SOL     OW22886   0.044   3.397   3.643  0.4205  0.0546  0.7386
 7444SOL    HW122887   0.104   3.464   3.612 -0.1750  0.6051  0.7576
 7444SOL    HW222888  -0.035   3.409   3.591  0.4929 -0.9968  0.3496
 7445SOL     OW22889   3.426   6.214   3.245 -0.0909  1.0327 -0.6866
 7445SOL    HW122890   3.487   6.170   3.186 -0.5169 -0.2835 -0.1651
 7445SOL    HW222891   3.344   6.217   3.197 -0.0287  1.4053 -0.7757
 7446SOL     OW22892   4.109   6.082   3.576 -0.1497  0.9138  0.0915
 7446SOL    HW122893   4.181   6.145   3.571  2.4239 -1.4855  3.0148
 7446SOL    HW222894   4.077   6.090   3.666  0.3416 -1.8906  0.5949
 7447SOL     OW22895   2.289   4.981   5.088  0.2589  0.2352  0.6092
 7447SOL    HW122896   2.318   4.960   5.177  1.8213  0.0600  0.0857
 7447SOL    HW222897   2.354   4.939   5.031 -1.3295 -0.6207 -0.6707
 7448SOL     OW22898   3.079   2.697   1.600 -0.9184 -0.1936 -0.0022
 7448SOL    HW122899   3.051   2.787   1.587  1.8732  0.9120  1.0353
 7448SOL    HW222900   3.144   2.701   1.669  1.0180 -2.6642 -1.4986
 7449SOL     OW22901   3.774   1.026   1.746  0.6987  0.0227  0.4515
 7449SOL    HW122902   3.722   1.067   1.816  0.0992  1.3800 -0.7372
 7449SOL    HW222903   3.858   1.073   1.749  0.7504 -0.0660  0.3883
 7450SOL     OW22904   4.530   6.718   1.523 -0.1922 -0.2167  0.2627
 7450SOL    HW122905   4.615   6.687   1.556 -0.7133  0.1101  2.0529
 7450SOL    HW222906   4.478   6.638   1.517 -0.1685 -0.2559  0.5254
 7451SOL     OW22907   2.044   4.146   2.686  0.0494 -0.0975  0.3765
 7451SOL    HW122908   2.020   4.154   2.593  2.7126 -0.5276 -0.4234
 7451SOL    HW222909   1.971   4.187   2.733 -1.6612 -0.4008 -1.8554
 7452SOL     OW22910   5.270   5.623   7.518 -0.1214  0.6124 -0.3256
 7452SOL    HW122911   5.248   5.641   7.610  0.4173  1.5025 -0.3651
 7452SOL    HW222912   5.185   5.614   7.475 -0.3794  0.2128  0.2536
 7453SOL     OW22913   0.629   4.403   6.648  0.6000  0.5062 -0.7325
 7453SOL    HW122914   0.651   4.310   6.653  0.2748  0.4626  0.1483
 7453SOL    HW222915   0.710   4.448   6.670  0.1478  0.3648  1.4491
 7454SOL     OW22916   6.922   0.297   7.206  0.4387 -0.1836 -0.4606
 7454SOL    HW122917   6.946   0.287   7.114 -0.6687 -0.9886 -0.6788
 7454SOL    HW222918   6.861   0.370   7.208 -0.2184 -0.7183 -0.5106
 7455SOL     OW22919   5.831   2.723   4.774 -0.1231  0.3005 -0.2596
 7455SOL    HW122920   5.786   2.808   4.776 -0.6663  0.0276 -0.6478
 7455SOL    HW222921   5.765   2.662   4.742  0.6959 -0.0157 -1.3900
 7456SOL     OW22922   2.930   1.038   7.266  0.4362  0.3903 -0.4680
 7456SOL    HW122923   3.025   1.049   7.253  0.5354 -0.3040 -0.3257
 7456SOL    HW222924   2.917   1.059   7.358  0.6221 -0.6390 -0.2037
 7457SOL     OW22925   6.023   1.454   4.722 -0.1486  0.2179 -0.6247
 7457SOL    HW122926   6.053   1.460   4.632 -0.7759  0.1140 -0.8453
 7457SOL    HW222927   6.101   1.428   4.772  0.0121 -0.5608 -1.2624
 7458SOL     OW22928   4.895   4.543   0.724 -0.3421  0.3723  0.4193
 7458SOL    HW122929   4.908   4.453   0.696  0.6908  0.8717 -0.7943
 7458SOL    HW222930   4.982   4.575   0.747 -0.5717  1.2692  0.1168
 7459SOL     OW22931   1.559   6.041   0.374  0.8322  0.0438 -0.3822
 7459SOL    HW122932   1.474   6.079   0.396  0.5719 -0.3055 -0.7555
 7459SOL    HW222933   1.608   6.041   0.456 -0.1263 -1.2751  0.2303
 7460SOL     OW22934   7.081   0.042   2.587 -0.3188 -0.0771 -0.4062
 7460SOL    HW122935   7.032   0.058   2.667 -0.4180  0.3904 -0.5530
 7460SOL    HW222936   7.015   0.032   2.519 -0.2276 -0.0581 -0.4986
 7461SOL     OW22937   6.632   4.597   4.603  0.1638 -0.0643  0.3646
 7461SOL    HW122938   6.647   4.692   4.603 -0.5915  0.0633  0.7501
 7461SOL    HW222939   6.720   4.559   4.602  0.4909  0.6461  1.0889
 7462SOL     OW22940   2.939   6.818   4.252 -0.1271  0.2562  0.2950
 7462SOL    HW122941   3.027   6.845   4.279 -0.2573  1.7453 -0.6254
 7462SOL    HW222942   2.951   6.732   4.213  1.3811  1.3551 -1.9277
 7463SOL     OW22943   0.994   0.935   0.070 -0.0268 -0.0454  0.6271
 7463SOL    HW122944   1.025   1.017   0.111 -1.0923 -0.5411  2.5338
 7463SOL    HW222945   0.911   0.917   0.113 -0.3658 -1.5534 -0.5989
 7464SOL     OW22946   3.569   6.375   2.280 -0.0841  0.2835  0.4140
 7464SOL    HW122947   3.600   6.347   2.366 -1.9612  0.6645  1.2769
 7464SOL    HW222948   3.645   6.414   2.238  0.9050 -0.0460  1.8383
 7465SOL     OW22949   2.652   0.482   7.313  0.6066 -0.4756 -0.4242
 7465SOL    HW122950   2.716   0.491   7.243  1.5108  2.5248  0.6496
 7465SOL    HW222951   2.688   0.415   7.371  0.4089 -2.1498 -2.1290
 7466SOL     OW22952   3.993   3.488   0.395  0.9064 -0.0842  0.6003
 7466SOL    HW122953   4.034   3.404   0.416  1.5036  0.4773  1.7502
 7466SOL    HW222954   4.063   3.540   0.357  0.1658 -0.6056 -1.6418
 7467SOL     OW22955   5.548   1.173   4.134  0.0098  0.2252  0.1794
 7467SOL    HW122956   5.622   1.159   4.076  0.0634 -2.8471  0.8041
 7467SOL    HW222957   5.587   1.195   4.218  0.3246 -1.6821  0.5846
 7468SOL     OW22958   6.325   0.557   1.863 -0.2251 -0.4833 -0.1114
 7468SOL    HW122959   6.329   0.557   1.958 -2.2323  0.6380  0.0010
 7468SOL    HW222960   6.234   0.537   1.842 -0.1175  0.5979 -1.7705
 7469SOL     OW22961   6.658   7.139   6.135 -0.3018 -0.1496  0.1066
 7469SOL    HW122962   6.749   7.140   6.162  0.0375  0.6123 -1.0085
 7469SOL    HW222963   6.615   7.081   6.198  0.9594 -0.5969  0.5805
 7470SOL     OW22964   3.793   3.684   0.346  0.5686  0.1901 -0.1289
 7470SOL    HW122965   3.850   3.612   0.317  1.4203  0.5664  0.5548
 7470SOL    HW222966   3.706   3.659   0.317  1.0581 -0.4838 -1.0644
 7471SOL     OW22967   2.253   4.563   6.306 -0.0593  0.0003  0.4369
 7471SOL    HW122968   2.200   4.533   6.233 -0.7771 -1.6502  1.5744
 7471SOL    HW222969   2.190   4.580   6.376  0.6507  1.1621  0.8260
 7472SOL     OW22970   5.322   4.197   6.434 -0.0092 -0.2627  0.0331
 7472SOL    HW122971   5.315   4.277   6.382  1.2277 -1.2394 -1.7800
 7472SOL    HW222972   5.343   4.227   6.522 -1.9323  1.4684 -0.0280
 7473SOL     OW22973   0.020   6.879   4.323 -0.3554  0.1541  0.2534
 7473SOL    HW122974  -0.037   6.839   4.389 -1.5401  1.1314 -0.1444
 7473SOL    HW222975  -0.022   6.861   4.240  0.2021  0.4381 -0.0979
 7474SOL     OW22976   4.793   0.511   7.250 -0.2698  0.2506  0.5494
 7474SOL    HW122977   4.734   0.446   7.213 -1.9330  1.8751  0.1845
 7474SOL    HW222978   4.739   0.564   7.308  0.7179  1.9839 -0.0078
 7475SOL     OW22979   5.266   0.166   0.909 -0.0222 -0.1045  0.3463
 7475SOL    HW122980   5.199   0.184   0.976 -0.2071 -0.7568  0.3396
 7475SOL    HW222981   5.349   0.181   0.954 -0.1381  2.7899 -0.2074
 7476SOL     OW22982   0.906   5.533   5.045 -0.2591 -0.4520  0.6080
 7476SOL    HW122983   0.957   5.515   5.124  0.6830 -0.5504 -0.0078
 7476SOL    HW222984   0.870   5.621   5.060  0.6090 -0.1138  0.8049
 7477SOL     OW22985   3.590   4.702   7.636 -0.0871 -0.2882 -0.4528
 7477SOL    HW122986   3.533   4.757   7.690 -1.4372 -1.3814 -0.7034
 7477SOL    HW222987   3.590   4.744   7.551 -0.3105 -0.1330 -0.3760
 7478SOL     OW22988   0.662   5.440   0.177  0.3190  0.7858 -0.0179
 7478SOL    HW122989   0.668   5.514   0.117  0.9354 -0.1447 -1.1607
 7478SOL    HW222990   0.580   5.453   0.224 -0.0999  1.6427 -0.9508
 7479SOL     OW22991   3.015   0.728   1.333  0.2329  0.4345  0.1865
 7479SOL    HW122992   2.973   0.700   1.252 -0.4776 -1.6227  1.2070
 7479SOL    HW222993   2.970   0.680   1.402  1.5390  1.3068  1.7211
 7480SOL     OW22994   3.754   1.242   4.565  0.0510 -0.1006 -0.0129
 7480SOL    HW122995   3.693   1.237   4.491 -2.0876 -0.1027  1.6465
 7480SOL    HW222996   3.773   1.151   4.586 -0.1810 -0.1317  0.0711
 7481SOL     OW22997   2.986   2.492   4.828  0.1417  0.3526  0.3533
 7481SOL    HW122998   3.024   2.530   4.907 -1.5068 -0.3823  1.5663
 7481SOL    HW222999   2.982   2.398   4.847 -1.3530  0.3015 -0.0864
 7482SOL     OW23000   4.984   0.335   4.271 -0.0152  0.4599  0.4719
 7482SOL    HW123001   5.065   0.384   4.287  1.5479 -1.7540 -0.2065
 7482SOL    HW223002   4.952   0.313   4.359  2.2279 -1.8209  0.8196
 7483SOL     OW23003   0.624   1.146   0.150  0.5652  0.2522  0.1956
 7483SOL    HW123004   0.636   1.108   0.063  1.4514 -0.2682  0.5219
 7483SOL    HW223005   0.562   1.087   0.193 -0.7040  1.1013 -0.4147
 7484SOL     OW23006   4.061   5.689   5.374 -0.2306 -0.0604 -0.8570
 7484SOL    HW123007   4.046   5.638   5.294  0.3407 -1.5556 -0.0545
 7484SOL    HW223008   4.108   5.629   5.432  0.4536  1.3964  0.1546
 7485SOL     OW23009   2.609   1.237   5.391  0.1978 -0.2308 -0.4604
 7485SOL    HW123010   2.542   1.278   5.336 -0.5728  0.6123  1.0567
 7485SOL    HW223011   2.654   1.311   5.434 -1.3559 -0.8514  2.4862
 7486SOL     OW23012   3.075   5.467   3.737  0.4112  0.0891  0.1709
 7486SOL    HW123013   3.137   5.394   3.735 -0.4241 -0.6263 -0.2839
 7486SOL    HW223014   3.063   5.486   3.830  0.5069 -0.4627  0.2959
 7487SOL     OW23015   3.304   7.108   2.213 -0.2145  0.1763  0.0625
 7487SOL    HW123016   3.257   7.069   2.140 -2.8408  1.2131  1.1023
 7487SOL    HW223017   3.317   7.199   2.188  1.5525 -0.1387 -0.3058
 7488SOL     OW23018   5.918   5.950   3.652 -0.1738  0.0009 -0.0322
 7488SOL    HW123019   5.937   5.910   3.737  1.3176 -2.6862 -1.5078
 7488SOL    HW223020   5.854   5.891   3.612 -0.8805  1.2506 -0.8047
 7489SOL     OW23021   0.114   6.044   1.960  0.2399  0.1732 -0.2081
 7489SOL    HW123022   0.027   6.007   1.971  0.6165 -0.2695  1.6141
 7489SOL    HW223023   0.119   6.116   2.023  1.5969 -0.6315  0.6665
 7490SOL     OW23024   1.113   0.371   6.319  0.4578 -0.2115  0.3651
 7490SOL    HW123025   1.151   0.286   6.298 -1.3270 -1.3278  1.4039
 7490SOL    HW223026   1.175   0.411   6.380  0.3202 -1.7070  1.5368
 7491SOL     OW23027   0.397   4.938   5.313 -0.4667 -0.4623  0.3492
 7491SOL    HW123028   0.474   4.891   5.282 -1.4249 -2.2424  0.5422
 7491SOL    HW223029   0.359   4.881   5.379 -1.2367  0.9888  1.2309
 7492SOL     OW23030   0.654   7.752   0.295 -0.3990 -0.3377  0.4629
 7492SOL    HW123031   0.637   7.843   0.271 -0.9455 -0.2357  1.2290
 7492SOL    HW223032   0.748   7.740   0.278 -0.8234 -0.4485 -2.2564
 7493SOL     OW23033   0.606   3.284   0.353  0.1933  0.0690  0.5370
 7493SOL    HW123034   0.677   3.274   0.290 -0.6400  0.3282 -0.4849
 7493SOL    HW223035   0.558   3.201   0.348  0.2796 -0.0165  1.0486
 7494SOL     OW23036   0.829   3.415   5.308  0.6035  0.2171  0.5503
 7494SOL    HW123037   0.746   3.371   5.292  1.2824 -1.6323  1.7268
 7494SOL    HW223038   0.809   3.508   5.305 -1.1511 -0.1650 -0.8618
 7495SOL     OW23039   3.964   2.879   2.516 -0.3846  0.2893  0.3901
 7495SOL    HW123040   3.887   2.892   2.461  1.0389  0.6241 -1.6264
 7495SOL    HW223041   3.953   2.941   2.589 -2.0834  0.1740  0.2672
 7496SOL     OW23042   6.462   5.138   6.550 -0.0520 -0.2250  0.0896
 7496SOL    HW123043   6.476   5.221   6.596  0.2383 -1.0548  1.5793
 7496SOL    HW223044   6.445   5.163   6.459  0.2110  1.4443  0.4672
 7497SOL     OW23045   0.407   3.147   3.192 -0.1175  0.3552  0.0226
 7497SOL    HW123046   0.438   3.227   3.236 -0.1334  0.8020 -0.7598
 7497SOL    HW223047   0.337   3.178   3.134 -2.9730 -0.7322  2.5651
 7498SOL     OW23048   0.892   1.440   7.734 -0.4577 -0.6573  0.5436
 7498SOL    HW123049   0.806   1.406   7.712 -0.9156 -0.1403  1.4669
 7498SOL    HW223050   0.888   1.456   7.828 -0.3920  2.2296  0.1362
 7499SOL     OW23051   2.263   4.262   2.460 -0.2272 -0.2339  0.4840
 7499SOL    HW123052   2.180   4.270   2.414  0.2067 -0.2727 -0.3333
 7499SOL    HW223053   2.271   4.169   2.480  0.2584 -0.4698 -0.7061
 7500SOL     OW23054   3.242   6.950   1.344 -0.2632  0.3434  0.0658
 7500SOL    HW123055   3.173   7.016   1.333  0.3632  0.9350 -0.3862
 7500SOL    HW223056   3.294   6.957   1.264 -0.1473 -0.6584  0.0465
 7501SOL     OW23057   0.123   3.137   1.120 -0.4860 -0.0115  0.0774
 7501SOL    HW123058   0.167   3.123   1.036 -0.0962  1.5742 -0.0265
 7501SOL    HW223059   0.193   3.128   1.185 -0.9591 -2.1637  0.3644
 7502SOL     OW23060   0.216   0.488   2.708  0.6604  0.4272 -0.2784
 7502SOL    HW123061   0.291   0.546   2.717  2.7489 -1.4864 -3.3189
 7502SOL    HW223062   0.252   0.400   2.718 -1.5267 -0.5397 -0.2501
 7503SOL     OW23063   6.776   6.403   1.223 -0.0942  0.3823 -0.4252
 7503SOL    HW123064   6.813   6.330   1.174 -0.6454 -0.4346  0.3206
 7503SOL    HW223065   6.738   6.460   1.157 -1.2847 -0.9529 -0.9629
 7504SOL     OW23066   3.020   2.572   4.570 -0.1236 -0.3328  0.3104
 7504SOL    HW123067   3.014   2.544   4.662  3.0771  0.2029  0.8036
 7504SOL    HW223068   3.043   2.492   4.522  0.9696 -0.1360  0.4664
 7505SOL     OW23069   6.292   2.974   5.527 -0.2037 -0.3408  0.2392
 7505SOL    HW123070   6.377   2.943   5.558 -0.9958 -2.0345  0.8929
 7505SOL    HW223071   6.229   2.938   5.590 -1.3264  2.0487  0.6145
 7506SOL     OW23072   4.165   6.981   7.702  0.3116 -0.5388  0.0036
 7506SOL    HW123073   4.074   7.010   7.697  0.8154  1.0968 -0.3590
 7506SOL    HW223074   4.182   6.971   7.796 -0.3699 -1.3622  0.0532
 7507SOL     OW23075   2.413   3.892   1.913 -0.0967  0.5732 -0.0084
 7507SOL    HW123076   2.445   3.981   1.896 -0.8221  0.8251 -0.0976
 7507SOL    HW223077   2.411   3.851   1.826  1.2488  0.1029  0.1535
 7508SOL     OW23078   2.446   5.063   4.688 -0.4636  0.3163  0.2535
 7508SOL    HW123079   2.512   5.132   4.697 -1.5532  1.1813  1.9959
 7508SOL    HW223080   2.401   5.084   4.606 -0.0802  1.0207  0.2168
 7509SOL     OW23081   4.550   5.886   6.340 -0.1493 -0.1378  0.4816
 7509SOL    HW123082   4.484   5.893   6.408 -0.6477  0.4020 -0.0461
 7509SOL    HW223083   4.573   5.793   6.338  1.0525  0.0628  2.4726
 7510SOL     OW23084   2.506   4.473   4.359 -0.0081  0.4309  0.0192
 7510SOL    HW123085   2.534   4.527   4.433 -1.7108 -0.8790  1.7337
 7510SOL    HW223086   2.413   4.493   4.348 -0.2782 -0.9175 -0.3727
 7511SOL     OW23087   6.517   5.753   5.444 -0.5409 -0.1288 -0.1990
 7511SOL    HW123088   6.582   5.754   5.515  0.1989 -2.0447 -0.8016
 7511SOL    HW223089   6.446   5.698   5.477 -1.1575  0.6489 -0.1839
 7512SOL     OW23090   7.051   4.426   5.365 -0.6091  0.3529  0.0682
 7512SOL    HW123091   7.111   4.469   5.304  0.3927 -1.6518 -0.4468
 7512SOL    HW223092   7.063   4.473   5.447  3.0433 -0.9378  0.4899
 7513SOL     OW23093   3.153   5.572   5.678  0.4604  0.0114  0.2957
 7513SOL    HW123094   3.166   5.623   5.759 -1.7993 -0.0551  0.7744
 7513SOL    HW223095   3.129   5.637   5.612  0.2489 -0.1435  0.2181
 7514SOL     OW23096   0.354   1.029   2.051 -0.1407 -0.3314  0.2984
 7514SOL    HW123097   0.398   1.100   2.004 -0.0523 -0.4878  0.1456
 7514SOL    HW223098   0.316   1.072   2.128  1.3005 -0.4021  1.0787
 7515SOL     OW23099   3.922   3.674   1.915  0.6401 -0.0119  0.0093
 7515SOL    HW123100   3.910   3.642   2.004 -1.7613 -0.5416 -0.4365
 7515SOL    HW223101   3.905   3.767   1.920  0.4678 -0.0484  0.0923
 7516SOL     OW23102   5.523   4.891   4.256 -0.1582  0.9009 -0.8289
 7516SOL    HW123103   5.568   4.823   4.305  0.3923  2.2363  0.6290
 7516SOL    HW223104   5.593   4.949   4.227 -0.6291  0.9651 -1.8643
 7517SOL     OW23105   6.964   4.820   6.203 -0.0167 -0.2297  0.1269
 7517SOL    HW123106   6.961   4.865   6.288 -0.7457  0.6601 -0.3464
 7517SOL    HW223107   7.037   4.758   6.211 -1.7469 -2.1811  2.3944
 7518SOL     OW23108   4.266   1.033   3.646 -0.2708  0.2846  0.2092
 7518SOL    HW123109   4.314   0.968   3.595 -1.3306  0.2126 -0.7266
 7518SOL    HW223110   4.270   1.113   3.594 -0.6502  0.4401  0.4156
 7519SOL     OW23111   6.403   7.646   0.848 -0.2206  0.1884  0.3696
 7519SOL    HW123112   6.360   7.680   0.770  0.2866  3.0618  1.2214
 7519SOL    HW223113   6.401   7.551   0.837  1.2567  0.4430 -3.8863
 7520SOL     OW23114   7.598   6.020   0.565 -0.5479  0.5154  0.2973
 7520SOL    HW123115   7.604   5.974   0.648  1.4790  0.0351 -0.0581
 7520SOL    HW223116   7.689   6.026   0.534 -1.0163  2.5056 -0.8921
 7521SOL     OW23117   1.257   6.845   0.931  0.4025 -0.6437 -0.0651
 7521SOL    HW123118   1.347   6.878   0.931  0.1414  0.1094 -0.8453
 7521SOL    HW223119   1.241   6.820   0.840 -1.7469  3.8355 -1.2111
 7522SOL     OW23120   6.012   1.011   0.061  0.0976 -0.1769 -0.2058
 7522SOL    HW123121   6.061   0.959   0.125  1.7367  1.4732 -0.0473
 7522SOL    HW223122   6.028   1.102   0.086  0.4612  0.5152 -2.7128
 7523SOL     OW23123   1.185   1.525   4.565  0.3101  0.0365  0.0007
 7523SOL    HW123124   1.138   1.587   4.621  0.6986 -0.5462  1.0131
 7523SOL    HW223125   1.118   1.488   4.508  0.0177  1.1228 -0.3738
 7524SOL     OW23126   0.555   0.879   6.229  0.1400  0.1190 -0.0657
 7524SOL    HW123127   0.594   0.910   6.311  1.1238  1.7284 -1.0786
 7524SOL    HW223128   0.523   0.958   6.186 -2.5628 -0.9353 -0.2063
 7525SOL     OW23129   1.528   5.644   7.100 -0.6200  0.0566  1.0002
 7525SOL    HW123130   1.440   5.659   7.136 -1.4841 -0.7067 -0.6265
 7525SOL    HW223131   1.565   5.575   7.154 -1.6127 -0.6046  0.8762
 7526SOL     OW23132   5.934   2.966   2.408  0.4724  0.3163 -0.1222
 7526SOL    HW123133   5.851   2.919   2.399  0.1625  0.8439 -0.0186
 7526SOL    HW223134   5.946   2.975   2.503 -0.4349  2.1362 -0.1433
 7527SOL     OW23135   4.197   3.059   6.398 -0.1790  0.2936  0.0497
 7527SOL    HW123136   4.229   3.036   6.311 -0.2161  2.5656 -0.6344
 7527SOL    HW223137   4.232   3.147   6.414 -1.4582  0.5537  1.6721
 7528SOL     OW23138   7.447   3.711   5.284 -0.1024 -0.1895 -0.2445
 7528SOL    HW123139   7.532   3.668   5.280  0.3653  0.7670 -0.8444
 7528SOL    HW223140   7.436   3.735   5.376  0.6461  0.3931 -0.3010
 7529SOL     OW23141   7.146   4.663   5.054 -0.0311 -0.1802 -0.8146
 7529SOL    HW123142   7.175   4.754   5.062  0.2997 -0.3541  0.0948
 7529SOL    HW223143   7.082   4.664   4.983  0.0641  0.7371 -0.8967
 7530SOL     OW23144   0.282   3.286   2.981 -0.2172 -0.7157 -0.2657
 7530SOL    HW123145   0.250   3.208   2.937 -0.1448 -1.2308  0.5616
 7530SOL    HW223146   0.347   3.323   2.921  0.5226 -1.8844 -0.2196
 7531SOL     OW23147   0.963   6.418   1.161  0.2058  0.0528  0.1892
 7531SOL    HW123148   0.996   6.344   1.110 -1.6985 -0.2988 -0.6521
 7531SOL    HW223149   0.999   6.495   1.118  0.6545 -0.3216 -0.1170
 7532SOL     OW23150   4.900   4.042   0.451 -0.4310 -0.3137  0.5042
 7532SOL    HW123151   4.850   4.054   0.370  0.3477  1.3491  0.2161
 7532SOL    HW223152   4.941   3.956   0.442 -1.0062 -0.4951 -0.5072
 7533SOL     OW23153   3.329   2.806   1.443  0.7201  0.1846 -0.2805
 7533SOL    HW123154   3.250   2.787   1.494  2.4989 -1.0648  2.2410
 7533SOL    HW223155   3.376   2.871   1.496  3.5634 -2.5655  0.9460
 7534SOL     OW23156   7.491   3.702   0.706  0.0195  0.1779  0.7025
 7534SOL    HW123157   7.407   3.657   0.701  0.9164 -1.9191  2.5573
 7534SOL    HW223158   7.551   3.647   0.655  0.6296  0.6537  0.8881
 7535SOL     OW23159   3.467   5.637   4.018 -0.2546  0.1206 -0.3517
 7535SOL    HW123160   3.550   5.613   4.059  0.6039 -0.0577 -2.1195
 7535SOL    HW223161   3.444   5.561   3.964 -1.6776  0.0920  0.2391
 7536SOL     OW23162   7.718   2.883   1.127  0.4953  0.0862  0.3227
 7536SOL    HW123163   7.668   2.890   1.208  0.9669  0.5879  0.5737
 7536SOL    HW223164   7.756   2.970   1.115  0.5332 -0.0244 -0.3671
 7537SOL     OW23165   7.276   7.616   4.979  0.0457 -0.1731 -0.4000
 7537SOL    HW123166   7.308   7.569   5.056  0.5448 -1.3113 -1.2611
 7537SOL    HW223167   7.344   7.602   4.913 -0.2929  0.9167 -1.0050
 7538SOL     OW23168   5.648   6.648   6.571 -0.0407 -0.0167 -0.0037
 7538SOL    HW123169   5.719   6.677   6.515 -1.6109  3.7769 -0.3329
 7538SOL    HW223170   5.689   6.631   6.656  1.4464  0.5968 -0.5739
 7539SOL     OW23171   0.448   0.584   5.503  0.3909  0.3807  0.1646
 7539SOL    HW123172   0.540   0.609   5.495  0.9389 -1.7409 -0.8687
 7539SOL    HW223173   0.400   0.656   5.462  1.6084  1.2824  0.2641
 7540SOL     OW23174   5.014   2.680   2.516  0.1171 -0.7997  0.6000
 7540SOL    HW123175   5.071   2.757   2.526  0.1843 -0.7818  0.1127
 7540SOL    HW223176   5.051   2.615   2.574 -0.2264 -0.3028  1.3932
 7541SOL     OW23177   7.422   7.731   2.283 -0.4896 -0.0448 -0.3319
 7541SOL    HW123178   7.470   7.807   2.249  0.9600 -0.8219 -0.1027
 7541SOL    HW223179   7.331   7.745   2.255  0.0779  0.8887 -1.7934
 7542SOL     OW23180   1.982   2.657   5.802 -0.0161 -0.3504  0.7005
 7542SOL    HW123181   1.987   2.577   5.855 -1.4597 -0.6083  0.4986
 7542SOL    HW223182   1.955   2.725   5.863  1.0049 -0.0432  0.8280
 7543SOL     OW23183   5.118   7.694   1.103 -0.1774  0.4022 -0.6554
 7543SOL    HW123184   5.186   7.706   1.169 -1.7982  1.5910  0.9107
 7543SOL    HW223185   5.157   7.635   1.039  2.2255  0.8512  0.2692
 7544SOL     OW23186   3.260   2.131   0.193 -0.2035 -0.6142  0.3150
 7544SOL    HW123187   3.303   2.182   0.262  3.1980 -3.3698  0.5400
 7544SOL    HW223188   3.199   2.075   0.240 -1.1686  0.5428  0.4902
 7545SOL     OW23189   3.236   4.173   0.390  0.2433  0.0240 -0.2927
 7545SOL    HW123190   3.272   4.257   0.419  0.1087  0.2511 -0.7621
 7545SOL    HW223191   3.230   4.120   0.469 -0.9381  0.9230  0.2411
 7546SOL     OW23192   4.242   3.701   3.041  0.2373 -0.2383  0.1085
 7546SOL    HW123193   4.308   3.754   2.996 -0.6882  0.5334 -0.3681
 7546SOL    HW223194   4.271   3.611   3.027  0.5690  0.0333 -1.1080
 7547SOL     OW23195   1.702   1.582   1.972 -0.7121  0.0384 -0.7707
 7547SOL    HW123196   1.616   1.548   1.996 -0.0839 -0.8738  0.2742
 7547SOL    HW223197   1.756   1.568   2.050  0.1052  1.6165 -1.0185
 7548SOL     OW23198   7.097   4.367   4.217 -0.5613  0.1792 -0.7028
 7548SOL    HW123199   7.041   4.444   4.235 -0.7684  0.1670 -1.2618
 7548SOL    HW223200   7.095   4.317   4.298 -1.7313 -0.0411 -0.8514
 7549SOL     OW23201   1.770   4.815   4.292 -0.2190 -0.2849 -0.8073
 7549SOL    HW123202   1.784   4.908   4.274 -0.4887 -0.0617  0.0612
 7549SOL    HW223203   1.712   4.786   4.222 -1.0531  0.4904 -0.4640
 7550SOL     OW23204   0.478   5.598   0.503 -0.1165  0.0324  0.0853
 7550SOL    HW123205   0.412   5.540   0.539  0.6702 -0.1865  1.2620
 7550SOL    HW223206   0.430   5.675   0.474 -1.0507 -0.7735 -0.5539
 7551SOL     OW23207   4.321   2.038   6.462 -0.1968 -0.1912  0.7214
 7551SOL    HW123208   4.226   2.042   6.457 -0.2747 -1.9638  0.4329
 7551SOL    HW223209   4.351   2.092   6.389 -0.9640  0.4984  0.9022
 7552SOL     OW23210   6.872   7.107   0.811  0.1764  0.4980 -0.1897
 7552SOL    HW123211   6.883   7.185   0.865 -0.2310 -0.4803  1.3676
 7552SOL    HW223212   6.819   7.138   0.736 -1.7522  1.3287  1.4111
 7553SOL     OW23213   3.710   3.084   3.765 -0.2170  0.2243  0.3516
 7553SOL    HW123214   3.792   3.038   3.784  0.2607  0.4253 -1.0915
 7553SOL    HW223215   3.662   3.083   3.848  0.6291 -1.1485  0.8600
 7554SOL     OW23216   0.086   1.761   0.156  0.0542 -0.1011 -0.2741
 7554SOL    HW123217  -0.001   1.794   0.179  0.6818  0.7321  0.9956
 7554SOL    HW223218   0.146   1.808   0.214  1.3069 -1.0846 -0.7283
 7555SOL     OW23219   0.874   6.848   4.265 -0.0216  0.3741 -0.2412
 7555SOL    HW123220   0.805   6.852   4.199  0.5280  1.1091 -0.7875
 7555SOL    HW223221   0.865   6.761   4.304 -0.3172 -0.0894 -1.3104
 7556SOL     OW23222   6.122   1.145   4.241  1.0674 -0.0560  0.8722
 7556SOL    HW123223   6.214   1.167   4.256  1.6109 -1.3681 -0.3893
 7556SOL    HW223224   6.115   1.130   4.147 -0.8045  1.5340  0.6784
 7557SOL     OW23225   0.845   1.652   7.085 -0.1026  0.5588  0.2645
 7557SOL    HW123226   0.830   1.746   7.074 -0.2657  0.3229 -1.8706
 7557SOL    HW223227   0.835   1.616   6.998  1.5976 -1.2330  0.7398
 7558SOL     OW23228   2.907   5.485   4.271  0.6187 -0.5212  0.2381
 7558SOL    HW123229   2.931   5.572   4.305  0.6923 -0.5605  0.2859
 7558SOL    HW223230   2.877   5.437   4.349 -1.1268  0.0441 -0.0505
 7559SOL     OW23231   2.859   0.930   6.663  0.5637 -0.1790 -0.1731
 7559SOL    HW123232   2.859   0.850   6.716  0.5263 -0.6226 -0.8350
 7559SOL    HW223233   2.779   0.976   6.688 -0.5440 -1.4124 -1.3703
 7560SOL     OW23234   5.693   2.578   3.115  0.5441  0.5682  0.2232
 7560SOL    HW123235   5.670   2.485   3.115 -1.5833  1.0646  0.3430
 7560SOL    HW223236   5.625   2.621   3.167 -0.6127  2.6639 -2.7502
 7561SOL     OW23237   7.644   1.006   6.991  0.1487 -0.5400  0.2123
 7561SOL    HW123238   7.680   1.047   6.913  1.6641  0.1524  1.2284
 7561SOL    HW223239   7.665   0.913   6.981  3.4787 -0.0325  1.3017
 7562SOL     OW23240   3.625   3.430   5.927  0.1932 -0.6205 -0.0670
 7562SOL    HW123241   3.578   3.429   5.844  0.7925  0.3182 -0.4378
 7562SOL    HW223242   3.593   3.507   5.973  0.2893 -0.8112  0.3304
 7563SOL     OW23243   4.881   1.004   0.608 -0.1925  0.2674  0.1345
 7563SOL    HW123244   4.802   0.972   0.564  0.2537  1.0085 -1.2802
 7563SOL    HW223245   4.920   0.927   0.648 -0.8457 -0.3607 -0.4225
 7564SOL     OW23246   3.456   4.161   5.449  0.3955  0.0625 -0.3778
 7564SOL    HW123247   3.463   4.121   5.362 -0.2857 -0.9942  0.0317
 7564SOL    HW223248   3.491   4.249   5.438  0.6739 -0.1892 -1.6349
 7565SOL     OW23249   2.231   6.658   7.360 -0.1683  0.1299  0.3116
 7565SOL    HW123250   2.191   6.598   7.297  2.1639 -0.8381 -0.3647
 7565SOL    HW223251   2.252   6.604   7.436 -1.0568  0.8527  1.1066
 7566SOL     OW23252   5.256   0.416   5.222 -0.1990 -0.1179 -0.2226
 7566SOL    HW123253   5.206   0.335   5.221 -0.8715  0.2861 -0.1776
 7566SOL    HW223254   5.347   0.388   5.227 -0.4319 -0.8655  0.0090
 7567SOL     OW23255   7.323   5.023   7.368 -0.0841 -0.1170 -0.0383
 7567SOL    HW123256   7.272   5.005   7.289  1.4602  0.5071 -1.2107
 7567SOL    HW223257   7.326   5.119   7.373 -0.6742 -0.1356  1.1483
 7568SOL     OW23258   3.154   1.647   4.386  0.0375  0.2533  0.4748
 7568SOL    HW123259   3.119   1.578   4.442 -0.2046  0.5108  0.6487
 7568SOL    HW223260   3.106   1.726   4.413  2.7468  1.2654  2.7250
 7569SOL     OW23261   4.180   7.235   6.137 -1.0443  0.3753 -0.4228
 7569SOL    HW123262   4.253   7.173   6.135  0.1860  1.7788 -2.1728
 7569SOL    HW223263   4.109   7.187   6.181  1.5799 -0.1791  3.7418
 7570SOL     OW23264   6.868   0.946   3.446 -0.3314 -0.2735 -0.2427
 7570SOL    HW123265   6.829   0.859   3.435  2.5200 -1.5809 -1.1717
 7570SOL    HW223266   6.852   0.990   3.363 -0.9943 -0.2444 -0.1064
 7571SOL     OW23267   1.126   6.102   3.794 -0.0178 -0.2096 -0.2112
 7571SOL    HW123268   1.139   6.186   3.838  0.6657 -1.4775  2.1943
 7571SOL    HW223269   1.058   6.119   3.729 -0.7286  1.9100  0.9953
 7572SOL     OW23270   1.803   1.275   0.767 -0.0564  0.4303 -0.2762
 7572SOL    HW123271   1.783   1.354   0.716 -0.4514 -0.5896 -1.7812
 7572SOL    HW223272   1.728   1.264   0.825  0.3342  1.5405  0.4717
 7573SOL     OW23273   5.975   7.371   1.434 -0.2825 -0.6090  0.0787
 7573SOL    HW123274   6.065   7.381   1.465 -0.2382 -0.6911 -0.0210
 7573SOL    HW223275   5.921   7.380   1.512 -0.2566  0.5505 -0.0141
 7574SOL     OW23276   7.107   6.630   4.609 -0.0925  0.6708  0.2572
 7574SOL    HW123277   7.068   6.598   4.691  0.4019  0.7940  0.5445
 7574SOL    HW223278   7.056   6.707   4.588 -1.0291 -0.0579 -0.2206
 7575SOL     OW23279   4.062   5.599   1.879 -0.1989 -0.0721  0.2301
 7575SOL    HW123280   4.093   5.510   1.901 -1.8412 -1.1337 -1.5103
 7575SOL    HW223281   4.122   5.629   1.811  0.8657  0.5495  1.3913
 7576SOL     OW23282   4.904   7.411   2.633 -0.2704 -0.6723  0.4874
 7576SOL    HW123283   4.941   7.343   2.577 -0.1076 -0.5520  0.4471
 7576SOL    HW223284   4.845   7.460   2.576  1.6225  0.9047 -0.2415
 7577SOL     OW23285   3.299   3.620   7.517  0.3063  0.0657  0.0747
 7577SOL    HW123286   3.275   3.700   7.564  1.7861 -0.5204  1.9621
 7577SOL    HW223287   3.383   3.595   7.554  0.3980 -1.7882 -1.2504
 7578SOL     OW23288   3.180   3.966   4.476 -0.2848  0.0600  0.1799
 7578SOL    HW123289   3.213   4.029   4.540  0.7756 -0.3513  0.0518
 7578SOL    HW223290   3.208   3.881   4.509 -1.2325 -0.3130  0.0625
 7579SOL     OW23291   1.584   6.500   4.378  0.1650 -0.4514 -0.1017
 7579SOL    HW123292   1.551   6.538   4.296  1.6280 -0.5110 -0.7544
 7579SOL    HW223293   1.603   6.576   4.432  1.5626 -0.2741 -0.7958
 7580SOL     OW23294   2.782   5.534   5.757 -0.1706 -0.0602  0.0906
 7580SOL    HW123295   2.687   5.547   5.759 -0.0256  1.1017  0.0514
 7580SOL    HW223296   2.793   5.446   5.720 -1.1721  0.9517 -2.9113
 7581SOL     OW23297   7.422   4.122   2.384 -0.6187  0.3104  0.6305
 7581SOL    HW123298   7.402   4.213   2.407 -0.6569  0.0969  1.4678
 7581SOL    HW223299   7.360   4.101   2.314  1.1484  1.7583 -1.5125
 7582SOL     OW23300   4.155   2.802   0.835  0.7342  0.2192  0.1984
 7582SOL    HW123301   4.074   2.800   0.784  1.1182  0.2035 -0.4133
 7582SOL    HW223302   4.126   2.793   0.926 -0.0804  1.7684  0.1301
 7583SOL     OW23303   0.935   3.337   2.082  0.0538  0.0052  0.4210
 7583SOL    HW123304   0.895   3.279   2.017  0.9431  0.0131 -0.1414
 7583SOL    HW223305   0.931   3.287   2.164 -1.8858  0.3477  0.5883
 7584SOL     OW23306   5.208   1.482   2.138 -0.6120  0.4704  0.5885
 7584SOL    HW123307   5.287   1.535   2.147 -1.2498  1.3643  1.0367
 7584SOL    HW223308   5.201   1.468   2.043  0.0060  0.4951  0.5306
 7585SOL     OW23309   6.142   3.314   1.655 -0.1544 -0.5410 -0.4402
 7585SOL    HW123310   6.201   3.320   1.580  2.1270  3.2510  1.3632
 7585SOL    HW223311   6.199   3.286   1.727 -1.2524  0.1497  0.7238
 7586SOL     OW23312   5.863   2.303   3.968  0.0306 -0.4706  0.8163
 7586SOL    HW123313   5.847   2.394   3.944  2.3672 -0.3051 -0.4599
 7586SOL    HW223314   5.856   2.255   3.885 -1.3398 -1.5152  1.4978
 7587SOL     OW23315   7.709   1.356   4.651  0.0197  0.1181  0.1886
 7587SOL    HW123316   7.693   1.360   4.556 -0.0080 -0.7285  0.1488
 7587SOL    HW223317   7.624   1.374   4.690 -0.3645 -1.1522  0.0138
 7588SOL     OW23318   0.202   7.360   2.145  0.1960  0.1556 -0.0271
 7588SOL    HW123319   0.171   7.446   2.118 -1.5323 -0.6237 -0.7002
 7588SOL    HW223320   0.123   7.316   2.177  1.0454 -1.1781  0.3039
 7589SOL     OW23321   4.851   6.796   4.797 -0.0128 -0.0121 -0.3148
 7589SOL    HW123322   4.941   6.821   4.775 -0.0397  0.0054 -0.4033
 7589SOL    HW223323   4.853   6.785   4.892  0.0972 -0.0666 -0.3222
 7590SOL     OW23324   1.208   6.765   7.521 -0.1411 -0.4246  0.0653
 7590SOL    HW123325   1.155   6.699   7.565 -1.5453  1.0492  0.6954
 7590SOL    HW223326   1.253   6.717   7.452 -0.8213 -2.0919  0.7197
 7591SOL     OW23327   2.167   5.781   0.802 -0.1426 -0.4136 -0.3772
 7591SOL    HW123328   2.240   5.792   0.742 -0.9483 -2.0191 -1.7380
 7591SOL    HW223329   2.180   5.694   0.840  0.0433  0.3402  1.4051
 7592SOL     OW23330   1.293   6.678   4.515  0.0163  0.7139 -0.3734
 7592SOL    HW123331   1.275   6.771   4.527 -1.2990  0.3017  1.2715
 7592SOL    HW223332   1.385   6.667   4.540  0.2539  1.5921 -0.8268
 7593SOL     OW23333   4.247   3.959   3.169  0.4371 -0.0624  0.1277
 7593SOL    HW123334   4.337   3.971   3.200  1.8418  0.0456 -3.4865
 7593SOL    HW223335   4.247   3.871   3.131 -1.4066 -0.5444  1.1323
 7594SOL     OW23336   2.143   0.013   4.600  0.3971 -0.0800 -0.3768
 7594SOL    HW123337   2.060   0.056   4.618  1.2175  0.9216  1.1872
 7594SOL    HW223338   2.121  -0.080   4.593 -0.9383  0.2480 -0.6285
 7595SOL     OW23339   3.639   1.704   7.383  0.0964 -0.3237  0.0389
 7595SOL    HW123340   3.590   1.750   7.452  0.5654  0.9596 -0.4634
 7595SOL    HW223341   3.603   1.615   7.385 -0.7124 -0.0061  1.1548
 7596SOL     OW23342   2.285   3.445   6.152 -0.1733  0.1267 -0.1973
 7596SOL    HW123343   2.291   3.422   6.245 -0.1045 -1.8559 -0.6423
 7596SOL    HW223344   2.206   3.400   6.121  0.5213 -0.3382 -1.3718
 7597SOL     OW23345   5.247   3.185   4.477 -0.1427 -0.2282  0.2001
 7597SOL    HW123346   5.290   3.123   4.419 -0.7837 -0.8108  0.3425
 7597SOL    HW223347   5.240   3.140   4.561  0.3644  0.4409  0.6155
 7598SOL     OW23348   3.648   5.968   4.379  0.6447  0.4655  0.5749
 7598SOL    HW123349   3.715   5.910   4.343 -0.3693 -0.9222  0.8380
 7598SOL    HW223350   3.697   6.036   4.424  1.9465  1.5052 -2.1694
 7599SOL     OW23351   4.118   1.381   0.755 -0.3605  0.0474  0.4524
 7599SOL    HW123352   4.034   1.380   0.709 -0.4997 -0.8962  0.7031
 7599SOL    HW223353   4.175   1.327   0.700 -0.3020 -0.4190  0.9589
 7600SOL     OW23354   2.661   6.931   6.042 -0.6889  0.2986 -0.1699
 7600SOL    HW123355   2.625   6.973   5.964 -0.9370  0.2967 -0.0570
 7600SOL    HW223356   2.597   6.864   6.065  0.7152 -1.6941 -1.6554
 7601SOL     OW23357   4.223   0.439   2.985 -0.1901  0.2312  0.0181
 7601SOL    HW123358   4.282   0.421   3.059  0.7484 -0.3905 -0.8603
 7601SOL    HW223359   4.135   0.438   3.024  0.4249  3.3058  1.7992
 7602SOL     OW23360   0.179   3.710   0.217  0.0508  0.8264  0.2028
 7602SOL    HW123361   0.169   3.676   0.306  1.3580 -0.3381 -0.0668
 7602SOL    HW223362   0.231   3.790   0.228  1.0640  0.1545  0.4071
 7603SOL     OW23363   2.156   0.480   3.793 -0.6589  0.0692 -0.5870
 7603SOL    HW123364   2.201   0.516   3.870  0.7307 -1.2082 -0.7656
 7603SOL    HW223365   2.120   0.556   3.748 -1.2080  0.8807  1.1268
 7604SOL     OW23366   5.342   5.715   4.078  0.1744  0.4229  0.0065
 7604SOL    HW123367   5.313   5.669   4.157  1.1946 -1.5502 -0.6823
 7604SOL    HW223368   5.291   5.675   4.007  0.9783  0.4630 -0.6075
 7605SOL     OW23369   0.837   1.825   0.031 -0.7689 -0.5445 -0.4222
 7605SOL    HW123370   0.897   1.890   0.068 -1.1365 -0.3027 -0.2422
 7605SOL    HW223371   0.890   1.776  -0.033 -0.0323 -1.1676  0.6249
 7606SOL     OW23372   1.853   1.581   0.338  0.1111 -0.9294  0.0185
 7606SOL    HW123373   1.898   1.662   0.363 -1.0644  0.1094 -1.0933
 7606SOL    HW223374   1.921   1.514   0.342  0.7645 -0.2004  2.4450
 7607SOL     OW23375   2.069   3.905   3.501  0.3094  0.5619 -0.0302
 7607SOL    HW123376   2.053   3.848   3.576  0.2339  0.6869  0.0481
 7607SOL    HW223377   2.002   3.973   3.507 -1.4986 -0.9598 -1.7684
 7608SOL     OW23378   5.690   7.552   1.900  0.4085 -0.0661 -0.3213
 7608SOL    HW123379   5.630   7.480   1.882 -0.0469 -0.1614  1.4019
 7608SOL    HW223380   5.750   7.517   1.966  1.3179  0.5728 -0.7924
 7609SOL     OW23381   1.621   1.617   3.516 -0.6333  0.1353  0.1276
 7609SOL    HW123382   1.655   1.668   3.589 -1.6973 -0.8151  1.3565
 7609SOL    HW223383   1.696   1.569   3.483 -0.1009  0.6914  0.5034
 7610SOL     OW23384   1.931   6.485   1.148  0.5077  0.2670 -0.4868
 7610SOL    HW123385   1.946   6.402   1.102  1.5016 -1.6790  3.0191
 7610SOL    HW223386   1.842   6.478   1.182  1.3228 -0.4711  1.6740
 7611SOL     OW23387   6.674   4.398   4.060  0.1575  0.0356 -0.3003
 7611SOL    HW123388   6.579   4.404   4.057  0.0285 -1.7563 -2.1128
 7611SOL    HW223389   6.693   4.306   4.044  2.1874 -0.0280  1.8918
 7612SOL     OW23390   0.067   5.622   0.328  0.7297 -0.3326  0.1465
 7612SOL    HW123391   0.051   5.574   0.409  0.3405 -0.9610 -0.2996
 7612SOL    HW223392   0.024   5.571   0.260  1.0281  0.2038 -0.4605
 7613SOL     OW23393   4.483   4.960   5.273 -0.7230  0.5137  0.4562
 7613SOL    HW123394   4.512   4.994   5.357  0.6913 -1.4814  0.8493
 7613SOL    HW223395   4.507   4.868   5.274  2.4787  1.0098 -3.3828
 7614SOL     OW23396   4.138   4.470   4.778 -0.3120 -0.7395 -0.0754
 7614SOL    HW123397   4.184   4.506   4.854  0.4585 -1.1641 -0.3338
 7614SOL    HW223398   4.199   4.481   4.705 -1.1603 -0.0598 -0.7146
 7615SOL     OW23399   6.307   4.319   2.103 -0.2067  0.0204 -0.2573
 7615SOL    HW123400   6.346   4.318   2.191  0.2444 -1.5618 -0.4536
 7615SOL    HW223401   6.282   4.229   2.087 -3.0716  0.7746 -0.5796
 7616SOL     OW23402   1.812   2.347   6.174  0.3968  0.0992 -0.1709
 7616SOL    HW123403   1.861   2.265   6.164  0.0670 -0.3938  1.8181
 7616SOL    HW223404   1.752   2.330   6.247 -1.6992  1.1919 -1.5425
 7617SOL     OW23405   0.428   6.782   3.543 -0.2779  0.0223  0.0507
 7617SOL    HW123406   0.507   6.752   3.588 -0.6328  0.4264  0.9652
 7617SOL    HW223407   0.404   6.709   3.486  0.2403 -0.4676  0.4454
 7618SOL     OW23408   5.469   0.525   2.115  0.2029  0.0147 -0.0243
 7618SOL    HW123409   5.504   0.477   2.040 -1.9002 -0.2987 -0.8826
 7618SOL    HW223410   5.453   0.613   2.081  0.2632  0.1821  0.3772
 7619SOL     OW23411   1.737   4.005   3.774 -0.1529 -0.5373 -0.9404
 7619SOL    HW123412   1.674   4.069   3.808  2.0329  1.1224  0.1785
 7619SOL    HW223413   1.709   3.922   3.812 -0.3502  0.5448  1.4860
 7620SOL     OW23414   7.487   6.289   0.540 -0.3324  0.5718  0.3396
 7620SOL    HW123415   7.490   6.198   0.567 -1.2355  0.3175 -0.3522
 7620SOL    HW223416   7.541   6.336   0.604 -0.0757 -0.4019  0.8476
 7621SOL     OW23417   0.624   7.058   4.408 -0.0688  0.1496  0.4149
 7621SOL    HW123418   0.710   7.092   4.432 -0.1376  0.8942 -0.3441
 7621SOL    HW223419   0.603   6.995   4.477  1.2066 -0.2649  0.4441
 7622SOL     OW23420   2.314   5.831   6.208 -0.0593 -0.3061 -0.1765
 7622SOL    HW123421   2.354   5.913   6.178 -2.0430  0.5523 -0.6369
 7622SOL    HW223422   2.372   5.763   6.175  2.1444  0.8788  0.9774
 7623SOL     OW23423   7.709   5.658   1.066 -0.5379 -0.5634  0.4620
 7623SOL    HW123424   7.712   5.739   1.115 -0.2906  0.6450 -1.4270
 7623SOL    HW223425   7.616   5.633   1.066 -0.6677 -0.0845  0.7493
 7624SOL     OW23426   5.186   7.511   5.555  0.1395 -0.2491 -0.1581
 7624SOL    HW123427   5.205   7.482   5.466 -0.1234  1.9583 -1.0007
 7624SOL    HW223428   5.173   7.431   5.605  0.7048 -1.5424 -2.0151
 7625SOL     OW23429   2.272   1.943   3.573 -0.0105 -0.4177 -0.3313
 7625SOL    HW123430   2.211   1.877   3.542  0.7055 -0.5135 -1.6210
 7625SOL    HW223431   2.242   2.025   3.533  0.7746 -0.4963 -1.1197
 7626SOL     OW23432   6.378   4.134   5.912  0.5945 -0.2141  0.3546
 7626SOL    HW123433   6.418   4.055   5.876  2.7628  0.9776  0.0050
 7626SOL    HW223434   6.451   4.194   5.927 -1.0576  2.0638 -0.1788
 7627SOL     OW23435   2.681   1.280   3.104 -0.0927 -0.5058  0.2097
 7627SOL    HW123436   2.699   1.313   3.192  1.5636 -0.0899 -0.2349
 7627SOL    HW223437   2.590   1.253   3.105 -0.2968  0.1969  1.8301
 7628SOL     OW23438   7.473   1.292   6.503  0.2168  0.4305  0.1073
 7628SOL    HW123439   7.516   1.262   6.583 -1.9478  1.4985  1.7764
 7628SOL    HW223440   7.509   1.379   6.487 -1.0472  1.2143  1.3498
 7629SOL     OW23441   4.549   5.622   0.502  0.5104 -0.0766 -0.1476
 7629SOL    HW123442   4.583   5.658   0.584  1.0617  1.0351 -0.8469
 7629SOL    HW223443   4.609   5.654   0.435 -1.2683  1.0700 -1.2900
 7630SOL     OW23444   7.129   3.534   2.440 -0.4212 -0.5525  0.2458
 7630SOL    HW123445   7.166   3.556   2.526 -0.8843 -1.4626  0.6957
 7630SOL    HW223446   7.205   3.507   2.389 -0.2664 -1.0439  0.7189
 7631SOL     OW23447   7.671   5.508   0.112 -0.2729 -0.9878 -0.6402
 7631SOL    HW123448   7.758   5.517   0.072 -1.0237  0.1558 -2.1040
 7631SOL    HW223449   7.649   5.415   0.101  0.4566 -1.1379 -0.9051
 7632SOL     OW23450   4.018   3.375   6.298 -0.1024  0.0418  0.3291
 7632SOL    HW123451   4.076   3.346   6.228 -1.5086 -1.9525 -0.0774
 7632SOL    HW223452   4.078   3.395   6.371  1.1445 -2.1925  0.0153
 7633SOL     OW23453   5.292   0.973   0.597 -0.1505 -0.6470 -0.2323
 7633SOL    HW123454   5.359   0.989   0.531 -0.1302 -0.4454 -0.1639
 7633SOL    HW223455   5.225   0.922   0.552 -0.4385  0.0383 -0.5831
 7634SOL     OW23456   3.713   4.195   7.669 -0.0696 -0.4150  0.2181
 7634SOL    HW123457   3.728   4.210   7.762  0.6101 -0.1500  0.0751
 7634SOL    HW223458   3.734   4.103   7.655 -0.8500 -0.6363  0.4498
 7635SOL     OW23459   6.388   7.448   5.903  0.0669  0.3463  0.1225
 7635SOL    HW123460   6.417   7.523   5.852  1.0014 -0.7320 -0.9804
 7635SOL    HW223461   6.452   7.380   5.886 -0.2306 -0.4400  1.8458
 7636SOL     OW23462   0.255   4.123   1.994 -0.4357  0.1834 -0.3743
 7636SOL    HW123463   0.316   4.057   1.962  0.3612  0.1416  1.1627
 7636SOL    HW223464   0.309   4.200   2.011 -1.0575  0.6300 -0.3770
 7637SOL     OW23465   6.613   4.714   6.989  0.1450 -0.7519  0.0352
 7637SOL    HW123466   6.531   4.709   6.940 -0.2890  0.2747  0.6041
 7637SOL    HW223467   6.590   4.685   7.077  0.2682 -0.0415  0.3133
 7638SOL     OW23468   1.767   0.925   3.783  0.0847  0.8017  0.1685
 7638SOL    HW123469   1.835   0.865   3.753  2.3992  2.2704  2.0659
 7638SOL    HW223470   1.710   0.938   3.707  0.8912 -1.8216 -0.9992
 7639SOL     OW23471   7.680   7.631   2.288  0.2258 -0.1956  0.8106
 7639SOL    HW123472   7.585   7.643   2.286  0.3250  0.8524 -2.0046
 7639SOL    HW223473   7.696   7.575   2.365 -2.7329 -1.1681  0.8306
 7640SOL     OW23474   4.198   1.066   5.329 -0.4627  0.2646  0.0242
 7640SOL    HW123475   4.181   0.999   5.395  1.9371 -0.3530  0.1132
 7640SOL    HW223476   4.201   1.148   5.377 -0.1640 -0.0031  0.4734
 7641SOL     OW23477   2.072   1.277   3.336  0.0841 -0.2721 -0.4381
 7641SOL    HW123478   2.152   1.297   3.384  1.2502 -1.5506 -1.7345
 7641SOL    HW223479   2.076   1.334   3.259  0.1142 -0.7877 -0.8306
 7642SOL     OW23480   6.986   6.240   2.162 -0.0332  0.3768 -0.1380
 7642SOL    HW123481   6.938   6.236   2.245 -1.0487 -0.1559 -0.7303
 7642SOL    HW223482   6.957   6.163   2.114  0.9611  0.3840 -0.7777
 7643SOL     OW23483   4.329   4.104   0.111 -0.6275 -0.1058 -0.5180
 7643SOL    HW123484   4.388   4.034   0.140  0.3929  0.7290 -0.5314
 7643SOL    HW223485   4.252   4.095   0.167  0.4211  0.1479  1.0248
 7644SOL     OW23486   1.242   3.929   0.026  0.1050 -0.4873  0.4527
 7644SOL    HW123487   1.331   3.948  -0.005 -0.5700  2.8114  0.1120
 7644SOL    HW223488   1.255   3.883   0.109  2.1868  0.7955  0.9227
 7645SOL     OW23489   6.581   0.886   2.763  0.6808 -0.1549 -0.1900
 7645SOL    HW123490   6.651   0.951   2.758  0.4096  0.2984  1.3719
 7645SOL    HW223491   6.579   0.860   2.855  0.3638 -1.9355 -0.6611
 7646SOL     OW23492   3.883   6.519   6.985 -0.4924  0.0676  0.3181
 7646SOL    HW123493   3.804   6.482   7.025 -0.9523  1.6161  0.9366
 7646SOL    HW223494   3.905   6.458   6.915 -2.0762 -0.5768  0.3274
 7647SOL     OW23495   1.321   1.522   7.400  0.6120 -0.0924 -0.2377
 7647SOL    HW123496   1.273   1.502   7.320 -0.9353 -2.2319  1.1161
 7647SOL    HW223497   1.401   1.469   7.394 -0.2905 -1.5801  0.3135
 7648SOL     OW23498   7.118   6.353   1.560  0.5041  0.0740 -0.0448
 7648SOL    HW123499   7.139   6.273   1.512 -0.6118 -0.2821  0.0243
 7648SOL    HW223500   7.098   6.418   1.492  1.2403  0.2514 -0.0968
 7649SOL     OW23501   1.761   0.176   3.845 -0.0884  0.2488 -0.1949
 7649SOL    HW123502   1.751   0.100   3.902 -1.3815 -1.8573 -2.9784
 7649SOL    HW223503   1.681   0.177   3.792  0.7951  2.3824 -1.6506
 7650SOL     OW23504   4.421   3.341   1.463 -0.6194 -0.3247  0.1693
 7650SOL    HW123505   4.485   3.342   1.392 -0.3503  0.4335  0.4175
 7650SOL    HW223506   4.396   3.249   1.471  0.8357 -0.7160  0.4336
 7651SOL     OW23507   5.432   1.437   2.676 -0.5007 -0.2581  0.5743
 7651SOL    HW123508   5.405   1.413   2.587 -1.0909 -0.9612  0.9310
 7651SOL    HW223509   5.375   1.385   2.733  0.0947 -0.0590  1.3662
 7652SOL     OW23510   1.423   5.549   0.102  0.2417 -0.0973  0.2587
 7652SOL    HW123511   1.459   5.480   0.157 -1.7416 -0.1587  1.5860
 7652SOL    HW223512   1.465   5.629   0.134  1.5229 -0.4788 -0.3786
 7653SOL     OW23513   0.830   4.561   6.708 -0.1847  0.1446 -0.3094
 7653SOL    HW123514   0.797   4.637   6.755  0.1669  0.6155 -0.8026
 7653SOL    HW223515   0.900   4.596   6.652  0.6767 -0.6971  0.1925
 7654SOL     OW23516   2.546   2.969   2.683  0.3876 -0.2453 -0.3202
 7654SOL    HW123517   2.503   3.035   2.630 -1.2577 -0.8727  0.1782
 7654SOL    HW223518   2.475   2.927   2.732  1.3663 -2.3721 -0.6158
 7655SOL     OW23519   3.300   3.414   6.532 -0.3219  0.2785 -0.5099
 7655SOL    HW123520   3.285   3.335   6.584 -0.6947 -0.0312 -1.0844
 7655SOL    HW223521   3.236   3.477   6.565 -2.7636 -0.8936 -2.6560
 7656SOL     OW23522   2.062   2.323   3.289 -0.0628 -0.0150  0.2800
 7656SOL    HW123523   2.157   2.338   3.283  0.5312 -3.4330 -3.1651
 7656SOL    HW223524   2.023   2.400   3.250  1.5801  0.0336 -1.4174
 7657SOL     OW23525   3.460   6.019   4.078 -0.3235  0.2778  0.4517
 7657SOL    HW123526   3.400   5.985   4.144  0.3470  0.8639  1.3915
 7657SOL    HW223527   3.476   6.110   4.105 -1.1749  1.0032 -1.3384
 7658SOL     OW23528   0.873   0.175   4.123  0.1088  0.2190 -0.3149
 7658SOL    HW123529   0.936   0.248   4.122  0.6647 -0.2508 -0.1604
 7658SOL    HW223530   0.854   0.159   4.031 -0.7740  1.1930 -0.3220
 7659SOL     OW23531   7.069   3.019   2.638  0.1634  0.1981 -0.3839
 7659SOL    HW123532   7.031   2.986   2.557  0.7226  0.7186 -0.8675
 7659SOL    HW223533   7.070   3.114   2.627  0.8578  0.2371 -0.0492
 7660SOL     OW23534   3.482   6.305   4.492  0.1764 -0.3769  0.2638
 7660SOL    HW123535   3.453   6.369   4.427 -1.1375 -0.2638  0.9259
 7660SOL    HW223536   3.410   6.301   4.555  0.3998 -2.2165  0.4532
 7661SOL     OW23537   4.499   6.257   7.670  0.5200 -0.8227  0.4522
 7661SOL    HW123538   4.442   6.333   7.656 -0.1374 -0.7859  2.8294
 7661SOL    HW223539   4.568   6.290   7.727  0.1006 -2.0154  1.7030
 7662SOL     OW23540   0.754   1.275   3.130 -0.5750  0.1052  0.6095
 7662SOL    HW123541   0.804   1.348   3.095 -0.8032  0.2316  0.5416
 7662SOL    HW223542   0.708   1.239   3.054 -1.0982  0.4023  0.7759
 7663SOL     OW23543   0.070   2.737   3.721 -0.2043  0.8098 -0.5799
 7663SOL    HW123544   0.049   2.797   3.792  1.0334  0.3259  0.2213
 7663SOL    HW223545   0.071   2.650   3.761  1.5830  0.6418 -0.9112
 7664SOL     OW23546   1.167   4.678   0.436 -0.9628 -0.1356 -0.3132
 7664SOL    HW123547   1.182   4.767   0.466  1.6623  0.0973 -1.9956
 7664SOL    HW223548   1.072   4.670   0.430 -1.2792  3.1950 -1.8624
 7665SOL     OW23549   7.479   7.391   4.030  0.5351 -0.5097  0.1843
 7665SOL    HW123550   7.390   7.390   3.995  0.4233 -1.8527  0.4220
 7665SOL    HW223551   7.470   7.355   4.118  1.1148  0.7978  0.8010
 7666SOL     OW23552   6.684   6.185   2.122  0.8235  0.1428  0.1053
 7666SOL    HW123553   6.594   6.204   2.149  1.1074  0.3337  0.9641
 7666SOL    HW223554   6.711   6.112   2.179  1.1411 -0.0529 -0.2925
 7667SOL     OW23555   3.247   6.856   5.504 -0.1546 -0.3855 -0.1855
 7667SOL    HW123556   3.214   6.835   5.591  0.7347 -1.0716  0.0130
 7667SOL    HW223557   3.313   6.924   5.519  0.7063 -1.1990 -0.1821
 7668SOL     OW23558   2.656   3.749   5.304  0.1759  0.0877 -0.5397
 7668SOL    HW123559   2.698   3.797   5.375  1.8503 -1.4958 -0.4059
 7668SOL    HW223560   2.674   3.801   5.226  1.8346 -0.2038 -0.3763
 7669SOL     OW23561   0.150   6.353   3.543 -0.2053 -0.0837 -0.3205
 7669SOL    HW123562   0.200   6.331   3.621 -1.3536  0.3303  0.5536
 7669SOL    HW223563   0.150   6.272   3.491  1.3923 -0.0712 -0.3894
 7670SOL     OW23564   3.213   0.550   3.445 -0.1038  0.1288 -0.3537
 7670SOL    HW123565   3.139   0.611   3.444  0.9532  1.4858  0.7439
 7670SOL    HW223566   3.225   0.528   3.537  2.1174  1.5553 -0.2354
 7671SOL     OW23567   5.162   2.070   2.145 -0.2355  0.2881  0.4858
 7671SOL    HW123568   5.212   2.003   2.192 -0.1014  0.9792  1.3425
 7671SOL    HW223569   5.102   2.020   2.090 -0.8723 -0.5535  1.8848
 7672SOL     OW23570   1.014   2.996   0.039  0.0366 -0.4886 -0.0708
 7672SOL    HW123571   0.938   2.982  -0.018  1.0473  0.9407 -1.8522
 7672SOL    HW223572   0.980   2.982   0.127 -1.6918 -2.3698 -0.9330
 7673SOL     OW23573   1.652   4.379   1.342  0.3700  0.5414  0.0420
 7673SOL    HW123574   1.720   4.427   1.388  0.3835  0.1188  0.4646
 7673SOL    HW223575   1.597   4.343   1.411  0.9797 -0.9634 -0.2290
 7674SOL     OW23576   2.384   3.044   4.071  0.0777  0.2008 -0.1925
 7674SOL    HW123577   2.362   3.093   4.151 -1.2324 -0.4230 -0.1339
 7674SOL    HW223578   2.442   2.975   4.100 -0.9015 -0.4115  0.3566
 7675SOL     OW23579   6.730   6.127   4.088 -0.4187 -0.4984 -0.1862
 7675SOL    HW123580   6.739   6.071   4.165  4.0918 -0.6550 -0.5415
 7675SOL    HW223581   6.789   6.200   4.104  0.1707 -0.1891 -3.1359
 7676SOL     OW23582   2.468   2.659   6.185 -0.4847 -0.3810  0.1745
 7676SOL    HW123583   2.507   2.738   6.222 -0.3568 -0.0941 -0.5458
 7676SOL    HW223584   2.468   2.596   6.257 -0.8299  0.3534  0.8329
 7677SOL     OW23585   1.505   6.972   0.949 -0.0234  0.3038  0.8725
 7677SOL    HW123586   1.600   6.959   0.957  0.1742  1.3930  0.4322
 7677SOL    HW223587   1.492   7.065   0.968 -0.9440  0.2771  0.4144
 7678SOL     OW23588   2.192   6.288   2.404 -0.8275  0.2358  0.2845
 7678SOL    HW123589   2.202   6.305   2.498 -0.8631  1.0859  0.1488
 7678SOL    HW223590   2.226   6.368   2.363  0.4949 -0.6820 -0.4688
 7679SOL     OW23591   5.087   4.344   2.078  0.0379 -0.3306 -0.2004
 7679SOL    HW123592   5.016   4.321   2.019 -1.2802  0.9106  0.8372
 7679SOL    HW223593   5.107   4.435   2.058 -0.1587 -0.0156  0.9845
 7680SOL     OW23594   4.178   2.078   5.684 -0.2371  0.3305  0.7187
 7680SOL    HW123595   4.156   2.150   5.624 -0.3811 -0.4389 -0.1890
 7680SOL    HW223596   4.247   2.112   5.739  0.0165  1.0213 -0.0118
 7681SOL     OW23597   5.222   4.063   2.611  0.0604  1.0494  0.1648
 7681SOL    HW123598   5.313   4.060   2.583  0.7856 -1.0049  2.4406
 7681SOL    HW223599   5.219   4.130   2.680  0.1023  0.4111  0.8001
 7682SOL     OW23600   0.970   1.416   4.397  0.3861 -0.5486 -0.1005
 7682SOL    HW123601   0.981   1.321   4.404 -0.6636 -0.8220 -1.6230
 7682SOL    HW223602   0.875   1.429   4.398  0.4507  0.2819 -1.8075
 7683SOL     OW23603   7.166   0.275   3.755  0.1763  0.0305 -0.0600
 7683SOL    HW123604   7.239   0.301   3.809 -0.0193  0.4894 -0.0138
 7683SOL    HW223605   7.164   0.179   3.761  1.4216 -0.0624 -0.9172
 7684SOL     OW23606   2.082   3.611   5.546 -0.6612  0.0667  0.3268
 7684SOL    HW123607   2.079   3.698   5.586  2.4894  1.7506 -2.5448
 7684SOL    HW223608   2.168   3.576   5.570  0.2772  0.0840 -2.5749
 7685SOL     OW23609   5.299   4.194   2.052  0.0899  0.1804  0.4170
 7685SOL    HW123610   5.217   4.241   2.039  0.5113  0.4384 -1.5244
 7685SOL    HW223611   5.325   4.166   1.965  1.0051 -1.7523  1.2633
 7686SOL     OW23612   7.641   7.109   4.596  0.1042  0.3059  0.0810
 7686SOL    HW123613   7.649   7.179   4.531  0.2338  2.5403  2.3402
 7686SOL    HW223614   7.554   7.121   4.634 -0.5279 -1.8451 -0.5639
 7687SOL     OW23615   2.697   5.099   3.811 -0.0485 -0.7090  0.3468
 7687SOL    HW123616   2.615   5.141   3.837  1.0108  0.8124  1.4022
 7687SOL    HW223617   2.765   5.147   3.858  1.4985 -1.6904 -0.7727
 7688SOL     OW23618   1.011   0.420   6.889  0.3976  0.0643  0.7473
 7688SOL    HW123619   1.095   0.375   6.889  0.2719 -0.1716 -0.0487
 7688SOL    HW223620   1.029   0.503   6.934  1.0116 -0.0567  0.7334
 7689SOL     OW23621   0.648   0.937   3.840 -0.1869  0.2262 -0.1166
 7689SOL    HW123622   0.581   0.931   3.908  0.2352  1.1804  0.3962
 7689SOL    HW223623   0.605   0.985   3.768  0.2939  1.9687  0.7018
 7690SOL     OW23624   4.041   3.579   2.574  0.1163  0.2800 -0.2719
 7690SOL    HW123625   4.064   3.493   2.609 -2.3916 -0.1976  0.4508
 7690SOL    HW223626   4.108   3.638   2.608  1.1505 -1.1730  0.3124
 7691SOL     OW23627   1.150   3.926   5.321  0.5525 -0.4675 -0.3583
 7691SOL    HW123628   1.130   3.832   5.321  0.3087 -0.4173 -0.0848
 7691SOL    HW223629   1.235   3.932   5.277  1.8864 -1.1116  1.9592
 7692SOL     OW23630   2.452   6.781   6.891 -0.3044 -1.0198 -0.1085
 7692SOL    HW123631   2.359   6.755   6.893 -1.3968  2.2271 -1.2520
 7692SOL    HW223632   2.455   6.859   6.946  2.1707 -1.9619  1.2165
 7693SOL     OW23633   1.567   3.277   5.787  0.4191  0.4865 -0.4661
 7693SOL    HW123634   1.508   3.266   5.862  0.8179  0.9844 -0.0742
 7693SOL    HW223635   1.523   3.341   5.731  0.2465  0.3139 -0.5283
 7694SOL     OW23636   1.313   1.090   3.150  0.3396  0.5809 -0.4745
 7694SOL    HW123637   1.218   1.086   3.139  0.5258 -3.4343 -1.9765
 7694SOL    HW223638   1.342   1.149   3.081 -0.9424  1.0734 -0.6384
 7695SOL     OW23639   1.158   0.200   0.621 -0.3341  0.5478  0.2545
 7695SOL    HW123640   1.188   0.273   0.567 -0.1512  0.7295  0.5999
 7695SOL    HW223641   1.194   0.217   0.708  1.0483 -0.7667 -0.0039
 7696SOL     OW23642   0.212   0.356   1.936  0.0677 -0.8556  0.0773
 7696SOL    HW123643   0.223   0.417   2.009 -0.5013  1.2700 -1.5191
 7696SOL    HW223644   0.290   0.301   1.938  1.6153  1.2646  0.3667
 7697SOL     OW23645   5.900   5.263   5.756  0.0566  0.6871  0.5164
 7697SOL    HW123646   5.848   5.242   5.833 -0.9690  0.3130 -0.2522
 7697SOL    HW223647   5.990   5.250   5.784 -0.3532 -1.1202  1.1847
 7698SOL     OW23648   4.754   4.681   4.607 -0.3369 -0.1773 -0.4068
 7698SOL    HW123649   4.693   4.706   4.677 -0.5117 -1.7155  0.0342
 7698SOL    HW223650   4.821   4.748   4.609 -1.6184  1.1577 -0.4025
 7699SOL     OW23651   7.752   1.387   0.285 -0.2044  0.0653  0.3154
 7699SOL    HW123652   7.693   1.313   0.271 -0.5906  0.4818 -0.2815
 7699SOL    HW223653   7.784   1.410   0.198 -2.0060  2.1703  0.1300
 7700SOL     OW23654   5.567   7.259   1.017 -0.2246  0.0968  0.4387
 7700SOL    HW123655   5.539   7.257   1.109  0.6586 -0.2363  0.7066
 7700SOL    HW223656   5.639   7.322   1.015  1.1462 -1.4028  0.3905
 7701SOL     OW23657   4.157   7.599   3.981  0.0141  0.8223 -0.3689
 7701SOL    HW123658   4.244   7.640   3.980 -0.4077  1.7999  0.6603
 7701SOL    HW223659   4.138   7.587   4.074  0.1917 -1.9456 -0.6101
 7702SOL     OW23660   4.117   6.238   6.099  1.1681 -0.0227 -0.3937
 7702SOL    HW123661   4.133   6.150   6.066 -0.7208 -0.7122  0.3719
 7702SOL    HW223662   4.126   6.230   6.194 -0.2726  0.2644 -0.2029
 7703SOL     OW23663   5.328   0.774   1.439 -0.3613  0.0916 -0.1948
 7703SOL    HW123664   5.344   0.756   1.347  0.3376 -1.6949  0.2235
 7703SOL    HW223665   5.360   0.863   1.452  0.3247  0.0600 -1.4950
 7704SOL     OW23666   1.826   5.640   0.510 -0.5125  0.0319 -0.3182
 7704SOL    HW123667   1.857   5.629   0.601 -0.8843  1.0710 -0.0564
 7704SOL    HW223668   1.734   5.614   0.513 -0.8652  1.2640 -0.1166
 7705SOL     OW23669   5.598   7.041   0.059  0.4163  0.1919  0.6701
 7705SOL    HW123670   5.692   7.057   0.064  0.7585 -1.7009  1.1089
 7705SOL    HW223671   5.582   6.970   0.121 -1.2852  0.3412  0.4661
 7706SOL     OW23672   1.253   0.318   2.208 -0.1788 -0.2889  0.4645
 7706SOL    HW123673   1.255   0.364   2.124  0.0512 -0.7458  0.2127
 7706SOL    HW223674   1.213   0.234   2.188  2.9484 -1.8519  0.0466
 7707SOL     OW23675   0.977   0.796   5.999  0.2315  0.4899 -0.3448
 7707SOL    HW123676   1.036   0.795   5.924  0.2769 -1.2890 -0.3267
 7707SOL    HW223677   0.936   0.709   5.998 -0.5327  0.8075  1.0953
 7708SOL     OW23678   1.686   6.232   3.038 -0.0015  0.3838  0.6441
 7708SOL    HW123679   1.695   6.311   3.090 -1.4182  0.4905  0.7663
 7708SOL    HW223680   1.609   6.188   3.074 -1.1341  0.5469 -1.4257
 7709SOL     OW23681   0.030   6.952   7.474  0.0193  0.0028 -0.0187
 7709SOL    HW123682   0.109   7.006   7.466  1.3424 -1.5820  1.4907
 7709SOL    HW223683   0.020   6.911   7.389 -0.7981  2.2517 -1.0820
 7710SOL     OW23684   3.316   4.416   0.452 -0.0104 -0.5783  0.2011
 7710SOL    HW123685   3.279   4.439   0.537 -1.8926 -0.0207 -0.7194
 7710SOL    HW223686   3.304   4.494   0.398  2.2572 -0.4929 -0.2909
 7711SOL     OW23687   2.202   2.924   1.856 -0.0816 -0.1885 -0.8258
 7711SOL    HW123688   2.289   2.964   1.852 -0.5909  1.0175 -0.3629
 7711SOL    HW223689   2.153   2.964   1.785 -0.9279  0.8824  0.3111
 7712SOL     OW23690   4.889   6.769   6.996  0.2204 -0.5296 -0.0296
 7712SOL    HW123691   4.861   6.698   7.054 -0.2336  0.0091  0.4289
 7712SOL    HW223692   4.861   6.742   6.909  0.8193 -1.3031  0.0101
 7713SOL     OW23693   5.818   1.436   2.842  0.9821  0.1653  0.6340
 7713SOL    HW123694   5.904   1.443   2.802  1.1265  0.1657  0.9491
 7713SOL    HW223695   5.761   1.489   2.786  1.0260 -0.4513 -0.0228
 7714SOL     OW23696   0.508   6.295   5.211  0.4836 -0.1780 -0.2446
 7714SOL    HW123697   0.468   6.331   5.291  1.5394 -0.4949  0.4539
 7714SOL    HW223698   0.595   6.264   5.240  1.7009  1.4734 -1.9069
 7715SOL     OW23699   3.849   5.339   5.623 -0.4273  0.4956  0.3773
 7715SOL    HW123700   3.780   5.283   5.656  0.3026  0.0787  1.2233
 7715SOL    HW223701   3.882   5.385   5.700  0.9699 -0.1246  0.1854
 7716SOL     OW23702   4.376   6.882   2.076 -0.0904  0.3978 -0.2005
 7716SOL    HW123703   4.355   6.965   2.034 -1.0715  0.4189  0.2993
 7716SOL    HW223704   4.332   6.816   2.022  1.2014  0.1241 -0.9587
 7717SOL     OW23705   7.665   0.162   5.498  0.1747  0.2813 -0.8313
 7717SOL    HW123706   7.605   0.088   5.508  0.8813 -0.0427  2.0568
 7717SOL    HW223707   7.752   0.122   5.489  0.6255  0.6387  1.2461
 7718SOL     OW23708   7.162   7.563   7.207  0.1263  0.2833  0.1518
 7718SOL    HW123709   7.254   7.591   7.208  0.1459  0.2155  0.9687
 7718SOL    HW223710   7.116   7.634   7.161  0.2906  1.3136  1.5266
 7719SOL     OW23711   2.059   6.086   3.851 -0.2155  0.2914  0.6356
 7719SOL    HW123712   2.129   6.021   3.847  0.0172  0.4793  1.5017
 7719SOL    HW223713   1.984   6.044   3.809  0.2827 -0.0755  0.1013
 7720SOL     OW23714   1.639   5.523   6.862 -0.1496  0.2120 -0.3343
 7720SOL    HW123715   1.577   5.455   6.835 -0.5946  0.3783  0.2511
 7720SOL    HW223716   1.603   5.558   6.944  1.5106 -0.7707  0.8883
 7721SOL     OW23717   0.466   7.327   1.474  0.2537 -0.6014  0.1768
 7721SOL    HW123718   0.529   7.316   1.403 -0.0489 -0.7011 -0.0754
 7721SOL    HW223719   0.467   7.244   1.521  1.3551 -0.1320  1.0323
 7722SOL     OW23720   6.777   1.880   7.020 -0.6490 -0.0258 -0.3532
 7722SOL    HW123721   6.844   1.944   6.997 -0.7233  0.1708 -0.0164
 7722SOL    HW223722   6.694   1.923   6.999 -0.6587 -0.6416 -1.7479
 7723SOL     OW23723   4.898   7.194   0.146  0.4449 -0.3549 -0.0471
 7723SOL    HW123724   4.936   7.116   0.107  1.4837 -0.3417  0.9094
 7723SOL    HW223725   4.951   7.212   0.223 -0.5047  0.6175  0.4152
 7724SOL     OW23726   5.695   3.241   2.842 -0.4993  0.1177  0.4508
 7724SOL    HW123727   5.658   3.275   2.924  0.8185  1.1679  0.6485
 7724SOL    HW223728   5.782   3.210   2.866 -0.5006 -0.5584 -0.3638
 7725SOL     OW23729   7.583   5.062   5.607  0.4150 -0.6389 -0.2647
 7725SOL    HW123730   7.505   5.008   5.596  0.7874 -0.9927 -1.2689
 7725SOL    HW223731   7.650   5.019   5.553  1.4485 -0.6216  0.9535
 7726SOL     OW23732   6.386   1.199   6.672 -0.1026  0.5558  0.2866
 7726SOL    HW123733   6.339   1.156   6.743 -1.1379  0.3919 -0.4800
 7726SOL    HW223734   6.389   1.134   6.602  0.8413  0.7386  0.1396
 7727SOL     OW23735   2.835   6.240   7.487  0.3480 -0.2164 -0.4166
 7727SOL    HW123736   2.881   6.206   7.563  1.5204 -1.8415 -1.7823
 7727SOL    HW223737   2.774   6.171   7.463  1.4032 -0.6345 -2.0856
 7728SOL     OW23738   3.734   0.245   2.145 -0.3569 -0.2647 -1.0537
 7728SOL    HW123739   3.819   0.200   2.142 -0.3829 -0.3831 -0.2888
 7728SOL    HW223740   3.681   0.190   2.202 -0.5030  0.5493 -0.3851
 7729SOL     OW23741   1.417   2.752   0.382 -0.1821  0.0522 -0.5046
 7729SOL    HW123742   1.365   2.678   0.352  0.9155 -0.9445 -0.0156
 7729SOL    HW223743   1.387   2.826   0.329 -0.6786 -0.9272 -1.6127
 7730SOL     OW23744   2.072   6.123   2.191 -0.3386  0.3791 -0.4855
 7730SOL    HW123745   2.122   6.139   2.272  0.3816  0.9379 -1.0307
 7730SOL    HW223746   1.984   6.101   2.222  0.5215 -1.9563  0.5775
 7731SOL     OW23747   3.347   1.362   4.556  1.1633  0.1529 -0.0071
 7731SOL    HW123748   3.407   1.380   4.628  1.0302  1.2168 -0.1525
 7731SOL    HW223749   3.292   1.290   4.588  1.7515 -0.0519  0.5632
 7732SOL     OW23750   3.664   5.526   2.933  0.1248 -0.1981  0.4181
 7732SOL    HW123751   3.604   5.474   2.880  2.6148 -0.4770 -2.3813
 7732SOL    HW223752   3.723   5.462   2.973  1.5237  0.2282 -0.8534
 7733SOL     OW23753   6.636   2.573   4.472  0.6622  0.1285  0.3545
 7733SOL    HW123754   6.592   2.502   4.520 -0.7401  0.6874 -0.0512
 7733SOL    HW223755   6.569   2.641   4.463  0.4827 -0.2987 -3.2098
 7734SOL     OW23756   0.614   6.816   7.310 -0.1901 -0.2883  0.5730
 7734SOL    HW123757   0.601   6.782   7.221  1.9967 -0.0765  0.1173
 7734SOL    HW223758   0.578   6.748   7.367 -1.5387 -0.4784 -0.4469
 7735SOL     OW23759   4.210   2.724   4.397 -0.0718  0.8089  0.4263
 7735SOL    HW123760   4.305   2.715   4.395 -0.0138  0.7937 -2.8890
 7735SOL    HW223761   4.179   2.651   4.450  1.6968 -0.3061 -0.0327
 7736SOL     OW23762   7.335   7.689   0.992 -0.1914  0.5454  0.0717
 7736SOL    HW123763   7.381   7.737   1.060 -0.0126 -0.2357  0.5158
 7736SOL    HW223764   7.395   7.689   0.918 -0.1964  0.9976  0.0614
 7737SOL     OW23765   6.502   0.885   7.037  0.6439  0.0172  0.3049
 7737SOL    HW123766   6.583   0.843   7.066  0.5206 -1.1840 -1.0079
 7737SOL    HW223767   6.487   0.954   7.102  2.5218  0.0550  0.7684
 7738SOL     OW23768   7.359   7.116   4.671 -0.0739  0.3955 -0.3241
 7738SOL    HW123769   7.319   7.134   4.586 -1.0779  0.7787  0.2136
 7738SOL    HW223770   7.334   7.191   4.725 -1.6566 -1.0542  1.0443
 7739SOL     OW23771   2.260   4.587   4.329 -0.1891 -1.3675  0.0199
 7739SOL    HW123772   2.216   4.588   4.244 -0.1033 -2.2607 -0.0432
 7739SOL    HW223773   2.190   4.602   4.393  0.1348  2.7951 -0.2885
 7740SOL     OW23774   6.975   6.816   2.121 -0.5179  0.1132 -0.0337
 7740SOL    HW123775   6.961   6.781   2.034 -1.6669 -0.1050  0.2272
 7740SOL    HW223776   7.008   6.905   2.106  3.2321 -1.1882 -0.7159
 7741SOL     OW23777   6.393   6.580   7.420 -0.7787  0.0443  0.5638
 7741SOL    HW123778   6.300   6.596   7.407 -0.6775  0.6865  0.6236
 7741SOL    HW223779   6.397   6.513   7.488 -1.2293 -0.9940 -0.3994
 7742SOL     OW23780   4.731   6.239   3.526  0.5003  0.1837  0.3785
 7742SOL    HW123781   4.824   6.246   3.546  0.8083 -0.0381 -0.8842
 7742SOL    HW223782   4.698   6.328   3.535  1.0061  0.4085  0.0335
 7743SOL     OW23783   6.939   4.860   5.745 -0.0242 -0.7181  0.2276
 7743SOL    HW123784   6.970   4.823   5.662  1.8678  0.7023  0.2304
 7743SOL    HW223785   6.847   4.880   5.730  0.4165  0.0182 -1.7496
 7744SOL     OW23786   2.546   7.575   4.995 -0.4581  0.6487  0.0903
 7744SOL    HW123787   2.485   7.590   5.068  0.5482  1.1987  0.8455
 7744SOL    HW223788   2.617   7.637   5.010  1.4681 -1.5331  0.5690
 7745SOL     OW23789   3.077   3.022   3.401  0.2780  0.8656  0.2105
 7745SOL    HW123790   3.171   3.008   3.402  0.4470  1.9241  1.1724
 7745SOL    HW223791   3.050   3.009   3.492 -0.3653  1.4128  0.1074
 7746SOL     OW23792   4.394   7.306   3.717  0.8040  0.3657 -0.3189
 7746SOL    HW123793   4.312   7.306   3.669  0.6088 -0.5733 -0.0068
 7746SOL    HW223794   4.458   7.342   3.655  0.0126  1.9865 -0.2495
 7747SOL     OW23795   7.178   3.721   4.511  0.1457  0.2300  0.2157
 7747SOL    HW123796   7.167   3.717   4.416 -1.6298 -1.0258  0.4238
 7747SOL    HW223797   7.119   3.790   4.539 -0.0381 -0.0328  0.4839
 7748SOL     OW23798   1.230   2.543   0.341 -0.3432 -0.6099  0.1871
 7748SOL    HW123799   1.214   2.570   0.431  0.1655 -0.7687  0.3315
 7748SOL    HW223800   1.213   2.449   0.341 -0.1203 -0.6513  0.1741
 7749SOL     OW23801   3.517   3.653   0.263 -0.3238 -0.0284  0.5373
 7749SOL    HW123802   3.474   3.691   0.187  1.8939  3.5139  0.8361
 7749SOL    HW223803   3.450   3.597   0.303 -2.5358  0.3959 -2.2702
 7750SOL     OW23804   0.259   4.585   6.238  0.3473 -0.1528  0.4445
 7750SOL    HW123805   0.213   4.620   6.162 -0.1055  0.3300  0.9385
 7750SOL    HW223806   0.352   4.600   6.219  0.1324  2.6319  1.2593
 7751SOL     OW23807   0.593   5.310   3.520  0.1864  0.3001 -0.3331
 7751SOL    HW123808   0.674   5.260   3.525 -0.0335 -0.1150 -0.7961
 7751SOL    HW223809   0.525   5.248   3.547  0.1641  1.0703  1.5267
 7752SOL     OW23810   7.570   6.355   4.322  0.5345  1.0892 -0.4310
 7752SOL    HW123811   7.572   6.437   4.372 -0.4027  0.5884  0.4558
 7752SOL    HW223812   7.643   6.304   4.358  0.1952  0.9457  0.0602
 7753SOL     OW23813   6.570   5.758   7.410  0.1747  0.1270 -0.2156
 7753SOL    HW123814   6.532   5.829   7.463 -0.0309  0.9147 -1.3739
 7753SOL    HW223815   6.664   5.769   7.420  0.1579 -0.8581  1.4051
 7754SOL     OW23816   4.081   6.629   6.186 -0.3924  0.6123 -0.1911
 7754SOL    HW123817   4.008   6.576   6.156  0.6969 -0.8917 -0.3182
 7754SOL    HW223818   4.067   6.638   6.280 -0.7657  0.3813 -0.2244
 7755SOL     OW23819   1.782   7.289   1.837 -0.0679 -0.2726  0.2180
 7755SOL    HW123820   1.874   7.306   1.816 -0.7333  3.6157 -0.2677
 7755SOL    HW223821   1.772   7.321   1.927 -1.5855  3.0497 -0.9550
 7756SOL     OW23822   6.537   2.435   0.051 -0.1108 -0.2519  0.3097
 7756SOL    HW123823   6.516   2.464  -0.038  0.1263  1.1238  0.6732
 7756SOL    HW223824   6.462   2.380   0.076  1.0018 -2.8757 -1.6403
 7757SOL     OW23825   1.833   4.311   2.772 -0.1891  0.1354 -0.3801
 7757SOL    HW123826   1.775   4.375   2.732 -1.0528  0.4386  1.3084
 7757SOL    HW223827   1.860   4.349   2.855 -0.5507 -1.5636  0.5771
 7758SOL     OW23828   1.004   1.151   2.892  0.3560  0.2998  0.4940
 7758SOL    HW123829   1.034   1.204   2.966  0.1485  0.8723  0.1766
 7758SOL    HW223830   1.027   1.202   2.815  0.1594 -0.0808  0.1792
 7759SOL     OW23831   6.434   2.799   5.814  0.4374 -0.3862 -0.2203
 7759SOL    HW123832   6.437   2.895   5.823  0.9845 -0.5339  1.6110
 7759SOL    HW223833   6.522   2.775   5.785 -0.3904 -0.1966 -3.2617
 7760SOL     OW23834   2.672   7.262   0.340  0.3348  0.3802 -0.4383
 7760SOL    HW123835   2.655   7.272   0.246  1.7629  3.0042 -0.5130
 7760SOL    HW223836   2.586   7.244   0.378 -0.5595  0.9644 -2.0699
 7761SOL     OW23837   2.034   4.392   7.420 -0.5357  0.2889  0.3559
 7761SOL    HW123838   2.105   4.455   7.408 -0.9768  0.6865 -0.2706
 7761SOL    HW223839   1.965   4.441   7.464 -0.6340  0.0558  0.4668
 7762SOL     OW23840   5.867   4.700   2.346  0.1595  0.9545 -0.0408
 7762SOL    HW123841   5.815   4.657   2.414 -1.6621  2.2101 -0.5740
 7762SOL    HW223842   5.862   4.640   2.271 -1.1027  1.3713 -0.3001
 7763SOL     OW23843   4.784   7.549   3.439  0.2771 -0.2075 -0.5582
 7763SOL    HW123844   4.737   7.608   3.379 -0.1203  0.6409  0.5427
 7763SOL    HW223845   4.785   7.465   3.394  1.0757  0.6834 -2.2909
 7764SOL     OW23846   0.774   7.154   3.349  0.0361  0.1637 -0.4707
 7764SOL    HW123847   0.774   7.230   3.290  0.1468  0.8961  0.4464
 7764SOL    HW223848   0.789   7.079   3.292  1.5982  0.9956 -1.2314
 7765SOL     OW23849   0.751   6.737   1.944 -0.1345  0.1966  0.0692
 7765SOL    HW123850   0.782   6.824   1.971  1.9020 -0.4783  0.1036
 7765SOL    HW223851   0.666   6.727   1.987 -0.3807  2.1199  0.1378
 7766SOL     OW23852   1.966   7.335   2.985 -0.0768  0.8388  0.2379
 7766SOL    HW123853   1.968   7.357   2.892  1.8243  1.8379  0.4467
 7766SOL    HW223854   1.977   7.240   2.988  2.6488  1.0280 -0.5952
 7767SOL     OW23855   0.898   0.207   0.487 -0.0065 -0.1644 -0.0946
 7767SOL    HW123856   0.920   0.193   0.395  1.6539 -1.2057  0.4185
 7767SOL    HW223857   0.982   0.206   0.532 -0.8826 -1.5626  1.6640
 7768SOL     OW23858   0.904   7.376   4.431  0.1987  0.1852  0.1053
 7768SOL    HW123859   0.979   7.379   4.372  0.9192 -0.5712  0.9449
 7768SOL    HW223860   0.872   7.286   4.425 -0.2982  0.3567  0.1567
 7769SOL     OW23861   5.084   0.340   6.531  0.2396  0.2382 -0.0763
 7769SOL    HW123862   5.040   0.303   6.608 -1.3899 -1.1096 -1.5722
 7769SOL    HW223863   5.177   0.334   6.552 -0.1599  0.5560  2.0601
 7770SOL     OW23864   4.612   3.733   0.567  0.1133 -0.2511 -0.5059
 7770SOL    HW123865   4.544   3.699   0.624 -0.3018  1.3831  0.0216
 7770SOL    HW223866   4.634   3.819   0.603 -0.1150  0.8284 -2.7314
 7771SOL     OW23867   6.959   4.188   4.390 -0.3262 -0.1974 -0.2783
 7771SOL    HW123868   6.921   4.144   4.467 -0.6941  1.6337  0.6354
 7771SOL    HW223869   6.922   4.141   4.315  1.7308 -3.4714  0.5751
 7772SOL     OW23870   4.977   3.014   2.260  0.3925  0.0059  0.5331
 7772SOL    HW123871   5.046   3.038   2.322  0.7278 -0.1669  0.2347
 7772SOL    HW223872   4.899   3.004   2.314  0.3667  1.2165  0.7328
 7773SOL     OW23873   1.607   2.940   0.117  0.3189 -0.7567 -0.0458
 7773SOL    HW123874   1.591   2.847   0.104  1.8136 -0.8715 -1.3639
 7773SOL    HW223875   1.529   2.983   0.080 -0.1275 -1.4547  0.0630
 7774SOL     OW23876   4.229   5.155   7.617 -0.2231  0.2787 -0.1298
 7774SOL    HW123877   4.232   5.185   7.526  0.0216  0.8132  0.0497
 7774SOL    HW223878   4.142   5.116   7.627  0.3554 -1.3877 -1.0764
 7775SOL     OW23879   1.213   4.970   3.920  0.7555  0.6332  0.0732
 7775SOL    HW123880   1.172   5.013   3.995  0.8081  0.6292  0.1045
 7775SOL    HW223881   1.159   4.994   3.845 -2.1191 -3.0684  0.6827
 7776SOL     OW23882   2.660   5.083   5.004 -0.2047 -0.3297 -0.2332
 7776SOL    HW123883   2.622   5.135   5.075 -0.3519 -1.5798  0.6466
 7776SOL    HW223884   2.594   5.016   4.986 -0.2799  0.1241 -1.7537
 7777SOL     OW23885   2.599   0.137   2.342  0.2104  0.2276 -0.1229
 7777SOL    HW123886   2.514   0.102   2.319  1.0219 -1.2739 -0.9205
 7777SOL    HW223887   2.606   0.219   2.293 -0.4307 -0.0531 -0.6843
 7778SOL     OW23888   6.043   3.026   6.079  0.1983 -0.1393  0.3054
 7778SOL    HW123889   5.966   2.983   6.040  0.3961  0.1579 -0.4174
 7778SOL    HW223890   6.096   3.054   6.004 -0.2507  1.9835  0.7129
 7779SOL     OW23891   2.616   1.428   4.574  0.1803 -0.1974 -0.5664
 7779SOL    HW123892   2.701   1.384   4.571  1.3233  1.7542  1.0136
 7779SOL    HW223893   2.569   1.385   4.645  0.5328 -0.1594 -0.3082
 7780SOL     OW23894   1.066   1.722   6.024  0.0867  0.8040  0.1737
 7780SOL    HW123895   1.120   1.644   6.027 -0.2317  0.6065  2.1875
 7780SOL    HW223896   1.023   1.718   5.939 -1.3924 -2.2706  0.9107
 7781SOL     OW23897   3.288   5.211   0.948 -0.1543  0.4671  0.4802
 7781SOL    HW123898   3.340   5.146   0.995 -0.2596 -0.2680 -0.3789
 7781SOL    HW223899   3.198   5.197   0.980 -0.2184 -0.0006  0.1118
 7782SOL     OW23900   6.645   7.740   0.942 -0.6045 -0.4268 -0.0677
 7782SOL    HW123901   6.556   7.712   0.922 -0.2683 -1.1291 -0.6300
 7782SOL    HW223902   6.700   7.689   0.883  0.1998 -0.2520  0.5127
 7783SOL     OW23903   4.944   0.532   0.474  0.5230  0.0033  0.2166
 7783SOL    HW123904   5.004   0.458   0.459  0.7229  0.0106  0.9222
 7783SOL    HW223905   4.987   0.583   0.544  0.7281  1.1695 -0.7390
 7784SOL     OW23906   5.818   7.067   1.930 -0.0973 -0.0848  0.1235
 7784SOL    HW123907   5.837   7.142   1.873 -1.3251 -0.9662 -1.5402
 7784SOL    HW223908   5.851   6.991   1.882 -0.4488 -0.7942  0.9700
 7785SOL     OW23909   1.858   0.064   4.607  0.1601 -0.4607  0.4540
 7785SOL    HW123910   1.812  -0.007   4.652  0.5982 -1.0602 -0.0258
 7785SOL    HW223911   1.837   0.143   4.658  0.2066 -1.0380  1.3896
 7786SOL     OW23912   2.598   1.254   7.694 -0.5126  0.3965  0.0627
 7786SOL    HW123913   2.616   1.195   7.767  0.9074  0.6214 -0.0738
 7786SOL    HW223914   2.580   1.196   7.620  1.8648  0.0534 -0.3221
 7787SOL     OW23915   0.548   5.139   2.852 -0.2643 -0.2910  0.4544
 7787SOL    HW123916   0.552   5.149   2.757  0.1973 -0.1484  0.4902
 7787SOL    HW223917   0.454   5.127   2.870 -0.6221  1.6910  0.1823
 7788SOL     OW23918   3.657   6.234   6.955  0.6816 -0.4926  0.8133
 7788SOL    HW123919   3.720   6.189   7.012  2.3124  2.1362  1.2623
 7788SOL    HW223920   3.699   6.236   6.869  1.3164  1.3687  1.1371
 7789SOL     OW23921   0.337   3.136   1.290 -0.3574  0.4563  0.0080
 7789SOL    HW123922   0.402   3.070   1.267 -2.8659 -2.3698  0.5522
 7789SOL    HW223923   0.346   3.147   1.385 -2.9935 -2.7987  0.7742
 7790SOL     OW23924   5.129   7.531   1.612 -0.1844  0.0700  0.0967
 7790SOL    HW123925   5.034   7.540   1.608 -0.2788 -0.7540  0.5208
 7790SOL    HW223926   5.149   7.525   1.705  0.2693  0.0792  0.0017
 7791SOL     OW23927   7.076   5.042   1.385 -0.0597 -0.3480  0.1883
 7791SOL    HW123928   7.014   5.107   1.353  0.0095  0.2740  1.2777
 7791SOL    HW223929   7.149   5.093   1.421  0.5213 -1.0479  0.0319
 7792SOL     OW23930   7.713   2.159   3.208 -0.4285  0.1973 -0.4830
 7792SOL    HW123931   7.807   2.159   3.191 -0.4915 -0.8425 -0.9266
 7792SOL    HW223932   7.676   2.214   3.140 -0.0645  1.4248  0.2810
 7793SOL     OW23933   5.729   6.347   5.135  0.6317  0.5328 -0.1138
 7793SOL    HW123934   5.775   6.413   5.084  0.0959  2.0442  1.2745
 7793SOL    HW223935   5.798   6.297   5.179  1.0137  0.9318 -0.2574
 7794SOL     OW23936   3.626   1.699   0.826  0.2511  0.3967 -0.4994
 7794SOL    HW123937   3.608   1.775   0.882  1.7386 -0.1523  0.7981
 7794SOL    HW223938   3.627   1.624   0.886 -0.6011 -0.5904 -1.6695
 7795SOL     OW23939   3.356   0.527   6.280  0.3007 -0.6247 -0.2130
 7795SOL    HW123940   3.303   0.496   6.207  1.6062  1.5886 -2.2285
 7795SOL    HW223941   3.391   0.448   6.320  0.4826 -1.9172 -2.7500
 7796SOL     OW23942   3.293   6.445   7.059  0.2533  0.0597 -0.3516
 7796SOL    HW123943   3.200   6.434   7.041  0.0350  0.9581  0.1820
 7796SOL    HW223944   3.334   6.453   6.973 -0.2113  0.0735 -0.5730
 7797SOL     OW23945   2.938   4.610   2.457  0.6241 -0.0643  0.2174
 7797SOL    HW123946   2.963   4.676   2.392  1.7183 -0.0925  0.6017
 7797SOL    HW223947   3.017   4.559   2.472 -0.1444 -1.3250  0.1162
 7798SOL     OW23948   0.355   2.838   4.362 -0.6705 -0.0756 -0.3957
 7798SOL    HW123949   0.442   2.811   4.392 -0.8300  1.2254  1.3760
 7798SOL    HW223950   0.298   2.826   4.438 -1.6555  0.9075 -0.9392
 7799SOL     OW23951   0.009   1.628   4.599 -0.5795 -0.4050  0.2039
 7799SOL    HW123952   0.032   1.643   4.507  0.6200 -0.5658  0.4549
 7799SOL    HW223953  -0.019   1.537   4.603  0.4463 -0.7376  0.1723
 7800SOL     OW23954   3.745   0.369   1.869 -0.2649  0.5618  0.9021
 7800SOL    HW123955   3.770   0.374   1.962 -1.1528 -2.0414  1.3736
 7800SOL    HW223956   3.823   0.333   1.826 -0.1351  1.0049  0.7584
 7801SOL     OW23957   0.786   7.025   6.154  0.3523 -0.8655 -0.1150
 7801SOL    HW123958   0.802   7.116   6.179 -0.9592 -0.6178 -0.0844
 7801SOL    HW223959   0.836   6.974   6.217 -2.4166 -0.2475  2.8773
 7802SOL     OW23960   7.309   0.785   1.309  0.7354 -0.3279  0.1292
 7802SOL    HW123961   7.216   0.767   1.319 -0.5037  4.3621 -0.5664
 7802SOL    HW223962   7.347   0.767   1.395 -0.4248 -3.5374  0.0816
 7803SOL     OW23963   4.493   4.117   0.919  0.0194 -0.0450 -0.3433
 7803SOL    HW123964   4.483   4.212   0.923  0.1699 -0.0528  0.3873
 7803SOL    HW223965   4.438   4.090   0.846 -0.1314  0.5912 -0.4706
 7804SOL     OW23966   2.698   7.747   7.433  0.1376 -1.0430 -0.0938
 7804SOL    HW123967   2.735   7.814   7.490 -0.0179 -0.6765 -0.4165
 7804SOL    HW223968   2.607   7.773   7.420 -0.4387 -2.2956  1.2188
 7805SOL     OW23969   0.562   2.102   7.319  0.1075  0.0089 -0.0265
 7805SOL    HW123970   0.569   2.192   7.286 -1.4420  0.2848  0.2925
 7805SOL    HW223971   0.594   2.106   7.409  3.2716 -0.5133 -1.0078
 7806SOL     OW23972   6.381   3.669   3.342 -0.7658  0.2688  0.0802
 7806SOL    HW123973   6.450   3.723   3.380 -1.0043  0.3311  0.4301
 7806SOL    HW223974   6.313   3.731   3.316 -0.9331  0.1633  0.2574
 7807SOL     OW23975   5.613   5.602   2.769  0.6767  0.3477  0.0395
 7807SOL    HW123976   5.587   5.685   2.808  0.5612  0.4982 -0.3546
 7807SOL    HW223977   5.646   5.625   2.682 -0.7707 -0.1653 -0.6720
 7808SOL     OW23978   5.253   1.902   7.355 -0.2162  0.0824 -0.6027
 7808SOL    HW123979   5.334   1.870   7.316 -0.8027 -0.4065 -1.4591
 7808SOL    HW223980   5.200   1.823   7.368 -0.9542  0.4978 -1.0048
 7809SOL     OW23981   3.742   7.628   1.167  0.5628  0.2582  0.3955
 7809SOL    HW123982   3.712   7.573   1.240  0.3459  0.2338  0.2887
 7809SOL    HW223983   3.684   7.703   1.169  2.2455  1.6154  1.9505
 7810SOL     OW23984   2.300   7.344   0.407 -0.4626  0.0527 -0.1140
 7810SOL    HW123985   2.286   7.305   0.493  1.1298  0.1471  0.2259
 7810SOL    HW223986   2.263   7.280   0.346 -0.4104 -0.6639  0.5809
 7811SOL     OW23987   5.128   6.188   4.008 -0.2234  0.2036  0.0515
 7811SOL    HW123988   5.138   6.246   3.933 -0.8586  1.0441  0.5926
 7811SOL    HW223989   5.169   6.106   3.981  0.0641  0.6738 -0.9926
 7812SOL     OW23990   3.293   0.796   1.939 -0.3093  0.3010 -0.2415
 7812SOL    HW123991   3.307   0.830   2.027 -0.8459  0.9300 -0.3903
 7812SOL    HW223992   3.381   0.790   1.901 -0.0632 -0.0899  0.3711
 7813SOL     OW23993   5.742   5.520   5.436  0.0967 -0.2040  0.0638
 7813SOL    HW123994   5.716   5.606   5.471 -0.9973 -0.0588 -1.0439
 7813SOL    HW223995   5.775   5.539   5.348  0.6038 -0.8283  0.1147
 7814SOL     OW23996   4.677   3.379   4.554 -0.1054  0.6408 -0.7824
 7814SOL    HW123997   4.746   3.397   4.618  0.3638 -2.2756 -0.3507
 7814SOL    HW223998   4.670   3.460   4.504  2.6982  1.5064  0.0178
 7815SOL     OW23999   3.936   5.014   7.607  0.4559  0.1225  0.0279
 7815SOL    HW124000   3.866   5.038   7.668  1.2139  1.6673  0.3532
 7815SOL    HW224001   3.909   5.052   7.524 -0.5861 -1.9998 -0.6831
 7816SOL     OW24002   3.390   5.114   5.513 -0.0541 -0.1659  0.1604
 7816SOL    HW124003   3.386   5.143   5.604  1.0862  1.2094 -0.1837
 7816SOL    HW224004   3.466   5.159   5.477 -0.1175 -1.1692 -1.3141
 7817SOL     OW24005   0.096   4.733   4.507 -0.3295  0.3300  0.1225
 7817SOL    HW124006   0.178   4.736   4.557 -0.7216  2.4296  0.7654
 7817SOL    HW224007   0.028   4.725   4.573 -0.7589  1.2894 -0.1786
 7818SOL     OW24008   0.460   6.785   0.586 -0.0685 -0.1167  0.1186
 7818SOL    HW124009   0.470   6.741   0.671 -0.2629 -1.1599 -0.3906
 7818SOL    HW224010   0.391   6.737   0.541 -0.1821  0.6202 -0.5220
 7819SOL     OW24011   5.992   3.990   0.718 -0.2951  0.3904  0.3224
 7819SOL    HW124012   6.077   3.974   0.759 -0.4892 -1.7407  0.0486
 7819SOL    HW224013   5.975   4.083   0.732  2.0863  0.8862  0.3542
 7820SOL     OW24014   6.512   2.821   1.979  0.1803 -0.2042 -0.0062
 7820SOL    HW124015   6.528   2.808   1.886 -0.0917  1.7467 -0.3727
 7820SOL    HW224016   6.417   2.829   1.987  0.2042 -0.2849  0.4207
 7821SOL     OW24017   4.359   6.293   3.643 -0.9725  0.7859  0.3220
 7821SOL    HW124018   4.293   6.316   3.709 -2.3115  2.0137 -1.3515
 7821SOL    HW224019   4.412   6.372   3.634 -1.0746  0.7839 -0.3661
 7822SOL     OW24020   7.515   2.246   7.076  0.1329 -0.1828  0.0523
 7822SOL    HW124021   7.509   2.335   7.109  1.8880 -0.2270  0.6231
 7822SOL    HW224022   7.597   2.213   7.113  0.1476 -1.6004 -1.1667
 7823SOL     OW24023   1.597   7.568   1.300 -0.7062  0.0806 -0.3465
 7823SOL    HW124024   1.634   7.654   1.320  0.1222 -0.2013 -0.6089
 7823SOL    HW224025   1.545   7.546   1.378  0.3960  0.1196  0.4313
 7824SOL     OW24026   0.161   1.047   3.617  0.5384 -0.0474 -0.0728
 7824SOL    HW124027   0.158   1.141   3.632  1.8723 -0.2366  1.6383
 7824SOL    HW224028   0.196   1.010   3.698  0.6443 -1.9640 -0.9283
 7825SOL     OW24029   0.308   2.087   3.314  0.0595 -0.4986 -0.0307
 7825SOL    HW124030   0.397   2.094   3.280 -0.0180  0.6689 -0.0315
 7825SOL    HW224031   0.307   2.143   3.391 -0.7393 -0.2940 -0.1808
 7826SOL     OW24032   7.156   1.074   3.282  0.5407 -0.4635  0.5124
 7826SOL    HW124033   7.196   1.158   3.259 -1.3607  0.5897  0.7763
 7826SOL    HW224034   7.168   1.066   3.377 -0.7765  0.4169  0.7851
 7827SOL     OW24035   0.047   1.790   1.368 -0.8211  0.0304 -0.1345
 7827SOL    HW124036  -0.032   1.834   1.400 -0.8582  0.2618 -0.5335
 7827SOL    HW224037   0.027   1.697   1.373 -0.6007  0.0301  1.0915
 7828SOL     OW24038   6.992   6.161   7.657 -0.1672  0.3185 -0.3092
 7828SOL    HW124039   6.905   6.189   7.683  0.2282  1.4078 -0.1240
 7828SOL    HW224040   7.007   6.201   7.572 -0.6412 -1.5684 -1.3477
 7829SOL     OW24041   2.908   3.021   0.391 -0.0233  0.5674  0.0537
 7829SOL    HW124042   2.816   2.995   0.383  0.1639 -0.1163  0.0729
 7829SOL    HW224043   2.907   3.093   0.454 -0.4296 -0.1465  0.8875
 7830SOL     OW24044   3.027   6.000   0.634 -0.3237 -0.0544 -0.2218
 7830SOL    HW124045   3.084   5.945   0.580  0.4776 -0.9302  1.4198
 7830SOL    HW224046   2.954   5.943   0.657 -0.9866  0.5139 -0.8732
 7831SOL     OW24047   5.330   2.088   5.466 -0.3023 -0.8811 -0.2873
 7831SOL    HW124048   5.257   2.037   5.433  0.3911 -1.4934 -0.9140
 7831SOL    HW224049   5.391   2.093   5.393 -0.3959  0.9557 -0.2754
 7832SOL     OW24050   5.194   3.970   3.152  0.2318  0.1798  0.3173
 7832SOL    HW124051   5.193   3.876   3.134 -0.6304  0.6350 -2.5640
 7832SOL    HW224052   5.252   3.980   3.228  2.0712 -2.4468 -0.6059
 7833SOL     OW24053   5.515   0.657   0.446  0.5334  0.2592  0.0161
 7833SOL    HW124054   5.487   0.746   0.422  0.0604 -0.2150 -1.2880
 7833SOL    HW224055   5.593   0.641   0.393  0.3068 -0.2930 -0.1587
 7834SOL     OW24056   6.689   1.516   1.312 -0.2492  0.4258 -0.5798
 7834SOL    HW124057   6.650   1.430   1.296  1.9348 -0.3618 -2.1483
 7834SOL    HW224058   6.707   1.517   1.406  0.7841 -1.3725 -0.7090
 7835SOL     OW24059   2.875   2.688   6.145 -0.3156 -0.1359 -0.8913
 7835SOL    HW124060   2.966   2.716   6.152 -0.2744 -0.6814  3.1905
 7835SOL    HW224061   2.824   2.769   6.156 -0.1993 -0.2786  1.2365
 7836SOL     OW24062   0.289   0.136   5.854  0.5607 -0.5392  0.1435
 7836SOL    HW124063   0.281   0.077   5.779  0.3526 -2.3612  1.5470
 7836SOL    HW224064   0.260   0.084   5.929 -1.3809  1.8902  1.2248
 7837SOL     OW24065   0.560   7.025   0.504  0.6335  0.0710 -0.4088
 7837SOL    HW124066   0.497   6.958   0.530  1.8133 -1.7550 -1.8972
 7837SOL    HW224067   0.531   7.053   0.417  2.1942 -1.3673 -1.4616
 7838SOL     OW24068   3.471   5.006   7.019  0.3109  0.3700  0.3567
 7838SOL    HW124069   3.502   5.095   7.004  0.8748  0.2868  0.9593
 7838SOL    HW224070   3.475   4.995   7.114  2.0467 -0.9123  0.1880
 7839SOL     OW24071   4.849   2.727   6.662 -0.3835  0.4098  0.4045
 7839SOL    HW124072   4.873   2.796   6.724  4.1833 -0.7213  0.2759
 7839SOL    HW224073   4.831   2.772   6.580 -0.9940  1.6004  1.1741
 7840SOL     OW24074   1.428   0.160   0.748  0.1680 -0.2780  0.5805
 7840SOL    HW124075   1.381   0.203   0.820 -1.1553 -1.6013  0.5492
 7840SOL    HW224076   1.518   0.153   0.780  0.2282  1.6249  0.9571
 7841SOL     OW24077   6.389   5.239   7.269  0.0737 -0.1619  0.0050
 7841SOL    HW124078   6.347   5.209   7.349  0.9600  0.2084  0.6240
 7841SOL    HW224079   6.429   5.323   7.292 -0.1446  0.2302 -0.9807
 7842SOL     OW24080   6.356   4.502   1.149 -0.2529  0.7465  0.3483
 7842SOL    HW124081   6.317   4.415   1.148 -1.2654  1.1755  1.0819
 7842SOL    HW224082   6.360   4.528   1.057  0.2018 -0.1291  0.1122
 7843SOL     OW24083   3.795   5.877   0.857  0.8854 -0.7071 -0.6680
 7843SOL    HW124084   3.710   5.833   0.858  0.2676  0.4035 -1.6744
 7843SOL    HW224085   3.826   5.869   0.947 -1.0443  0.2476  0.1564
 7844SOL     OW24086   5.882   6.215   4.366 -0.6152 -0.4930  0.1663
 7844SOL    HW124087   5.907   6.301   4.335 -0.6788 -0.5407 -0.0162
 7844SOL    HW224088   5.791   6.225   4.394 -0.7425 -0.5906 -0.2037
 7845SOL     OW24089   4.259   7.073   1.563  0.1420  0.1699  0.4908
 7845SOL    HW124090   4.348   7.088   1.532  0.3154  0.6937  1.2182
 7845SOL    HW224091   4.258   6.982   1.591 -0.0837 -0.3893 -1.2374
 7846SOL     OW24092   3.653   7.616   7.627  0.3371  0.4163 -0.1374
 7846SOL    HW124093   3.629   7.657   7.710  1.8865  2.6410 -0.7096
 7846SOL    HW224094   3.665   7.688   7.566  2.7614 -0.8604 -1.3345
 7847SOL     OW24095   3.384   2.415   0.538  0.0943  0.1180  0.2301
 7847SOL    HW124096   3.299   2.382   0.510  0.4338 -0.8101  0.2473
 7847SOL    HW224097   3.404   2.366   0.618  1.0122 -0.2983 -0.2305
 7848SOL     OW24098   7.724   6.129   7.288 -0.3520  0.0248 -0.0636
 7848SOL    HW124099   7.723   6.169   7.201  0.5801  1.5454  0.5833
 7848SOL    HW224100   7.633   6.131   7.317 -0.6625 -0.4471 -0.9579
 7849SOL     OW24101   7.232   1.707   4.655 -0.1185  0.2013  0.2310
 7849SOL    HW124102   7.307   1.767   4.656 -0.7321  0.9965  0.3464
 7849SOL    HW224103   7.214   1.690   4.747  1.1494 -1.6089  0.1801
 7850SOL     OW24104   5.811   7.500   1.655 -0.1115  0.0309 -0.1120
 7850SOL    HW124105   5.746   7.511   1.586 -1.1685 -0.5446  0.7630
 7850SOL    HW224106   5.764   7.522   1.736  1.3043  1.4695  0.3833
 7851SOL     OW24107   5.187   0.655   5.348  0.2508 -0.5128 -0.4651
 7851SOL    HW124108   5.219   0.582   5.294  0.2582 -0.4436 -0.5531
 7851SOL    HW224109   5.264   0.683   5.398  0.7431  0.7126 -1.8528
 7852SOL     OW24110   2.290   2.296   1.640  0.1710  0.7054  0.0927
 7852SOL    HW124111   2.281   2.209   1.601  0.3346  1.8353 -2.6777
 7852SOL    HW224112   2.222   2.348   1.598  1.0216  2.2954  0.5964
 7853SOL     OW24113   2.288   6.482   3.532 -0.5631 -0.5612 -0.0613
 7853SOL    HW124114   2.357   6.546   3.547 -0.9255 -0.3955  1.0020
 7853SOL    HW224115   2.325   6.420   3.469  1.1374 -1.3434  1.6193
 7854SOL     OW24116   6.184   7.201   7.699  0.4990 -0.4678 -0.0990
 7854SOL    HW124117   6.126   7.228   7.771 -1.6992 -0.8268 -1.6329
 7854SOL    HW224118   6.270   7.194   7.740 -0.6919 -1.0197  2.6057
 7855SOL     OW24119   2.486   4.578   6.448  0.4881  0.2634  0.3965
 7855SOL    HW124120   2.416   4.562   6.386 -1.1983  0.6185  2.0965
 7855SOL    HW224121   2.441   4.597   6.531  2.5862  0.8317  1.4921
 7856SOL     OW24122   3.042   0.215   0.765  0.0046  0.2234  0.3210
 7856SOL    HW124123   2.948   0.224   0.782 -0.1528  1.0138 -0.8468
 7856SOL    HW224124   3.084   0.256   0.841 -0.6148  0.9488  0.2795
 7857SOL     OW24125   5.256   3.913   1.645 -0.0165 -0.5001 -0.2220
 7857SOL    HW124126   5.175   3.950   1.681  0.5451 -0.3289  0.9382
 7857SOL    HW224127   5.251   3.820   1.665 -0.9908 -0.9396 -2.2875
 7858SOL     OW24128   4.711   7.211   5.630  0.4326  0.2847 -0.0209
 7858SOL    HW124129   4.759   7.146   5.682  1.4987 -0.3005 -1.6681
 7858SOL    HW224130   4.662   7.159   5.567  1.2648  1.0524 -1.3356
 7859SOL     OW24131   0.412   7.013   2.406  0.0481  0.3837 -0.0473
 7859SOL    HW124132   0.322   7.047   2.397  0.0778  0.4368 -0.1410
 7859SOL    HW224133   0.467   7.089   2.387  0.1321  0.0009 -1.4077
 7860SOL     OW24134   2.045   0.787   3.364 -0.0099 -0.0953  0.1743
 7860SOL    HW124135   2.062   0.860   3.305  1.8931  0.3441  1.1772
 7860SOL    HW224136   2.112   0.722   3.341  0.3016 -0.2080  1.3277
 7861SOL     OW24137   4.969   0.250   1.915  0.1252 -0.0862  0.0928
 7861SOL    HW124138   4.996   0.295   1.995  0.7819  0.2276 -0.2932
 7861SOL    HW224139   4.873   0.251   1.918  0.1196 -1.4086  1.5938
 7862SOL     OW24140   4.652   7.736   5.672 -0.0634 -0.4769 -0.3792
 7862SOL    HW124141   4.654   7.801   5.743  0.0582 -0.5644 -0.3044
 7862SOL    HW224142   4.655   7.789   5.592 -1.4463 -0.3030 -0.3481
 7863SOL     OW24143   1.253   1.968   5.764  0.2778  0.7274  0.8714
 7863SOL    HW124144   1.158   1.980   5.759  0.4649  2.0084 -0.9564
 7863SOL    HW224145   1.272   1.902   5.697  0.6672  0.4167  1.2872
 7864SOL     OW24146   6.591   6.887   3.560 -0.4318 -0.4108 -0.0566
 7864SOL    HW124147   6.648   6.918   3.630  0.3136 -1.1217 -0.3304
 7864SOL    HW224148   6.556   6.803   3.593  1.1018 -1.5092 -1.1104
 7865SOL     OW24149   4.388   2.659   6.992 -0.5668 -0.1372 -0.1640
 7865SOL    HW124150   4.472   2.697   6.966 -0.7973 -0.4844 -1.4828
 7865SOL    HW224151   4.373   2.694   7.080  0.9763 -0.1155  0.1303
 7866SOL     OW24152   4.803   6.490   3.180  0.0042  0.0761 -0.2382
 7866SOL    HW124153   4.829   6.500   3.089 -0.3468  1.5378 -0.2140
 7866SOL    HW224154   4.779   6.398   3.189  1.6472 -0.4798 -1.1666
 7867SOL     OW24155   0.850   2.551   6.314  0.5486 -0.4794  0.3222
 7867SOL    HW124156   0.937   2.578   6.283  0.8280 -2.1229 -0.4552
 7867SOL    HW224157   0.789   2.605   6.264  1.1145  0.2954  0.4559
 7868SOL     OW24158   5.337   0.366   1.283  0.3786 -0.2153  0.2163
 7868SOL    HW124159   5.310   0.458   1.283  1.4539  0.1434 -1.2576
 7868SOL    HW224160   5.363   0.349   1.373  0.4784  1.0249  0.4446
 7869SOL     OW24161   6.177   5.734   2.713 -0.1088  0.2125 -0.0100
 7869SOL    HW124162   6.132   5.651   2.730 -0.8819  0.8546  1.2658
 7869SOL    HW224163   6.197   5.768   2.800  2.2168  0.3335 -0.5291
 7870SOL     OW24164   3.788   0.090   4.996 -0.5821 -0.1988 -0.2552
 7870SOL    HW124165   3.859   0.134   4.949 -0.5158  0.5691  0.5290
 7870SOL    HW224166   3.755   0.025   4.935 -0.3393  0.6116 -1.2796
 7871SOL     OW24167   2.725   0.565   5.564 -0.0280  0.2699 -0.2701
 7871SOL    HW124168   2.769   0.638   5.607  1.0612 -1.8108  2.3921
 7871SOL    HW224169   2.669   0.607   5.498  0.2573  3.5053  1.3374
 7872SOL     OW24170   6.376   0.326   3.303  0.1607  0.0821 -0.0608
 7872SOL    HW124171   6.320   0.294   3.374  3.6913 -2.4559  1.9199
 7872SOL    HW224172   6.386   0.250   3.245  1.7698  0.3112 -0.1295
 7873SOL     OW24173   6.362   0.661   2.904  0.1402  0.2828  0.1707
 7873SOL    HW124174   6.315   0.717   2.842 -2.3831 -1.7866  0.0668
 7873SOL    HW224175   6.388   0.720   2.975 -2.8890  1.5655  0.3418
 7874SOL     OW24176   6.001   3.768   0.031  0.2295  0.5203  0.8906
 7874SOL    HW124177   6.046   3.827  -0.030 -1.0478  0.1054 -0.5274
 7874SOL    HW224178   5.911   3.801   0.033 -0.7544 -1.8504 -0.6597
 7875SOL     OW24179   4.323   4.799   5.519  0.4886 -0.1590 -0.0691
 7875SOL    HW124180   4.253   4.759   5.572  0.6908  0.0019  0.3206
 7875SOL    HW224181   4.308   4.764   5.431 -0.9364  0.9636 -0.3078
 7876SOL     OW24182   5.465   1.339   7.628 -0.2491  0.4467  0.3406
 7876SOL    HW124183   5.479   1.336   7.723 -1.6815  0.8483  0.5931
 7876SOL    HW224184   5.538   1.391   7.595 -0.4103  1.4047  1.4029
 7877SOL     OW24185   5.452   5.174   2.994  0.3020 -0.0636 -0.3204
 7877SOL    HW124186   5.526   5.143   3.047  1.4246  2.0458 -0.5430
 7877SOL    HW224187   5.477   5.263   2.968 -2.3155  0.7164 -0.4363
 7878SOL     OW24188   3.886   3.808   3.861  0.2383  0.0018  0.6046
 7878SOL    HW124189   3.935   3.883   3.895  1.0288  0.0010 -0.4948
 7878SOL    HW224190   3.951   3.757   3.813 -0.5186 -0.8399  0.4517
 7879SOL     OW24191   0.611   6.133   6.776  0.3101  0.0356 -0.0779
 7879SOL    HW124192   0.628   6.056   6.721 -0.3252  0.7673 -1.3322
 7879SOL    HW224193   0.518   6.128   6.797  0.0174  0.9890 -1.0470
 7880SOL     OW24194   6.668   3.329   7.195 -0.2632 -0.5478  0.2182
 7880SOL    HW124195   6.746   3.375   7.163 -1.8656  1.7048 -0.7601
 7880SOL    HW224196   6.694   3.237   7.198  2.1569  0.0056 -0.8781
 7881SOL     OW24197   6.818   2.258   5.009 -0.2613 -0.4139  0.7248
 7881SOL    HW124198   6.897   2.298   5.048 -1.6582  1.2842  1.9966
 7881SOL    HW224199   6.829   2.164   5.026  1.2495 -0.1756  1.3203
 7882SOL     OW24200   2.344   6.450   4.880 -0.0053 -0.0100 -0.5393
 7882SOL    HW124201   2.295   6.371   4.857 -1.3615  0.4135  0.7279
 7882SOL    HW224202   2.325   6.511   4.808 -1.1092  0.0401 -0.2234
 7883SOL     OW24203   4.393   3.547   4.382  0.5929  0.1144  0.4428
 7883SOL    HW124204   4.488   3.550   4.372  0.5773 -0.7808 -0.1778
 7883SOL    HW224205   4.377   3.468   4.434  0.1771 -0.0220  0.1191
 7884SOL     OW24206   1.183   2.885   4.840  0.1318 -0.5073  0.2745
 7884SOL    HW124207   1.266   2.877   4.792  0.5078  0.8840  0.6523
 7884SOL    HW224208   1.162   2.796   4.867  0.3115 -1.2202 -1.7841
 7885SOL     OW24209   6.521   3.661   1.480  0.0545  0.0788 -0.0901
 7885SOL    HW124210   6.429   3.689   1.485  0.5629  1.8020  0.4040
 7885SOL    HW224211   6.548   3.681   1.390  0.6348  2.0438  0.4740
 7886SOL     OW24212   6.038   6.835   2.092 -0.5945 -0.4544 -0.4003
 7886SOL    HW124213   6.071   6.907   2.039 -0.2413  0.2792  0.7766
 7886SOL    HW224214   5.970   6.794   2.038 -0.7085  0.6744 -1.1341
 7887SOL     OW24215   1.619   0.398   0.409  0.5313 -0.3241  0.0086
 7887SOL    HW124216   1.675   0.416   0.484 -0.8779  1.0791  0.7528
 7887SOL    HW224217   1.551   0.465   0.412 -0.6895 -1.4324 -1.3875
 7888SOL     OW24218   5.892   1.905   7.602 -0.8086 -0.0943 -0.2672
 7888SOL    HW124219   5.845   1.985   7.625 -1.3657 -0.7046  0.7723
 7888SOL    HW224220   5.975   1.936   7.566 -1.7381  0.9857 -1.5622
 7889SOL     OW24221   4.868   2.370   1.381  0.4731  0.1591 -0.1026
 7889SOL    HW124222   4.949   2.378   1.331 -0.5493  1.3979 -1.6440
 7889SOL    HW224223   4.799   2.360   1.315 -0.6789 -0.7413  1.1609
 7890SOL     OW24224   2.885   4.159   1.516 -0.0474 -0.5041 -0.7327
 7890SOL    HW124225   2.806   4.107   1.530 -0.7039  0.3321 -1.1986
 7890SOL    HW224226   2.859   4.248   1.538  1.2062 -0.4265  0.5570
 7891SOL     OW24227   6.690   7.514   3.289  0.9434 -0.3599 -0.0758
 7891SOL    HW124228   6.733   7.572   3.226 -0.5464 -0.7949 -1.5504
 7891SOL    HW224229   6.668   7.435   3.239 -0.2252 -0.7601  0.9999
 7892SOL     OW24230   6.951   2.231   2.383  0.0672 -0.2881  0.0548
 7892SOL    HW124231   6.909   2.285   2.316 -2.4970  0.1842  1.9138
 7892SOL    HW224232   6.943   2.141   2.350  1.6142  0.1267 -1.6242
 7893SOL     OW24233   6.150   5.470   7.516 -0.0658  0.5240 -0.1657
 7893SOL    HW124234   6.087   5.471   7.444 -1.4126 -1.8792  0.8551
 7893SOL    HW224235   6.102   5.509   7.590  0.0506 -0.2042  0.3034
 7894SOL     OW24236   6.779   0.695   3.391 -0.3485  0.2286  0.1115
 7894SOL    HW124237   6.704   0.642   3.416 -0.7762  0.4032 -0.7625
 7894SOL    HW224238   6.827   0.641   3.328 -1.5203  1.3447 -1.8410
 7895SOL     OW24239   2.120   1.637   5.476  0.0536  0.4800 -0.5814
 7895SOL    HW124240   2.183   1.709   5.471  0.0455  0.8301  2.3555
 7895SOL    HW224241   2.045   1.674   5.522 -1.8187 -0.3105 -2.8287
 7896SOL     OW24242   1.010   3.083   6.678 -0.0724 -0.4074  0.4066
 7896SOL    HW124243   0.984   3.000   6.638  1.0527 -0.8285  0.5048
 7896SOL    HW224244   1.093   3.105   6.636 -0.9704  1.3633 -0.5643
 7897SOL     OW24245   2.998   6.544   5.831 -0.4782  0.0310  0.1328
 7897SOL    HW124246   2.974   6.499   5.750 -0.1183  2.1864 -1.2314
 7897SOL    HW224247   3.090   6.523   5.843 -0.7033 -0.8752  0.4248
 7898SOL     OW24248   0.888   3.452   0.984 -0.6176  0.9456  0.3422
 7898SOL    HW124249   0.938   3.446   1.065  0.3213 -2.0687 -0.3465
 7898SOL    HW224250   0.797   3.463   1.013 -0.2562  0.3466  1.7922
 7899SOL     OW24251   7.488   6.721   0.718 -0.1065  0.1187  0.2879
 7899SOL    HW124252   7.455   6.811   0.717 -1.2684 -0.2515 -2.1761
 7899SOL    HW224253   7.449   6.680   0.641  0.7210 -2.4076  1.1001
 7900SOL     OW24254   6.950   6.691   6.491 -0.5248  0.6148  0.3152
 7900SOL    HW124255   6.872   6.639   6.469  0.8143 -0.6709 -1.6582
 7900SOL    HW224256   6.991   6.642   6.563 -0.5870  0.3277  0.1577
 7901SOL     OW24257   7.655   0.805   4.974 -0.2169 -0.1704  0.0654
 7901SOL    HW124258   7.698   0.753   4.906 -2.2659 -0.7571 -0.8481
 7901SOL    HW224259   7.632   0.887   4.931  0.9779  0.6218  0.8765
 7902SOL     OW24260   2.266   7.668   5.055  0.7678 -0.1598 -0.1344
 7902SOL    HW124261   2.287   7.598   4.993  2.8895  0.1955  0.1293
 7902SOL    HW224262   2.237   7.622   5.134  2.4370 -0.7915  0.1451
 7903SOL     OW24263   0.523   0.529   0.938 -0.0952  0.0472  0.1713
 7903SOL    HW124264   0.513   0.613   0.893  0.1488 -0.0317 -0.0339
 7903SOL    HW224265   0.528   0.465   0.868  1.8471  0.0802  0.2391
 7904SOL     OW24266   5.744   4.996   7.521 -0.2231 -0.2572  0.2469
 7904SOL    HW124267   5.672   5.057   7.503 -0.4552 -0.5380  0.2054
 7904SOL    HW224268   5.730   4.967   7.611  0.6910  0.8148  0.7524
 7905SOL     OW24269   4.211   6.659   2.033  0.1011 -0.7905  0.2531
 7905SOL    HW124270   4.161   6.671   2.115  0.1488  1.1962  0.0422
 7905SOL    HW224271   4.272   6.588   2.053 -1.1391 -1.6059  1.3304
 7906SOL     OW24272   2.752   5.106   5.313 -0.1584 -0.0651  0.0206
 7906SOL    HW124273   2.829   5.082   5.261  1.2112  0.3278  1.7311
 7906SOL    HW224274   2.722   5.189   5.276  0.0010 -0.4132 -0.9056
 7907SOL     OW24275   2.042   3.003   6.194 -0.0523  0.9213  0.2816
 7907SOL    HW124276   2.135   3.006   6.172  0.1271  0.8646  1.0103
 7907SOL    HW224277   2.026   2.913   6.221 -0.6266  0.5822 -1.0838
 7908SOL     OW24278   3.470   0.007   2.757 -0.5177 -0.4814  0.7166
 7908SOL    HW124279   3.384   0.041   2.733 -0.1391 -0.5171 -0.7285
 7908SOL    HW224280   3.522   0.085   2.775 -0.3203 -0.3787 -0.2730
 7909SOL     OW24281   6.503   2.570   6.508  0.3292 -0.0735 -0.6925
 7909SOL    HW124282   6.497   2.532   6.595 -0.7325  0.1033 -0.6781
 7909SOL    HW224283   6.440   2.642   6.508  1.0696  0.6007 -1.2763
 7910SOL     OW24284   5.635   5.376   3.735  0.2447 -0.5041 -0.2671
 7910SOL    HW124285   5.683   5.434   3.794  0.0917 -1.4083  0.7828
 7910SOL    HW224286   5.628   5.293   3.783  0.1588 -1.2911 -1.5810
 7911SOL     OW24287   2.777   3.508   1.074 -0.0551 -0.2183  0.1996
 7911SOL    HW124288   2.722   3.430   1.068  1.5134 -1.3371 -0.4398
 7911SOL    HW224289   2.794   3.518   1.168  0.2298 -1.0268  0.2427
 7912SOL     OW24290   0.826   3.297   0.564 -0.2685  0.0605  0.6928
 7912SOL    HW124291   0.743   3.299   0.516 -0.0760  0.7076  0.3842
 7912SOL    HW224292   0.821   3.373   0.623  0.4287  0.5472  0.1318
 7913SOL     OW24293   5.632   5.631   6.640 -0.5077  0.4933  0.2357
 7913SOL    HW124294   5.679   5.628   6.723  0.9697  0.0259 -0.5731
 7913SOL    HW224295   5.700   5.622   6.574 -1.6947  0.4121 -1.0251
 7914SOL     OW24296   7.564   6.046   6.479  0.0217  0.3277  0.0831
 7914SOL    HW124297   7.581   6.127   6.527  0.8931 -0.2664  0.8129
 7914SOL    HW224298   7.649   6.022   6.442  0.4542 -1.6962  2.1725
 7915SOL     OW24299   3.132   6.264   5.408 -0.1617  0.0758  0.7422
 7915SOL    HW124300   3.214   6.274   5.455 -0.6637  1.5183  1.3987
 7915SOL    HW224301   3.137   6.328   5.337 -0.9605  0.6722  1.1990
 7916SOL     OW24302   1.458   6.269   5.561  0.6801 -0.0172 -0.1980
 7916SOL    HW124303   1.519   6.230   5.499  0.5003  0.3794 -0.6362
 7916SOL    HW224304   1.497   6.253   5.647  1.3344  0.1194 -0.4635
 7917SOL     OW24305   0.282   3.423   1.538 -0.2910  0.5342 -0.6692
 7917SOL    HW124306   0.194   3.459   1.546 -0.8582 -0.7763 -0.8789
 7917SOL    HW224307   0.279   3.341   1.587  0.0695 -0.8104 -2.8007
 7918SOL     OW24308   7.731   2.767   2.722 -0.2188  0.0449 -0.3698
 7918SOL    HW124309   7.796   2.835   2.703  0.9964 -1.0048 -0.1415
 7918SOL    HW224310   7.656   2.815   2.756 -0.1771  1.4355 -2.0976
 7919SOL     OW24311   0.670   1.455   6.149 -0.7624 -0.2260 -0.7696
 7919SOL    HW124312   0.577   1.435   6.163 -0.1456 -1.6791  1.9991
 7919SOL    HW224313   0.711   1.370   6.135  0.6743 -0.2154  2.4313
 7920SOL     OW24314   1.296   0.852   5.519  0.2380  0.3058 -0.5414
 7920SOL    HW124315   1.328   0.931   5.477 -1.0433  1.9427  1.3323
 7920SOL    HW224316   1.261   0.883   5.603 -0.9291 -2.1524 -0.0347
 7921SOL     OW24317   0.285   2.609   6.228  0.1129 -0.6428  0.1814
 7921SOL    HW124318   0.311   2.570   6.144  2.4949 -0.3618  0.7109
 7921SOL    HW224319   0.245   2.537   6.276  0.2546 -1.2401 -0.5755
 7922SOL     OW24320   5.497   4.820   7.241 -0.1923 -0.6984  0.1562
 7922SOL    HW124321   5.575   4.865   7.209 -0.6210  0.3091  0.4711
 7922SOL    HW224322   5.518   4.796   7.331 -0.1485 -0.6610  0.1560
 7923SOL     OW24323   6.758   0.386   5.808  0.4203  0.1982 -0.1108
 7923SOL    HW124324   6.746   0.303   5.853  0.6566  1.1739  1.8637
 7923SOL    HW224325   6.845   0.380   5.769  0.5472 -0.3873  0.2469
 7924SOL     OW24326   3.990   1.573   2.188  0.0879 -0.0602  0.1726
 7924SOL    HW124327   3.897   1.549   2.180  0.5446 -1.3693 -3.5337
 7924SOL    HW224328   3.990   1.669   2.189 -1.3202 -0.0157 -0.5744
 7925SOL     OW24329   4.018   1.462   2.883 -0.1874 -0.4501 -0.2232
 7925SOL    HW124330   4.028   1.369   2.905  0.0114 -1.0357 -2.5021
 7925SOL    HW224331   3.992   1.503   2.965  1.0597 -2.2729  1.1963
 7926SOL     OW24332   7.368   2.427   6.790 -0.1466 -0.7125  0.3086
 7926SOL    HW124333   7.440   2.483   6.819  0.4890 -0.7606 -1.1199
 7926SOL    HW224334   7.313   2.484   6.737  1.3643 -1.7105 -2.5446
 7927SOL     OW24335   4.452   6.493   0.304 -0.4020  0.4857  0.5542
 7927SOL    HW124336   4.430   6.430   0.372  3.9764 -0.4943  1.3581
 7927SOL    HW224337   4.474   6.573   0.351 -2.4420  1.5779 -0.2212
 7928SOL     OW24338   6.679   3.205   2.423 -0.0264 -0.3791 -0.3857
 7928SOL    HW124339   6.736   3.181   2.350 -0.6305 -0.2440 -0.9049
 7928SOL    HW224340   6.711   3.153   2.496  0.6330 -0.4603 -0.7257
 7929SOL     OW24341   1.467   6.703   6.343 -0.0169 -0.5689 -0.3231
 7929SOL    HW124342   1.435   6.761   6.412 -0.1227  2.0833 -2.4557
 7929SOL    HW224343   1.403   6.632   6.339  0.0068 -0.8286  2.2462
 7930SOL     OW24344   3.149   3.448   4.886 -0.1253  0.2722 -0.7920
 7930SOL    HW124345   3.088   3.437   4.959  0.1872  1.1613 -0.3847
 7930SOL    HW224346   3.094   3.443   4.808 -0.8985  2.0179 -0.4091
 7931SOL     OW24347   0.215   3.577   0.486 -0.1257  0.2075 -0.4030
 7931SOL    HW124348   0.303   3.612   0.477  0.9106 -1.6688  1.5532
 7931SOL    HW224349   0.224   3.503   0.546 -2.6056 -1.6157 -2.0350
 7932SOL     OW24350   3.516   7.196   4.484  0.2263  0.2219 -0.6686
 7932SOL    HW124351   3.558   7.218   4.567 -0.1965 -0.3065 -0.3008
 7932SOL    HW224352   3.587   7.162   4.430  0.5587  0.8470 -0.6275
 7933SOL     OW24353   5.586   7.194   2.267 -0.3646 -0.2915 -0.6472
 7933SOL    HW124354   5.576   7.274   2.215 -0.5371 -0.2785 -0.5949
 7933SOL    HW224355   5.582   7.224   2.357  2.2407  0.0034 -0.5629
 7934SOL     OW24356   7.640   2.647   0.065  0.8155  0.1559 -0.3859
 7934SOL    HW124357   7.667   2.692   0.145  0.2883  0.4585 -0.3712
 7934SOL    HW224358   7.545   2.639   0.073  0.7494  0.2453 -1.0046
 7935SOL     OW24359   1.793   4.075   3.055 -0.0724  0.0662 -0.1101
 7935SOL    HW124360   1.757   3.986   3.053  1.8724 -0.8687  2.0009
 7935SOL    HW224361   1.739   4.124   2.992 -2.3492 -2.1456 -0.0517
 7936SOL     OW24362   5.481   6.224   2.719  0.1718 -0.4188  0.2088
 7936SOL    HW124363   5.449   6.146   2.675  0.0080 -0.0981 -0.2534
 7936SOL    HW224364   5.420   6.293   2.692 -0.4418 -0.3798  1.6088
 7937SOL     OW24365   4.553   5.065   0.784  0.0948 -0.2589 -0.6696
 7937SOL    HW124366   4.641   5.100   0.798  0.0063 -0.3643  0.2056
 7937SOL    HW224367   4.563   5.002   0.712  0.5036  0.5743 -1.3587
 7938SOL     OW24368   1.899   4.982   4.050  0.4437 -0.5690  0.2794
 7938SOL    HW124369   1.891   4.943   3.963  1.6758 -0.6537  0.1833
 7938SOL    HW224370   1.969   4.932   4.092  1.3163  0.8141  0.5346
 7939SOL     OW24371   4.746   4.911   7.111 -0.0245  0.0710  0.0039
 7939SOL    HW124372   4.828   4.908   7.161 -0.6364 -1.9793  0.9706
 7939SOL    HW224373   4.708   4.996   7.134  0.8204  0.1574  1.2093
 7940SOL     OW24374   5.974   5.107   7.571  0.1923  0.3275  0.1839
 7940SOL    HW124375   5.898   5.062   7.536 -0.7142  1.7001  0.2951
 7940SOL    HW224376   5.998   5.056   7.649 -1.7911  0.8977  1.2285
 7941SOL     OW24377   7.440   0.078   3.836  0.4437  0.0092 -0.1148
 7941SOL    HW124378   7.460   0.117   3.922  0.0392  0.4891 -0.2367
 7941SOL    HW224379   7.350   0.048   3.844  0.7947 -1.0528  0.0245
 7942SOL     OW24380   7.646   5.395   1.729 -0.4747 -0.0724 -0.2887
 7942SOL    HW124381   7.615   5.409   1.640 -1.0559  2.5328  0.2555
 7942SOL    HW224382   7.585   5.445   1.784  1.5240  0.7175  1.3231
 7943SOL     OW24383   3.322   6.657   5.902 -0.4755  0.5268 -0.5299
 7943SOL    HW124384   3.271   6.726   5.860 -3.8070 -0.4669  1.4759
 7943SOL    HW224385   3.311   6.581   5.844 -2.1492  0.0876  0.2948
 7944SOL     OW24386   5.482   3.486   1.099  0.0898 -0.3584  0.0777
 7944SOL    HW124387   5.566   3.485   1.055  0.4607 -0.0438  0.7612
 7944SOL    HW224388   5.436   3.409   1.065  0.2845 -0.0182 -0.9828
 7945SOL     OW24389   2.960   3.715   3.450 -0.4824 -0.1679 -0.0319
 7945SOL    HW124390   2.937   3.781   3.384  2.3731  0.3593 -0.6433
 7945SOL    HW224391   2.929   3.633   3.412  1.0012  0.1287 -2.0635
 7946SOL     OW24392   3.598   7.197   5.668  0.2770 -0.2721  0.3664
 7946SOL    HW124393   3.588   7.289   5.692 -1.3348 -0.2655 -0.1983
 7946SOL    HW224394   3.562   7.149   5.743  1.5254 -0.4867  0.8565
 7947SOL     OW24395   2.673   6.499   2.173 -0.5380 -0.8426  0.4370
 7947SOL    HW124396   2.655   6.552   2.251  1.4858 -0.7709  0.8950
 7947SOL    HW224397   2.700   6.562   2.107 -1.0605 -1.0329  0.0316
 7948SOL     OW24398   4.620   0.580   4.097 -0.4424  0.4720  0.1714
 7948SOL    HW124399   4.692   0.626   4.054  0.0201  0.2432  0.6884
 7948SOL    HW224400   4.641   0.584   4.191 -1.8772  1.7421  0.4801
 7949SOL     OW24401   1.808   6.330   0.051 -0.2445 -0.1999 -0.3001
 7949SOL    HW124402   1.778   6.283   0.129  0.6420  0.8205  0.7042
 7949SOL    HW224403   1.851   6.408   0.086 -0.0733  0.4271 -1.8416
 7950SOL     OW24404   2.817   6.729   4.526  0.0245  0.2739  0.0282
 7950SOL    HW124405   2.796   6.787   4.452 -0.4932  2.2600  1.6563
 7950SOL    HW224406   2.741   6.734   4.583  0.2982 -1.4549  0.5922
 7951SOL     OW24407   4.657   6.132   7.501 -0.1889  0.3247 -0.9531
 7951SOL    HW124408   4.726   6.135   7.568 -0.0137  1.7093 -1.1587
 7951SOL    HW224409   4.583   6.178   7.541 -0.6871 -0.3478 -1.0816
 7952SOL     OW24410   4.763   1.244   0.566 -0.2609 -0.2795  0.4985
 7952SOL    HW124411   4.833   1.307   0.585  1.0379 -0.8207 -2.0669
 7952SOL    HW224412   4.792   1.163   0.608 -0.6846  0.1493  1.6559
 7953SOL     OW24413   6.876   4.393   1.644  0.0971 -0.6058  0.6860
 7953SOL    HW124414   6.905   4.302   1.635  0.3705 -0.5582  1.0477
 7953SOL    HW224415   6.810   4.404   1.576  1.7102 -0.4122 -0.9481
 7954SOL     OW24416   4.617   2.275   6.903  0.2120 -0.1479  0.1050
 7954SOL    HW124417   4.643   2.367   6.898 -0.2317 -0.0393 -0.2799
 7954SOL    HW224418   4.691   2.231   6.944  0.8413  0.2250 -0.6088
 7955SOL     OW24419   5.518   6.161   2.064  0.0167  0.0492 -0.2620
 7955SOL    HW124420   5.603   6.119   2.047  0.0358 -0.2249  0.4570
 7955SOL    HW224421   5.540   6.252   2.084  0.2625 -0.2556  0.9624
 7956SOL     OW24422   3.823   6.917   2.512 -0.1143 -0.2171 -0.3245
 7956SOL    HW124423   3.740   6.941   2.469  1.0850  1.6540 -1.7680
 7956SOL    HW224424   3.883   6.901   2.440  1.1018 -0.3909  0.7029
 7957SOL     OW24425   7.333   7.613   0.139 -0.0925  0.2788 -0.2144
 7957SOL    HW124426   7.286   7.600   0.221 -2.0605 -0.0360 -1.3454
 7957SOL    HW224427   7.406   7.550   0.143 -1.4698 -1.3428  0.3330
 7958SOL     OW24428   6.462   5.533   4.243 -0.3806  0.0453 -0.0607
 7958SOL    HW124429   6.386   5.489   4.279 -0.1912 -1.0205 -0.9109
 7958SOL    HW224430   6.432   5.622   4.222 -1.1471 -0.1051  0.3957
 7959SOL     OW24431   0.434   6.754   1.418  0.2838 -0.0068 -0.5725
 7959SOL    HW124432   0.494   6.681   1.433  3.6956  2.2520 -1.9053
 7959SOL    HW224433   0.452   6.782   1.328 -2.2106  1.3774 -0.7374
 7960SOL     OW24434   0.543   4.507   0.588  0.2270 -0.3446  0.3872
 7960SOL    HW124435   0.473   4.442   0.594 -0.2551  0.1234 -0.0646
 7960SOL    HW224436   0.612   4.474   0.645 -0.5016 -0.6400  1.1082
 7961SOL     OW24437   2.992   3.032   7.010  0.1849 -0.0714  0.3919
 7961SOL    HW124438   2.942   2.976   6.951  0.3689  0.5181 -0.3330
 7961SOL    HW224439   2.969   3.122   6.985  1.6600  0.2287 -0.0429
 7962SOL     OW24440   3.047   3.157   5.514  0.1815 -0.1332  0.4496
 7962SOL    HW124441   3.047   3.063   5.495  1.1236 -0.0602  0.0561
 7962SOL    HW224442   3.138   3.178   5.534 -0.1249  0.5827  1.1648
 7963SOL     OW24443   6.663   6.956   3.314  0.0742  0.0244 -0.3616
 7963SOL    HW124444   6.757   6.943   3.323  0.2618  1.4959 -0.0853
 7963SOL    HW224445   6.628   6.943   3.402 -0.3380 -2.8588 -0.8401
 7964SOL     OW24446   0.315   2.909   4.105 -0.0250  0.1581 -0.5712
 7964SOL    HW124447   0.375   2.883   4.175 -0.0840  0.3721 -0.4413
 7964SOL    HW224448   0.267   2.984   4.140 -1.4704 -0.9540 -0.0696
 7965SOL     OW24449   2.653   5.812   6.311 -0.2719 -0.0740 -0.8005
 7965SOL    HW124450   2.667   5.734   6.258  1.0145 -0.1750 -0.3393
 7965SOL    HW224451   2.731   5.865   6.298  0.4285 -0.4071  1.4963
 7966SOL     OW24452   1.442   4.142   7.122  0.0219 -0.3841 -0.2034
 7966SOL    HW124453   1.518   4.166   7.068 -0.3033  0.4601 -0.3051
 7966SOL    HW224454   1.438   4.047   7.117  1.7811 -0.5592  0.7517
 7967SOL     OW24455   1.157   6.220   0.966 -0.1199  0.0863 -0.1622
 7967SOL    HW124456   1.213   6.241   1.041  1.9183  0.7609 -1.7590
 7967SOL    HW224457   1.217   6.180   0.903 -1.5792  0.3449 -1.7651
 7968SOL     OW24458   0.153   2.341   3.002 -0.1846 -0.0073  0.1525
 7968SOL    HW124459   0.153   2.254   2.962 -0.2407  0.5041 -1.0217
 7968SOL    HW224460   0.061   2.364   3.011 -0.1742 -0.1753  0.7227
 7969SOL     OW24461   5.726   2.840   3.516  0.0652 -0.2020  0.3852
 7969SOL    HW124462   5.731   2.839   3.421 -0.7798 -2.4110  0.3088
 7969SOL    HW224463   5.708   2.931   3.539 -0.0624  0.2936 -1.5773
 7970SOL     OW24464   2.777   5.387   6.627 -0.3407  0.5163 -0.0993
 7970SOL    HW124465   2.735   5.316   6.676  0.0623 -1.9392 -2.9898
 7970SOL    HW224466   2.868   5.359   6.617 -0.3884  0.9577 -2.1000
 7971SOL     OW24467   7.349   4.630   0.365 -0.2882 -0.1673 -0.8348
 7971SOL    HW124468   7.388   4.619   0.452  2.1547 -0.1120 -1.8262
 7971SOL    HW224469   7.315   4.719   0.366  0.4754  0.1337 -0.1997
 7972SOL     OW24470   6.650   1.753   4.476 -0.3213 -0.1299 -0.4262
 7972SOL    HW124471   6.602   1.744   4.558  0.0109  0.5949 -0.1366
 7972SOL    HW224472   6.582   1.769   4.411 -0.6167 -1.0934 -0.3672
 7973SOL     OW24473   2.683   6.409   5.421  0.3263  0.0219  0.2342
 7973SOL    HW124474   2.700   6.360   5.501  0.1759  0.9100  0.8346
 7973SOL    HW224475   2.626   6.353   5.369  2.2735 -1.5683 -0.3214
 7974SOL     OW24476   4.707   5.125   5.902  0.5859  0.3166  0.1558
 7974SOL    HW124477   4.776   5.060   5.885 -0.2968 -0.2659 -1.5159
 7974SOL    HW224478   4.732   5.167   5.984  1.7167 -1.4580  0.7750
 7975SOL     OW24479   5.551   6.631   3.351  0.4569  0.1545  0.1589
 7975SOL    HW124480   5.587   6.696   3.412  0.3900  1.7812 -1.4715
 7975SOL    HW224481   5.611   6.556   3.360  0.5107  0.3655  2.1084
 7976SOL     OW24482   1.827   7.229   0.042 -0.3481 -0.1116  0.0643
 7976SOL    HW124483   1.782   7.313   0.048 -0.0359  0.1037 -0.5026
 7976SOL    HW224484   1.850   7.207   0.133  2.7208  2.1719  0.0156
 7977SOL     OW24485   1.843   5.597   4.593  0.6835  0.2364 -0.1685
 7977SOL    HW124486   1.788   5.564   4.664  0.9811  1.2596  0.5515
 7977SOL    HW224487   1.805   5.558   4.514  0.5478 -1.1842  0.5626
 7978SOL     OW24488   0.642   2.752   7.334  0.3865  0.4698  0.3514
 7978SOL    HW124489   0.661   2.677   7.391  0.5399  0.7622  0.6898
 7978SOL    HW224490   0.621   2.823   7.394  0.0197  0.6396  0.0239
 7979SOL     OW24491   5.258   4.341   0.957  0.0403  0.8201  0.7353
 7979SOL    HW124492   5.344   4.381   0.969 -0.3180  1.6535  0.5863
 7979SOL    HW224493   5.275   4.264   0.902  0.6895  0.9640  0.7282
 7980SOL     OW24494   6.014   6.684   0.659  0.0775 -0.4950  0.2415
 7980SOL    HW124495   5.930   6.665   0.701  0.4604  0.7359  1.6071
 7980SOL    HW224496   5.993   6.691   0.566 -0.7891 -3.2444  0.1440
 7981SOL     OW24497   7.210   7.281   2.967 -0.1925  0.2356 -0.6606
 7981SOL    HW124498   7.140   7.330   2.923  0.5331  0.1431 -1.9599
 7981SOL    HW224499   7.238   7.338   3.038 -2.6056 -0.3593  0.8756
 7982SOL     OW24500   3.229   1.031   2.110  0.3527 -1.0022  0.6306
 7982SOL    HW124501   3.148   1.006   2.063  0.9933 -1.6992 -0.1485
 7982SOL    HW224502   3.220   0.991   2.196 -0.2773 -0.7944  0.6687
 7983SOL     OW24503   5.723   0.925   6.911 -0.0074  0.3683  0.0699
 7983SOL    HW124504   5.651   0.866   6.887  0.1185 -0.0282  0.6458
 7983SOL    HW224505   5.799   0.868   6.919 -0.3208  0.2165  2.7656
 7984SOL     OW24506   0.703   0.958   7.725  0.4754 -0.1842 -0.4623
 7984SOL    HW124507   0.680   0.891   7.660  0.7251 -1.3088  0.5746
 7984SOL    HW224508   0.785   0.996   7.691  0.5417 -0.6739 -0.8652
 7985SOL     OW24509   0.886   4.360   0.611 -0.0955  0.2061  0.0421
 7985SOL    HW124510   0.841   4.357   0.526  0.0413 -0.1640 -0.0182
 7985SOL    HW224511   0.958   4.298   0.602 -1.7799 -2.1189  1.4033
 7986SOL     OW24512   1.496   7.318   2.853 -0.5132  0.2689  0.0515
 7986SOL    HW124513   1.557   7.380   2.811  0.1743  0.7662  1.6828
 7986SOL    HW224514   1.489   7.246   2.791  0.1797  1.1173 -1.0626
 7987SOL     OW24515   1.019   4.046   2.443 -0.1807 -0.3624 -0.2647
 7987SOL    HW124516   1.034   4.140   2.441 -1.0293 -0.1584  1.4863
 7987SOL    HW224517   0.943   4.034   2.500 -0.0345 -2.1166 -0.3637
 7988SOL     OW24518   5.160   1.838   4.567  0.6087 -0.4577  0.1030
 7988SOL    HW124519   5.210   1.913   4.600 -0.2104  0.0623  0.1823
 7988SOL    HW224520   5.212   1.805   4.494  0.2686  1.0895 -0.8774
 7989SOL     OW24521   3.901   1.991   3.932 -0.1504  0.7992 -0.0891
 7989SOL    HW124522   3.827   1.947   3.891 -0.0077  0.0880  0.3911
 7989SOL    HW224523   3.866   2.025   4.015 -0.1359  1.1573 -0.2290
 7990SOL     OW24524   1.633   3.576   1.854  0.3356 -0.2348 -0.2710
 7990SOL    HW124525   1.541   3.554   1.869  0.0733 -1.6341 -3.2015
 7990SOL    HW224526   1.630   3.652   1.795  1.1106  0.2581  0.2946
 7991SOL     OW24527   0.891   3.987   1.759  0.1356 -0.1330 -0.1510
 7991SOL    HW124528   0.851   3.916   1.708  0.3544 -0.6278  0.3625
 7991SOL    HW224529   0.822   4.017   1.818  0.0485  0.0731 -0.3557
 7992SOL     OW24530   6.932   6.389   0.177 -0.0901  0.2862  0.1011
 7992SOL    HW124531   6.889   6.429   0.101  0.2522 -0.1317 -0.3203
 7992SOL    HW224532   7.024   6.415   0.168 -0.0863  0.4167  0.4971
 7993SOL     OW24533   6.938   6.571   2.326 -0.2138 -0.2505 -0.5589
 7993SOL    HW124534   6.874   6.526   2.269  0.2900 -0.9087 -0.6120
 7993SOL    HW224535   7.004   6.505   2.344  1.2605  0.8461 -1.7308
 7994SOL     OW24536   0.625   3.303   7.467 -0.3677  0.1093 -0.1895
 7994SOL    HW124537   0.599   3.395   7.460 -1.6709 -0.3195 -1.8183
 7994SOL    HW224538   0.573   3.259   7.399 -0.5407 -1.9936  1.2194
 7995SOL     OW24539   0.959   1.073   2.443 -0.5029  0.6285  0.0402
 7995SOL    HW124540   1.013   1.021   2.502  0.2609  0.1546 -1.0589
 7995SOL    HW224541   1.016   1.146   2.416 -0.3419  0.0529 -1.2282
 7996SOL     OW24542   0.260   5.664   4.818 -0.1078 -0.3015 -0.2257
 7996SOL    HW124543   0.207   5.621   4.750 -0.2185 -0.0917 -0.2726
 7996SOL    HW224544   0.215   5.642   4.900  0.4637 -1.2056 -0.1452
 7997SOL     OW24545   6.906   0.677   4.799 -0.5534 -0.6868 -0.2838
 7997SOL    HW124546   6.855   0.734   4.857 -1.1930 -1.2459 -0.2805
 7997SOL    HW224547   6.959   0.624   4.859 -1.0205 -1.0827 -0.2133
 7998SOL     OW24548   1.750   3.681   2.226 -0.0654  0.6465 -0.5082
 7998SOL    HW124549   1.692   3.750   2.193  0.3850 -0.0348 -2.9495
 7998SOL    HW224550   1.806   3.660   2.152 -1.1535 -3.3677 -0.4282
 7999SOL     OW24551   2.947   5.646   4.825 -0.1946  0.2481 -0.4778
 7999SOL    HW124552   2.966   5.685   4.740  1.6294  0.9068  0.1720
 7999SOL    HW224553   3.033   5.637   4.867 -1.1198  1.3061  1.8675
 8000SOL     OW24554   7.543   5.728   0.022  0.4501 -0.4076 -0.0015
 8000SOL    HW124555   7.551   5.648   0.074 -0.5436  0.0580  0.8941
 8000SOL    HW224556   7.598   5.791   0.068 -0.6663  0.0902  0.6931
 8001SOL     OW24557   7.260   2.347   4.077 -0.0111 -0.2312 -0.3633
 8001SOL    HW124558   7.214   2.271   4.113  0.5849  0.3868  1.8874
 8001SOL    HW224559   7.270   2.406   4.152  2.5352  0.5711 -1.2352
 8002SOL     OW24560   4.806   3.069   4.665 -0.4857 -0.2416 -0.1419
 8002SOL    HW124561   4.882   3.073   4.724 -0.1877 -2.8942 -0.2451
 8002SOL    HW224562   4.733   3.099   4.720 -0.2102 -2.5793  1.6725
 8003SOL     OW24563   2.506   5.958   7.621 -0.0570  0.4040 -0.1539
 8003SOL    HW124564   2.590   5.968   7.666  0.0126  0.4511 -0.2947
 8003SOL    HW224565   2.441   5.985   7.686 -0.0208 -0.4023  0.2288
 8004SOL     OW24566   6.901   7.058   5.261 -0.0327 -0.0736  0.3325
 8004SOL    HW124567   6.836   7.075   5.194 -0.1807 -0.3896  0.3931
 8004SOL    HW224568   6.851   7.024   5.335 -0.0479  1.5695  1.1248
 8005SOL     OW24569   5.647   6.585   3.098  0.3670  0.5441  0.4552
 8005SOL    HW124570   5.704   6.639   3.153 -1.7025  3.8585 -0.3281
 8005SOL    HW224571   5.566   6.575   3.149 -1.2839  2.9926 -1.3853
 8006SOL     OW24572   4.545   5.216   7.467  0.1128  0.2434 -0.0510
 8006SOL    HW124573   4.581   5.201   7.554 -1.2505 -1.2690  0.3167
 8006SOL    HW224574   4.530   5.310   7.463  2.9835  0.7890  0.1485
 8007SOL     OW24575   4.281   3.844   4.555  0.2544 -0.4303  0.1212
 8007SOL    HW124576   4.364   3.880   4.524  1.3557 -1.7648  1.3396
 8007SOL    HW224577   4.219   3.863   4.486  1.1289  2.2533 -0.0264
 8008SOL     OW24578   5.065   5.320   5.871  0.7046 -0.2201  0.0391
 8008SOL    HW124579   5.081   5.350   5.782  0.6592  0.0271  0.1116
 8008SOL    HW224580   4.994   5.376   5.902 -1.0395 -1.9415 -0.6210
 8009SOL     OW24581   1.412   1.807   0.275  0.0272 -0.6033 -0.1885
 8009SOL    HW124582   1.445   1.752   0.346  1.1405 -0.9618 -0.9411
 8009SOL    HW224583   1.447   1.766   0.196 -1.5432 -0.4667 -0.9874
 8010SOL     OW24584   2.171   5.532   6.869  0.6178 -0.0330  0.2430
 8010SOL    HW124585   2.076   5.524   6.866  0.6621 -0.1561 -1.9145
 8010SOL    HW224586   2.186   5.616   6.913 -0.4560 -0.1199  0.8196
 8011SOL     OW24587   6.751   1.999   5.085  0.0058 -0.3306  0.1357
 8011SOL    HW124588   6.813   1.932   5.114  0.3835 -0.6285 -1.2789
 8011SOL    HW224589   6.734   1.978   4.993 -0.7313  0.8644 -0.0278
 8012SOL     OW24590   5.292   2.911   3.298 -0.1284 -0.2165  1.1715
 8012SOL    HW124591   5.323   2.920   3.389 -0.5822  2.8602  1.1143
 8012SOL    HW224592   5.200   2.938   3.301  0.3171  1.7304 -0.4198
 8013SOL     OW24593   6.590   6.967   0.888  0.0340 -0.1608  0.7004
 8013SOL    HW124594   6.500   6.962   0.856 -0.2179  2.0626  0.9034
 8013SOL    HW224595   6.623   7.049   0.852  0.8889  0.6867  3.2579
 8014SOL     OW24596   6.447   2.907   0.500  0.2508  0.7266  0.3581
 8014SOL    HW124597   6.494   2.842   0.448  0.0926 -1.0021  2.2733
 8014SOL    HW224598   6.356   2.881   0.495  0.0425  1.4550  0.2593
 8015SOL     OW24599   3.571   0.749   0.847 -0.3909 -0.2118  1.0554
 8015SOL    HW124600   3.618   0.829   0.822  0.3400 -0.7402  0.6968
 8015SOL    HW224601   3.578   0.692   0.770  1.5579 -1.7105  2.2294
 8016SOL     OW24602   5.044   6.804   7.240 -0.5300  0.1941  0.3287
 8016SOL    HW124603   5.013   6.804   7.150 -2.8721  1.4939  1.0430
 8016SOL    HW224604   5.089   6.888   7.250  3.1444 -1.4704 -0.5576
 8017SOL     OW24605   5.874   0.930   1.496 -0.1544  0.1215 -0.1627
 8017SOL    HW124606   5.799   0.884   1.534 -0.0625  1.1148  1.2981
 8017SOL    HW224607   5.842   1.018   1.477  0.9677  1.0634  1.9188
 8018SOL     OW24608   7.202   6.571   4.117 -0.4938  0.1827 -0.2197
 8018SOL    HW124609   7.153   6.506   4.167  0.8989 -0.0689  0.9000
 8018SOL    HW224610   7.292   6.562   4.149  0.3807  0.3497 -2.4377
 8019SOL     OW24611   3.545   0.495   7.689 -0.2313 -0.4521 -0.3336
 8019SOL    HW124612   3.638   0.475   7.674 -0.3102 -0.9025 -0.2477
 8019SOL    HW224613   3.546   0.560   7.759 -0.0020 -1.0407  0.2303
 8020SOL     OW24614   5.695   5.144   4.220 -0.2805 -0.3214  0.1728
 8020SOL    HW124615   5.649   5.205   4.278 -0.2017  0.3283 -0.4356
 8020SOL    HW224616   5.749   5.200   4.164  1.1553 -1.0434  0.7544
 8021SOL     OW24617   0.784   0.055   5.327  0.7033 -0.2363 -0.0627
 8021SOL    HW124618   0.879   0.047   5.337  0.9115 -0.8784 -2.2498
 8021SOL    HW224619   0.751  -0.033   5.343  0.7188 -0.5162 -1.4810
 8022SOL     OW24620   2.947   7.135   6.355 -0.1299  0.2231 -0.3019
 8022SOL    HW124621   2.939   7.046   6.321  2.5200  0.4431 -1.7826
 8022SOL    HW224622   3.012   7.128   6.424 -2.1430  0.5779  1.7204
 8023SOL     OW24623   1.938   4.926   5.050 -0.7916 -0.2811  0.1362
 8023SOL    HW124624   1.986   4.919   5.132  1.5007 -2.3141 -1.2408
 8023SOL    HW224625   1.872   4.857   5.055 -0.8809 -0.1749  0.4149
 8024SOL     OW24626   6.655   5.835   4.936 -0.3153 -0.4797 -0.1106
 8024SOL    HW124627   6.612   5.753   4.912  1.1436 -1.4133  0.3631
 8024SOL    HW224628   6.668   5.828   5.031 -1.2283  0.8372  0.1444
 8025SOL     OW24629   2.667   1.245   2.806 -0.1410 -0.3580 -0.1770
 8025SOL    HW124630   2.722   1.288   2.740 -0.3288 -1.9538 -1.4534
 8025SOL    HW224631   2.595   1.305   2.821  2.6868  2.7084  2.9194
 8026SOL     OW24632   2.413   4.156   7.086  0.1383  0.8945 -1.0471
 8026SOL    HW124633   2.490   4.187   7.039  2.3217 -1.2048  0.8624
 8026SOL    HW224634   2.387   4.076   7.040 -1.6259  2.1307 -2.2981
 8027SOL     OW24635   0.450   3.742   4.282 -0.3066 -0.1013 -0.5955
 8027SOL    HW124636   0.374   3.788   4.246  0.2745 -0.2222 -2.0734
 8027SOL    HW224637   0.499   3.810   4.328 -1.9773 -0.2946  1.6357
 8028SOL     OW24638   0.001   3.842   0.613 -0.2078  0.1350 -0.2823
 8028SOL    HW124639  -0.041   3.889   0.685  0.4876  2.1852 -1.1359
 8028SOL    HW224640   0.032   3.761   0.651 -0.6616  0.7631  1.5048
 8029SOL     OW24641   6.502   6.948   1.199 -0.0452  0.0336 -0.7643
 8029SOL    HW124642   6.533   6.931   1.110  2.8711 -1.1277  0.3344
 8029SOL    HW224643   6.504   6.862   1.241  0.4507  0.8296  0.8995
 8030SOL     OW24644   2.404   5.208   6.008  0.2423  0.0339  0.0035
 8030SOL    HW124645   2.475   5.171   6.060  0.8758  1.0950 -0.0810
 8030SOL    HW224646   2.362   5.132   5.967 -0.2101 -0.8124  1.9542
 8031SOL     OW24647   0.451   4.019   7.161  0.0953  0.0258 -0.0973
 8031SOL    HW124648   0.465   3.960   7.235  0.9631 -0.0190 -0.2889
 8031SOL    HW224649   0.358   4.041   7.166 -0.0897 -0.8030  0.3880
 8032SOL     OW24650   5.435   1.316   6.666 -0.3427 -0.4964 -0.1175
 8032SOL    HW124651   5.349   1.354   6.684  0.0253  0.4126 -0.2264
 8032SOL    HW224652   5.453   1.339   6.575  1.1789  1.7045  0.6618
 8033SOL     OW24653   0.244   6.223   0.680 -0.1667 -0.1485 -0.4136
 8033SOL    HW124654   0.318   6.165   0.664 -0.8090 -1.1334  0.0513
 8033SOL    HW224655   0.220   6.257   0.594 -1.4047 -2.6531 -1.1484
 8034SOL     OW24656   4.043   6.339   5.177  0.2913 -0.0873 -0.2398
 8034SOL    HW124657   4.054   6.249   5.208 -0.1529  0.3709  1.3641
 8034SOL    HW224658   4.021   6.389   5.256  2.2977  1.7681 -0.7639
 8035SOL     OW24659   6.500   0.208   4.551 -0.2447 -0.1065  0.1969
 8035SOL    HW124660   6.435   0.229   4.484  0.9755  2.0395 -0.3962
 8035SOL    HW224661   6.516   0.114   4.540 -1.7998 -0.2847 -0.9092
 8036SOL     OW24662   0.123   7.606   3.295  0.5626 -0.9933 -0.0851
 8036SOL    HW124663   0.067   7.539   3.254  1.4573 -1.9626  0.2436
 8036SOL    HW224664   0.106   7.597   3.389  1.0696 -1.1079 -0.0049
 8037SOL     OW24665   2.210   6.326   1.287  0.2692 -0.1436 -0.0455
 8037SOL    HW124666   2.247   6.379   1.216  1.1355 -1.5230 -0.6620
 8037SOL    HW224667   2.115   6.338   1.278  0.4327  1.1188 -0.2942
 8038SOL     OW24668   6.356   7.261   0.800  0.2579  0.3041 -0.0248
 8038SOL    HW124669   6.357   7.165   0.807  2.1723  0.2715 -0.1952
 8038SOL    HW224670   6.433   7.282   0.748  0.3820  1.9979  0.7853
 8039SOL     OW24671   3.480   5.060   2.475 -0.1262  0.7420 -0.2749
 8039SOL    HW124672   3.500   5.144   2.433 -0.3156  0.3603 -1.1298
 8039SOL    HW224673   3.414   5.020   2.420 -1.3152  0.7730  1.0586
 8040SOL     OW24674   2.970   3.768   4.537 -0.2587 -0.1604 -0.1334
 8040SOL    HW124675   3.011   3.832   4.479  0.7103  0.5047  1.2473
 8040SOL    HW224676   2.968   3.687   4.486  2.7627 -0.2278 -0.3028
 8041SOL     OW24677   0.428   3.851   2.264  0.2521  0.3140 -0.0769
 8041SOL    HW124678   0.455   3.938   2.237 -0.5935  1.0861  1.4239
 8041SOL    HW224679   0.363   3.866   2.333  0.2057 -1.5037  0.3392
 8042SOL     OW24680   3.805   4.368   5.538  0.4245 -0.2869  0.5438
 8042SOL    HW124681   3.834   4.297   5.595  0.4173  0.0213  0.9305
 8042SOL    HW224682   3.785   4.441   5.597  1.0987  0.2704  0.1077
 8043SOL     OW24683   1.017   2.351   0.125 -0.2006  0.4701 -1.0693
 8043SOL    HW124684   1.038   2.362   0.218  0.9548  1.9006 -1.4694
 8043SOL    HW224685   0.980   2.434   0.099  3.3703  1.7338 -2.8206
 8044SOL     OW24686   3.097   3.109   0.894  0.1502 -0.7426  0.5819
 8044SOL    HW124687   3.144   3.026   0.889  0.1942 -0.6901  0.0055
 8044SOL    HW224688   3.139   3.165   0.829 -0.8618 -0.7798 -0.1349
 8045SOL     OW24689   3.840   1.686   0.622 -0.0901 -0.1316 -0.3835
 8045SOL    HW124690   3.776   1.696   0.693 -0.4145  0.3971 -0.7435
 8045SOL    HW224691   3.874   1.597   0.634  1.1448  0.5134  1.4792
 8046SOL     OW24692   7.150   2.404   2.321 -0.4829  0.2972 -0.1640
 8046SOL    HW124693   7.109   2.392   2.236 -0.6852 -0.0793 -0.0153
 8046SOL    HW224694   7.097   2.352   2.382 -0.2942  0.4961  0.1773
 8047SOL     OW24695   7.629   5.198   6.805 -0.4651  0.3053  0.2336
 8047SOL    HW124696   7.627   5.243   6.720 -0.5701  1.2291  0.7053
 8047SOL    HW224697   7.691   5.127   6.793  1.0032  1.5747 -0.0897
 8048SOL     OW24698   0.850   1.061   1.826 -0.4069 -0.0485  0.3621
 8048SOL    HW124699   0.925   1.040   1.770  0.7717 -0.2296  1.9597
 8048SOL    HW224700   0.793   0.984   1.819  0.6060 -0.8589  0.8136
 8049SOL     OW24701   4.068   4.094   7.104 -0.2347 -0.1611 -0.2781
 8049SOL    HW124702   4.023   4.010   7.110  1.0764 -0.8296  0.8079
 8049SOL    HW224703   4.062   4.131   7.193  0.6793  0.0793 -0.2992
 8050SOL     OW24704   4.331   0.258   7.030  0.3226 -0.0865 -0.0197
 8050SOL    HW124705   4.307   0.189   6.968 -1.3059 -0.4331  0.9374
 8050SOL    HW224706   4.277   0.241   7.107  0.1944  1.9983  0.4199
 8051SOL     OW24707   1.028   3.166   3.678 -0.2759 -0.0006  0.2600
 8051SOL    HW124708   0.956   3.224   3.703  0.0880  0.2608  0.7146
 8051SOL    HW224709   1.081   3.157   3.757  0.6393  0.4643 -0.2787
 8052SOL     OW24710   6.520   5.846   7.145  0.3495  0.0316  0.3753
 8052SOL    HW124711   6.597   5.843   7.202  1.3688 -0.1353 -0.9861
 8052SOL    HW224712   6.536   5.780   7.078  0.3997  1.9199 -1.5867
 8053SOL     OW24713   5.368   6.787   2.925  0.1540  0.0054  0.0746
 8053SOL    HW124714   5.371   6.795   3.021  2.5307 -0.7521  0.1221
 8053SOL    HW224715   5.374   6.693   2.909  0.2694  0.1656 -0.8358
 8054SOL     OW24716   1.918   5.472   3.879  0.4957  0.1321  0.1038
 8054SOL    HW124717   1.836   5.443   3.840 -0.5681 -1.9415  3.4300
 8054SOL    HW224718   1.976   5.396   3.872  0.6685  0.1211  1.3534
 8055SOL     OW24719   6.887   3.947   5.802  0.4944 -0.2600 -0.3556
 8055SOL    HW124720   6.909   3.953   5.895 -0.3535 -2.7333  0.0904
 8055SOL    HW224721   6.971   3.931   5.758  1.1968  2.7871 -0.3648
 8056SOL     OW24722   4.905   1.861   5.293 -0.1962  1.0418  0.5219
 8056SOL    HW124723   4.843   1.870   5.221  1.2744  0.6493 -0.8607
 8056SOL    HW224724   4.851   1.863   5.372 -1.9759  0.4643 -0.6156
 8057SOL     OW24725   3.288   1.366   3.162 -0.1627 -0.6002 -0.0437
 8057SOL    HW124726   3.286   1.462   3.165  1.2682 -0.5518 -0.0334
 8057SOL    HW224727   3.371   1.345   3.118  0.9056 -1.8409  2.3632
 8058SOL     OW24728   3.495   1.513   2.028  0.5726 -0.0396  0.3572
 8058SOL    HW124729   3.453   1.427   2.043  0.2066 -0.0876 -0.8507
 8058SOL    HW224730   3.583   1.502   2.063  0.1250 -0.4863  1.4071
 8059SOL     OW24731   2.086   5.219   5.304 -0.2122 -0.0709  0.4754
 8059SOL    HW124732   2.001   5.251   5.334  0.2240  0.5147  1.1321
 8059SOL    HW224733   2.126   5.295   5.261  0.0918 -0.2617  0.4199
 8060SOL     OW24734   5.109   7.310   5.761 -0.2923  0.2419  0.1435
 8060SOL    HW124735   5.075   7.226   5.730 -0.6422  0.7381 -0.8772
 8060SOL    HW224736   5.058   7.329   5.839 -1.9137  0.6094 -0.9403
 8061SOL     OW24737   7.244   5.859   3.337  0.2537 -0.4835  0.1990
 8061SOL    HW124738   7.303   5.919   3.382  0.2010 -1.1232  1.1430
 8061SOL    HW224739   7.300   5.817   3.271  0.9839 -1.3256  1.2990
 8062SOL     OW24740   0.719   3.887   7.394  0.3704  0.4704 -0.3813
 8062SOL    HW124741   0.750   3.977   7.390  0.6233  0.3899 -0.2402
 8062SOL    HW224742   0.653   3.887   7.464  0.5972  0.4782 -0.1662
 8063SOL     OW24743   2.133   6.660   2.831 -0.1146 -0.1597  0.2146
 8063SOL    HW124744   2.097   6.721   2.767  0.5874 -1.3541 -1.4012
 8063SOL    HW224745   2.074   6.665   2.905 -0.7424  1.5783 -0.3562
 8064SOL     OW24746   3.005   4.654   5.219  0.2148  0.1532  0.2408
 8064SOL    HW124747   2.946   4.707   5.272  2.0501  0.9801  1.5849
 8064SOL    HW224748   2.993   4.686   5.130 -0.3011  1.3422  0.7104
 8065SOL     OW24749   6.999   5.209   4.414 -0.3675  0.4665  0.5975
 8065SOL    HW124750   6.922   5.261   4.439 -0.2199  0.8192  0.3369
 8065SOL    HW224751   6.969   5.118   4.418 -0.8548  0.6074  0.3170
 8066SOL     OW24752   3.833   2.620   3.575 -0.2775  0.0173 -0.1835
 8066SOL    HW124753   3.801   2.604   3.664  0.5937 -0.3066  0.0772
 8066SOL    HW224754   3.926   2.596   3.578 -0.7433 -2.3254 -1.7949
 8067SOL     OW24755   1.146   1.060   0.463  0.1965  0.5908 -0.1401
 8067SOL    HW124756   1.144   1.118   0.539 -1.6873  1.1681 -0.5697
 8067SOL    HW224757   1.064   1.078   0.417 -0.6462 -2.6546 -0.1364
 8068SOL     OW24758   4.468   5.868   3.781 -0.0962 -0.8708  0.3097
 8068SOL    HW124759   4.383   5.828   3.798  1.2051 -3.3121  1.5301
 8068SOL    HW224760   4.493   5.908   3.864  0.0960 -0.3784  0.0227
 8069SOL     OW24761   1.911   6.127   7.581 -0.2492  0.3639 -0.7027
 8069SOL    HW124762   1.880   6.036   7.589  1.0933 -0.5249 -3.9158
 8069SOL    HW224763   1.896   6.165   7.667 -0.9530 -2.8724  0.7615
 8070SOL     OW24764   5.166   2.403   2.473  0.4298  0.2250  0.4446
 8070SOL    HW124765   5.148   2.439   2.386 -1.1510  1.1721  1.1162
 8070SOL    HW224766   5.257   2.374   2.469  0.3021 -0.0321 -1.6111
 8071SOL     OW24767   3.834   3.374   7.540  0.1130 -0.2663 -0.2639
 8071SOL    HW124768   3.822   3.372   7.635  3.5079  1.6696  0.3792
 8071SOL    HW224769   3.754   3.414   7.506 -0.7731 -0.1209  1.8551
 8072SOL     OW24770   5.021   5.434   7.059 -0.4473  0.4450 -0.5920
 8072SOL    HW124771   5.109   5.471   7.059 -0.9348  1.6616  0.0046
 8072SOL    HW224772   5.025   5.361   6.997  1.0429  0.3118 -0.3616
 8073SOL     OW24773   4.721   2.331   4.211  1.0994 -0.2232  0.5051
 8073SOL    HW124774   4.694   2.249   4.170  1.8881 -0.5846  0.7053
 8073SOL    HW224775   4.675   2.332   4.295  0.9358 -0.3651  0.4176
 8074SOL     OW24776   1.499   3.231   0.181 -0.4734 -0.3201  0.1447
 8074SOL    HW124777   1.419   3.265   0.221  0.9426  1.4194  1.6780
 8074SOL    HW224778   1.504   3.140   0.211 -1.5219 -0.2399  0.5958
 8075SOL     OW24779   5.479   5.822   4.504 -0.0239  0.3651 -0.1580
 8075SOL    HW124780   5.558   5.776   4.476  1.5948  2.6059  0.3883
 8075SOL    HW224781   5.450   5.777   4.583  0.6546 -0.5303 -0.4121
 8076SOL     OW24782   3.923   2.018   5.620  0.4233 -0.1437 -0.0807
 8076SOL    HW124783   3.931   1.999   5.527 -1.3230  1.0060 -0.5287
 8076SOL    HW224784   4.013   2.025   5.652  1.0950  1.1832 -2.0693
 8077SOL     OW24785   4.432   7.035   4.305  0.0896  0.3409  0.1220
 8077SOL    HW124786   4.441   7.122   4.265 -0.1038  0.2012 -0.2287
 8077SOL    HW224787   4.340   7.028   4.329  0.2645  0.5412  0.8747
 8078SOL     OW24788   0.277   3.902   2.730  0.8586 -0.0701 -0.3506
 8078SOL    HW124789   0.277   3.807   2.742  0.2081 -0.0058  0.2410
 8078SOL    HW224790   0.219   3.935   2.799  0.2581  0.6694 -1.1855
 8079SOL     OW24791   2.178   3.317   0.087  0.4863 -0.2524 -0.6883
 8079SOL    HW124792   2.271   3.313   0.110  0.1222 -1.5117  0.6939
 8079SOL    HW224793   2.167   3.252   0.018  0.5265 -0.5103 -0.4520
 8080SOL     OW24794   4.923   7.277   1.065  0.4514  0.0459 -0.0742
 8080SOL    HW124795   4.971   7.349   1.106  0.3619 -0.2630  0.5935
 8080SOL    HW224796   4.834   7.312   1.053  0.2643 -0.1139  0.7389
 8081SOL     OW24797   7.336   1.549   3.787  0.1067  0.1604  0.4750
 8081SOL    HW124798   7.326   1.507   3.701 -1.0341 -0.0331  0.6865
 8081SOL    HW224799   7.362   1.478   3.845  2.8583  0.6450 -0.0556
 8082SOL     OW24800   6.974   7.327   6.856 -0.3331 -0.5048  0.7793
 8082SOL    HW124801   7.014   7.323   6.943  0.3637  0.7733  0.5414
 8082SOL    HW224802   6.991   7.417   6.826 -0.7471 -0.8636 -0.5887
 8083SOL     OW24803   3.827   7.448   4.559 -0.7293 -0.4986  0.0819
 8083SOL    HW124804   3.812   7.407   4.474  0.1143  0.8020 -0.7345
 8083SOL    HW224805   3.877   7.383   4.609  1.4358 -0.1750 -1.5184
 8084SOL     OW24806   3.981   2.289   1.481 -0.1348  0.5743  0.1811
 8084SOL    HW124807   4.027   2.211   1.514 -2.4880  0.2524  3.0672
 8084SOL    HW224808   4.031   2.363   1.516 -1.7950  0.2266  3.6631
 8085SOL     OW24809   5.208   3.257   2.717  0.1730 -0.0274  0.4376
 8085SOL    HW124810   5.207   3.203   2.796  0.9305 -1.9834 -0.7949
 8085SOL    HW224811   5.298   3.248   2.683 -0.6533 -0.9877 -1.7049
 8086SOL     OW24812   4.945   5.740   7.735  0.0410  0.4496  0.0536
 8086SOL    HW124813   4.860   5.765   7.770 -0.4306  0.9956 -1.3853
 8086SOL    HW224814   5.008   5.779   7.795 -0.6528 -1.6339  2.2979
 8087SOL     OW24815   3.193   6.837   4.333 -0.1668 -0.5934 -0.1068
 8087SOL    HW124816   3.251   6.913   4.345  1.3288 -1.7872  0.5326
 8087SOL    HW224817   3.195   6.792   4.417  0.0527 -2.0642 -0.8720
 8088SOL     OW24818   7.284   4.554   6.454 -0.3233 -0.0967 -0.4719
 8088SOL    HW124819   7.235   4.491   6.506 -0.2803  0.6103  0.4359
 8088SOL    HW224820   7.374   4.548   6.487 -0.5205  1.1765  0.3609
 8089SOL     OW24821   2.223   0.026   1.713 -0.2426  0.1102  0.1972
 8089SOL    HW124822   2.190  -0.037   1.649 -1.5748  1.1612 -0.2024
 8089SOL    HW224823   2.182   0.001   1.796  1.4627 -1.2350  0.7056
 8090SOL     OW24824   2.011   7.733   3.823  0.0381  0.6703 -0.7048
 8090SOL    HW124825   2.059   7.706   3.902 -0.9474  0.0998 -0.2803
 8090SOL    HW224826   1.993   7.826   3.837  0.4112  0.7239 -0.5536
 8091SOL     OW24827   1.143   0.413   5.894  0.1795  0.3714 -0.1338
 8091SOL    HW124828   1.091   0.350   5.844 -1.0664  0.9861  0.3473
 8091SOL    HW224829   1.206   0.448   5.831 -1.7012  1.5226 -1.4614
 8092SOL     OW24830   0.916   1.697   0.937 -0.3609 -0.3023 -0.8276
 8092SOL    HW124831   0.896   1.768   0.877 -2.6482 -0.7845 -0.7069
 8092SOL    HW224832   0.927   1.620   0.881 -0.2055 -0.3138 -0.7830
 8093SOL     OW24833   6.075   4.842   2.424 -0.3879 -0.1386 -0.3170
 8093SOL    HW124834   6.110   4.873   2.341  0.0251 -2.1219 -0.9452
 8093SOL    HW224835   5.991   4.803   2.402  0.0970 -1.4325  0.0095
 8094SOL     OW24836   5.616   1.606   1.493  0.3760 -0.0367 -0.2237
 8094SOL    HW124837   5.541   1.548   1.484  0.8695 -0.6788 -0.2647
 8094SOL    HW224838   5.627   1.617   1.588  0.8371 -0.7593 -0.1846
 8095SOL     OW24839   6.897   4.677   5.221  0.1207 -0.0428  0.4300
 8095SOL    HW124840   6.966   4.646   5.163  0.7440  0.5288  0.8455
 8095SOL    HW224841   6.839   4.729   5.165 -0.9673 -1.9385 -0.2864
 8096SOL     OW24842   5.373   4.800   3.207  0.5131  0.2155  0.2686
 8096SOL    HW124843   5.338   4.889   3.209 -0.8546 -0.2873  1.9720
 8096SOL    HW224844   5.407   4.789   3.119 -1.3862  1.6565 -0.7301
 8097SOL     OW24845   0.123   0.124   0.353  0.2335 -0.6889  0.2154
 8097SOL    HW124846   0.213   0.121   0.319 -0.2761 -0.1535 -1.2314
 8097SOL    HW224847   0.101   0.217   0.355 -0.2492 -0.8104  0.6969
 8098SOL     OW24848   1.626   3.453   5.246  0.0473  0.3147 -0.3217
 8098SOL    HW124849   1.590   3.527   5.197 -0.2897  1.5726  1.6694
 8098SOL    HW224850   1.678   3.404   5.183 -0.0994  2.0021 -1.8233
 8099SOL     OW24851   5.391   4.426   5.800 -0.3915  0.6829  0.0888
 8099SOL    HW124852   5.391   4.517   5.828 -0.0175  0.2087  1.7480
 8099SOL    HW224853   5.403   4.376   5.881  0.1226 -0.8121 -0.8709
 8100SOL     OW24854   3.098   3.298   6.723  0.6714 -0.0545  0.3743
 8100SOL    HW124855   3.094   3.393   6.739 -0.3248 -0.1837  0.9379
 8100SOL    HW224856   3.034   3.260   6.783  3.2021 -1.4144  2.3683
 8101SOL     OW24857   1.293   0.785   7.487  0.0999  0.6289  0.0534
 8101SOL    HW124858   1.283   0.732   7.408 -0.2579  1.2602 -0.3327
 8101SOL    HW224859   1.248   0.867   7.466 -0.1071  0.7534  0.9542
 8102SOL     OW24860   0.709   6.761   5.115  0.4549  0.0729  0.6209
 8102SOL    HW124861   0.791   6.716   5.139  0.5590 -0.0331  0.0817
 8102SOL    HW224862   0.707   6.839   5.170  1.1968  0.3621  0.2517
 8103SOL     OW24863   1.211   0.135   1.375  0.2327 -0.0724 -0.2468
 8103SOL    HW124864   1.222   0.147   1.469 -0.6554 -0.9394 -0.0212
 8103SOL    HW224865   1.132   0.081   1.366 -0.6199  1.3013 -1.5525
 8104SOL     OW24866   5.689   2.117   2.741 -1.0751 -0.1966 -0.0578
 8104SOL    HW124867   5.652   2.188   2.793 -0.2723 -0.0519  0.3293
 8104SOL    HW224868   5.783   2.123   2.755 -0.9120 -0.6767 -0.8780
 8105SOL     OW24869   4.294   4.650   2.897 -0.1524 -0.1590  0.0079
 8105SOL    HW124870   4.201   4.648   2.920 -0.0219  1.1611  0.7798
 8105SOL    HW224871   4.295   4.661   2.802 -0.8618  2.0613  0.1980
 8106SOL     OW24872   1.663   6.899   2.570  0.7525  0.2371 -0.6811
 8106SOL    HW124873   1.664   6.904   2.474  0.6995  0.6305 -0.6648
 8106SOL    HW224874   1.651   6.806   2.589 -1.4627  0.3928 -1.0801
 8107SOL     OW24875   3.287   1.439   3.943  0.1965 -0.0981  0.2290
 8107SOL    HW124876   3.237   1.514   3.975 -1.8183 -0.2188 -2.3797
 8107SOL    HW224877   3.229   1.364   3.955  0.3633 -0.5060 -1.3648
 8108SOL     OW24878   6.312   3.817   2.434  0.6761  0.0532  0.0011
 8108SOL    HW124879   6.221   3.840   2.414  0.2799 -1.9418 -0.7238
 8108SOL    HW224880   6.306   3.758   2.508  1.3129 -0.6320 -0.4769
 8109SOL     OW24881   4.662   5.078   6.722  0.5586 -0.1984 -0.0130
 8109SOL    HW124882   4.621   5.100   6.638  0.2291 -2.8794 -0.6324
 8109SOL    HW224883   4.589   5.077   6.784  0.5425  0.2002 -0.0221
 8110SOL     OW24884   4.957   3.909   0.136  0.4087 -0.3210  0.2980
 8110SOL    HW124885   5.028   3.919   0.073 -1.5306  2.5687 -1.6731
 8110SOL    HW224886   4.899   3.844   0.096 -0.1432  0.4940 -0.2411
 8111SOL     OW24887   2.353   0.167   5.022  0.3163 -0.3104  0.3012
 8111SOL    HW124888   2.374   0.188   5.113 -0.7536 -0.4018  0.5872
 8111SOL    HW224889   2.323   0.076   5.025 -2.9465  0.6360  0.4715
 8112SOL     OW24890   6.431   4.893   6.654  0.5307  0.1425  0.0166
 8112SOL    HW124891   6.522   4.875   6.678  0.7849  0.7326 -0.4693
 8112SOL    HW224892   6.435   4.978   6.610 -0.3168  0.3557  0.3489
 8113SOL     OW24893   0.874   0.048   7.093 -0.4906 -0.1223  0.3003
 8113SOL    HW124894   0.836   0.135   7.080 -2.3807 -1.2506 -3.2301
 8113SOL    HW224895   0.920   0.030   7.011  2.0821 -1.5471  1.9207
 8114SOL     OW24896   1.454   1.439   1.597  0.0311  0.7355 -0.4922
 8114SOL    HW124897   1.463   1.430   1.503 -0.0942  0.2778 -0.4639
 8114SOL    HW224898   1.538   1.407   1.632  0.3079  1.4682 -0.4745
 8115SOL     OW24899   4.790   6.135   5.615  0.1722 -0.0826 -0.3067
 8115SOL    HW124900   4.753   6.217   5.582 -0.8814 -1.1112 -1.7955
 8115SOL    HW224901   4.718   6.094   5.664  1.2016  0.6170  1.9370
 8116SOL     OW24902   5.452   5.751   0.279 -0.0499  0.2379  0.2695
 8116SOL    HW124903   5.470   5.662   0.310 -0.2078  0.4593  1.0366
 8116SOL    HW224904   5.392   5.787   0.345  1.3673  1.4933  0.9344
 8117SOL     OW24905   5.719   0.816   4.915  0.4858  0.4513  0.5473
 8117SOL    HW124906   5.736   0.762   4.992 -2.6833  0.6151  1.5095
 8117SOL    HW224907   5.782   0.888   4.922  0.5590  0.2489  2.7724
 8118SOL     OW24908   0.239   5.556   1.151 -0.2504 -0.3911 -0.0949
 8118SOL    HW124909   0.146   5.541   1.168 -0.2584 -1.0264 -0.6529
 8118SOL    HW224910   0.245   5.648   1.126 -1.0393 -0.8119 -2.0157
 8119SOL     OW24911   5.105   7.229   7.095  0.2153  0.6113 -0.7120
 8119SOL    HW124912   5.103   7.154   7.036  0.8904  0.4080 -0.4859
 8119SOL    HW224913   5.021   7.273   7.081  0.1247  0.2337 -1.3874
 8120SOL     OW24914   4.878   2.454   3.177  0.1217 -0.5693  0.2902
 8120SOL    HW124915   4.901   2.544   3.197  1.2354 -0.4430 -1.3651
 8120SOL    HW224916   4.875   2.410   3.262  0.8226  0.7340  1.0103
 8121SOL     OW24917   6.610   5.878   3.464  0.0836 -0.2237 -0.4907
 8121SOL    HW124918   6.556   5.920   3.531  0.3778  0.0746 -0.4359
 8121SOL    HW224919   6.669   5.821   3.513 -0.0679 -0.4205 -0.5376
 8122SOL     OW24920   0.265   0.545   6.067  0.0035  0.6575 -0.1082
 8122SOL    HW124921   0.328   0.475   6.048  0.8050  2.0715 -3.4420
 8122SOL    HW224922   0.201   0.504   6.125  0.6723 -2.7358 -1.4944
 8123SOL     OW24923   5.487   7.238   3.838 -0.1011 -0.4215 -0.2801
 8123SOL    HW124924   5.435   7.170   3.882  0.4922 -1.5080 -1.2078
 8123SOL    HW224925   5.577   7.205   3.842  0.2837  0.6039 -0.2330
 8124SOL     OW24926   6.940   2.952   0.946 -0.2475  0.4082  0.3329
 8124SOL    HW124927   6.902   3.006   0.877  1.3105 -0.0545 -0.9429
 8124SOL    HW224928   7.030   2.983   0.954  0.4273 -1.3946  0.1723
 8125SOL     OW24929   6.024   1.631   3.836 -0.4218 -0.2779  0.0538
 8125SOL    HW124930   5.989   1.547   3.867  1.6478 -0.7340  1.3160
 8125SOL    HW224931   6.113   1.634   3.871  0.5215  1.2257 -2.2742
 8126SOL     OW24932   4.093   7.149   0.379 -0.4758  0.3379  0.1833
 8126SOL    HW124933   4.139   7.109   0.305  0.5864 -1.7048  1.8603
 8126SOL    HW224934   4.011   7.100   0.385 -1.8643  2.3170 -1.2373
 8127SOL     OW24935   1.773   3.973   5.767 -0.2104  0.1360 -0.1239
 8127SOL    HW124936   1.730   3.978   5.682  0.4478  0.9829 -0.4280
 8127SOL    HW224937   1.749   4.054   5.811 -1.2932 -0.7097  0.8857
 8128SOL     OW24938   3.063   0.031   6.684 -0.2541 -1.2391 -0.0287
 8128SOL    HW124939   2.977   0.068   6.705 -0.5934 -2.0242 -0.0006
 8128SOL    HW224940   3.043  -0.052   6.641  0.4729 -0.7551 -1.3355
 8129SOL     OW24941   3.039   3.825   4.973  0.3538 -0.6039 -0.0524
 8129SOL    HW124942   3.107   3.757   4.976 -1.6721 -2.7636  1.1005
 8129SOL    HW224943   2.972   3.788   4.915 -1.4972 -0.3628  1.8305
 8130SOL     OW24944   0.542   5.323   5.547  0.4040  0.3185  0.1030
 8130SOL    HW124945   0.479   5.388   5.516 -1.8315 -1.1583  1.3491
 8130SOL    HW224946   0.597   5.370   5.609  0.5236  1.6030 -0.9242
 8131SOL     OW24947   6.895   2.817   6.326 -0.1832  0.2554  0.0103
 8131SOL    HW124948   6.910   2.723   6.340 -0.0821  0.3228  0.3483
 8131SOL    HW224949   6.801   2.823   6.311 -0.2431  0.1447  0.3386
 8132SOL     OW24950   4.811   3.370   1.741  0.2814  0.0862 -0.0622
 8132SOL    HW124951   4.749   3.304   1.708  0.6369 -0.1055 -0.3462
 8132SOL    HW224952   4.756   3.429   1.794  0.1094 -0.9846  1.0082
 8133SOL     OW24953   6.724   0.310   3.602  0.8235 -0.2064  0.0558
 8133SOL    HW124954   6.631   0.291   3.615  0.6243  1.4949  1.5544
 8133SOL    HW224955   6.735   0.320   3.508 -0.6477  0.1831 -0.0835
 8134SOL     OW24956   7.656   3.736   7.009 -0.5495 -0.0851  0.0743
 8134SOL    HW124957   7.687   3.712   7.096 -0.5188  0.1489  0.1286
 8134SOL    HW224958   7.708   3.682   6.949  1.3963  1.6884  0.0542
 8135SOL     OW24959   2.544   3.371   7.572  0.2931 -0.4723  0.0344
 8135SOL    HW124960   2.512   3.294   7.525  0.9340 -1.5491  1.2806
 8135SOL    HW224961   2.639   3.360   7.575  0.5417  1.0832 -0.9154
 8136SOL     OW24962   6.669   5.193   2.865  0.3074  0.0065 -0.0194
 8136SOL    HW124963   6.650   5.107   2.826 -0.1997  0.0027  0.2348
 8136SOL    HW224964   6.598   5.207   2.928  0.0643  0.8741 -0.4725
 8137SOL     OW24965   5.091   5.842   0.936 -0.4119 -0.1411 -0.5987
 8137SOL    HW124966   5.183   5.835   0.962 -0.4639 -1.9263 -0.7201
 8137SOL    HW224967   5.094   5.870   0.845 -0.0719  1.4859 -0.1156
 8138SOL     OW24968   1.872   4.745   2.942 -0.5109  0.2608  0.0856
 8138SOL    HW124969   1.888   4.668   2.995  1.2110 -0.5366 -1.4619
 8138SOL    HW224970   1.877   4.818   3.004  3.8780 -0.3966  0.8263
 8139SOL     OW24971   4.877   6.969   0.595 -0.5883 -0.0609 -1.0035
 8139SOL    HW124972   4.869   7.064   0.583  0.9224  0.3050  0.5878
 8139SOL    HW224973   4.958   6.946   0.549  0.3699 -0.1355  0.6585
 8140SOL     OW24974   1.063   6.410   6.502  0.0577  0.2345 -0.5482
 8140SOL    HW124975   1.015   6.492   6.498 -1.8185 -0.8272 -1.0430
 8140SOL    HW224976   0.995   6.342   6.507  1.5195 -1.3324 -0.7920
 8141SOL     OW24977   5.713   4.356   7.346 -0.3990  0.4738 -0.2785
 8141SOL    HW124978   5.721   4.430   7.406 -0.8860  0.4106 -0.1322
 8141SOL    HW224979   5.787   4.366   7.286 -0.3360  0.9564 -0.1278
 8142SOL     OW24980   0.542   6.931   6.300  0.0746  0.2109 -1.0234
 8142SOL    HW124981   0.608   6.964   6.238 -1.1662 -0.0544 -2.5633
 8142SOL    HW224982   0.495   7.010   6.327  0.3295  0.2741 -0.7566
 8143SOL     OW24983   2.612   4.843   6.257 -0.3719  0.0693  0.0857
 8143SOL    HW124984   2.566   4.920   6.290  0.1811  0.2467  0.4491
 8143SOL    HW224985   2.595   4.775   6.322  0.9515  0.4967  0.9072
 8144SOL     OW24986   0.173   1.259   6.877 -0.2000 -0.3601 -0.0303
 8144SOL    HW124987   0.236   1.330   6.890 -1.7860  1.0867  0.1074
 8144SOL    HW224988   0.224   1.179   6.890  1.8561  0.6971 -1.0552
 8145SOL     OW24989   0.585   7.515   3.461 -0.0356  0.6116  0.6496
 8145SOL    HW124990   0.621   7.603   3.457  0.5959  0.3210 -1.2390
 8145SOL    HW224991   0.505   7.519   3.410  0.3617 -0.0490 -0.0464
 8146SOL     OW24992   3.666   5.893   7.228  0.1601  0.3434 -0.1657
 8146SOL    HW124993   3.576   5.918   7.250 -0.3929 -1.2939 -0.4392
 8146SOL    HW224994   3.702   5.970   7.185  0.0354  2.2868  2.8923
 8147SOL     OW24995   5.398   0.187   4.826 -0.5131  0.6376 -0.3616
 8147SOL    HW124996   5.398   0.130   4.903 -0.8710  0.7397 -0.2828
 8147SOL    HW224997   5.342   0.260   4.851 -0.2323  0.9156 -0.5422
 8148SOL     OW24998   3.364   2.417   3.262 -0.6656 -0.1233  0.0631
 8148SOL    HW124999   3.317   2.337   3.240 -2.5715  0.3727  1.9277
 8148SOL    HW225000   3.456   2.393   3.259 -1.1864 -2.4108  0.6193
 8149SOL     OW25001   1.830   6.712   4.523 -0.1258  1.0821  0.4014
 8149SOL    HW125002   1.871   6.657   4.590 -0.2560 -0.2887 -0.6025
 8149SOL    HW225003   1.837   6.801   4.558 -0.9139  0.3604  2.6015
 8150SOL     OW25004   5.161   0.323   6.248  0.1392  0.4606  0.7371
 8150SOL    HW125005   5.238   0.269   6.268  0.2077  0.6782  1.0721
 8150SOL    HW225006   5.126   0.346   6.334 -0.5494  0.0156  0.5840
 8151SOL     OW25007   2.589   2.278   6.115  0.2503  0.3110  0.2491
 8151SOL    HW125008   2.527   2.335   6.162  0.3913  0.2639  0.4947
 8151SOL    HW225009   2.559   2.189   6.133  0.8273  0.2579  0.9958
 8152SOL     OW25010   7.154   0.607   3.310  0.3039  0.4502 -0.7438
 8152SOL    HW125011   7.148   0.555   3.231 -0.1246 -1.0478  0.2313
 8152SOL    HW225012   7.115   0.552   3.378  1.3491  1.3584  0.6563
 8153SOL     OW25013   1.201   0.566   1.508 -0.2236  0.1207  0.0756
 8153SOL    HW125014   1.125   0.509   1.507  0.7980 -1.3262 -2.0057
 8153SOL    HW225015   1.275   0.507   1.520  0.8232  1.0557 -1.4043
 8154SOL     OW25016   6.271   5.553   0.410  0.5855 -0.4240 -0.6879
 8154SOL    HW125017   6.249   5.564   0.318  1.6179  1.4446 -0.7516
 8154SOL    HW225018   6.365   5.569   0.415  0.7417 -1.5386  0.5530
 8155SOL     OW25019   6.951   1.532   0.881 -0.0480 -0.3502  0.7042
 8155SOL    HW125020   6.982   1.477   0.809 -0.5844  0.4484 -0.1627
 8155SOL    HW225021   7.025   1.589   0.901 -0.1699 -0.0158  0.2176
 8156SOL     OW25022   3.686   6.670   5.443 -0.0285 -0.5914 -0.3921
 8156SOL    HW125023   3.651   6.601   5.499  1.5283  1.9848  4.2722
 8156SOL    HW225024   3.610   6.722   5.418 -0.5315  0.3560  2.7395
 8157SOL     OW25025   6.308   4.769   3.877 -0.4092  0.0349  0.0433
 8157SOL    HW125026   6.365   4.766   3.954  0.1067 -0.8561 -0.3483
 8157SOL    HW225027   6.329   4.689   3.829  0.1334  1.1101 -1.6241
 8158SOL     OW25028   7.196   3.057   3.507  0.0752 -0.4558  0.6151
 8158SOL    HW125029   7.143   3.008   3.570 -2.7195  0.8381 -0.5502
 8158SOL    HW225030   7.168   3.025   3.422 -1.5609  2.6436 -0.1798
 8159SOL     OW25031   0.256   3.406   4.828  0.1782  0.6405  0.5863
 8159SOL    HW125032   0.330   3.455   4.791 -1.2020  1.6515 -0.9788
 8159SOL    HW225033   0.293   3.321   4.851  1.5470  0.5964 -1.4817
 8160SOL     OW25034   3.970   6.070   4.195 -0.1095 -0.1235  0.3097
 8160SOL    HW125035   4.052   6.083   4.148 -1.5320  1.5597 -1.8916
 8160SOL    HW225036   3.991   6.003   4.261  2.9235  0.0850 -0.2862
 8161SOL     OW25037   0.650   1.188   7.270  0.1415  0.2534  0.8492
 8161SOL    HW125038   0.736   1.221   7.296 -0.2263  0.7957  1.3954
 8161SOL    HW225039   0.605   1.265   7.234  0.6783 -0.4727 -1.6119
 8162SOL     OW25040   1.385   7.722   6.123 -0.1562 -0.1866  0.1161
 8162SOL    HW125041   1.303   7.715   6.075  0.4082 -0.9562 -0.7770
 8162SOL    HW225042   1.360   7.760   6.208 -1.2201  0.8743 -0.6328
 8163SOL     OW25043   6.795   2.568   6.831 -0.0917  0.0134  0.6288
 8163SOL    HW125044   6.862   2.524   6.779 -2.6458 -2.0589 -1.1864
 8163SOL    HW225045   6.736   2.607   6.767 -1.4635  0.4452  2.0951
 8164SOL     OW25046   5.142   3.435   0.965  0.5094 -0.2440 -0.0142
 8164SOL    HW125047   5.062   3.439   1.018  1.2041  1.5465  1.0168
 8164SOL    HW225048   5.201   3.378   1.014 -0.1702 -1.7791 -0.9064
 8165SOL     OW25049   5.889   0.097   3.044  0.5261  0.5762  0.1810
 8165SOL    HW125050   5.903   0.178   2.995  0.1305  0.0892 -0.7631
 8165SOL    HW225051   5.805   0.064   3.012 -0.4499  0.9501  2.2160
 8166SOL     OW25052   6.870   3.776   0.619 -0.8741  0.1396  0.1447
 8166SOL    HW125053   6.853   3.861   0.662  0.2419  0.2824  0.3303
 8166SOL    HW225054   6.964   3.764   0.627 -0.6831 -0.0250 -1.9373
 8167SOL     OW25055   0.821   7.478   0.396 -0.5475  0.0896 -0.1396
 8167SOL    HW125056   0.766   7.492   0.474 -0.4994 -0.4096 -0.0124
 8167SOL    HW225057   0.829   7.383   0.390  0.4885  0.1650 -0.0324
 8168SOL     OW25058   1.493   2.150   4.861  0.0635  0.6987  0.4574
 8168SOL    HW125059   1.566   2.197   4.821  0.2381  0.5358  0.5819
 8168SOL    HW225060   1.419   2.211   4.856  0.4365  1.2236  1.1561
 8169SOL     OW25061   6.957   2.026   3.235  0.0011  0.0594  0.2964
 8169SOL    HW125062   6.882   1.970   3.254  0.7824 -0.2493  2.7326
 8169SOL    HW225063   7.030   1.965   3.224  0.3713  0.4782  0.4220
 8170SOL     OW25064   1.092   3.739   2.543 -0.7982  0.0662  0.1682
 8170SOL    HW125065   1.064   3.679   2.474 -3.2470  1.4537 -0.1434
 8170SOL    HW225066   1.138   3.809   2.497  1.7656 -1.2811  0.5006
 8171SOL     OW25067   3.232   7.459   6.782 -0.5325  0.3518  0.2962
 8171SOL    HW125068   3.168   7.514   6.826 -0.3553 -0.3122  1.4263
 8171SOL    HW225069   3.316   7.485   6.820  0.0235  1.8430 -1.8119
 8172SOL     OW25070   3.561   0.972   3.256 -0.8981  0.5366  0.5486
 8172SOL    HW125071   3.521   0.965   3.343 -1.3557  1.1771  0.3904
 8172SOL    HW225072   3.653   0.990   3.274 -1.2341  2.0271  0.9086
 8173SOL     OW25073   3.914   0.742   7.261  0.0662 -0.0538 -0.4382
 8173SOL    HW125074   3.913   0.649   7.241 -2.3117 -0.4098  1.0259
 8173SOL    HW225075   3.966   0.749   7.342  0.5529 -0.0275 -0.7458
 8174SOL     OW25076   5.102   7.749   0.647  1.5220 -0.2540 -0.4261
 8174SOL    HW125077   5.045   7.770   0.573  1.1154 -1.2117 -0.3921
 8174SOL    HW225078   5.090   7.823   0.707  0.1317 -0.5288 -0.3165
 8175SOL     OW25079   6.524   3.919   5.450 -0.1345  0.0729 -0.1797
 8175SOL    HW125080   6.579   3.844   5.427 -0.0934  0.2848 -0.7736
 8175SOL    HW225081   6.568   3.994   5.411  0.1908  0.5084  0.9748
 8176SOL     OW25082   4.326   1.937   4.906  0.4283  0.6027  0.2895
 8176SOL    HW125083   4.377   1.990   4.844  1.3503 -1.5713 -0.9428
 8176SOL    HW225084   4.235   1.965   4.892  0.7791  1.1765 -1.0193
 8177SOL     OW25085   0.675   7.299   6.765  0.3048 -0.6910 -0.5271
 8177SOL    HW125086   0.727   7.375   6.791 -1.3665  0.6088 -0.8625
 8177SOL    HW225087   0.589   7.334   6.743 -0.6332 -2.7245 -0.3605
 8178SOL     OW25088   1.787   4.967   5.786  0.0519 -0.9001 -0.2487
 8178SOL    HW125089   1.789   4.872   5.793 -1.1846 -1.1048 -2.0133
 8178SOL    HW225090   1.706   4.986   5.739  0.6709  0.9779 -0.6512
 8179SOL     OW25091   5.954   5.659   0.616 -0.3064 -0.0617 -0.5444
 8179SOL    HW125092   5.962   5.679   0.523  2.8766 -2.2824 -0.9351
 8179SOL    HW225093   6.015   5.720   0.658 -0.3129 -0.3190 -0.1579
 8180SOL     OW25094   5.530   0.652   1.635 -0.1214 -0.6299  0.2946
 8180SOL    HW125095   5.543   0.742   1.606  2.1094 -0.1619  2.3832
 8180SOL    HW225096   5.436   0.636   1.625 -1.0398  2.7683  2.0764
 8181SOL     OW25097   5.109   2.886   7.433  0.4526 -0.5051  0.1505
 8181SOL    HW125098   5.046   2.814   7.432  1.6207 -1.5452 -0.6724
 8181SOL    HW225099   5.194   2.844   7.443  1.1115  0.8171  0.3654
 8182SOL     OW25100   6.024   7.250   1.722  0.1478  0.3011 -0.4306
 8182SOL    HW125101   6.051   7.341   1.710  1.8969 -0.1762 -0.2911
 8182SOL    HW225102   6.040   7.232   1.815  1.7417 -0.7346 -0.8784
 8183SOL     OW25103   7.752   0.644   7.557 -0.5003 -0.6503  0.7662
 8183SOL    HW125104   7.729   0.575   7.495  0.2973 -1.1070  0.9672
 8183SOL    HW225105   7.668   0.676   7.589 -0.9467 -0.2256 -0.7330
 8184SOL     OW25106   7.354   2.786   3.086  0.2054 -0.3229 -0.0806
 8184SOL    HW125107   7.260   2.805   3.079 -0.3645 -2.9590 -0.5954
 8184SOL    HW225108   7.364   2.739   3.168  1.0725 -0.1302 -0.0615
 8185SOL     OW25109   0.677   4.357   2.395 -0.5576  0.0566 -0.2883
 8185SOL    HW125110   0.631   4.439   2.375  0.4153  0.3465 -1.4775
 8185SOL    HW225111   0.692   4.361   2.489 -3.4462 -0.3514  0.2869
 8186SOL     OW25112   2.232   1.320   2.401 -0.5571 -0.0847 -0.3626
 8186SOL    HW125113   2.202   1.292   2.487 -1.0689  0.6895 -0.2759
 8186SOL    HW225114   2.320   1.283   2.393  0.5912  1.9300  1.5935
 8187SOL     OW25115   6.452   7.620   6.856  0.2396 -0.1243 -0.0265
 8187SOL    HW125116   6.488   7.606   6.943 -1.8321 -0.8145  0.7977
 8187SOL    HW225117   6.374   7.564   6.853  0.7625 -0.8824 -2.6870
 8188SOL     OW25118   0.932   3.962   0.317 -0.2453  0.0947  0.1912
 8188SOL    HW125119   0.839   3.987   0.319 -0.2305  0.4026 -1.5104
 8188SOL    HW225120   0.979   4.046   0.321 -0.0425 -0.0392  0.6542
 8189SOL     OW25121   7.223   6.352   0.580 -0.3049 -0.1604  0.3566
 8189SOL    HW125122   7.304   6.356   0.529  0.4604  1.3403  1.5933
 8189SOL    HW225123   7.252   6.334   0.669 -1.5140 -1.4369  0.5315
 8190SOL     OW25124   7.313   2.275   2.857 -0.1941  0.4530 -0.0999
 8190SOL    HW125125   7.256   2.279   2.781  1.5315  1.7669 -1.4011
 8190SOL    HW225126   7.400   2.257   2.821  0.2527 -1.6675  1.8282
 8191SOL     OW25127   1.089   2.508   5.844  0.2355  0.0370 -0.6760
 8191SOL    HW125128   1.135   2.586   5.875  0.2916 -0.1769 -0.2032
 8191SOL    HW225129   1.158   2.443   5.832 -0.0331 -0.6897  1.2789
 8192SOL     OW25130   0.763   4.928   6.763  0.4594 -0.8994  0.1764
 8192SOL    HW125131   0.780   4.923   6.669 -1.1560 -1.2935 -0.1226
 8192SOL    HW225132   0.687   4.872   6.777  0.5710 -0.7141  1.7004
 8193SOL     OW25133   6.656   3.561   3.581 -0.0559 -0.4935  0.4941
 8193SOL    HW125134   6.613   3.491   3.629 -1.0140 -0.5498 -0.4079
 8193SOL    HW225135   6.589   3.629   3.572  0.2426 -0.3006 -0.3645
 8194SOL     OW25136   1.582   7.559   7.727 -0.5040  0.4206 -0.2943
 8194SOL    HW125137   1.488   7.580   7.733 -0.4140  0.3926  2.1943
 8194SOL    HW225138   1.600   7.506   7.805  1.2237 -1.1622 -1.6893
 8195SOL     OW25139   6.472   0.253   1.018 -0.2207 -0.2030 -0.2898
 8195SOL    HW125140   6.519   0.329   1.052  1.9603 -1.4807 -0.3066
 8195SOL    HW225141   6.521   0.227   0.940 -2.5837  0.0364 -1.9777
 8196SOL     OW25142   0.064   6.299   2.137  0.0773 -0.2905  0.4398
 8196SOL    HW125143   0.094   6.378   2.092  0.0387 -0.0627  0.8120
 8196SOL    HW225144  -0.024   6.321   2.168  0.0934 -0.4577  0.6054
 8197SOL     OW25145   5.866   5.991   7.404  0.3382 -0.5668  0.3951
 8197SOL    HW125146   5.923   5.915   7.392  1.4340 -0.1217  2.2661
 8197SOL    HW225147   5.922   6.066   7.382 -0.3814 -0.2376 -0.3504
 8198SOL     OW25148   5.462   3.162   3.224 -0.2545  0.5026 -0.1716
 8198SOL    HW125149   5.416   3.167   3.307 -1.0265 -2.4299 -0.3111
 8198SOL    HW225150   5.395   3.134   3.161  0.6572  1.0759 -1.4304
 8199SOL     OW25151   6.703   6.537   4.333 -0.0214 -0.0801  0.3183
 8199SOL    HW125152   6.761   6.604   4.368  1.0122 -1.3890  1.2421
 8199SOL    HW225153   6.761   6.462   4.317 -1.0900 -0.6910 -0.9125
 8200SOL     OW25154   4.134   2.871   1.345  0.2149 -0.1197 -0.4126
 8200SOL    HW125155   4.148   2.844   1.436 -1.7530 -0.5964 -0.2105
 8200SOL    HW225156   4.138   2.967   1.348  2.6748 -0.1542 -0.3257
 8201SOL     OW25157   2.276   7.297   6.248 -0.2246 -0.1205 -0.1054
 8201SOL    HW125158   2.226   7.345   6.182 -1.9927  0.8918  1.8677
 8201SOL    HW225159   2.216   7.230   6.280 -0.2448  0.8255  2.0050
 8202SOL     OW25160   5.500   5.613   4.725 -0.0015 -0.2635 -0.3483
 8202SOL    HW125161   5.512   5.610   4.820 -0.6414  1.2826 -0.1919
 8202SOL    HW225162   5.589   5.620   4.690  0.1352  1.7938  0.3002
 8203SOL     OW25163   0.371   4.686   3.202  0.0252 -0.3728 -0.1911
 8203SOL    HW125164   0.323   4.615   3.161 -0.9866  0.1614  0.0355
 8203SOL    HW225165   0.322   4.765   3.179  1.5164  0.3496 -1.0412
 8204SOL     OW25166   3.253   6.381   4.633 -0.3966 -0.2399 -0.0071
 8204SOL    HW125167   3.188   6.322   4.669 -1.4026  1.0285  0.3296
 8204SOL    HW225168   3.305   6.409   4.709 -0.3938 -0.1202 -0.0527
 8205SOL     OW25169   7.072   3.946   4.647  0.1073 -0.0392  0.3315
 8205SOL    HW125170   7.128   4.005   4.596  0.7472 -0.7414  0.2049
 8205SOL    HW225171   7.085   3.974   4.738  0.5742 -0.1165  0.2928
 8206SOL     OW25172   2.568   6.329   7.135  0.0323 -0.2487  0.3216
 8206SOL    HW125173   2.511   6.364   7.067 -0.9592  0.8036  1.6209
 8206SOL    HW225174   2.508   6.308   7.207  1.1709 -0.1133  1.3384
 8207SOL     OW25175   1.723   7.719   4.232 -0.0798 -0.2362  0.2825
 8207SOL    HW125176   1.719   7.715   4.136 -0.0107 -0.4181  0.2844
 8207SOL    HW225177   1.817   7.709   4.251 -0.0537  0.1547  0.3561
 8208SOL     OW25178   4.022   5.361   7.532 -0.5927 -0.2113  0.1794
 8208SOL    HW125179   3.992   5.289   7.587  0.5069 -0.0215  1.0543
 8208SOL    HW225180   4.103   5.328   7.491  1.0549  1.1614  2.1388
 8209SOL     OW25181   0.731   1.845   5.919  0.2586  0.4879  0.3998
 8209SOL    HW125182   0.715   1.791   5.842  1.2459  0.9105 -0.1147
 8209SOL    HW225183   0.681   1.802   5.989  0.3691 -0.6302 -0.1781
 8210SOL     OW25184   0.246   6.331   0.185 -0.1314  0.1200 -0.2363
 8210SOL    HW125185   0.150   6.338   0.191 -0.2054 -1.4738  1.4714
 8210SOL    HW225186   0.274   6.320   0.275  1.8115  1.6122 -0.6050
 8211SOL     OW25187   0.457   3.512   1.734  0.0546  0.0364 -0.6814
 8211SOL    HW125188   0.398   3.469   1.671 -1.2248  1.2282 -0.3664
 8211SOL    HW225189   0.403   3.581   1.773  1.6320  1.0638 -0.2262
 8212SOL     OW25190   2.826   4.120   0.545  0.2847 -0.0871  0.7430
 8212SOL    HW125191   2.741   4.162   0.531  0.5302  0.4413  0.8195
 8212SOL    HW225192   2.870   4.127   0.460 -0.4628 -2.0465  0.1371
 8213SOL     OW25193   7.718   0.513   2.577  0.0622  0.1552  0.0924
 8213SOL    HW125194   7.675   0.570   2.640  1.2785  0.3573  0.7765
 8213SOL    HW225195   7.801   0.489   2.619  0.3235 -0.7469 -0.8949
 8214SOL     OW25196   4.556   6.065   6.819 -0.7759 -0.2695 -0.5847
 8214SOL    HW125197   4.511   6.147   6.839  0.1954  0.2990 -0.6509
 8214SOL    HW225198   4.589   6.077   6.730 -2.0069 -1.3843 -1.2246
 8215SOL     OW25199   0.720   0.589   3.372  0.3387  0.4363 -0.0966
 8215SOL    HW125200   0.714   0.627   3.460  1.0088  1.1247 -0.3355
 8215SOL    HW225201   0.787   0.642   3.328 -0.1990  0.2877 -1.1144
 8216SOL     OW25202   0.598   6.360   5.686  0.2526 -0.6363  0.4393
 8216SOL    HW125203   0.526   6.392   5.741 -0.9379 -1.1749 -0.7607
 8216SOL    HW225204   0.559   6.291   5.632  1.4792 -0.3924 -0.8177
 8217SOL     OW25205   1.510   3.215   2.618 -0.4228 -0.5681 -0.2779
 8217SOL    HW125206   1.508   3.234   2.711  0.7564 -0.9318 -0.1674
 8217SOL    HW225207   1.483   3.297   2.576 -1.4695 -0.5598  0.3855
 8218SOL     OW25208   0.369   2.495   0.482 -0.0514  0.1817 -0.2194
 8218SOL    HW125209   0.439   2.560   0.489  0.6236 -0.4514 -0.9429
 8218SOL    HW225210   0.336   2.485   0.572  1.1651  0.0772  0.2287
 8219SOL     OW25211   0.777   1.191   3.590  0.3369  0.2202  0.4491
 8219SOL    HW125212   0.764   1.276   3.632 -0.1831  0.6697 -0.5812
 8219SOL    HW225213   0.690   1.151   3.589  0.3024  0.3003 -0.3581
 8220SOL     OW25214   3.821   2.203   4.520 -0.0389  0.4274  0.4987
 8220SOL    HW125215   3.731   2.221   4.544 -0.4419  2.6017 -2.1639
 8220SOL    HW225216   3.817   2.178   4.428  2.0014 -0.3723  0.5708
 8221SOL     OW25217   6.443   1.571   6.015  0.5330 -0.0457 -0.0218
 8221SOL    HW125218   6.537   1.552   6.021  0.7752  0.9272 -0.4900
 8221SOL    HW225219   6.412   1.569   6.105  1.2192  0.6496  0.2362
 8222SOL     OW25220   7.246   4.016   0.203  0.0359  0.0316 -0.1030
 8222SOL    HW125221   7.157   4.018   0.239  0.3556 -1.2378  0.8455
 8222SOL    HW225222   7.241   4.068   0.123 -1.6001 -0.1667 -0.1634
 8223SOL     OW25223   6.039   4.359   2.571 -0.5092 -0.0704 -0.3627
 8223SOL    HW125224   6.086   4.419   2.512  0.1594 -0.2824 -0.0479
 8223SOL    HW225225   5.947   4.377   2.554 -0.3384 -0.4524 -1.8226
 8224SOL     OW25226   2.111   1.488   3.182 -0.8579  0.3335  0.4714
 8224SOL    HW125227   2.034   1.525   3.140 -0.0805  3.1695  1.3267
 8224SOL    HW225228   2.125   1.543   3.260  1.7543 -0.3160  0.5673
 8225SOL     OW25229   6.301   2.477   5.805  0.0740 -0.1064  0.1916
 8225SOL    HW125230   6.351   2.396   5.793 -0.3247 -0.0991 -1.8153
 8225SOL    HW225231   6.224   2.466   5.750 -0.7165  1.0751  1.0129
 8226SOL     OW25232   6.652   4.363   2.817  0.2849 -0.4390 -0.1775
 8226SOL    HW125233   6.682   4.280   2.780 -2.7911 -1.3729 -0.8748
 8226SOL    HW225234   6.625   4.415   2.741 -0.4355  0.0398  0.3912
 8227SOL     OW25235   3.166   1.666   4.741 -0.1460  0.2359  0.3042
 8227SOL    HW125236   3.080   1.653   4.702  0.4197  2.2825 -1.8782
 8227SOL    HW225237   3.195   1.579   4.766 -2.3903 -0.6277  0.0541
 8228SOL     OW25238   4.669   6.264   6.237 -0.0303  0.2621 -0.7194
 8228SOL    HW125239   4.763   6.244   6.236 -0.3566 -1.3722 -1.1081
 8228SOL    HW225240   4.638   6.241   6.150 -1.3526 -2.2972  0.3235
 8229SOL     OW25241   4.493   6.426   4.083 -0.0859 -0.4520  0.4643
 8229SOL    HW125242   4.553   6.463   4.018  0.2418  1.2786  1.6590
 8229SOL    HW225243   4.423   6.387   4.032 -0.1513  1.3594 -0.9446
 8230SOL     OW25244   3.214   5.678   6.526  0.0361 -0.7555 -0.2036
 8230SOL    HW125245   3.168   5.634   6.454 -0.1732 -0.3154 -0.3451
 8230SOL    HW225246   3.199   5.771   6.510  0.0994 -0.6495  0.3408
 8231SOL     OW25247   6.995   1.917   1.981 -0.2631  0.1003 -0.8181
 8231SOL    HW125248   7.033   1.929   1.894  0.0979 -0.7118 -0.7788
 8231SOL    HW225249   6.921   1.858   1.967  0.2132 -0.5890 -0.4822
 8232SOL     OW25250   1.831   1.463   4.876  0.6062 -0.4836  0.0749
 8232SOL    HW125251   1.908   1.407   4.881  0.5679 -0.6499 -0.9914
 8232SOL    HW225252   1.861   1.548   4.908  1.2583 -0.5302 -0.3916
 8233SOL     OW25253   2.140   3.286   2.962  0.0801 -0.4812 -0.0867
 8233SOL    HW125254   2.098   3.204   2.985 -0.2512 -0.3113 -0.0758
 8233SOL    HW225255   2.180   3.270   2.876  2.2260 -1.4532  1.0031
 8234SOL     OW25256   1.249   4.736   3.036  0.6094  0.2364 -0.0986
 8234SOL    HW125257   1.269   4.727   3.129  1.7647  1.1761 -0.2339
 8234SOL    HW225258   1.224   4.648   3.008  0.9656 -0.2075  0.9390
 8235SOL     OW25259   1.111   3.498   1.198  0.4200 -0.1602  0.5091
 8235SOL    HW125260   1.103   3.593   1.203  0.0364 -0.1575 -0.0416
 8235SOL    HW225261   1.040   3.465   1.254 -2.6865 -0.1223 -2.9697
 8236SOL     OW25262   0.905   0.197   2.306 -0.0050  0.5612  0.8225
 8236SOL    HW125263   0.981   0.158   2.265 -0.8802 -0.3294 -0.0009
 8236SOL    HW225264   0.849   0.123   2.330 -1.5917  1.2574 -0.5406
 8237SOL     OW25265   3.780   0.087   2.835 -0.1391  0.0693 -0.0320
 8237SOL    HW125266   3.868   0.116   2.860 -1.0567  0.8257  2.7129
 8237SOL    HW225267   3.752   0.149   2.768  1.7216 -0.7891 -1.7150
 8238SOL     OW25268   3.329   4.357   5.103  0.0849  0.2815  0.3147
 8238SOL    HW125269   3.413   4.326   5.072  0.7449  0.6761  1.6357
 8238SOL    HW225270   3.350   4.433   5.157 -0.9591 -0.5486  1.9555
 8239SOL     OW25271   1.129   6.961   3.171 -0.3646 -0.3508 -0.0074
 8239SOL    HW125272   1.142   6.993   3.261 -0.4480  0.2381 -0.2026
 8239SOL    HW225273   1.070   6.886   3.181 -0.3020 -0.3428  0.4405
 8240SOL     OW25274   3.415   4.008   3.752  0.2353  0.4944 -0.7079
 8240SOL    HW125275   3.507   4.024   3.772  0.0198  0.3891  0.4176
 8240SOL    HW225276   3.416   3.978   3.661  1.3405  0.2563 -0.6384
 8241SOL     OW25277   4.877   6.710   0.156 -0.3505  0.5469  0.4981
 8241SOL    HW125278   4.881   6.666   0.070  0.4848  0.9482  0.3203
 8241SOL    HW225279   4.905   6.800   0.138  0.5451  0.4467  1.3108
 8242SOL     OW25280   3.352   7.347   0.079  0.2612  0.2259  0.0892
 8242SOL    HW125281   3.372   7.422   0.136  0.1039  1.4413 -1.4093
 8242SOL    HW225282   3.316   7.386  -0.000 -0.9677 -1.5208 -0.2655
 8243SOL     OW25283   7.679   2.891   6.320 -0.1456 -0.1528  0.4023
 8243SOL    HW125284   7.647   2.893   6.410 -0.2573  0.1137  0.3581
 8243SOL    HW225285   7.758   2.837   6.323  1.2546  1.7970  1.1194
 8244SOL     OW25286   2.191   4.193   6.330  0.6987  0.0073 -0.0901
 8244SOL    HW125287   2.149   4.233   6.254 -0.0894  0.1453  0.4075
 8244SOL    HW225288   2.153   4.238   6.405  1.0949 -0.4774  0.4104
 8245SOL     OW25289   2.897   3.973   1.107  0.1694  0.5788  0.4105
 8245SOL    HW125290   2.808   3.980   1.073  1.0102  1.1156 -1.8689
 8245SOL    HW225291   2.934   3.898   1.062  1.4141  1.4224 -0.0191
 8246SOL     OW25292   5.514   4.157   0.581  0.6114  0.3436 -0.3548
 8246SOL    HW125293   5.487   4.157   0.673  0.5983 -2.4489 -0.2847
 8246SOL    HW225294   5.526   4.250   0.560 -0.7997  1.1536  2.0191
 8247SOL     OW25295   4.492   0.631   3.510 -0.0612  0.6986 -0.1624
 8247SOL    HW125296   4.440   0.582   3.445 -1.1833  0.3985  0.9161
 8247SOL    HW225297   4.525   0.563   3.570 -1.0216  1.1663  0.9301
 8248SOL     OW25298   1.909   7.037   3.014 -0.7254 -0.4127  0.1846
 8248SOL    HW125299   1.896   7.003   2.926 -0.8384 -0.0923  0.0765
 8248SOL    HW225300   1.834   7.004   3.064 -1.4343  0.5877 -0.1922
 8249SOL     OW25301   2.901   4.687   5.652  0.4433 -0.6337 -0.3227
 8249SOL    HW125302   2.914   4.782   5.647 -2.2956 -0.2176 -1.5866
 8249SOL    HW225303   2.864   4.673   5.739 -0.4730 -0.3008 -0.6432
 8250SOL     OW25304   1.488   2.673   5.571  0.3547 -0.4405 -0.3342
 8250SOL    HW125305   1.500   2.589   5.527 -0.6546 -0.3039 -0.8784
 8250SOL    HW225306   1.407   2.709   5.535  0.7554  0.7612 -0.0978
 8251SOL     OW25307   7.038   1.092   4.091  0.2393  0.1803 -0.4619
 8251SOL    HW125308   7.118   1.065   4.045  1.4033 -0.5262  1.8072
 8251SOL    HW225309   6.972   1.031   4.060  0.9633 -0.2491 -1.2201
 8252SOL     OW25310   0.169   0.687   0.350 -0.0032 -0.6016  0.0648
 8252SOL    HW125311   0.206   0.716   0.434 -0.3315  0.3496 -0.1071
 8252SOL    HW225312   0.242   0.689   0.289  0.6930 -3.0849  0.6912
 8253SOL     OW25313   4.026   5.745   7.515  0.4156 -0.0095 -0.1565
 8253SOL    HW125314   4.083   5.734   7.439  1.0799  0.5030  0.2495
 8253SOL    HW225315   3.945   5.782   7.480  0.6590  0.0818 -0.6349
 8254SOL     OW25316   3.504   0.912   6.512 -0.3084  0.2814 -0.0723
 8254SOL    HW125317   3.463   0.875   6.433 -0.4370 -0.3998  0.3037
 8254SOL    HW225318   3.590   0.940   6.483 -0.0703 -0.6382 -0.3069
 8255SOL     OW25319   3.091   0.211   3.006  0.9010  0.0306 -0.4334
 8255SOL    HW125320   3.041   0.179   3.082 -0.4551 -0.6970 -1.5767
 8255SOL    HW225321   3.180   0.221   3.039  0.2187  0.4570  1.4498
 8256SOL     OW25322   6.400   5.278   0.176  0.2750  0.3199 -0.1345
 8256SOL    HW125323   6.435   5.216   0.240  2.0211  0.1988 -1.1504
 8256SOL    HW225324   6.392   5.227   0.095 -2.6560  0.2575  0.1010
 8257SOL     OW25325   5.347   7.477   2.662  0.2022 -0.5290  0.0513
 8257SOL    HW125326   5.435   7.470   2.700 -0.2825  1.5995  1.7898
 8257SOL    HW225327   5.292   7.428   2.723 -0.0854 -0.0793  0.1587
 8258SOL     OW25328   5.120   0.051   7.139 -0.4932  0.2408 -0.3753
 8258SOL    HW125329   5.192   0.114   7.140  0.0968 -0.3696 -1.4181
 8258SOL    HW225330   5.041   0.104   7.144  0.0218  0.9465  0.5120
 8259SOL     OW25331   7.732   6.355   1.564 -0.2377 -0.3154 -0.5340
 8259SOL    HW125332   7.682   6.274   1.569  0.5899 -0.8186 -0.1731
 8259SOL    HW225333   7.781   6.358   1.646 -0.4092  0.6565 -0.4576
 8260SOL     OW25334   6.519   5.789   1.228  0.1428  0.1114  0.0759
 8260SOL    HW125335   6.499   5.711   1.175 -0.1912  0.4376 -0.2859
 8260SOL    HW225336   6.441   5.843   1.221  0.5334  0.6711 -0.0136
 8261SOL     OW25337   2.976   4.815   0.088 -0.6483  0.3880 -0.1785
 8261SOL    HW125338   3.028   4.755   0.034 -1.0284 -3.2880  3.0650
 8261SOL    HW225339   3.037   4.886   0.110  1.5842 -1.3841 -0.2463
 8262SOL     OW25340   0.719   4.744   1.334  0.6323 -0.0389 -0.1603
 8262SOL    HW125341   0.690   4.758   1.424  0.6287  2.0087 -0.4347
 8262SOL    HW225342   0.687   4.820   1.287 -0.6149 -1.7478 -2.2490
 8263SOL     OW25343   2.454   0.098   7.410 -0.4789 -0.1180 -0.2294
 8263SOL    HW125344   2.384   0.132   7.354  0.0231 -0.2261 -0.9316
 8263SOL    HW225345   2.412   0.086   7.495 -0.9883  1.0815 -0.2791
 8264SOL     OW25346   6.557   1.759   0.100 -0.1398 -0.3377  0.0308
 8264SOL    HW125347   6.626   1.819   0.071 -1.3958  1.2205  0.0940
 8264SOL    HW225348   6.483   1.779   0.042 -1.0212 -0.8647  0.9539
 8265SOL     OW25349   7.011   1.592   3.509 -0.0087  0.5006  0.1964
 8265SOL    HW125350   7.082   1.625   3.454  0.5753  0.5160  0.9305
 8265SOL    HW225351   6.995   1.661   3.573 -2.0397  1.3217 -1.1140
 8266SOL     OW25352   5.474   0.821   2.312 -0.5195  0.4788 -0.1968
 8266SOL    HW125353   5.381   0.814   2.290 -0.5388 -0.9002  0.2491
 8266SOL    HW225354   5.496   0.736   2.350  0.7226  1.0902  0.4950
 8267SOL     OW25355   7.217   0.386   0.535 -0.0315  0.6746 -0.3580
 8267SOL    HW125356   7.138   0.363   0.585  0.7493 -0.7536  0.2652
 8267SOL    HW225357   7.193   0.370   0.444 -1.1618  2.3980 -0.4112
 8268SOL     OW25358   3.213   6.957   7.598  0.1167 -0.1314 -0.1138
 8268SOL    HW125359   3.249   7.025   7.540  0.3417 -0.4535 -0.3547
 8268SOL    HW225360   3.221   6.994   7.686  0.6826 -0.0411 -0.2010
 8269SOL     OW25361   6.168   2.921   0.392 -0.1483 -0.6973  0.0979
 8269SOL    HW125362   6.171   3.016   0.395  0.1202 -0.6661 -0.8993
 8269SOL    HW225363   6.110   2.901   0.318  0.8447 -1.3004 -0.5401
 8270SOL     OW25364   1.084   5.802   0.206  0.2848  0.3452 -0.3774
 8270SOL    HW125365   1.037   5.835   0.283  0.1481  1.6721 -0.9936
 8270SOL    HW225366   1.152   5.867   0.190  0.7472 -0.2733 -0.9702
 8271SOL     OW25367   2.799   7.259   4.285 -0.1008 -0.2441 -0.0561
 8271SOL    HW125368   2.724   7.201   4.272 -1.6239  1.5783  0.2699
 8271SOL    HW225369   2.792   7.288   4.376  0.5654  0.5550 -0.2499
 8272SOL     OW25370   7.416   1.806   3.873 -0.3257 -0.0685 -0.2716
 8272SOL    HW125371   7.442   1.799   3.965 -1.9406 -0.1214  0.2139
 8272SOL    HW225372   7.401   1.715   3.846  0.0305 -0.0441 -0.5527
 8273SOL     OW25373   2.724   5.686   2.424 -0.3639 -0.0615 -0.6727
 8273SOL    HW125374   2.674   5.767   2.436  1.8908  1.5053 -1.1297
 8273SOL    HW225375   2.801   5.696   2.480  0.1654 -1.7336 -1.0270
 8274SOL     OW25376   6.052   3.042   7.707 -0.0967  0.0185 -0.0313
 8274SOL    HW125377   5.982   3.019   7.647 -0.1811  1.0005 -0.3078
 8274SOL    HW225378   6.079   3.130   7.682 -0.2015  0.4989  1.4161
 8275SOL     OW25379   7.195   1.748   2.109 -0.6068 -0.3531  0.0659
 8275SOL    HW125380   7.164   1.716   2.194 -0.2437  2.3098  1.3042
 8275SOL    HW225381   7.123   1.800   2.075 -0.4108 -0.6724 -0.8586
 8276SOL     OW25382   1.963   6.675   4.037  0.5891 -0.1547 -0.8151
 8276SOL    HW125383   1.923   6.593   4.008  1.1206 -1.0761  0.8891
 8276SOL    HW225384   1.895   6.717   4.089  0.5987  0.0572 -0.9768
 8277SOL     OW25385   7.172   2.338   1.680  0.1852  0.8785  0.1479
 8277SOL    HW125386   7.126   2.422   1.689 -1.5758 -0.2564  3.0385
 8277SOL    HW225387   7.265   2.362   1.681 -0.2090  2.9387 -1.9208
 8278SOL     OW25388   5.049   5.666   7.396  0.3477 -0.3804  0.9496
 8278SOL    HW125389   5.014   5.586   7.355  2.9589 -1.3591  0.4562
 8278SOL    HW225390   4.985   5.734   7.375 -1.2664 -2.0418  0.2032
 8279SOL     OW25391   6.669   5.000   1.705  0.2087  0.5796  0.5622
 8279SOL    HW125392   6.730   4.983   1.633 -2.8210 -0.3729 -2.0499
 8279SOL    HW225393   6.693   4.937   1.773  0.2899 -1.9709 -1.6488
 8280SOL     OW25394   6.487   3.806   7.225  0.2495  0.5366 -0.0787
 8280SOL    HW125395   6.399   3.780   7.251 -0.7649  2.4922 -1.3351
 8280SOL    HW225396   6.526   3.726   7.189 -1.6043  0.0077 -1.0227
 8281SOL     OW25397   4.014   5.048   6.677 -0.4842 -0.0590  0.0318
 8281SOL    HW125398   3.936   5.094   6.646  0.2689  0.5743 -0.9941
 8281SOL    HW225399   3.980   4.974   6.727 -1.7389  0.2687 -0.2991
 8282SOL     OW25400   5.987   1.084   3.934  0.0389 -0.0439 -0.0086
 8282SOL    HW125401   6.062   1.026   3.942  1.5384  1.2143 -3.0633
 8282SOL    HW225402   5.959   1.074   3.843 -0.7027  2.7197 -0.1694
 8283SOL     OW25403   5.109   2.503   7.538  0.1940  0.0288 -0.0670
 8283SOL    HW125404   5.160   2.518   7.617 -2.0033  2.0972  1.1078
 8283SOL    HW225405   5.045   2.436   7.563  1.0861 -1.1996 -0.9522
 8284SOL     OW25406   0.743   1.257   1.072 -0.2003 -0.0380  0.0920
 8284SOL    HW125407   0.709   1.287   0.988 -0.1576 -0.8087 -0.2100
 8284SOL    HW225408   0.712   1.322   1.136 -1.6435 -0.3527 -0.2634
 8285SOL     OW25409   7.235   4.557   7.733  0.4411 -0.4088  0.3309
 8285SOL    HW125410   7.313   4.555   7.678 -1.3355  1.1286 -2.4838
 8285SOL    HW225411   7.231   4.648   7.764 -1.4608  0.2772 -1.6686
 8286SOL     OW25412   2.216   7.004   2.711  0.3694  0.0712  0.3523
 8286SOL    HW125413   2.185   7.027   2.799 -1.1647 -0.5500  0.0234
 8286SOL    HW225414   2.282   6.937   2.726  2.0240  1.7996  1.1207
 8287SOL     OW25415   6.753   6.838   5.128  0.0637 -0.4326  0.1128
 8287SOL    HW125416   6.690   6.817   5.196 -0.0114  1.7565  0.7903
 8287SOL    HW225417   6.735   6.929   5.105  0.7713 -0.7744 -2.1162
 8288SOL     OW25418   4.613   5.557   6.422  0.6132  0.9352  0.0962
 8288SOL    HW125419   4.675   5.622   6.455  1.1237  0.9002 -0.7698
 8288SOL    HW225420   4.541   5.557   6.486  0.6685  2.2537  0.1794
 8289SOL     OW25421   4.100   5.759   0.853 -0.0649 -0.3488 -0.2282
 8289SOL    HW125422   4.052   5.744   0.934  0.8745 -1.8842  0.0711
 8289SOL    HW225423   4.071   5.690   0.794  1.0386 -0.7140 -0.3673
 8290SOL     OW25424   0.794   2.971   2.955  0.5097  0.0089 -0.0338
 8290SOL    HW125425   0.877   2.991   2.997 -0.1638  1.8947  0.4985
 8290SOL    HW225426   0.809   2.990   2.862  1.5863 -2.8394 -0.5487
 8291SOL     OW25427   6.561   2.599   3.327  0.1439  0.5857  0.1433
 8291SOL    HW125428   6.625   2.568   3.391  0.5040  0.5335 -0.2364
 8291SOL    HW225429   6.541   2.689   3.355 -0.9425  0.0260  1.2798
 8292SOL     OW25430   5.196   6.057   6.963  0.0863 -0.7350  0.1299
 8292SOL    HW125431   5.210   6.027   7.053 -0.9790  1.4766  1.1329
 8292SOL    HW225432   5.274   6.109   6.942 -0.7841  0.9490  0.8488
 8293SOL     OW25433   6.235   7.722   2.106 -0.2507  0.2809 -0.3899
 8293SOL    HW125434   6.211   7.724   2.199 -0.5045 -0.5702 -0.4312
 8293SOL    HW225435   6.331   7.721   2.106 -0.2559 -0.8476 -0.1022
 8294SOL     OW25436   5.750   3.551   5.812  0.5259  0.0316  0.3344
 8294SOL    HW125437   5.747   3.630   5.866 -1.3291  2.0892 -2.4899
 8294SOL    HW225438   5.690   3.490   5.857  0.6452  0.8458  1.6667
 8295SOL     OW25439   3.958   6.893   2.292  0.0748  0.0435  0.3695
 8295SOL    HW125440   3.937   6.970   2.238  0.4977 -0.3879 -0.4365
 8295SOL    HW225441   4.048   6.872   2.269 -0.2872 -1.1687 -0.0254
 8296SOL     OW25442   1.439   5.528   0.703 -0.0020  0.1733 -0.5440
 8296SOL    HW125443   1.472   5.542   0.615 -1.5920  0.3727 -1.1390
 8296SOL    HW225444   1.473   5.443   0.729  1.7335  0.7648 -0.7227
 8297SOL     OW25445   0.271   3.118   0.888 -0.9746 -0.3949  0.4595
 8297SOL    HW125446   0.287   3.031   0.851  1.2754  0.3668 -0.5429
 8297SOL    HW225447   0.355   3.143   0.926 -1.8578  0.9588  1.6242
 8298SOL     OW25448   5.024   4.895   3.972  0.4247 -0.6742  0.0865
 8298SOL    HW125449   5.089   4.887   3.902 -0.2661 -0.0606 -0.6450
 8298SOL    HW225450   5.076   4.918   4.050  1.1549 -0.9304 -0.3119
 8299SOL     OW25451   7.700   7.403   7.522  0.5561 -0.6240  0.2861
 8299SOL    HW125452   7.605   7.407   7.513  0.6750  0.7160 -0.6681
 8299SOL    HW225453   7.722   7.485   7.567  1.3416 -0.4198 -0.4532
 8300SOL     OW25454   0.291   6.468   5.133  0.8255  0.1015 -0.3640
 8300SOL    HW125455   0.380   6.436   5.118 -0.0680 -2.0015 -1.5636
 8300SOL    HW225456   0.256   6.482   5.045 -0.4429 -0.3034  0.0640
 8301SOL     OW25457   4.548   3.838   6.084 -0.5482 -0.2508 -0.2677
 8301SOL    HW125458   4.491   3.812   6.157 -1.0489  1.8529  0.1434
 8301SOL    HW225459   4.634   3.803   6.108 -1.3198 -2.3255 -0.2584
 8302SOL     OW25460   7.148   5.021   1.750  0.3246  0.0633  0.0766
 8302SOL    HW125461   7.191   5.096   1.708 -0.5156  0.6142  0.1675
 8302SOL    HW225462   7.068   5.008   1.699  0.9316 -1.4221 -0.5556
 8303SOL     OW25463   5.099   5.892   2.005 -0.3632  0.6375 -0.1757
 8303SOL    HW125464   5.095   5.797   2.017  1.0917  0.5341 -0.3283
 8303SOL    HW225465   5.014   5.916   1.968  0.0206 -0.9209 -2.2210
 8304SOL     OW25466   1.207   0.348   4.317 -0.5660  0.1040 -0.3675
 8304SOL    HW125467   1.136   0.370   4.379  0.2303  0.7472  0.3404
 8304SOL    HW225468   1.287   0.372   4.364  0.0851  0.0735 -1.4485
 8305SOL     OW25469   5.403   3.979   7.524 -0.7673  0.3729  0.1725
 8305SOL    HW125470   5.487   3.972   7.479 -1.3471  0.4858 -0.9618
 8305SOL    HW225471   5.426   4.005   7.614  0.5350 -1.8622  0.5468
 8306SOL     OW25472   5.853   3.055   5.416 -0.3953 -0.1349  0.5729
 8306SOL    HW125473   5.791   3.084   5.348 -0.8631 -3.0687 -0.3946
 8306SOL    HW225474   5.938   3.054   5.371 -0.9693 -3.9071 -0.7783
 8307SOL     OW25475   4.949   6.511   3.989 -0.3900  0.6002 -0.3633
 8307SOL    HW125476   5.016   6.578   3.972  0.6182 -0.7073 -1.8393
 8307SOL    HW225477   4.985   6.460   4.061  0.5731 -0.4931 -1.5705
 8308SOL     OW25478   0.466   4.723   1.516  0.2302 -0.1418  0.0780
 8308SOL    HW125479   0.434   4.651   1.571  1.4838 -1.2889 -0.6093
 8308SOL    HW225480   0.389   4.778   1.501 -1.0048 -1.7876 -0.0363
 8309SOL     OW25481   7.134   2.670   2.271  0.6718  0.6988 -0.1581
 8309SOL    HW125482   7.123   2.580   2.302 -0.0729  0.8077 -0.1043
 8309SOL    HW225483   7.210   2.702   2.321  0.1486  0.5210  0.7745
 8310SOL     OW25484   5.243   1.708   4.337 -0.2114  0.0747 -0.5794
 8310SOL    HW125485   5.223   1.626   4.292  0.7771  0.0742 -1.0556
 8310SOL    HW225486   5.221   1.776   4.274  1.9123  0.0520 -1.4399
 8311SOL     OW25487   7.502   3.504   7.062  0.0053  0.0091  0.1976
 8311SOL    HW125488   7.426   3.493   7.004 -0.2226 -1.2390  0.6943
 8311SOL    HW225489   7.551   3.577   7.024 -1.9040  1.4758  0.3751
 8312SOL     OW25490   5.826   0.796   2.902  0.0273  0.6528  0.5578
 8312SOL    HW125491   5.732   0.808   2.899 -0.2780 -1.4877 -0.0946
 8312SOL    HW225492   5.856   0.852   2.974 -1.4137  3.0475 -0.6226
 8313SOL     OW25493   0.865   7.530   6.669 -0.4008 -0.4990  0.3606
 8313SOL    HW125494   0.926   7.502   6.737  0.3820  3.1047  1.3605
 8313SOL    HW225495   0.786   7.556   6.716 -0.2775  0.9461 -0.1798
 8314SOL     OW25496   2.460   3.904   4.394 -0.0806  0.0785 -0.2080
 8314SOL    HW125497   2.554   3.909   4.411  0.1422 -0.5333 -1.2047
 8314SOL    HW225498   2.445   3.960   4.319 -0.8656  1.7847  1.1543
 8315SOL     OW25499   3.869   3.351   0.872  0.8862 -0.5508  0.2891
 8315SOL    HW125500   3.879   3.403   0.951 -1.4210  0.3780  0.0379
 8315SOL    HW225501   3.924   3.274   0.886 -0.3535 -1.0038  3.3521
 8316SOL     OW25502   1.264   3.741   1.174  0.2177 -0.2925  0.0687
 8316SOL    HW125503   1.208   3.775   1.243 -0.0053  0.2786 -0.3846
 8316SOL    HW225504   1.339   3.800   1.171  0.3487 -0.4596 -0.0104
 8317SOL     OW25505   5.676   1.688   2.470 -0.4395  0.8624  0.1456
 8317SOL    HW125506   5.662   1.760   2.409 -1.0532 -0.6002 -1.5299
 8317SOL    HW225507   5.724   1.622   2.420  0.7264  0.3628  1.8376
 8318SOL     OW25508   5.130   4.014   7.592 -0.2039  0.0252  0.1413
 8318SOL    HW125509   5.104   3.955   7.522  0.9102  1.5161 -1.6048
 8318SOL    HW225510   5.221   3.990   7.611  0.4920  1.5709 -1.0700
 8319SOL     OW25511   2.326   5.462   6.665  0.2915  0.1386 -0.7797
 8319SOL    HW125512   2.271   5.519   6.719  0.0919  0.0964 -0.9377
 8319SOL    HW225513   2.413   5.503   6.669  0.6556 -0.7294  0.8474
 8320SOL     OW25514   3.622   1.465   0.957 -0.0981 -0.5089  0.5334
 8320SOL    HW125515   3.555   1.429   1.014  0.9119 -0.3367  1.8741
 8320SOL    HW225516   3.621   1.409   0.880 -0.2634 -1.8640  1.4956
 8321SOL     OW25517   5.416   2.505   2.443 -0.2111  0.4957 -0.2068
 8321SOL    HW125518   5.421   2.548   2.357  0.4753  0.3516 -0.2468
 8321SOL    HW225519   5.507   2.488   2.466 -0.3318  1.2900  0.9481
 8322SOL     OW25520   7.143   4.952   0.878  0.1005  0.3045 -0.1693
 8322SOL    HW125521   7.181   4.932   0.793  0.1196  0.0883 -0.1108
 8322SOL    HW225522   7.143   4.868   0.925  0.9098  0.5878  0.3660
 8323SOL     OW25523   2.631   6.050   3.434 -0.6281  0.2662 -0.7942
 8323SOL    HW125524   2.623   6.028   3.341 -1.0114 -0.7729 -0.5185
 8323SOL    HW225525   2.691   6.125   3.435  0.0583 -0.2402 -1.8108
 8324SOL     OW25526   4.129   2.268   0.709 -0.5223 -0.3850 -0.3547
 8324SOL    HW125527   4.138   2.357   0.744 -0.0587 -0.3780 -0.4871
 8324SOL    HW225528   4.219   2.235   0.705 -0.8256 -1.7339  1.9120
 8325SOL     OW25529   1.251   6.385   4.604  0.1755  0.1332  0.1437
 8325SOL    HW125530   1.246   6.480   4.607  0.2042  0.1398 -0.0172
 8325SOL    HW225531   1.274   6.359   4.693 -0.2831  0.2496  0.2964
 8326SOL     OW25532   2.980   1.186   5.434 -0.0122  0.2435 -0.0394
 8326SOL    HW125533   2.999   1.126   5.362  0.3269  0.6830 -0.3204
 8326SOL    HW225534   3.048   1.253   5.428 -1.6257  1.8544 -1.0602
 8327SOL     OW25535   6.447   3.365   2.924  0.0679 -0.1979 -0.1772
 8327SOL    HW125536   6.496   3.428   2.871 -0.4342  1.2653  1.0011
 8327SOL    HW225537   6.488   3.370   3.011 -1.6741  0.5867  0.6669
 8328SOL     OW25538   4.598   4.102   4.271  0.2285 -0.0480  0.2662
 8328SOL    HW125539   4.514   4.139   4.244  1.2118  2.9376  0.8988
 8328SOL    HW225540   4.651   4.101   4.192  0.3678  0.4656  0.3479
 8329SOL     OW25541   4.808   4.601   5.215  0.3976  1.0315  0.3303
 8329SOL    HW125542   4.869   4.665   5.251  1.1991  0.5803 -0.1898
 8329SOL    HW225543   4.864   4.540   5.165 -0.6021  1.3660 -1.2694
 8330SOL     OW25544   4.758   4.855   7.696  0.5109 -0.4026 -0.0228
 8330SOL    HW125545   4.698   4.804   7.642  0.5729 -1.2039  0.6342
 8330SOL    HW225546   4.811   4.904   7.634 -1.5455  1.2199 -0.6138
 8331SOL     OW25547   3.981   6.085   3.812  0.0157  0.0050 -0.4011
 8331SOL    HW125548   3.936   6.002   3.799 -0.4757 -0.1252  1.7643
 8331SOL    HW225549   3.912   6.146   3.837  0.5736  0.7178 -0.5711
 8332SOL     OW25550   1.616   4.195   4.687  0.5318  0.2401 -0.1828
 8332SOL    HW125551   1.640   4.170   4.776 -0.7377  2.6654  0.9573
 8332SOL    HW225552   1.520   4.198   4.688  0.4036 -1.1764 -2.1396
 8333SOL     OW25553   1.205   2.965   5.814 -0.9504 -0.6456  0.4900
 8333SOL    HW125554   1.115   2.938   5.833 -1.2395 -0.3657 -0.4179
 8333SOL    HW225555   1.196   3.055   5.783 -0.3986 -0.7486  0.0349
 8334SOL     OW25556   7.667   2.671   4.860 -0.7242 -0.0345 -0.0822
 8334SOL    HW125557   7.719   2.747   4.885  1.9449 -1.1631 -1.8183
 8334SOL    HW225558   7.622   2.645   4.940  2.7233 -0.0020  2.0208
 8335SOL     OW25559   6.330   4.050   1.242  0.0098 -0.1403 -0.0594
 8335SOL    HW125560   6.283   4.120   1.287  0.6506  1.4703 -1.7284
 8335SOL    HW225561   6.262   3.992   1.210 -0.7522  1.0931 -0.7647
 8336SOL     OW25562   4.033   5.108   0.270  0.2438 -0.0758  0.2149
 8336SOL    HW125563   4.088   5.071   0.339 -0.6432 -0.7824  0.5622
 8336SOL    HW225564   3.973   5.167   0.316  0.4309  0.3870 -0.1152
 8337SOL     OW25565   5.300   1.703   6.158  0.0949 -0.0957  0.0875
 8337SOL    HW125566   5.292   1.682   6.251 -2.2919 -0.6997 -0.1748
 8337SOL    HW225567   5.225   1.659   6.117  1.1596  0.0375 -2.1487
 8338SOL     OW25568   3.930   2.319   5.248  0.4515  0.2788 -0.0521
 8338SOL    HW125569   3.988   2.389   5.217  0.3400 -0.1895 -1.3965
 8338SOL    HW225570   3.989   2.248   5.272  0.5051  0.3161 -0.0726
 8339SOL     OW25571   5.693   4.611   3.572  0.2260  0.4253 -0.2836
 8339SOL    HW125572   5.701   4.603   3.667  1.3468  0.5842 -0.3577
 8339SOL    HW225573   5.621   4.673   3.559  0.1097  0.4502  0.4634
 8340SOL     OW25574   2.854   3.624   6.186 -0.0765  0.2261 -0.8092
 8340SOL    HW125575   2.759   3.631   6.177 -0.1071 -0.7165 -1.2814
 8340SOL    HW225576   2.889   3.687   6.123 -0.3717 -1.6616 -2.9895
 8341SOL     OW25577   6.316   2.693   7.387 -0.1413 -0.0308 -0.4821
 8341SOL    HW125578   6.270   2.774   7.365 -0.5481 -0.4045 -1.0299
 8341SOL    HW225579   6.263   2.624   7.348 -0.3444 -0.6489  0.8611
 8342SOL     OW25580   0.651   2.560   1.283 -0.3447  0.1808 -0.0177
 8342SOL    HW125581   0.602   2.491   1.238 -0.5160 -0.6339  1.3627
 8342SOL    HW225582   0.666   2.525   1.371  0.6231  1.4183  0.3358
 8343SOL     OW25583   0.747   0.458   1.962 -0.3616  0.0477  0.4295
 8343SOL    HW125584   0.759   0.387   1.900  0.9391 -1.1168  1.9158
 8343SOL    HW225585   0.836   0.487   1.983 -0.8429  1.6249  0.4195
 8344SOL     OW25586   2.652   3.030   3.629 -0.3197  0.2095  0.3641
 8344SOL    HW125587   2.714   2.970   3.587  0.5149  1.8658 -0.8658
 8344SOL    HW225588   2.698   3.114   3.633 -2.1870  1.3029  0.1479
 8345SOL     OW25589   0.964   0.489   6.569 -0.2739 -0.0651 -0.1075
 8345SOL    HW125590   0.872   0.509   6.555 -0.4364 -0.4013  0.4488
 8345SOL    HW225591   0.975   0.492   6.664  0.7769  2.1225 -0.2272
 8346SOL     OW25592   6.704   3.956   0.937 -0.5191  0.0074 -0.0582
 8346SOL    HW125593   6.664   4.028   0.985 -0.0709 -0.0239  0.3661
 8346SOL    HW225594   6.750   3.998   0.864 -1.3520  0.0403 -0.5773
 8347SOL     OW25595   7.270   2.765   4.487 -0.3181 -0.0517  0.3266
 8347SOL    HW125596   7.353   2.760   4.535 -1.9146 -0.4085  3.3564
 8347SOL    HW225597   7.215   2.697   4.528 -2.8903  1.8273  0.2631
 8348SOL     OW25598   5.964   6.767   4.178  0.4930  0.4829 -0.1407
 8348SOL    HW125599   5.948   6.831   4.108  0.3799 -1.3824 -1.9005
 8348SOL    HW225600   6.055   6.781   4.202  0.1114  2.1813  0.4701
 8349SOL     OW25601   2.546   7.423   6.876 -0.6153 -0.0394 -0.7386
 8349SOL    HW125602   2.635   7.434   6.844 -0.4271  0.8049  0.0307
 8349SOL    HW225603   2.493   7.483   6.823 -0.3586  1.1007  0.2530
 8350SOL     OW25604   2.612   7.522   2.322 -0.5453 -0.6330 -0.4885
 8350SOL    HW125605   2.660   7.444   2.295  1.6449  0.5411 -0.2229
 8350SOL    HW225606   2.587   7.506   2.413  1.8950 -0.1907  0.3258
 8351SOL     OW25607   5.467   5.073   6.296  0.1951 -0.0840  0.5518
 8351SOL    HW125608   5.431   5.017   6.228  0.4696 -0.3449  0.6214
 8351SOL    HW225609   5.528   5.017   6.344  0.9658  0.4501  0.2138
 8352SOL     OW25610   5.487   7.053   5.424  0.0209 -0.0201  0.6146
 8352SOL    HW125611   5.576   7.066   5.456  0.1186 -2.2237  1.3712
 8352SOL    HW225612   5.435   7.119   5.471  1.3372  1.9766 -0.5827
 8353SOL     OW25613   0.735   3.673   1.405  0.2766 -0.2874  0.0786
 8353SOL    HW125614   0.740   3.704   1.314  0.8343  0.3390  0.3142
 8353SOL    HW225615   0.656   3.619   1.407 -2.0637  2.8461  0.1834
 8354SOL     OW25616   6.266   5.811   7.401 -0.5082  0.0693  0.7197
 8354SOL    HW125617   6.270   5.874   7.472 -3.1895  0.1498  0.9125
 8354SOL    HW225618   6.350   5.820   7.356 -0.0436  2.3662  1.8922
 8355SOL     OW25619   2.283   3.908   5.703  0.1437 -0.3318  0.2479
 8355SOL    HW125620   2.208   3.872   5.655  1.2259 -0.6796 -1.2325
 8355SOL    HW225621   2.275   4.003   5.692 -0.8491 -0.2600  1.3292
 8356SOL     OW25622   2.650   3.279   0.992  0.1505  0.1304 -0.1758
 8356SOL    HW125623   2.569   3.329   0.984 -0.5282 -0.6833  1.3239
 8356SOL    HW225624   2.622   3.188   0.999  1.2366 -0.2230 -0.2365
 8357SOL     OW25625   3.433   5.957   0.469  0.5626  0.1391 -0.5334
 8357SOL    HW125626   3.419   6.013   0.545  1.8332 -0.4660  0.1701
 8357SOL    HW225627   3.514   5.990   0.430 -0.0648  0.4279 -1.6210
 8358SOL     OW25628   1.634   2.604   2.582 -0.0741  0.1265  0.3063
 8358SOL    HW125629   1.705   2.602   2.646 -0.1019 -0.3563  0.3238
 8358SOL    HW225630   1.650   2.529   2.525  0.9669  1.5435 -1.3710
 8359SOL     OW25631   5.525   5.943   3.631  0.0829  0.3125 -0.7482
 8359SOL    HW125632   5.525   5.858   3.675  1.4928  0.7781  0.2025
 8359SOL    HW225633   5.458   5.934   3.563 -1.4354 -0.7801  0.7884
 8360SOL     OW25634   3.338   3.754   4.852 -0.1506 -0.2090  0.0427
 8360SOL    HW125635   3.379   3.695   4.916  0.9143 -1.0841 -1.3966
 8360SOL    HW225636   3.312   3.698   4.780 -3.8057  0.3259  0.7242
 8361SOL     OW25637   3.537   4.035   3.128 -0.2789  0.2480 -0.0698
 8361SOL    HW125638   3.610   3.991   3.085 -0.5034 -1.7138  1.4229
 8361SOL    HW225639   3.517   4.109   3.071  1.9634  0.0522 -1.2232
 8362SOL     OW25640   3.729   7.626   4.838 -0.0824  0.4377  0.1005
 8362SOL    HW125641   3.677   7.574   4.899 -0.3127  0.6430  0.0848
 8362SOL    HW225642   3.810   7.578   4.827  0.0275  0.4813  0.7027
 8363SOL     OW25643   2.646   4.201   4.898  0.1666 -0.0459 -0.0558
 8363SOL    HW125644   2.675   4.224   4.810 -1.8412 -0.8987 -0.9877
 8363SOL    HW225645   2.570   4.145   4.885 -0.2971 -0.0533  2.2359
 8364SOL     OW25646   1.992   2.837   3.503 -0.7505  0.2391 -0.2888
 8364SOL    HW125647   2.064   2.860   3.445  1.2956 -1.2152  1.4899
 8364SOL    HW225648   2.015   2.875   3.587  0.0167 -3.2910  1.3119
 8365SOL     OW25649   7.367   6.598   4.637 -0.3375 -0.5092 -0.0289
 8365SOL    HW125650   7.366   6.632   4.727 -0.7835  1.4654 -0.7134
 8365SOL    HW225651   7.277   6.606   4.607 -0.4029 -2.1426 -0.3346
 8366SOL     OW25652   7.135   6.623   0.882 -0.4294 -0.1463  0.4830
 8366SOL    HW125653   7.091   6.666   0.809  0.0956 -0.5752 -0.0948
 8366SOL    HW225654   7.121   6.681   0.957  0.9554  1.4453 -0.4352
 8367SOL     OW25655   7.316   4.608   7.365  0.5312  0.9128  0.6540
 8367SOL    HW125656   7.232   4.632   7.402 -1.7347 -1.4078 -2.4038
 8367SOL    HW225657   7.322   4.513   7.376  2.3036  0.8872 -0.0290
 8368SOL     OW25658   3.757   3.841   4.820  0.0608  0.2817  0.4963
 8368SOL    HW125659   3.688   3.816   4.758  1.9899 -0.7187 -1.3770
 8368SOL    HW225660   3.779   3.932   4.797  0.3107  0.1355  0.1510
 8369SOL     OW25661   0.922   7.627   0.196 -0.1164  0.4822  0.4396
 8369SOL    HW125662   0.972   7.567   0.140 -0.8244  0.4014 -0.1173
 8369SOL    HW225663   0.905   7.577   0.276 -0.5897 -0.0290  0.0312
 8370SOL     OW25664   5.186   5.498   4.465  0.0597 -0.1138  0.1454
 8370SOL    HW125665   5.240   5.438   4.515 -0.2401 -0.3814  0.1479
 8370SOL    HW225666   5.232   5.509   4.382  0.9435  0.9033  0.7435
 8371SOL     OW25667   6.968   0.904   4.625 -0.8095  0.1621  0.7494
 8371SOL    HW125668   6.952   0.829   4.683 -0.4413 -0.1712  0.4276
 8371SOL    HW225669   6.950   0.981   4.679 -0.3093 -0.1375  1.3514
 8372SOL     OW25670   7.695   6.415   5.074 -0.4157  0.4850 -0.0365
 8372SOL    HW125671   7.668   6.413   4.982 -0.9797  1.0899  0.1038
 8372SOL    HW225672   7.716   6.507   5.091  1.7310  0.0396 -0.1089
 8373SOL     OW25673   5.346   0.769   1.991 -0.1813 -0.1284 -0.0291
 8373SOL    HW125674   5.282   0.758   2.061 -0.1012  2.0281  0.4344
 8373SOL    HW225675   5.297   0.747   1.911 -1.2063  0.4742  0.4138
 8374SOL     OW25676   2.024   0.206   4.379  0.2650 -0.4488  0.5668
 8374SOL    HW125677   1.944   0.160   4.353  0.4710 -0.9866  0.8826
 8374SOL    HW225678   1.996   0.260   4.453 -0.2778  0.9453 -0.6075
 8375SOL     OW25679   0.262   0.461   3.123  0.0489 -0.1490  0.7031
 8375SOL    HW125680   0.303   0.492   3.204 -1.1739 -0.9153  1.6436
 8375SOL    HW225681   0.315   0.500   3.053 -0.0342  2.1331  1.8359
 8376SOL     OW25682   4.931   3.837   5.537  0.0487  0.0290  0.1250
 8376SOL    HW125683   4.988   3.853   5.612 -1.4382  1.1077  1.0961
 8376SOL    HW225684   4.989   3.843   5.461  1.3687  0.2093  1.1062
 8377SOL     OW25685   3.331   4.151   6.419  0.2256  0.6628 -0.3936
 8377SOL    HW125686   3.355   4.116   6.505  0.0774 -0.2651 -0.7104
 8377SOL    HW225687   3.236   4.155   6.420  0.0201 -1.8698 -1.3950
 8378SOL     OW25688   3.317   3.133   6.682 -0.2937 -0.0519 -0.2121
 8378SOL    HW125689   3.233   3.168   6.712 -0.6658 -0.7693 -0.4062
 8378SOL    HW225690   3.313   3.040   6.703  0.2184 -0.1978 -0.7577
 8379SOL     OW25691   1.957   4.999   0.647 -0.0616 -0.1409  0.3453
 8379SOL    HW125692   1.895   5.062   0.610 -1.1515 -1.2953  0.1341
 8379SOL    HW225693   1.912   4.963   0.724  0.0222 -1.4829 -0.1940
 8380SOL     OW25694   4.221   6.196   2.531 -0.6339 -0.4789 -0.4907
 8380SOL    HW125695   4.265   6.183   2.615  0.3744  1.3993 -0.6857
 8380SOL    HW225696   4.273   6.144   2.470  0.9506  1.0912 -0.5741
 8381SOL     OW25697   6.728   3.585   3.917  0.3891  0.5410 -0.2237
 8381SOL    HW125698   6.698   3.673   3.941  0.9681  0.3938  1.1221
 8381SOL    HW225699   6.651   3.529   3.930  0.5548  0.5490  0.8614
 8382SOL     OW25700   2.496   0.941   5.966  0.0932 -0.0764 -0.0107
 8382SOL    HW125701   2.521   0.850   5.954  0.9933  0.2960 -1.1647
 8382SOL    HW225702   2.453   0.965   5.883 -1.4491  0.1580  0.8120
 8383SOL     OW25703   2.195   1.753   3.369  0.1299  0.3541  0.1699
 8383SOL    HW125704   2.123   1.802   3.329  1.2813  1.3871 -0.7150
 8383SOL    HW225705   2.156   1.712   3.447 -1.2887  1.2639 -0.0250
 8384SOL     OW25706   3.890   2.572   4.082  0.1561  0.0829 -0.4629
 8384SOL    HW125707   3.971   2.621   4.065  0.4744  0.0075  0.6927
 8384SOL    HW225708   3.921   2.484   4.106 -0.2062  0.2813  0.7856
 8385SOL     OW25709   7.557   6.811   4.600 -0.1463 -0.6354  0.5789
 8385SOL    HW125710   7.508   6.893   4.592  0.7917 -0.1829 -0.8682
 8385SOL    HW225711   7.490   6.743   4.603 -0.9082  0.1080  0.6837
 8386SOL     OW25712   2.892   2.787   3.802  1.0359  0.5149  0.2262
 8386SOL    HW125713   2.879   2.834   3.884  0.1460  0.1215  0.3201
 8386SOL    HW225714   2.936   2.850   3.745  0.2527  1.3218  0.4970
 8387SOL     OW25715   4.948   6.551   2.200 -0.2975  0.2942 -0.7832
 8387SOL    HW125716   5.001   6.472   2.192 -0.8095  0.0504 -2.2586
 8387SOL    HW225717   4.862   6.519   2.227 -0.2115  0.4653 -0.3114
 8388SOL     OW25718   6.959   5.707   5.561  0.1156 -0.1482 -0.3606
 8388SOL    HW125719   6.992   5.668   5.642  0.1648  0.2365 -0.1906
 8388SOL    HW225720   6.974   5.641   5.494 -2.8736 -1.8894  0.4695
 8389SOL     OW25721   4.834   3.545   6.981  0.1561 -0.3801 -0.2737
 8389SOL    HW125722   4.859   3.567   6.892  0.6367 -1.3398 -0.3889
 8389SOL    HW225723   4.891   3.472   7.005 -0.3684 -0.5212  0.6087
 8390SOL     OW25724   1.604   2.451   5.779 -0.6254  0.0193 -0.1688
 8390SOL    HW125725   1.608   2.487   5.690  0.1431 -0.1954 -0.2285
 8390SOL    HW225726   1.611   2.528   5.836 -0.0180  0.0694 -0.2983
 8391SOL     OW25727   2.883   7.245   1.679 -0.4524  0.1487  0.0767
 8391SOL    HW125728   2.895   7.151   1.671  0.4972  0.0924  1.6991
 8391SOL    HW225729   2.863   7.275   1.590  0.1753 -1.4432 -0.6310
 8392SOL     OW25730   5.252   5.150   2.048 -0.1218 -0.2472 -0.0978
 8392SOL    HW125731   5.240   5.112   1.960  0.6383  1.9954 -1.2596
 8392SOL    HW225732   5.294   5.234   2.031 -0.8708  0.6911  2.3845
 8393SOL     OW25733   2.061   4.946   5.380 -0.0948  0.1946 -0.1379
 8393SOL    HW125734   2.061   5.037   5.351  1.3248 -0.6464 -3.1220
 8393SOL    HW225735   2.132   4.941   5.444  0.2355  1.0572 -0.4278
 8394SOL     OW25736   4.654   2.474   1.554 -0.3225 -0.9578 -1.0335
 8394SOL    HW125737   4.716   2.514   1.614 -0.5552 -1.4939 -0.4276
 8394SOL    HW225738   4.708   2.429   1.489 -0.0543 -2.3639  0.1179
 8395SOL     OW25739   5.770   6.458   3.412 -0.2027 -0.0485 -0.4344
 8395SOL    HW125740   5.840   6.523   3.408 -1.0656  0.8965 -0.8655
 8395SOL    HW225741   5.773   6.424   3.501  1.2490 -0.5581 -0.6471
 8396SOL     OW25742   0.380   5.838   1.041 -0.1402  0.3375  0.0680
 8396SOL    HW125743   0.440   5.912   1.034 -0.5670  0.7005  0.2057
 8396SOL    HW225744   0.295   5.874   1.016 -0.1081 -0.4432 -1.2350
 8397SOL     OW25745   7.531   0.706   2.763 -0.2189 -0.5403  0.0979
 8397SOL    HW125746   7.480   0.787   2.767 -0.2306 -0.6041  1.6011
 8397SOL    HW225747   7.510   0.660   2.844  0.2854 -1.7568 -0.4368
 8398SOL     OW25748   5.515   3.828   0.861  0.1203 -0.1721  0.3215
 8398SOL    HW125749   5.476   3.801   0.944 -1.5423  2.1293  0.3897
 8398SOL    HW225750   5.609   3.828   0.876 -0.1311 -0.3345  2.0196
 8399SOL     OW25751   2.453   1.774   4.240  0.2869  0.1850 -0.0779
 8399SOL    HW125752   2.502   1.692   4.230  1.5492  0.7221  1.2954
 8399SOL    HW225753   2.502   1.822   4.307 -1.4151  1.3215  0.3948
 8400SOL     OW25754   5.699   3.839   0.041 -0.0493  0.3895  0.5028
 8400SOL    HW125755   5.689   3.793   0.124  0.8210 -0.0811  0.3593
 8400SOL    HW225756   5.625   3.810  -0.012  0.5150 -0.8910  0.3960
 8401SOL     OW25757   5.640   4.183   6.037  0.7502  0.7131 -0.3072
 8401SOL    HW125758   5.583   4.106   6.035  0.6180  0.7232  1.2670
 8401SOL    HW225759   5.726   4.152   6.009  1.1590 -0.4811  2.0330
 8402SOL     OW25760   0.429   7.117   3.946  0.1930 -0.3302 -0.1406
 8402SOL    HW125761   0.456   7.078   3.862  0.9273  0.3557 -0.2318
 8402SOL    HW225762   0.381   7.196   3.921  2.7248  1.4034  0.0566
 8403SOL     OW25763   0.340   3.899   6.923 -0.5705 -1.0195 -0.4157
 8403SOL    HW125764   0.408   3.863   6.979 -0.3242 -1.9125 -1.2557
 8403SOL    HW225765   0.311   3.978   6.968 -0.4794 -1.7765  1.0145
 8404SOL     OW25766   6.366   2.677   4.456 -0.8412  0.5909 -0.3246
 8404SOL    HW125767   6.328   2.592   4.433  1.3071 -0.4414 -0.2541
 8404SOL    HW225768   6.351   2.685   4.550 -0.0103 -0.3014 -0.1002
 8405SOL     OW25769   4.828   6.839   2.864  0.4487 -0.1827 -0.3907
 8405SOL    HW125770   4.775   6.786   2.804 -0.3508 -0.0914  0.2314
 8405SOL    HW225771   4.799   6.813   2.951 -0.0712  1.3922 -0.0709
 8406SOL     OW25772   5.647   5.114   3.835  0.0320  0.2135 -0.7366
 8406SOL    HW125773   5.578   5.052   3.860  1.0591 -0.3018  1.0095
 8406SOL    HW225774   5.727   5.061   3.832  0.8755  1.3434  0.4345
 8407SOL     OW25775   6.770   5.130   3.304  0.0701  0.2214  0.1806
 8407SOL    HW125776   6.783   5.036   3.309 -0.1596  0.0535 -1.6284
 8407SOL    HW225777   6.822   5.158   3.228  0.9352  1.7118  1.2766
 8408SOL     OW25778   5.329   6.338   7.619 -0.3560  0.0146 -0.4770
 8408SOL    HW125779   5.365   6.286   7.691  0.9227  0.3687 -0.8411
 8408SOL    HW225780   5.286   6.412   7.663 -0.1996 -0.1466 -0.0459
 8409SOL     OW25781   5.821   0.627   5.109  0.4557 -0.7392  0.2676
 8409SOL    HW125782   5.814   0.570   5.032  0.0682 -0.7330  0.2967
 8409SOL    HW225783   5.797   0.572   5.183  1.0396 -0.8029  0.4121
 8410SOL     OW25784   4.301   6.155   5.454 -0.4030  0.3536 -0.8053
 8410SOL    HW125785   4.209   6.176   5.466 -0.0824  1.1092  0.5203
 8410SOL    HW225786   4.303   6.061   5.440 -1.1628 -0.1478  1.9654
 8411SOL     OW25787   4.502   6.059   7.274  0.1695 -0.9187 -0.2768
 8411SOL    HW125788   4.560   6.082   7.347  0.9046  1.4910 -1.5205
 8411SOL    HW225789   4.561   6.054   7.198 -0.9541 -0.6186 -1.1835
 8412SOL     OW25790   5.068   7.072   1.187  0.0328  0.0169 -0.1883
 8412SOL    HW125791   5.159   7.081   1.156  0.1918  0.3101  0.3570
 8412SOL    HW225792   5.021   7.143   1.143  0.1096 -0.0005 -0.3009
 8413SOL     OW25793   5.379   6.444   5.612  0.6745 -0.2701 -0.0447
 8413SOL    HW125794   5.314   6.375   5.618  0.6943 -0.3927 -1.0156
 8413SOL    HW225795   5.454   6.402   5.570  0.3117  0.5636 -1.6135
 8414SOL     OW25796   4.756   3.363   0.286 -0.3219  0.1643  0.0451
 8414SOL    HW125797   4.700   3.418   0.231  0.1233  0.1413 -0.4390
 8414SOL    HW225798   4.836   3.414   0.297 -0.5909  0.3973  1.1111
 8415SOL     OW25799   2.305   7.049   3.668 -0.4150 -0.2903 -0.0645
 8415SOL    HW125800   2.390   7.035   3.625  0.1938 -1.9152  1.5509
 8415SOL    HW225801   2.247   6.985   3.628 -0.8326  0.5961 -0.9290
 8416SOL     OW25802   0.357   3.924   0.217 -0.1115 -0.3514 -0.1269
 8416SOL    HW125803   0.338   3.989   0.285  2.1015 -1.1989  1.4106
 8416SOL    HW225804   0.330   3.966   0.135 -2.6043  0.8202  1.1856
 8417SOL     OW25805   5.680   4.127   7.110 -0.1375 -0.7933 -0.0640
 8417SOL    HW125806   5.603   4.180   7.132  0.3841 -1.0387  2.7311
 8417SOL    HW225807   5.750   4.191   7.101 -0.4215 -0.6588 -1.6088
 8418SOL     OW25808   3.231   5.555   7.657  0.5434  0.4505 -0.1022
 8418SOL    HW125809   3.320   5.583   7.640  0.8238 -1.0550 -1.3026
 8418SOL    HW225810   3.224   5.557   7.753  1.9434  0.3432  0.0262
 8419SOL     OW25811   1.232   2.055   4.611 -0.4038 -0.4608 -0.4784
 8419SOL    HW125812   1.159   2.028   4.554 -1.1485 -2.0879  1.1601
 8419SOL    HW225813   1.234   1.989   4.680  0.9191  1.0629  1.0136
 8420SOL     OW25814   3.624   7.462   5.817  0.0773  0.4128  0.1074
 8420SOL    HW125815   3.711   7.490   5.846  0.8858 -1.3267 -0.5354
 8420SOL    HW225816   3.580   7.435   5.898 -0.3607  2.4612  0.6035
 8421SOL     OW25817   0.202   4.861   6.672  0.3183  0.2821  0.0122
 8421SOL    HW125818   0.172   4.847   6.761  1.9646  1.1261  0.7323
 8421SOL    HW225819   0.236   4.776   6.644 -3.2713 -0.9514 -1.1398
 8422SOL     OW25820   6.010   6.382   1.179  0.0499  0.5507 -0.2885
 8422SOL    HW125821   5.968   6.461   1.213 -0.1957  0.1554  0.3338
 8422SOL    HW225822   5.940   6.316   1.176  0.4463  0.1071  0.0142
 8423SOL     OW25823   4.803   2.171   7.054  0.3749  0.2656  0.1403
 8423SOL    HW125824   4.812   2.163   7.149  1.0281 -0.9009 -0.0114
 8423SOL    HW225825   4.790   2.082   7.023  0.8593  0.5613 -0.9481
 8424SOL     OW25826   7.601   1.092   5.923  0.1588 -0.2552 -0.1741
 8424SOL    HW125827   7.612   1.106   6.017 -1.4153 -0.9493  0.1481
 8424SOL    HW225828   7.571   1.176   5.890  0.2483 -0.1455  0.0178
 8425SOL     OW25829   7.024   7.552   2.829 -0.2580 -0.2555  0.0270
 8425SOL    HW125830   6.968   7.626   2.806  1.9135  1.9350  1.3812
 8425SOL    HW225831   7.054   7.517   2.745 -2.8251 -0.9231 -0.6941
 8426SOL     OW25832   6.474   3.510   5.067 -0.1324 -0.2360  0.0569
 8426SOL    HW125833   6.567   3.486   5.072  0.0169  0.6361  3.2113
 8426SOL    HW225834   6.475   3.606   5.063 -0.9151 -0.2520 -0.8382
 8427SOL     OW25835   2.489   6.970   4.196 -0.4744  0.5473 -0.8230
 8427SOL    HW125836   2.519   6.909   4.128 -2.2041 -0.6214 -0.6169
 8427SOL    HW225837   2.433   6.916   4.252  0.4566  1.6163  1.2259
 8428SOL     OW25838   4.191   4.752   4.107 -0.0310  0.2244 -0.0691
 8428SOL    HW125839   4.277   4.712   4.117 -0.0886  0.1078 -0.0449
 8428SOL    HW225840   4.129   4.679   4.107 -0.1350  0.3108 -0.0281
 8429SOL     OW25841   1.153   7.733   7.612 -0.1494  0.3440 -0.1642
 8429SOL    HW125842   1.151   7.822   7.646  0.5906  0.2717  0.0744
 8429SOL    HW225843   1.186   7.679   7.684 -0.2604 -0.0715 -0.4162
 8430SOL     OW25844   5.839   3.847   5.194 -0.0868 -0.2316  0.0819
 8430SOL    HW125845   5.930   3.867   5.215 -0.7467  2.1837  0.8996
 8430SOL    HW225846   5.789   3.876   5.270 -1.7310  0.4575 -1.2037
 8431SOL     OW25847   0.935   1.123   7.000 -0.1967  0.2338 -0.7971
 8431SOL    HW125848   0.956   1.198   7.055 -1.0035 -1.2320  1.6710
 8431SOL    HW225849   0.918   1.161   6.913 -1.4870  3.0080  0.5378
 8432SOL     OW25850   5.672   7.473   5.954  0.2090  0.1121  0.4629
 8432SOL    HW125851   5.616   7.406   5.913  0.7214  2.3149 -4.6092
 8432SOL    HW225852   5.758   7.459   5.915  0.7762  2.5097  0.7052
 8433SOL     OW25853   2.135   2.744   2.040  0.2309  0.6227 -0.3282
 8433SOL    HW125854   2.071   2.726   1.971  0.5198  0.6875 -0.6162
 8433SOL    HW225855   2.173   2.828   2.015  1.1513  0.1010 -0.7064
 8434SOL     OW25856   3.082   3.162   6.493  0.1478 -0.3509 -0.2335
 8434SOL    HW125857   3.063   3.205   6.576 -0.4404  0.2566 -0.6726
 8434SOL    HW225858   3.034   3.213   6.428 -0.4760 -1.5998 -0.7882
 8435SOL     OW25859   5.074   2.894   2.032  0.1267 -0.0768 -0.0701
 8435SOL    HW125860   5.034   2.809   2.017  0.4133 -0.2229 -0.0090
 8435SOL    HW225861   5.009   2.942   2.084 -0.1618 -0.1490 -0.3609
 8436SOL     OW25862   1.931   5.895   1.186  0.0309 -0.1517 -0.6403
 8436SOL    HW125863   1.899   5.818   1.233  0.4079 -0.2379 -0.5193
 8436SOL    HW225864   1.852   5.947   1.169 -0.0523  0.1962  0.6740
 8437SOL     OW25865   3.913   0.719   1.883  0.1495 -0.0448  0.1793
 8437SOL    HW125866   4.004   0.748   1.884  1.0709 -2.7088  0.3229
 8437SOL    HW225867   3.896   0.698   1.791 -0.1256 -0.1917  0.2629
 8438SOL     OW25868   3.591   4.655   4.536 -0.6079  0.0548  0.8805
 8438SOL    HW125869   3.536   4.600   4.592 -1.3849 -0.2745 -0.1709
 8438SOL    HW225870   3.563   4.744   4.556 -1.1703 -0.0832  0.7388
 8439SOL     OW25871   6.950   5.928   5.434  0.5067 -0.2932  0.4790
 8439SOL    HW125872   7.039   5.961   5.423 -0.1429  0.9813 -1.6389
 8439SOL    HW225873   6.961   5.845   5.481  2.8870 -0.5994 -0.4541
 8440SOL     OW25874   1.099   3.999   1.094 -0.3814 -0.5591 -0.3488
 8440SOL    HW125875   1.046   3.923   1.118 -0.9904 -1.0341 -2.8578
 8440SOL    HW225876   1.156   3.966   1.024  1.3273  0.6325  0.4202
 8441SOL     OW25877   3.329   5.110   1.209 -0.1287 -0.6026 -0.3054
 8441SOL    HW125878   3.234   5.101   1.212 -0.0780 -1.1865 -0.3509
 8441SOL    HW225879   3.362   5.023   1.231  0.4037 -0.1918  0.5474
 8442SOL     OW25880   0.377   2.184   6.173  0.0215  0.0978 -0.1554
 8442SOL    HW125881   0.428   2.223   6.243  1.5464 -0.6006 -0.8282
 8442SOL    HW225882   0.435   2.189   6.096 -0.4881 -1.7178 -0.6917
 8443SOL     OW25883   1.522   0.956   7.095  0.0653 -0.3228  0.1232
 8443SOL    HW125884   1.596   1.013   7.073 -1.4120  1.5233 -0.3178
 8443SOL    HW225885   1.557   0.895   7.160  2.0943  0.1224 -0.4841
 8444SOL     OW25886   3.888   2.104   0.789  0.7351 -0.0812 -0.1863
 8444SOL    HW125887   3.965   2.161   0.793  1.4604 -1.0961  1.2385
 8444SOL    HW225888   3.833   2.134   0.861  0.2841 -0.0239 -0.5575
 8445SOL     OW25889   6.050   2.878   3.129  0.0589 -0.0504  0.3502
 8445SOL    HW125890   5.991   2.936   3.177  0.3362 -0.1392  0.8154
 8445SOL    HW225891   6.137   2.898   3.165  0.1700 -0.6708  0.4375
 8446SOL     OW25892   6.171   1.997   1.335 -0.3235  0.8985 -0.6972
 8446SOL    HW125893   6.186   1.956   1.250 -0.4799 -0.7570  0.0378
 8446SOL    HW225894   6.259   2.017   1.368 -0.1618 -0.1175 -0.4819
 8447SOL     OW25895   1.282   6.930   4.283 -0.1459  0.2645  0.3065
 8447SOL    HW125896   1.267   6.901   4.373  1.9667  0.2706  0.7150
 8447SOL    HW225897   1.311   7.021   4.291  1.3487 -0.1340 -0.2200
 8448SOL     OW25898   4.057   4.759   3.486  0.4952  0.3348  0.3024
 8448SOL    HW125899   4.121   4.693   3.461  0.0820 -0.1325  0.4711
 8448SOL    HW225900   3.986   4.710   3.528 -0.0005  0.8360  0.0686
 8449SOL     OW25901   2.323   3.937   3.593  0.0144 -0.6541 -0.4482
 8449SOL    HW125902   2.233   3.906   3.591 -0.7497  1.3611  0.1473
 8449SOL    HW225903   2.329   3.990   3.672  0.8045  1.7368 -1.9927
 8450SOL     OW25904   3.320   3.747   6.513 -0.5396  1.1347 -0.6289
 8450SOL    HW125905   3.384   3.703   6.569 -0.4767 -1.1466 -2.3275
 8450SOL    HW225906   3.250   3.772   6.572  0.6121  1.0525  0.8331
 8451SOL     OW25907   7.030   6.528   4.376  0.0598  0.2580  0.6443
 8451SOL    HW125908   7.084   6.532   4.455 -0.6856  2.0765  1.1311
 8451SOL    HW225909   6.997   6.617   4.366  0.7304  0.2733 -2.1743
 8452SOL     OW25910   5.446   3.596   2.754 -0.5132  0.6055  0.8581
 8452SOL    HW125911   5.476   3.533   2.688 -2.1901 -0.5276  1.1045
 8452SOL    HW225912   5.379   3.647   2.708  1.0541  2.4890  0.5666
 8453SOL     OW25913   4.851   4.369   3.601 -0.2798 -0.2487  0.3280
 8453SOL    HW125914   4.767   4.359   3.646  0.9967  0.8148  3.1581
 8453SOL    HW225915   4.843   4.451   3.553 -0.6201  0.2153  1.1689
 8454SOL     OW25916   7.169   4.565   1.699 -0.2532 -0.7709  0.2049
 8454SOL    HW125917   7.139   4.485   1.742 -0.7892  0.3282  1.9555
 8454SOL    HW225918   7.116   4.570   1.619  0.0365 -2.3212 -0.1093
 8455SOL     OW25919   7.093   4.816   4.770  0.2553  0.2660 -0.7225
 8455SOL    HW125920   7.056   4.740   4.815  1.4648 -0.7277 -1.3292
 8455SOL    HW225921   7.038   4.890   4.797  0.4073 -0.4200  1.7016
 8456SOL     OW25922   2.074   2.939   0.409  0.3125  0.3108 -0.3218
 8456SOL    HW125923   1.995   2.897   0.373 -1.1422  0.6298  2.2827
 8456SOL    HW225924   2.136   2.939   0.336 -1.8334 -0.6078 -2.2751
 8457SOL     OW25925   3.332   5.685   4.290 -0.0747 -0.6580 -0.2546
 8457SOL    HW125926   3.327   5.654   4.200  1.6481  0.2408 -0.6981
 8457SOL    HW225927   3.323   5.780   4.283  0.8127 -0.5090  0.4191
 8458SOL     OW25928   4.870   7.671   0.366 -0.3291 -0.0168  0.6786
 8458SOL    HW125929   4.855   7.762   0.393 -0.4539 -0.1587  1.0924
 8458SOL    HW225930   4.799   7.621   0.407 -0.1277 -0.3344  0.6466
 8459SOL     OW25931   7.194   0.007   3.906  0.2624 -0.2585  0.1284
 8459SOL    HW125932   7.196  -0.010   4.000 -0.6084 -1.8717 -0.1118
 8459SOL    HW225933   7.120  -0.044   3.873  0.7830 -0.0408 -1.4902
 8460SOL     OW25934   0.522   1.435   7.263  0.4432 -0.3291 -0.2599
 8460SOL    HW125935   0.474   1.481   7.332 -0.8659 -2.2004  0.1522
 8460SOL    HW225936   0.525   1.497   7.190  0.4700  1.1006  0.8986
 8461SOL     OW25937   0.909   7.261   4.145  0.6333  0.0031 -0.3354
 8461SOL    HW125938   0.850   7.190   4.121 -0.0059  0.2658  0.3940
 8461SOL    HW225939   0.852   7.324   4.190  1.2616  0.7857 -0.6205
 8462SOL     OW25940   0.211   1.666   1.816 -0.5421 -0.3764  0.1582
 8462SOL    HW125941   0.286   1.651   1.874  0.1635  1.0614 -0.3442
 8462SOL    HW225942   0.165   1.582   1.814  0.1372 -0.8232  1.7702
 8463SOL     OW25943   0.883   2.619   2.469  0.0417  0.0905 -0.0320
 8463SOL    HW125944   0.827   2.656   2.537  1.6641  1.9994  0.3561
 8463SOL    HW225945   0.822   2.594   2.399 -1.3870  1.0998  0.7912
 8464SOL     OW25946   1.738   6.683   3.441 -0.3068 -0.1879 -0.4473
 8464SOL    HW125947   1.811   6.734   3.476 -0.7344 -0.2758  0.5932
 8464SOL    HW225948   1.735   6.707   3.348 -1.0684  2.3912  0.1731
 8465SOL     OW25949   4.965   1.084   7.635 -0.3852 -0.1076 -0.6549
 8465SOL    HW125950   5.007   1.000   7.619  0.5670 -0.3100  2.3136
 8465SOL    HW225951   5.031   1.149   7.613 -0.1144 -0.2570 -0.2862
 8466SOL     OW25952   1.907   5.452   2.859 -0.9062  0.6679  0.5185
 8466SOL    HW125953   1.826   5.495   2.830 -0.2883  1.5297  0.0633
 8466SOL    HW225954   1.900   5.363   2.824 -1.6240  0.7572  0.4185
 8467SOL     OW25955   0.156   2.772   2.304 -0.1427  0.2292  0.4144
 8467SOL    HW125956   0.084   2.745   2.247  0.8932  0.4685 -1.1026
 8467SOL    HW225957   0.149   2.717   2.381 -0.9327 -0.9686 -0.4742
 8468SOL     OW25958   1.286   2.388   5.231 -0.5637 -0.3117  0.1485
 8468SOL    HW125959   1.222   2.320   5.211 -1.5392  0.5143  0.4001
 8468SOL    HW225960   1.336   2.353   5.305 -0.9458 -0.8067  0.1780
 8469SOL     OW25961   4.166   7.628   7.436 -0.0285 -0.1364 -0.7021
 8469SOL    HW125962   4.235   7.563   7.420  0.0822 -0.6844  1.6406
 8469SOL    HW225963   4.090   7.593   7.389  0.3982 -1.2521 -0.6126
 8470SOL     OW25964   2.400   7.728   2.290 -0.5375  0.0367 -0.0240
 8470SOL    HW125965   2.385   7.673   2.213 -0.8057 -0.5973  0.4656
 8470SOL    HW225966   2.450   7.672   2.349  0.9637  1.0217 -0.3260
 8471SOL     OW25967   7.087   0.924   2.287 -0.3256  0.0787 -0.2095
 8471SOL    HW125968   7.145   0.915   2.211 -0.4239  0.8763 -0.3858
 8471SOL    HW225969   7.080   1.018   2.301  1.0181 -0.0711  1.8194
 8472SOL     OW25970   1.888   6.058   3.074 -0.2284 -0.3236  0.0211
 8472SOL    HW125971   1.852   5.976   3.108 -1.6486 -0.1593 -0.9727
 8472SOL    HW225972   1.812   6.116   3.067  0.1777  0.0461 -2.1749
 8473SOL     OW25973   2.868   2.185   6.024 -0.2257 -0.0042  0.1163
 8473SOL    HW125974   2.907   2.210   6.109 -0.1484 -0.3634  0.1853
 8473SOL    HW225975   2.783   2.229   6.024 -1.7149 -2.6036  1.8304
 8474SOL     OW25976   7.157   5.404   4.570  0.2136  0.0447 -0.1904
 8474SOL    HW125977   7.112   5.488   4.567  0.4189  0.1923  0.7503
 8474SOL    HW225978   7.112   5.350   4.505  1.4685  1.5438 -2.4579
 8475SOL     OW25979   4.164   0.554   4.829 -0.1040  0.5350 -0.2853
 8475SOL    HW125980   4.221   0.483   4.800 -1.7457 -0.9002 -0.1130
 8475SOL    HW225981   4.128   0.590   4.748 -0.2976  0.2894 -0.3086
 8476SOL     OW25982   3.111   4.827   3.556 -0.5460 -0.4909 -0.3253
 8476SOL    HW125983   3.095   4.906   3.506 -1.2971 -0.8688 -0.6958
 8476SOL    HW225984   3.099   4.756   3.492  0.9409 -0.8810 -0.2137
 8477SOL     OW25985   3.365   4.971   3.473 -0.2913 -0.4560 -0.5349
 8477SOL    HW125986   3.293   4.974   3.410 -1.6440  0.8081  0.9719
 8477SOL    HW225987   3.396   4.881   3.470 -1.8425 -0.9931 -1.3284
 8478SOL     OW25988   7.213   6.095   2.213  0.1555 -0.7204 -0.1787
 8478SOL    HW125989   7.148   6.165   2.209  1.1744  0.3908  1.3346
 8478SOL    HW225990   7.164   6.017   2.239 -0.6414 -0.0206  0.4500
 8479SOL     OW25991   1.333   6.834   0.201 -0.2778  0.2421 -0.6218
 8479SOL    HW125992   1.385   6.801   0.274 -2.3478  1.8145  1.7371
 8479SOL    HW225993   1.258   6.775   0.197  0.0879 -0.1669 -1.9177
 8480SOL     OW25994   5.348   3.707   7.545  0.4032  0.1601 -0.8600
 8480SOL    HW125995   5.294   3.678   7.472 -0.3888 -0.2857 -0.1132
 8480SOL    HW225996   5.353   3.803   7.535 -1.8097  0.4169 -0.1161
 8481SOL     OW25997   6.941   1.391   5.623  0.0237  0.3113  0.3057
 8481SOL    HW125998   6.885   1.465   5.648 -1.9642 -1.1290  0.4202
 8481SOL    HW225999   6.885   1.338   5.565  1.0775 -1.5082  0.8808
 8482SOL     OW26000   2.484   2.986   1.774  0.0844 -0.4548 -0.8818
 8482SOL    HW126001   2.457   3.001   1.683 -1.8969 -3.4793 -0.9644
 8482SOL    HW226002   2.498   2.891   1.778  1.3290 -0.2244  1.7054
 8483SOL     OW26003   5.089   0.629   5.863 -0.1661  0.4688  0.1756
 8483SOL    HW126004   5.016   0.650   5.921 -1.1137  0.2056 -0.8985
 8483SOL    HW226005   5.056   0.559   5.807  0.4787  1.1953 -1.1566
 8484SOL     OW26006   6.242   2.525   6.228 -0.1159  0.2862  0.7889
 8484SOL    HW126007   6.329   2.496   6.258 -0.7514 -0.8223  1.6310
 8484SOL    HW226008   6.260   2.571   6.146  1.0273 -2.2303 -0.4962
 8485SOL     OW26009   3.843   7.721   4.257  0.3858  0.1388 -0.3237
 8485SOL    HW126010   3.776   7.739   4.191  0.6289 -0.9573 -0.8981
 8485SOL    HW226011   3.797   7.728   4.341 -0.5229 -0.8257 -0.7162
 8486SOL     OW26012   3.743   4.210   5.980 -1.0744 -0.6230 -0.3623
 8486SOL    HW126013   3.774   4.292   6.018 -1.6172 -0.2155 -0.7906
 8486SOL    HW226014   3.744   4.225   5.885 -1.8230 -0.8707 -0.4160
 8487SOL     OW26015   1.519   6.740   0.803  0.0298 -0.4736  0.7417
 8487SOL    HW126016   1.562   6.689   0.871  0.9425 -0.2313  0.3635
 8487SOL    HW226017   1.551   6.829   0.816 -1.5068  0.0020  1.3637
 8488SOL     OW26018   1.852   4.865   6.256 -0.3371  0.1375  0.0798
 8488SOL    HW126019   1.763   4.900   6.252 -0.0293  0.7907 -1.5855
 8488SOL    HW226020   1.849   4.785   6.203  0.0651  0.1608  0.0160
 8489SOL     OW26021   7.662   2.906   5.667 -0.0724  0.4365 -0.0006
 8489SOL    HW126022   7.757   2.911   5.655 -0.2507  0.4455 -1.6923
 8489SOL    HW226023   7.643   2.970   5.736  1.2936 -0.7038  1.5257
 8490SOL     OW26024   6.363   5.337   6.927  0.1419  0.3800  0.2834
 8490SOL    HW126025   6.280   5.356   6.971 -0.7134 -2.9135  0.3744
 8490SOL    HW226026   6.351   5.370   6.838 -1.3685 -0.1246  0.2575
 8491SOL     OW26027   0.213   2.859   5.718  0.0661 -0.0070  0.1941
 8491SOL    HW126028   0.213   2.772   5.677 -0.9141 -0.1003  0.3690
 8491SOL    HW226029   0.205   2.841   5.811 -3.2311  0.2850  0.0694
 8492SOL     OW26030   7.636   0.772   0.842 -0.1756 -0.4475 -0.1759
 8492SOL    HW126031   7.653   0.705   0.908  1.1434 -1.4954 -1.5171
 8492SOL    HW226032   7.643   0.855   0.890  2.3386 -1.1060  0.7296
 8493SOL     OW26033   1.863   3.319   2.145 -0.3213  0.3242 -0.3426
 8493SOL    HW126034   1.807   3.328   2.068 -0.3708  0.4258 -0.2946
 8493SOL    HW226035   1.949   3.349   2.116 -0.0368 -0.8013 -0.7135
 8494SOL     OW26036   1.258   6.373   0.154  0.3016 -0.3628 -0.2495
 8494SOL    HW126037   1.352   6.361   0.165  0.3182  0.1212  0.1720
 8494SOL    HW226038   1.245   6.390   0.061  0.7904  0.9870 -0.0863
 8495SOL     OW26039   2.002   6.375   2.769 -0.0638 -0.5601  0.2643
 8495SOL    HW126040   2.053   6.439   2.819 -2.4799  0.8613  1.1009
 8495SOL    HW226041   1.966   6.316   2.835  1.5382 -2.4301 -0.4369
 8496SOL     OW26042   0.176   6.215   6.071  0.8770 -0.3425  0.3054
 8496SOL    HW126043   0.272   6.220   6.066  0.7700  0.5415 -1.2567
 8496SOL    HW226044   0.150   6.295   6.117  1.0086 -2.0473  3.6557
 8497SOL     OW26045   3.740   5.648   5.733  0.1294  0.1214  0.6044
 8497SOL    HW126046   3.703   5.700   5.661  3.1064  0.9790 -0.4369
 8497SOL    HW226047   3.691   5.565   5.730 -0.2808  0.3741 -2.0296
 8498SOL     OW26048   0.723   4.713   3.644  0.3016  0.0080 -0.6029
 8498SOL    HW126049   0.809   4.755   3.641  0.2151  0.1932 -3.7065
 8498SOL    HW226050   0.721   4.656   3.567 -1.7574 -1.2611  0.3110
 8499SOL     OW26051   7.070   3.634   7.205  0.2036 -0.8226 -0.1015
 8499SOL    HW126052   7.102   3.586   7.129  0.1960 -2.0292  0.6195
 8499SOL    HW226053   7.141   3.695   7.226 -0.0491 -0.0566 -1.4116
 8500SOL     OW26054   2.714   1.061   0.423  0.2160  0.2600 -0.4346
 8500SOL    HW126055   2.642   1.055   0.486 -0.7599  1.0858 -1.4330
 8500SOL    HW226056   2.738   0.970   0.407  0.1457  0.0138  0.7379
 8501SOL     OW26057   4.962   5.130   5.042  0.3389 -0.0485  0.0493
 8501SOL    HW126058   5.022   5.152   4.971  0.9668  1.2527  0.9520
 8501SOL    HW226059   4.878   5.114   4.998  0.8152  0.3024 -1.0199
 8502SOL     OW26060   0.390   6.049   4.485 -0.8564 -0.1496 -0.0612
 8502SOL    HW126061   0.369   6.011   4.570  0.0459 -0.6626 -0.0468
 8502SOL    HW226062   0.368   5.981   4.422  1.1423 -0.9327 -0.0078
 8503SOL     OW26063   0.665   1.616   5.728 -0.2141  0.4253  0.5695
 8503SOL    HW126064   0.664   1.533   5.680  1.9770  0.2668  0.6845
 8503SOL    HW226065   0.618   1.677   5.672  0.1494 -0.3566 -0.6323
 8504SOL     OW26066   4.121   0.346   4.380 -0.3512 -0.0986  0.3129
 8504SOL    HW126067   4.202   0.391   4.357 -0.5787 -0.4880 -1.3255
 8504SOL    HW226068   4.150   0.264   4.422  0.0606  0.7312  1.7253
 8505SOL     OW26069   5.492   3.798   6.763 -0.2082  0.1354 -0.4231
 8505SOL    HW126070   5.402   3.792   6.794  0.5692 -1.8844  1.7344
 8505SOL    HW226071   5.538   3.844   6.833  0.4880  1.2042 -1.5301
 8506SOL     OW26072   6.120   2.543   7.292 -0.0998 -0.5709 -0.2072
 8506SOL    HW126073   6.053   2.474   7.291  0.9069 -1.9138  3.8699
 8506SOL    HW226074   6.072   2.623   7.308 -1.1257 -0.4710 -3.2003
 8507SOL     OW26075   0.952   2.268   5.306  0.0185  0.2093 -0.2848
 8507SOL    HW126076   0.958   2.251   5.212  0.8003  0.4457 -0.2824
 8507SOL    HW226077   0.949   2.363   5.314  0.6830  0.2179 -0.0390
 8508SOL     OW26078   2.697   1.007   7.112 -0.3980 -0.4806 -0.3363
 8508SOL    HW126079   2.628   1.003   7.178  1.1548  0.0193  1.4052
 8508SOL    HW226080   2.779   1.013   7.162  0.8530  0.1262 -2.3060
 8509SOL     OW26081   6.409   2.167   1.223  0.3226  0.4019 -0.5139
 8509SOL    HW126082   6.462   2.088   1.231  1.6545  1.1381 -1.5500
 8509SOL    HW226083   6.393   2.195   1.313 -1.3690 -1.7747 -0.0647
 8510SOL     OW26084   3.014   0.981   3.316  0.1749  0.0909 -0.5665
 8510SOL    HW126085   3.100   1.018   3.298 -0.1882  0.7894 -0.8963
 8510SOL    HW226086   2.963   1.054   3.351 -0.4025 -0.2131 -0.7554
 8511SOL     OW26087   3.380   0.273   6.398 -0.0615  0.1053  0.9934
 8511SOL    HW126088   3.475   0.270   6.409  0.1062  2.2591  0.5199
 8511SOL    HW226089   3.345   0.251   6.484  0.8549 -0.5906  1.2008
 8512SOL     OW26090   0.191   7.082   4.365 -0.4652 -0.0756 -1.0351
 8512SOL    HW126091   0.151   7.133   4.294 -3.9089  1.9877  2.0631
 8512SOL    HW226092   0.133   7.007   4.378  0.6310 -0.9363 -0.9117
 8513SOL     OW26093   2.391   3.026   5.195  0.0342  0.7443 -0.4758
 8513SOL    HW126094   2.482   2.998   5.207  0.0188  0.6004 -0.6841
 8513SOL    HW226095   2.398   3.105   5.141  0.1288  1.6211  0.7775
 8514SOL     OW26096   1.921   7.073   1.557 -0.0840  0.2039  0.2852
 8514SOL    HW126097   1.826   7.065   1.547 -0.0225  0.9155 -1.0524
 8514SOL    HW226098   1.933   7.129   1.634 -0.6990 -0.9971  1.2994
 8515SOL     OW26099   0.564   2.929   6.010  0.2077 -0.3785 -0.6343
 8515SOL    HW126100   0.584   2.940   6.103  1.3715 -0.6451 -0.8397
 8515SOL    HW226101   0.578   3.016   5.972  0.8814 -0.5418 -0.7610
 8516SOL     OW26102   2.076   6.066   5.095 -0.6109 -0.5859 -0.0286
 8516SOL    HW126103   2.130   6.109   5.028 -1.1119  0.8105  0.4145
 8516SOL    HW226104   2.139   6.023   5.152 -0.1177 -0.9295 -0.8066
 8517SOL     OW26105   5.078   7.421   6.504  0.7640  0.5009 -0.2799
 8517SOL    HW126106   4.993   7.383   6.483  0.4799  1.1706 -0.3447
 8517SOL    HW226107   5.071   7.448   6.595  1.6353 -1.3965  0.4067
 8518SOL     OW26108   3.157   2.835   4.111  0.2305 -0.3339  0.3235
 8518SOL    HW126109   3.091   2.895   4.075  0.4069  0.6127  1.4845
 8518SOL    HW226110   3.207   2.807   4.035  0.7381  1.7659 -0.2022
 8519SOL     OW26111   2.909   6.861   5.237  0.4794 -0.2665 -0.1374
 8519SOL    HW126112   2.900   6.955   5.250 -0.0230 -0.1452 -1.1901
 8519SOL    HW226113   2.880   6.822   5.319 -0.3706  0.4752 -0.0705
 8520SOL     OW26114   2.512   1.799   5.733  0.8928 -0.4279 -0.2926
 8520SOL    HW126115   2.418   1.780   5.727  1.1079 -1.3609 -0.9120
 8520SOL    HW226116   2.523   1.836   5.821 -0.3354  1.4516 -0.8657
 8521SOL     OW26117   2.441   6.225   3.510  0.2099 -0.3842 -0.1792
 8521SOL    HW126118   2.375   6.259   3.450 -1.2303 -1.9873  0.4155
 8521SOL    HW226119   2.502   6.177   3.454  1.7019  2.1844 -0.8946
 8522SOL     OW26120   4.212   2.779   2.735 -0.7610 -0.1821 -0.3188
 8522SOL    HW126121   4.229   2.801   2.827 -3.1150  1.7013 -0.2141
 8522SOL    HW226122   4.177   2.860   2.698 -1.1476 -1.2937 -2.5163
 8523SOL     OW26123   0.480   0.459   4.443  0.6102 -0.3673  0.2041
 8523SOL    HW126124   0.411   0.434   4.382  1.1030 -0.0387 -0.4917
 8523SOL    HW226125   0.435   0.508   4.512 -0.0611 -1.4019  0.5233
 8524SOL     OW26126   7.052   1.358   0.675  0.1188 -0.3127  0.5775
 8524SOL    HW126127   7.132   1.346   0.625  0.8847  0.8172  1.4685
 8524SOL    HW226128   7.003   1.277   0.663  1.4438 -1.0644  0.0896
 8525SOL     OW26129   7.099   2.212   0.154  0.2968 -0.1628  0.2179
 8525SOL    HW126130   7.051   2.135   0.182  1.3519 -0.8600  0.1779
 8525SOL    HW226131   7.170   2.220   0.218  0.6661  0.3040 -0.2429
 8526SOL     OW26132   6.926   2.151   7.230  0.1037 -0.0890 -0.6764
 8526SOL    HW126133   7.002   2.167   7.287 -1.0385  4.0258 -0.0051
 8526SOL    HW226134   6.964   2.142   7.142  1.5175 -1.0694 -0.0072
 8527SOL     OW26135   3.861   5.676   2.087  0.0807 -0.3048  0.4127
 8527SOL    HW126136   3.910   5.620   2.146  1.5052 -0.8838 -1.2241
 8527SOL    HW226137   3.900   5.660   2.001 -0.1143  2.4686 -0.2875
 8528SOL     OW26138   7.696   4.359   2.514 -0.0945 -0.1173 -0.0159
 8528SOL    HW126139   7.755   4.291   2.547  0.1312  0.6810  1.3347
 8528SOL    HW226140   7.713   4.363   2.420  0.0173 -1.7735 -0.0905
 8529SOL     OW26141   7.675   2.386   7.462  0.6810 -0.6476 -0.7403
 8529SOL    HW126142   7.699   2.301   7.498  1.6490 -0.2545 -0.4022
 8529SOL    HW226143   7.734   2.448   7.506 -2.1302  0.6726  1.4821
 8530SOL     OW26144   1.485   6.976   5.003  0.8569 -0.0279 -0.2999
 8530SOL    HW126145   1.450   7.000   5.088  0.1827 -0.2088 -0.5253
 8530SOL    HW226146   1.568   7.023   4.997  0.2968  0.9968 -0.0797
 8531SOL     OW26147   6.770   5.663   6.970  0.3340  0.4307 -0.0643
 8531SOL    HW126148   6.692   5.617   6.937  0.5295  0.2917 -0.3333
 8531SOL    HW226149   6.817   5.596   7.019  0.2164  0.5508  0.2148
 8532SOL     OW26150   5.343   2.391   3.175 -0.5095  0.3314 -0.1251
 8532SOL    HW126151   5.317   2.431   3.258 -0.7959 -1.0549  0.4701
 8532SOL    HW226152   5.261   2.371   3.130 -0.4412 -1.0120  0.2961
 8533SOL     OW26153   2.314   3.236   0.482  0.1481  0.0591  0.3667
 8533SOL    HW126154   2.383   3.173   0.501  1.4331  1.7653  1.7768
 8533SOL    HW226155   2.323   3.303   0.550 -1.3113  1.6120 -0.8552
 8534SOL     OW26156   0.178   6.418   2.392 -0.2453 -0.1066 -0.2119
 8534SOL    HW126157   0.158   6.372   2.310 -0.4671 -0.6107  0.1158
 8534SOL    HW226158   0.097   6.411   2.443  0.5975 -1.8291  0.9759
 8535SOL     OW26159   3.824   1.969   6.209 -0.0923  0.4660 -0.7886
 8535SOL    HW126160   3.798   2.038   6.148 -0.1148  0.7086 -0.5058
 8535SOL    HW226161   3.769   1.894   6.186  0.5744  0.2428 -1.7073
 8536SOL     OW26162   2.207   6.939   5.256  0.1142 -0.5008 -0.0440
 8536SOL    HW126163   2.303   6.929   5.254 -0.0414 -2.3148 -1.8003
 8536SOL    HW226164   2.175   6.856   5.291 -0.8538 -0.8274 -1.5957
 8537SOL     OW26165   1.729   3.597   4.107  0.4876 -0.3032  0.1238
 8537SOL    HW126166   1.706   3.539   4.179 -0.4051 -0.8909 -0.6174
 8537SOL    HW226167   1.686   3.680   4.128  1.1472 -0.1235  0.8075
 8538SOL     OW26168   5.857   0.286   1.875  0.3135  0.2960 -0.0236
 8538SOL    HW126169   5.807   0.210   1.904 -0.2194  0.8474  0.5261
 8538SOL    HW226170   5.948   0.265   1.898  0.4891 -1.0327 -1.7013
 8539SOL     OW26171   0.409   3.368   4.314  0.3955  0.5631  0.2464
 8539SOL    HW126172   0.448   3.324   4.389 -0.4288 -0.8089 -0.1107
 8539SOL    HW226173   0.318   3.384   4.340  0.1850  0.3416 -0.3524
 8540SOL     OW26174   6.227   4.799   0.900  0.0645 -0.2966 -0.3541
 8540SOL    HW126175   6.220   4.856   0.823  0.8325 -0.8819 -0.8704
 8540SOL    HW226176   6.288   4.844   0.958 -2.0356  1.1454  0.8474
 8541SOL     OW26177   2.909   0.125   7.598 -0.0223 -0.5985  0.0493
 8541SOL    HW126178   2.920   0.063   7.671  0.6333 -1.1729 -0.5232
 8541SOL    HW226179   2.983   0.186   7.607 -0.3361 -0.2511  0.2709
 8542SOL     OW26180   7.189   0.534   4.500  0.2457  0.2569 -0.6888
 8542SOL    HW126181   7.155   0.501   4.417  0.2810 -1.1936 -0.1419
 8542SOL    HW226182   7.275   0.493   4.509  0.3770  0.6528 -0.0779
 8543SOL     OW26183   7.238   0.679   7.384  0.3380  0.1842 -0.1646
 8543SOL    HW126184   7.142   0.672   7.385  0.2211  0.2418 -2.9177
 8543SOL    HW226185   7.267   0.627   7.458 -1.8363  0.9404  1.3240
 8544SOL     OW26186   4.560   0.639   2.754  0.0588 -0.3353 -0.3581
 8544SOL    HW126187   4.591   0.701   2.688  0.3334  0.9907  0.9556
 8544SOL    HW226188   4.609   0.558   2.736  2.7371  1.0276  0.2950
 8545SOL     OW26189   4.541   3.176   7.464 -0.1418 -0.0131 -0.3244
 8545SOL    HW126190   4.554   3.214   7.377  1.6286  0.0834 -0.0540
 8545SOL    HW226191   4.598   3.228   7.521 -2.3699  0.9060  1.2067
 8546SOL     OW26192   6.126   3.683   5.925  0.1997 -0.5700  0.1563
 8546SOL    HW126193   6.146   3.768   5.887  2.4068 -0.4808  1.3666
 8546SOL    HW226194   6.094   3.631   5.851  0.3627  0.8081 -0.9323
 8547SOL     OW26195   1.735   7.124   4.387  0.0395  0.1931 -0.5153
 8547SOL    HW126196   1.680   7.106   4.463 -0.9482  1.7170 -0.8424
 8547SOL    HW226197   1.691   7.079   4.315 -0.1203  0.4117 -0.5543
 8548SOL     OW26198   6.470   7.255   5.476 -0.0563 -0.1481 -0.3835
 8548SOL    HW126199   6.401   7.313   5.442 -1.5370 -0.6080  1.6770
 8548SOL    HW226200   6.523   7.312   5.532 -1.2830 -0.6177  1.3328
 8549SOL     OW26201   5.914   5.711   2.034 -0.0311 -0.2421 -0.1841
 8549SOL    HW126202   5.855   5.650   1.990  0.4707  0.0705 -1.3071
 8549SOL    HW226203   5.967   5.655   2.092  0.6906 -0.9652 -1.4929
 8550SOL     OW26204   1.206   2.259   5.706  0.1023  0.2954  0.0488
 8550SOL    HW126205   1.291   2.216   5.714 -0.2366 -0.1922  1.2319
 8550SOL    HW226206   1.143   2.188   5.708 -0.4167  0.7624  1.0335
 8551SOL     OW26207   0.925   5.755   1.365 -0.3354 -0.1019 -0.5512
 8551SOL    HW126208   0.959   5.779   1.279 -0.2794 -0.2651 -0.5748
 8551SOL    HW226209   0.989   5.693   1.400  0.7589  1.5622  0.4941
 8552SOL     OW26210   7.626   4.067   6.268 -0.9835  0.1305  0.4055
 8552SOL    HW126211   7.627   3.999   6.336 -1.3344 -0.5488 -0.2473
 8552SOL    HW226212   7.554   4.124   6.292  1.0561  2.0262  2.5813
 8553SOL     OW26213   4.449   6.708   6.379 -0.0004  0.4074  0.3670
 8553SOL    HW126214   4.520   6.649   6.406  0.2853  0.1635 -0.8462
 8553SOL    HW226215   4.436   6.687   6.286 -1.3201  0.8067  0.4534
 8554SOL     OW26216   2.148   6.683   0.423 -0.6157  0.4093  0.5498
 8554SOL    HW126217   2.165   6.775   0.441  1.2657  0.2778 -0.3182
 8554SOL    HW226218   2.188   6.668   0.337 -0.4681 -1.3210  0.8942
 8555SOL     OW26219   3.775   6.763   7.253 -0.0898 -0.5391 -0.3812
 8555SOL    HW126220   3.742   6.773   7.164 -0.7129  1.8653  0.0535
 8555SOL    HW226221   3.724   6.690   7.289 -1.2461 -0.2533 -1.3625
 8556SOL     OW26222   0.592   0.028   3.494 -0.2893 -0.8599  0.3894
 8556SOL    HW126223   0.606   0.068   3.408 -1.3273  0.5924  0.8591
 8556SOL    HW226224   0.629   0.090   3.556 -1.6616 -0.7422  1.1291
 8557SOL     OW26225   1.191   2.657   0.582 -0.6198 -0.1549  0.3854
 8557SOL    HW126226   1.284   2.638   0.595 -0.7210  0.5750  2.5817
 8557SOL    HW226227   1.189   2.748   0.555 -0.6968 -0.0773  0.6472
 8558SOL     OW26228   4.359   6.561   6.162 -0.7424  0.0422 -0.0205
 8558SOL    HW126229   4.269   6.554   6.194 -0.5442 -0.8740  0.3528
 8558SOL    HW226230   4.395   6.473   6.172  0.6536  0.7134  1.2398
 8559SOL     OW26231   2.652   5.551   7.752 -0.4672 -0.0717 -0.0322
 8559SOL    HW126232   2.711   5.621   7.780  0.9984 -1.2049 -0.1990
 8559SOL    HW226233   2.605   5.588   7.677  1.1179  0.3618 -0.8474
 8560SOL     OW26234   3.631   6.563   7.386  0.1282 -0.0023  0.1037
 8560SOL    HW126235   3.643   6.472   7.357  0.8527  0.5816 -1.5293
 8560SOL    HW226236   3.643   6.559   7.481 -1.6238 -1.8852  0.3237
 8561SOL     OW26237   1.262   6.644   3.905 -0.4299 -0.2234 -0.3287
 8561SOL    HW126238   1.210   6.565   3.891 -1.3669  0.4330 -0.6241
 8561SOL    HW226239   1.199   6.711   3.931  0.4244  0.2809  0.5367
 8562SOL     OW26240   4.724   5.740   2.165 -0.2051 -0.0371  0.4106
 8562SOL    HW126241   4.700   5.813   2.222  1.4087  1.5571 -0.8015
 8562SOL    HW226242   4.820   5.739   2.168 -0.1975 -2.3977  0.6908
 8563SOL     OW26243   6.056   6.897   5.308  0.0825  0.0677  0.3363
 8563SOL    HW126244   6.094   6.820   5.266 -0.0072  0.6418 -0.8450
 8563SOL    HW226245   6.128   6.938   5.355  0.4653  0.0417 -0.2238
 8564SOL     OW26246   1.753   5.496   4.350 -0.0573 -0.6485  0.0507
 8564SOL    HW126247   1.822   5.432   4.332  0.7130 -0.4151  1.9141
 8564SOL    HW226248   1.739   5.541   4.267  0.8320 -1.8619 -0.7819
 8565SOL     OW26249   3.178   6.608   5.302 -0.4281  0.3234  0.2854
 8565SOL    HW126250   3.087   6.588   5.279 -0.3298  0.2776 -0.0761
 8565SOL    HW226251   3.172   6.660   5.381 -0.8677  1.8655 -0.7277
 8566SOL     OW26252   7.021   3.721   3.980 -0.3384 -0.0352  0.0347
 8566SOL    HW126253   7.068   3.765   3.909 -0.5981 -0.6980 -0.5668
 8566SOL    HW226254   6.933   3.709   3.946 -0.0395 -1.8846 -0.2469
 8567SOL     OW26255   4.870   7.134   4.709 -0.0785 -0.0124  0.4944
 8567SOL    HW126256   4.901   7.044   4.708  1.1391  0.3991  0.0538
 8567SOL    HW226257   4.934   7.183   4.658 -0.3035  1.2450  1.3647
 8568SOL     OW26258   5.431   1.635   2.177  0.0608  0.1763  0.0437
 8568SOL    HW126259   5.496   1.594   2.120  2.8218  0.2076  2.9033
 8568SOL    HW226260   5.462   1.725   2.188 -2.1798  1.1277 -0.7982
 8569SOL     OW26261   6.284   5.337   2.894  0.3134 -0.2945  0.1053
 8569SOL    HW126262   6.365   5.330   2.945 -0.1386  1.5181  1.1618
 8569SOL    HW226263   6.223   5.277   2.937  0.0943  0.8309  1.4348
 8570SOL     OW26264   7.694   1.231   5.144  0.8101 -0.5901 -0.3938
 8570SOL    HW126265   7.607   1.255   5.114 -0.0212 -0.1102  2.1438
 8570SOL    HW226266   7.680   1.188   5.228  3.0336  0.0709  0.4084
 8571SOL     OW26267   5.302   7.450   0.209  0.0596  0.3549 -0.0948
 8571SOL    HW126268   5.300   7.360   0.177 -1.2859 -0.1207  1.2296
 8571SOL    HW226269   5.354   7.497   0.144 -0.5394 -1.0446 -1.6624
 8572SOL     OW26270   1.628   3.840   4.164  0.0413 -0.2707  0.3901
 8572SOL    HW126271   1.673   3.870   4.243  0.2965 -1.6527  0.8030
 8572SOL    HW226272   1.617   3.918   4.111  0.3328  0.5959  1.5710
 8573SOL     OW26273   4.226   7.463   5.909 -0.7096 -0.7757  0.0543
 8573SOL    HW126274   4.211   7.429   5.997  1.5158 -1.6858  0.1497
 8573SOL    HW226275   4.320   7.482   5.907 -1.2270  2.2611 -1.1182
 8574SOL     OW26276   2.613   2.543   5.467 -0.9031  0.3880  0.4819
 8574SOL    HW126277   2.674   2.500   5.528 -0.9617 -1.0781 -0.4432
 8574SOL    HW226278   2.570   2.610   5.520 -0.3933 -0.3183  1.8560
 8575SOL     OW26279   7.196   5.500   6.357 -0.1317  0.0940 -0.3069
 8575SOL    HW126280   7.118   5.505   6.413 -0.3927 -0.8131 -0.5731
 8575SOL    HW226281   7.237   5.416   6.381  1.3575  1.0290  0.5791
 8576SOL     OW26282   1.865   4.870   6.745 -0.6116 -0.2497  0.2393
 8576SOL    HW126283   1.918   4.927   6.689 -0.2387 -0.6539  0.1796
 8576SOL    HW226284   1.789   4.847   6.690  0.7555 -2.3287 -0.8883
 8577SOL     OW26285   7.381   3.457   0.287 -0.3891  0.8920  0.0296
 8577SOL    HW126286   7.286   3.452   0.287 -0.4867  2.3636  0.0272
 8577SOL    HW226287   7.409   3.383   0.342 -1.7263  2.8094  3.5548
 8578SOL     OW26288   4.105   1.618   4.630 -0.7693 -0.1046 -0.4918
 8578SOL    HW126289   4.089   1.528   4.600 -2.2444 -0.3072  0.7902
 8578SOL    HW226290   4.096   1.614   4.725  1.8213  0.9068 -0.1143
 8579SOL     OW26291   5.839   7.186   6.968 -0.6765 -0.0318  0.4188
 8579SOL    HW126292   5.898   7.116   6.997 -1.5920 -0.2941  1.7391
 8579SOL    HW226293   5.857   7.195   6.875  0.0944 -1.4167  0.4009
 8580SOL     OW26294   6.668   1.180   1.859 -0.1558 -0.4013 -0.2897
 8580SOL    HW126295   6.644   1.120   1.929 -0.5571  0.5009  0.3527
 8580SOL    HW226296   6.616   1.258   1.874 -1.5453 -0.7773 -2.5560
 8581SOL     OW26297   6.583   1.096   4.157 -0.3687 -0.2201  0.6343
 8581SOL    HW126298   6.602   1.157   4.228 -0.5417  0.5459  0.0340
 8581SOL    HW226299   6.606   1.010   4.193  0.6778  0.2735  1.2046
 8582SOL     OW26300   3.666   3.621   3.712 -0.1692 -0.3841 -0.1339
 8582SOL    HW126301   3.581   3.657   3.686 -0.0123  1.4189  1.5913
 8582SOL    HW226302   3.728   3.691   3.691  0.7493 -1.2799 -0.4250
 8583SOL     OW26303   7.501   3.304   5.654 -0.0880  0.7638  0.5168
 8583SOL    HW126304   7.568   3.325   5.590 -0.4059  1.0744  0.2845
 8583SOL    HW226305   7.535   3.338   5.737  0.4997  0.0098  0.5883
 8584SOL     OW26306   0.086   1.992   3.552  0.5883 -0.2342  0.0096
 8584SOL    HW126307   0.127   2.078   3.539  0.0778 -0.0652 -0.5654
 8584SOL    HW226308   0.102   1.946   3.470 -1.5376  0.3463 -0.8043
 8585SOL     OW26309   7.294   3.350   6.256  0.3521  0.3974 -0.1879
 8585SOL    HW126310   7.258   3.267   6.226  0.2202  0.4781 -0.2569
 8585SOL    HW226311   7.269   3.356   6.348  0.0879  0.5060 -0.2657
 8586SOL     OW26312   5.925   1.904   3.393  0.7212  0.3399 -0.1585
 8586SOL    HW126313   5.861   1.848   3.349  0.2179  1.1677 -0.5069
 8586SOL    HW226314   5.879   1.988   3.405  2.3911  1.6318 -2.2508
 8587SOL     OW26315   3.186   7.170   6.772  0.5430  0.2528 -0.0457
 8587SOL    HW126316   3.195   7.103   6.841  0.4072  0.7642  0.4758
 8587SOL    HW226317   3.215   7.251   6.814  3.7858  0.0588 -1.5527
 8588SOL     OW26318   1.316   1.276   6.582  0.0989  0.6491  0.1452
 8588SOL    HW126319   1.408   1.252   6.572  0.0402  0.8642 -1.1627
 8588SOL    HW226320   1.282   1.277   6.492 -1.4598 -0.5164  0.6708
 8589SOL     OW26321   4.767   1.350   1.265  0.5620 -0.1557  0.3023
 8589SOL    HW126322   4.757   1.257   1.248  2.6444 -0.3128 -0.3700
 8589SOL    HW226323   4.678   1.382   1.280 -0.2454 -2.1256 -0.0517
 8590SOL     OW26324   4.498   5.201   5.144 -0.2803 -0.2131  0.1913
 8590SOL    HW126325   4.475   5.133   5.207  1.4196  1.6352  2.9750
 8590SOL    HW226326   4.414   5.238   5.117 -1.1811 -2.6584 -0.6362
 8591SOL     OW26327   7.298   0.039   6.582  0.0777 -0.1018  0.2656
 8591SOL    HW126328   7.382   0.063   6.621 -0.2241 -1.4758  1.9532
 8591SOL    HW226329   7.311   0.045   6.488  0.9278  3.2613  0.4881
 8592SOL     OW26330   0.167   3.906   7.247 -0.3257 -0.2166  0.1329
 8592SOL    HW126331   0.112   3.984   7.253  2.5361  2.1606 -1.6749
 8592SOL    HW226332   0.248   3.930   7.292  1.6269 -1.0560 -2.6316
 8593SOL     OW26333   6.212   0.244   2.713  0.2059  0.3241  0.8642
 8593SOL    HW126334   6.154   0.190   2.660  0.7966  1.4565 -1.0549
 8593SOL    HW226335   6.280   0.273   2.652  2.2374 -0.1231  2.7788
 8594SOL     OW26336   5.698   3.423   5.568 -0.3876  0.3843 -0.3683
 8594SOL    HW126337   5.726   3.475   5.643 -1.7039  2.3861 -1.1757
 8594SOL    HW226338   5.629   3.366   5.603  1.4554 -1.3630  0.6463
 8595SOL     OW26339   6.327   5.681   4.617  0.3212  0.2518  0.4741
 8595SOL    HW126340   6.323   5.588   4.595  1.3178 -0.0596  1.5162
 8595SOL    HW226341   6.272   5.723   4.551 -2.1170 -1.3016  1.4014
 8596SOL     OW26342   2.749   5.359   5.228 -0.0516 -0.1969  0.1440
 8596SOL    HW126343   2.674   5.417   5.237 -0.4388 -0.9117  1.8195
 8596SOL    HW226344   2.795   5.366   5.311  2.2503  0.8661 -1.1255
 8597SOL     OW26345   3.279   1.962   1.569  0.3095  0.0881  0.0334
 8597SOL    HW126346   3.341   1.978   1.498  1.3325 -0.9597  0.6602
 8597SOL    HW226347   3.277   2.044   1.618 -0.8814  1.0545 -1.4945
 8598SOL     OW26348   1.880   4.599   6.876 -0.5300 -0.3965 -0.2334
 8598SOL    HW126349   1.896   4.589   6.782  2.9726  1.4747  0.0146
 8598SOL    HW226350   1.906   4.514   6.913 -2.1765 -1.2398 -0.8762
 8599SOL     OW26351   2.770   4.712   0.198  0.5335  0.0887 -0.3845
 8599SOL    HW126352   2.850   4.734   0.150 -0.3353  2.1789 -1.0051
 8599SOL    HW226353   2.700   4.724   0.134 -0.2375 -3.5391 -0.4232
 8600SOL     OW26354   1.565   4.988   3.860  0.0377  0.2113  0.4804
 8600SOL    HW126355   1.496   4.931   3.826 -2.0617  1.9665  1.5070
 8600SOL    HW226356   1.630   4.929   3.897  0.0259 -1.5812 -2.1248
 8601SOL     OW26357   4.063   5.510   3.562  0.2093 -0.5014 -0.0297
 8601SOL    HW126358   4.036   5.498   3.653 -0.3521 -0.6494 -0.2098
 8601SOL    HW226359   4.130   5.443   3.548 -0.1166 -0.8576  0.1057
 8602SOL     OW26360   5.757   5.523   1.899 -0.1727  0.2413  0.1449
 8602SOL    HW126361   5.735   5.437   1.934  0.2776  0.6921  1.5935
 8602SOL    HW226362   5.846   5.514   1.866 -0.2118  0.0956  0.0789
 8603SOL     OW26363   6.456   7.354   1.687 -0.5566  0.0852 -0.0977
 8603SOL    HW126364   6.517   7.329   1.755 -0.2653 -1.3427 -0.8407
 8603SOL    HW226365   6.434   7.445   1.706 -0.1673 -0.1554  1.6337
 8604SOL     OW26366   7.733   6.229   6.908 -0.3838 -0.3094  0.8403
 8604SOL    HW126367   7.637   6.229   6.910 -0.4556  0.3650 -0.6843
 8604SOL    HW226368   7.757   6.322   6.912  0.0339 -0.2302 -1.5618
 8605SOL     OW26369   3.718   6.200   6.095  0.0229 -0.2953 -0.7381
 8605SOL    HW126370   3.649   6.147   6.056  2.2081 -3.7501 -0.2968
 8605SOL    HW226371   3.779   6.137   6.132  2.2130  2.6305  1.0673
 8606SOL     OW26372   1.881   5.278   5.440 -0.7522 -0.4581 -0.3949
 8606SOL    HW126373   1.897   5.370   5.461 -0.9792 -0.3455 -0.6935
 8606SOL    HW226374   1.836   5.242   5.517  0.5719 -0.6841  0.2967
 8607SOL     OW26375   2.596   5.990   1.480  0.2848 -0.1540 -0.2673
 8607SOL    HW126376   2.645   6.025   1.555  0.5694 -0.6782 -0.2023
 8607SOL    HW226377   2.652   5.921   1.445  0.1361  0.0550 -0.9456
 8608SOL     OW26378   2.629   7.168   5.134  0.3495  0.0794  0.3075
 8608SOL    HW126379   2.556   7.229   5.134 -0.0692 -0.4040 -0.2391
 8608SOL    HW226380   2.591   7.084   5.159  1.1857  0.3094  2.5600
 8609SOL     OW26381   6.048   4.235   5.337 -0.4980  0.0347  0.2053
 8609SOL    HW126382   6.110   4.177   5.293 -1.4015  0.2013 -1.3347
 8609SOL    HW226383   6.100   4.313   5.358  0.3059 -0.6455  0.7782
 8610SOL     OW26384   3.241   1.161   2.475 -0.3354 -0.0099 -0.2412
 8610SOL    HW126385   3.211   1.199   2.557  1.0959 -1.0278  0.8118
 8610SOL    HW226386   3.203   1.072   2.475  0.2886 -0.2798 -0.2979
 8611SOL     OW26387   2.743   7.454   3.521 -0.2871 -0.0211  0.2152
 8611SOL    HW126388   2.688   7.388   3.478 -1.4134 -0.2950  1.9950
 8611SOL    HW226389   2.691   7.534   3.518 -0.4188 -0.0666  1.1387
 8612SOL     OW26390   3.358   5.160   5.770 -0.0056  0.8688 -0.2584
 8612SOL    HW126391   3.298   5.231   5.794 -1.2292 -0.5983  1.1821
 8612SOL    HW226392   3.414   5.148   5.846  0.8474  0.9179 -0.8632
 8613SOL     OW26393   7.266   1.946   5.640  0.5475 -0.1507 -0.0649
 8613SOL    HW126394   7.179   1.982   5.624  0.0884 -0.6839  1.1685
 8613SOL    HW226395   7.254   1.883   5.711  2.0020  0.0346  0.3811
 8614SOL     OW26396   0.460   2.086   2.049  0.0519 -0.5701 -0.0885
 8614SOL    HW126397   0.527   2.126   2.105  0.8169  0.3257 -1.5955
 8614SOL    HW226398   0.484   1.994   2.044 -0.1459 -0.7117  1.1923
 8615SOL     OW26399   7.587   2.181   2.409  0.3825  0.4170  0.0068
 8615SOL    HW126400   7.561   2.093   2.435  0.3801  0.5089  0.3166
 8615SOL    HW226401   7.611   2.224   2.491  1.4520  0.3550 -0.2619
 8616SOL     OW26402   3.007   0.326   1.678 -0.3222  0.2354 -0.4902
 8616SOL    HW126403   2.991   0.407   1.726  2.5515  2.3677 -2.7648
 8616SOL    HW226404   3.071   0.279   1.731  0.0442  0.7738 -0.4555
 8617SOL     OW26405   5.717   0.076   1.973  0.0418  0.0661 -0.1370
 8617SOL    HW126406   5.703   0.073   2.067 -0.7684 -1.0763 -0.2782
 8617SOL    HW226407   5.722  -0.016   1.946 -1.2714  0.3382 -1.4171
 8618SOL     OW26408   6.195   4.826   6.223 -0.2589  0.4624 -0.7141
 8618SOL    HW126409   6.252   4.860   6.154 -0.2737  0.8476 -0.5382
 8618SOL    HW226410   6.254   4.782   6.283 -0.2823 -0.1568 -1.1377
 8619SOL     OW26411   6.307   2.655   6.005  0.6349  0.6213  0.3453
 8619SOL    HW126412   6.359   2.719   5.956  0.1832  0.5221 -0.2647
 8619SOL    HW226413   6.293   2.583   5.944  0.1053  0.4756  0.6358
 8620SOL     OW26414   1.627   4.597   0.725  0.4341 -0.6865 -0.3220
 8620SOL    HW126415   1.705   4.543   0.740 -0.0156 -1.0782  0.7110
 8620SOL    HW226416   1.624   4.657   0.800 -2.1517 -3.0286  1.6657
 8621SOL     OW26417   1.455   0.681   1.773  0.2152 -0.3579  0.2842
 8621SOL    HW126418   1.547   0.657   1.780 -0.2111 -1.8304  1.4672
 8621SOL    HW226419   1.455   0.766   1.729  2.2288  0.3270  1.4825
 8622SOL     OW26420   4.399   4.494   4.009 -0.0147  0.5897 -0.0768
 8622SOL    HW126421   4.357   4.510   4.094 -0.3982  0.5733 -0.2594
 8622SOL    HW226422   4.490   4.475   4.030 -0.6545 -2.2498  0.6056
 8623SOL     OW26423   1.021   7.421   0.026  0.4308 -0.2780 -0.0874
 8623SOL    HW126424   1.111   7.421  -0.007  0.4697 -1.7817 -0.0613
 8623SOL    HW226425   1.002   7.329   0.044  0.2350  0.3528  3.6510
 8624SOL     OW26426   0.700   0.839   1.794 -0.3691 -0.5766 -0.6274
 8624SOL    HW126427   0.774   0.794   1.835 -0.1427  0.7189  0.4451
 8624SOL    HW226428   0.652   0.769   1.749  0.3631 -1.7787  0.3719
 8625SOL     OW26429   3.416   1.076   5.617  0.0629  0.3495  0.5758
 8625SOL    HW126430   3.389   1.028   5.539  0.7909  0.3363  0.3244
 8625SOL    HW226431   3.510   1.062   5.623  0.4956  2.5102 -0.0615
 8626SOL     OW26432   3.806   2.254   3.028  0.4856  0.2640 -0.0310
 8626SOL    HW126433   3.898   2.259   3.053  0.5616  1.2408 -0.4715
 8626SOL    HW226434   3.785   2.161   3.033  1.8542 -0.1376 -1.2049
 8627SOL     OW26435   5.639   4.994   6.641 -0.3554  0.1143  0.0358
 8627SOL    HW126436   5.728   4.966   6.620 -1.5485 -2.8860 -1.6479
 8627SOL    HW226437   5.642   5.018   6.734  2.0531 -0.4752  0.1578
 8628SOL     OW26438   5.151   6.089   1.503  0.4153  0.4461  0.0554
 8628SOL    HW126439   5.242   6.109   1.527  0.9947 -0.6525 -1.0812
 8628SOL    HW226440   5.158   6.010   1.450 -1.3350 -0.2897  0.8597
 8629SOL     OW26441   6.854   4.110   3.040  0.0930 -0.3172 -0.7030
 8629SOL    HW126442   6.890   4.182   2.988  0.3680  0.0709  0.0177
 8629SOL    HW226443   6.902   4.032   3.010  1.8674  0.2468  0.5282
 8630SOL     OW26444   4.485   6.121   1.609 -0.1340  0.1308  0.0049
 8630SOL    HW126445   4.566   6.072   1.620 -1.4865 -1.8716  1.7110
 8630SOL    HW226446   4.507   6.211   1.634  2.0149  0.1244 -1.6259
 8631SOL     OW26447   4.027   2.610   0.136  0.2563  0.0548  0.0658
 8631SOL    HW126448   4.022   2.572   0.223  1.2284 -0.2548 -0.0095
 8631SOL    HW226449   3.935   2.628   0.113 -0.1823 -1.6526  0.3504
 8632SOL     OW26450   2.450   7.603   1.812  0.1879 -0.0735 -0.4546
 8632SOL    HW126451   2.449   7.588   1.717 -0.1189 -1.2359 -0.2792
 8632SOL    HW226452   2.427   7.696   1.821 -0.2950 -0.0687 -1.4932
 8633SOL     OW26453   2.974   7.620   2.106 -0.0990  0.5399 -0.0155
 8633SOL    HW126454   2.887   7.642   2.139 -0.2314  0.9386 -0.6080
 8633SOL    HW226455   2.959   7.544   2.049 -0.0949  0.7381 -0.2830
 8634SOL     OW26456   6.657   1.788   3.450 -0.0567 -0.4566  0.1525
 8634SOL    HW126457   6.745   1.811   3.481  0.3530 -0.6048 -0.8723
 8634SOL    HW226458   6.635   1.708   3.497 -0.6231  0.8042  2.1703
 8635SOL     OW26459   2.472   6.843   1.480 -0.0402  0.0548 -0.2249
 8635SOL    HW126460   2.464   6.796   1.397 -0.7031 -1.7424  0.8120
 8635SOL    HW226461   2.565   6.865   1.485  0.0209  0.1478 -1.4046
 8636SOL     OW26462   4.949   7.425   5.348 -0.2394  0.1574  0.8947
 8636SOL    HW126463   4.948   7.454   5.440  1.0242 -2.2504  1.7740
 8636SOL    HW226464   5.015   7.480   5.306  1.3572 -0.6268  2.2376
 8637SOL     OW26465   4.791   4.590   2.615  0.0962  0.1962  0.2654
 8637SOL    HW126466   4.788   4.628   2.527 -1.2541  0.0479  0.2291
 8637SOL    HW226467   4.839   4.654   2.667 -0.6800  1.1775 -0.1797
 8638SOL     OW26468   1.191   3.883   0.831  0.6308  0.8259 -0.3737
 8638SOL    HW126469   1.226   3.953   0.776  0.2481  0.8224 -0.6236
 8638SOL    HW226470   1.248   3.808   0.815 -0.3848  0.3436 -1.9712
 8639SOL     OW26471   4.323   1.699   7.643 -0.2332  0.0895  0.2362
 8639SOL    HW126472   4.276   1.616   7.644 -0.3079  0.1177 -0.5127
 8639SOL    HW226473   4.331   1.722   7.551  2.8439 -0.8039  0.1713
 8640SOL     OW26474   6.518   0.998   4.974  0.1355  0.1517  0.4190
 8640SOL    HW126475   6.509   1.047   4.892  0.9324 -0.3909 -0.0029
 8640SOL    HW226476   6.465   1.046   5.037  0.1669  1.0294 -0.2184
 8641SOL     OW26477   1.327   7.553   5.486  0.1817 -0.2272 -0.3048
 8641SOL    HW126478   1.231   7.558   5.489  0.1598 -0.7243 -0.0993
 8641SOL    HW226479   1.346   7.461   5.506  0.6215 -0.5637 -2.1216
 8642SOL     OW26480   0.353   6.011   7.436  0.0596  0.5084  0.7340
 8642SOL    HW126481   0.342   6.019   7.530 -0.3725  1.7683  0.5956
 8642SOL    HW226482   0.276   5.962   7.406 -0.1116  0.6411  0.9599
 8643SOL     OW26483   2.890   4.803   0.735 -0.5764  0.1496  1.1301
 8643SOL    HW126484   2.833   4.861   0.684 -0.9244 -0.2253  1.0900
 8643SOL    HW226485   2.837   4.725   0.751 -0.0853 -0.1896  1.1227
 8644SOL     OW26486   5.639   7.584   7.423  0.0734  0.0188 -0.0350
 8644SOL    HW126487   5.561   7.615   7.378 -0.5204 -0.8175  0.3877
 8644SOL    HW226488   5.630   7.488   7.423  0.0066 -0.0157  1.8986
 8645SOL     OW26489   7.312   5.291   7.413 -0.2537  0.4032 -0.3725
 8645SOL    HW126490   7.358   5.375   7.425 -0.2613  0.1798  1.5904
 8645SOL    HW226491   7.227   5.306   7.454 -0.1588 -0.6313  0.2179
 8646SOL     OW26492   7.741   1.002   1.089 -0.2026 -0.2831 -0.1786
 8646SOL    HW126493   7.756   1.088   1.049  0.3755 -0.0359  0.5703
 8646SOL    HW226494   7.646   0.993   1.089 -0.2298 -0.2942 -1.6149
 8647SOL     OW26495   4.784   6.936   5.984 -0.6276 -0.0185  0.5312
 8647SOL    HW126496   4.878   6.938   5.966 -0.5912 -0.2710  0.6951
 8647SOL    HW226497   4.754   6.852   5.949 -0.3367 -1.0779  2.7032
 8648SOL     OW26498   5.807   4.329   0.438  0.1030  0.4594 -0.2985
 8648SOL    HW126499   5.870   4.394   0.407  0.7005 -0.3370 -0.7918
 8648SOL    HW226500   5.847   4.244   0.417 -1.8760 -0.0999 -2.2145
 8649SOL     OW26501   4.365   4.937   7.618  0.0224  0.1899  0.0625
 8649SOL    HW126502   4.323   5.022   7.632  1.1904  0.5728  1.4621
 8649SOL    HW226503   4.407   4.917   7.701  1.0979 -1.0323 -0.7365
 8650SOL     OW26504   6.886   6.515   5.666  0.3242  0.8606 -0.4858
 8650SOL    HW126505   6.817   6.454   5.693 -0.8655  2.7144  0.8604
 8650SOL    HW226506   6.893   6.502   5.572 -1.0908 -0.1451 -0.4951
 8651SOL     OW26507   1.786   4.382   4.992  0.1187  0.7987 -0.0525
 8651SOL    HW126508   1.691   4.391   4.986 -0.0271  0.2327  1.1135
 8651SOL    HW226509   1.813   4.452   5.052  0.1206 -0.5281  1.5480
 8652SOL     OW26510   6.801   6.778   7.578 -0.3941 -0.7340 -0.4674
 8652SOL    HW126511   6.776   6.869   7.599 -2.1563 -1.0168 -1.2110
 8652SOL    HW226512   6.722   6.727   7.596  1.5144 -2.7578  3.4408
 8653SOL     OW26513   1.992   2.239   0.699  0.0163 -0.0050 -0.1893
 8653SOL    HW126514   2.054   2.301   0.661  0.8011 -0.9854 -0.5308
 8653SOL    HW226515   1.996   2.162   0.642 -2.4438  0.3565 -0.9685
 8654SOL     OW26516   2.114   6.399   0.005  0.3497  0.0276  0.1985
 8654SOL    HW126517   2.083   6.347  -0.069  1.1920 -0.1585 -0.0401
 8654SOL    HW226518   2.081   6.487  -0.012  0.4451 -0.0360 -0.3459
 8655SOL     OW26519   0.119   6.786   1.975  0.1307  0.4816  0.2411
 8655SOL    HW126520   0.167   6.860   1.937  0.3545  1.2890  1.9825
 8655SOL    HW226521   0.138   6.791   2.069 -0.8082 -1.1029  0.5548
 8656SOL     OW26522   4.763   1.002   2.705  0.2846  0.8216 -0.3243
 8656SOL    HW126523   4.787   1.036   2.792 -1.9854  0.4566  0.5201
 8656SOL    HW226524   4.810   1.058   2.644  1.9701  1.0892  1.1220
 8657SOL     OW26525   3.196   3.762   0.766 -0.3163 -0.0436  0.3804
 8657SOL    HW126526   3.188   3.825   0.838 -0.5407 -0.7038  0.9352
 8657SOL    HW226527   3.188   3.676   0.807  2.1193 -0.5625 -0.0595
 8658SOL     OW26528   5.816   0.043   3.710  0.0785  0.0359  0.2550
 8658SOL    HW126529   5.857   0.111   3.763 -0.4677  1.6737 -1.3075
 8658SOL    HW226530   5.722   0.053   3.727  0.0244 -0.6093  0.3349
 8659SOL     OW26531   1.137   4.392   4.959  0.3564  0.1571  0.0340
 8659SOL    HW126532   1.232   4.378   4.955  0.3023  0.0519 -1.2712
 8659SOL    HW226533   1.111   4.405   4.868 -0.5923  2.2144  0.5260
 8660SOL     OW26534   5.617   1.049   3.082  0.1301  0.6982  0.3074
 8660SOL    HW126535   5.526   1.048   3.113 -0.0570  2.0940 -0.1058
 8660SOL    HW226536   5.609   1.051   2.986  0.5950  0.6172  0.2690
 8661SOL     OW26537   5.547   2.825   5.938  0.4447  0.6919  0.0135
 8661SOL    HW126538   5.537   2.918   5.919  1.5536  0.4044 -2.4778
 8661SOL    HW226539   5.463   2.798   5.973 -0.1704  2.4572 -0.0227
 8662SOL     OW26540   7.747   3.197   3.918  0.0829  0.2961 -0.5644
 8662SOL    HW126541   7.757   3.102   3.929  0.9858  0.2982 -1.2845
 8662SOL    HW226542   7.836   3.230   3.913 -0.0886  1.5954  2.6606
 8663SOL     OW26543   0.445   1.690   4.765  0.1461 -0.1276  0.1729
 8663SOL    HW126544   0.452   1.785   4.758 -0.6434 -0.0086  0.7923
 8663SOL    HW226545   0.351   1.673   4.758  0.1340 -0.7165  1.4990
 8664SOL     OW26546   4.085   4.154   3.101  0.0960  0.2707 -0.1362
 8664SOL    HW126547   4.104   4.208   3.178  0.0163 -0.3502  0.3297
 8664SOL    HW226548   4.150   4.084   3.103 -1.7879 -1.5934  1.2049
 8665SOL     OW26549   4.009   4.076   3.685 -0.0892 -0.0063 -0.4858
 8665SOL    HW126550   4.023   4.151   3.626 -0.1810 -0.5805 -1.2589
 8665SOL    HW226551   4.051   4.003   3.640  0.4816 -0.3130  0.5349
 8666SOL     OW26552   3.584   7.596   5.271 -0.5679  0.2388  0.0484
 8666SOL    HW126553   3.562   7.635   5.355 -0.0355  0.8263 -0.0759
 8666SOL    HW226554   3.661   7.645   5.241  0.3799 -1.1778  0.0743
 8667SOL     OW26555   0.879   3.173   5.041  0.0731  0.0457  0.0883
 8667SOL    HW126556   0.806   3.114   5.056  0.8656 -0.6661  1.2520
 8667SOL    HW226557   0.841   3.246   4.992 -1.0934 -1.0040 -0.6391
 8668SOL     OW26558   2.400   1.321   6.006  0.1719 -0.4184 -0.2516
 8668SOL    HW126559   2.447   1.281   6.080 -0.0009  0.3678  0.3014
 8668SOL    HW226560   2.321   1.359   6.045  0.9300  1.5582 -0.4877
 8669SOL     OW26561   0.445   7.278   5.898  0.0428  0.3170 -0.5015
 8669SOL    HW126562   0.485   7.199   5.861  0.3804  0.2847 -0.0707
 8669SOL    HW226563   0.409   7.324   5.822 -0.4354 -0.4087 -0.7217
 8670SOL     OW26564   5.384   1.035   1.431 -0.1367 -0.4590 -0.0723
 8670SOL    HW126565   5.326   1.091   1.380 -2.7319 -0.4147  2.6549
 8670SOL    HW226566   5.462   1.089   1.445 -0.5286  0.5592 -1.5370
 8671SOL     OW26567   3.573   5.980   2.486  0.0676 -0.0224  0.0929
 8671SOL    HW126568   3.591   5.914   2.553  0.1006 -0.2686 -0.1586
 8671SOL    HW226569   3.656   5.991   2.441  0.2635  0.7361  0.6129
 8672SOL     OW26570   0.796   6.922   3.576  0.4682 -0.0512  0.3019
 8672SOL    HW126571   0.791   6.871   3.495  1.7571  0.0247  0.1592
 8672SOL    HW226572   0.706   6.925   3.608  0.1443 -1.1871 -0.4478
 8673SOL     OW26573   3.726   5.542   0.275 -0.2830  0.4379 -0.6840
 8673SOL    HW126574   3.811   5.575   0.246 -0.5956 -0.5880 -3.0107
 8673SOL    HW226575   3.682   5.618   0.311  1.4933  1.0592  0.3222
 8674SOL     OW26576   4.670   4.853   6.101 -0.1006  0.2661  0.2259
 8674SOL    HW126577   4.639   4.920   6.162 -0.7825  0.2313 -0.0656
 8674SOL    HW226578   4.763   4.845   6.119 -0.3082  0.1574  1.3680
 8675SOL     OW26579   2.045   0.368   2.732  0.0187  0.6122  0.1051
 8675SOL    HW126580   2.130   0.346   2.771 -0.4218  1.1243  1.3953
 8675SOL    HW226581   2.067   0.410   2.649  1.0569  1.0476  0.5792
 8676SOL     OW26582   1.808   5.183   1.972 -0.6543  0.0966  0.3007
 8676SOL    HW126583   1.847   5.171   1.885  1.4574 -0.3001  1.2352
 8676SOL    HW226584   1.858   5.123   2.029 -0.4313  1.9546  2.2009
 8677SOL     OW26585   5.160   0.871   7.561  0.3391 -0.2852 -0.0301
 8677SOL    HW126586   5.208   0.950   7.585  0.8539 -0.7054  0.3265
 8677SOL    HW226587   5.151   0.876   7.465 -1.6476  1.3566  0.1691
 8678SOL     OW26588   2.005   6.300   0.950 -0.2937  0.0606  0.2584
 8678SOL    HW126589   1.947   6.322   0.877 -1.1485 -4.3195 -0.6824
 8678SOL    HW226590   2.092   6.296   0.911 -0.6979 -1.9019 -0.5577
 8679SOL     OW26591   6.613   3.021   5.340  0.9222  0.1701  0.2144
 8679SOL    HW126592   6.564   2.973   5.407  1.4728  0.2063  0.6458
 8679SOL    HW226593   6.554   3.091   5.314 -0.2369 -1.1808 -1.0173
 8680SOL     OW26594   6.813   4.110   1.393  0.1833 -0.0004  0.1181
 8680SOL    HW126595   6.725   4.085   1.362  0.1604 -0.1894  0.3370
 8680SOL    HW226596   6.838   4.039   1.452 -0.4484  1.1484  1.8298
 8681SOL     OW26597   2.716   2.527   3.958 -0.0191  0.5650 -0.1291
 8681SOL    HW126598   2.774   2.498   3.888 -2.5865 -1.0570 -1.7557
 8681SOL    HW226599   2.696   2.618   3.936  1.2062  0.8950  0.0249
 8682SOL     OW26600   7.654   3.470   3.974  0.1628 -0.2912 -0.1184
 8682SOL    HW126601   7.673   3.381   3.946 -0.6899  0.3697 -3.2593
 8682SOL    HW226602   7.567   3.466   4.013  1.1554 -1.1584  2.2037
 8683SOL     OW26603   6.162   2.918   6.710 -0.3601  0.4214  0.1266
 8683SOL    HW126604   6.138   2.887   6.798  0.6004  1.8147  0.9240
 8683SOL    HW226605   6.104   2.993   6.695  0.6907  1.3333  0.3974
 8684SOL     OW26606   4.117   6.685   1.486 -0.0984 -0.3297  0.3139
 8684SOL    HW126607   4.112   6.620   1.556  0.6104  1.1721  1.8373
 8684SOL    HW226608   4.182   6.650   1.425  0.7070 -0.7847  1.4028
 8685SOL     OW26609   2.540   4.455   0.904  0.2912 -0.3046 -0.5084
 8685SOL    HW126610   2.550   4.550   0.897 -0.2673 -0.2683 -0.8502
 8685SOL    HW226611   2.451   4.438   0.875  0.5285 -0.9781 -0.8543
 8686SOL     OW26612   0.525   4.592   3.403 -0.4040 -0.6062 -0.0654
 8686SOL    HW126613   0.469   4.569   3.476  1.0814  0.8638  1.6232
 8686SOL    HW226614   0.480   4.665   3.360  0.3570  0.9254  1.6039
 8687SOL     OW26615   0.450   2.800   1.274  0.1470 -0.0538 -0.3510
 8687SOL    HW126616   0.459   2.822   1.367  2.2124  2.8256 -1.0768
 8687SOL    HW226617   0.486   2.712   1.267  2.2132  0.5478  1.3247
 8688SOL     OW26618   2.156   2.634   1.581 -0.2060 -0.2374 -0.1831
 8688SOL    HW126619   2.112   2.550   1.572 -2.3338  0.8948 -1.4128
 8688SOL    HW226620   2.091   2.691   1.622  1.2024  0.7985  0.7074
 8689SOL     OW26621   3.810   1.737   5.621  0.7205  0.2363 -0.0234
 8689SOL    HW126622   3.864   1.714   5.546 -0.0340  0.0082 -0.5020
 8689SOL    HW226623   3.798   1.831   5.614  0.5306  0.1945 -0.2715
 8690SOL     OW26624   3.355   3.878   7.098 -0.1605  0.4559 -0.0170
 8690SOL    HW126625   3.274   3.926   7.080 -0.1125  1.2061  1.5965
 8690SOL    HW226626   3.327   3.796   7.138 -0.1238  1.1225  1.4217
 8691SOL     OW26627   4.003   0.174   6.903  0.3159 -0.3902  0.3709
 8691SOL    HW126628   4.086   0.135   6.875  0.4872  0.2556 -0.0380
 8691SOL    HW226629   3.977   0.230   6.831 -1.2290 -1.6846 -0.1357
 8692SOL     OW26630   7.309   6.173   6.595 -0.1174  0.0419  0.2597
 8692SOL    HW126631   7.381   6.209   6.647  0.2857 -0.8108  0.3180
 8692SOL    HW226632   7.349   6.102   6.546 -0.9463 -0.5134  0.3687
 8693SOL     OW26633   3.770   5.659   6.298 -0.8053  0.2198  0.2162
 8693SOL    HW126634   3.692   5.678   6.350  0.7974  3.3184  1.7661
 8693SOL    HW226635   3.843   5.674   6.358  1.0632 -0.4035 -1.7716
 8694SOL     OW26636   6.652   1.165   3.176  0.0984  0.1182  0.0692
 8694SOL    HW126637   6.633   1.083   3.223 -1.2091 -0.5394 -1.5421
 8694SOL    HW226638   6.743   1.155   3.149  0.0051 -0.7379  0.0328
 8695SOL     OW26639   7.736   5.492   0.819 -0.2898  0.0622  0.4917
 8695SOL    HW126640   7.664   5.429   0.814 -0.4180  0.2685 -0.3077
 8695SOL    HW226641   7.718   5.542   0.898 -0.9896  0.0671  0.3309
 8696SOL     OW26642   6.487   6.293   0.597  0.6431  0.3303  0.0905
 8696SOL    HW126643   6.434   6.222   0.561 -1.3638  0.8676  1.7488
 8696SOL    HW226644   6.530   6.255   0.673 -0.4093  0.8367  0.9626
 8697SOL     OW26645   7.352   2.454   4.769 -0.4339 -0.2690 -0.2989
 8697SOL    HW126646   7.405   2.517   4.722 -1.4615 -0.4904 -1.8246
 8697SOL    HW226647   7.267   2.497   4.781 -0.8944 -1.0504 -0.6572
 8698SOL     OW26648   0.953   1.686   4.704 -0.2611 -0.4058 -0.0783
 8698SOL    HW126649   0.945   1.756   4.640  0.9513 -0.2681 -0.1060
 8698SOL    HW226650   0.863   1.655   4.717 -0.8292  1.1675 -0.0266
 8699SOL     OW26651   1.781   3.279   4.316  0.2445 -0.1492 -0.1487
 8699SOL    HW126652   1.795   3.219   4.390  1.5984 -0.7630 -0.8656
 8699SOL    HW226653   1.870   3.300   4.286 -0.2176  1.6929 -0.3464
 8700SOL     OW26654   6.705   4.282   4.631 -0.6400  0.0486 -0.0328
 8700SOL    HW126655   6.689   4.347   4.562  0.2380 -0.8827 -1.1635
 8700SOL    HW226656   6.782   4.314   4.677 -0.7346  0.2485 -0.0091
 8701SOL     OW26657   5.855   6.673   1.923  0.3392 -0.2287  0.2161
 8701SOL    HW126658   5.831   6.581   1.909  1.3339 -0.6396  1.0903
 8701SOL    HW226659   5.804   6.699   1.999 -1.1711  0.4564 -0.9866
 8702SOL     OW26660   3.984   0.464   6.377 -0.1128  0.2499  0.0765
 8702SOL    HW126661   3.944   0.426   6.455  0.8294 -3.1591 -0.9467
 8702SOL    HW226662   4.065   0.503   6.408  0.7851 -2.0112  0.7754
 8703SOL     OW26663   0.776   3.077   5.493 -0.7056 -0.0958 -0.2680
 8703SOL    HW126664   0.761   3.064   5.587 -1.3342 -1.9620 -0.5838
 8703SOL    HW226665   0.785   2.988   5.458  1.6405  0.6037 -1.6764
 8704SOL     OW26666   7.682   7.458   2.589 -0.1599 -0.3291  0.1588
 8704SOL    HW126667   7.648   7.494   2.671  1.1554 -1.5784  1.3060
 8704SOL    HW226668   7.612   7.400   2.557  0.0597 -1.3365  1.4357
 8705SOL     OW26669   7.255   5.919   4.746  0.1078 -0.4661 -0.5144
 8705SOL    HW126670   7.260   5.883   4.835 -1.9577 -4.5031 -1.7788
 8705SOL    HW226671   7.183   5.982   4.750 -1.4069 -2.1434  0.3578
 8706SOL     OW26672   4.480   4.318   1.931 -0.3049 -0.0794 -0.3526
 8706SOL    HW126673   4.555   4.260   1.914  0.5993  1.0906 -0.4997
 8706SOL    HW226674   4.446   4.339   1.844 -0.1398  0.2242 -0.3456
 8707SOL     OW26675   5.661   6.741   6.134  1.1741 -0.1470  0.2057
 8707SOL    HW126676   5.683   6.834   6.132  0.8516 -0.0780 -1.5058
 8707SOL    HW226677   5.565   6.738   6.138  1.2164 -0.4427  1.9635
 8708SOL     OW26678   2.822   4.806   5.362  0.2521  0.3407  0.3893
 8708SOL    HW126679   2.737   4.762   5.367  0.7047 -0.8542 -1.5516
 8708SOL    HW226680   2.801   4.896   5.336 -0.4245  0.0399 -0.1171
 8709SOL     OW26681   0.271   7.145   5.165 -0.1335  0.2346  0.3217
 8709SOL    HW126682   0.223   7.110   5.240 -0.3045 -0.2095  0.0034
 8709SOL    HW226683   0.358   7.106   5.171  0.1614  0.9284  0.8160
 8710SOL     OW26684   4.100   1.085   4.252  0.2023 -0.3597 -0.3774
 8710SOL    HW126685   4.098   1.162   4.309 -2.0775  0.7252 -1.7770
 8710SOL    HW226686   4.158   1.111   4.179 -0.3425 -0.0572 -0.7080
 8711SOL     OW26687   2.834   3.892   0.152 -0.1283 -0.0533 -0.3034
 8711SOL    HW126688   2.808   3.974   0.109 -0.5922  0.2623  0.5446
 8711SOL    HW226689   2.899   3.919   0.217  2.6544 -0.8651 -2.5664
 8712SOL     OW26690   7.750   0.131   4.956  0.4662 -0.0082 -0.0017
 8712SOL    HW126691   7.698   0.160   4.881  0.7153  1.7806  0.4814
 8712SOL    HW226692   7.819   0.196   4.964  0.2533  0.0123  1.9837
 8713SOL     OW26693   0.157   7.162   4.663 -0.4810 -0.3772 -0.3063
 8713SOL    HW126694   0.230   7.119   4.618 -0.1215 -1.6027  1.3370
 8713SOL    HW226695   0.083   7.104   4.647 -0.4482 -0.5884  0.2893
 8714SOL     OW26696   4.159   6.409   2.871 -0.1756 -0.7061  0.2655
 8714SOL    HW126697   4.252   6.431   2.867 -0.1614 -0.9194 -0.6508
 8714SOL    HW226698   4.158   6.315   2.891 -0.1912 -0.7798 -0.0837
 8715SOL     OW26699   3.837   5.619   3.476 -0.4012  0.1640  0.3738
 8715SOL    HW126700   3.922   5.581   3.499  0.7018  0.1550 -3.1373
 8715SOL    HW226701   3.780   5.595   3.549  1.8385 -2.4775  1.4419
 8716SOL     OW26702   3.857   3.920   2.021  0.7038  0.2746 -0.7294
 8716SOL    HW126703   3.921   3.965   2.075  0.7267  0.6016 -1.0235
 8716SOL    HW226704   3.793   3.885   2.083  0.2241  1.4368 -0.5434
 8717SOL     OW26705   7.748   5.289   5.051 -0.0440 -0.2589 -0.4994
 8717SOL    HW126706   7.841   5.275   5.034  0.2537  0.1642  0.7077
 8717SOL    HW226707   7.706   5.274   4.966  1.1124 -0.4878 -1.0526
 8718SOL     OW26708   2.135   2.869   5.952 -0.2501  0.2655  0.1464
 8718SOL    HW126709   2.040   2.877   5.957 -0.3185 -0.3768 -0.0418
 8718SOL    HW226710   2.166   2.959   5.940 -0.9558  0.2973 -1.8180
 8719SOL     OW26711   4.473   2.992   5.629  0.0083 -0.0981 -0.2932
 8719SOL    HW126712   4.389   3.006   5.673  0.6694  0.5373  0.8047
 8719SOL    HW226713   4.536   3.042   5.681  1.1308 -0.8310 -0.9105
 8720SOL     OW26714   0.273   1.954   1.601 -0.2619  0.2300  0.3249
 8720SOL    HW126715   0.248   1.963   1.509 -1.0025 -0.9728  0.3830
 8720SOL    HW226716   0.195   1.917   1.643  0.5217 -0.5028  1.1736
 8721SOL     OW26717   6.360   4.069   4.081  0.4407 -0.6756 -0.2083
 8721SOL    HW126718   6.439   4.088   4.030  0.2668 -0.2840 -0.3414
 8721SOL    HW226719   6.289   4.074   4.017  0.0945  0.9017  0.2508
 8722SOL     OW26720   1.247   0.328   0.862  0.3007 -0.5701 -0.2825
 8722SOL    HW126721   1.189   0.302   0.934  0.8132 -0.6405  0.1044
 8722SOL    HW226722   1.301   0.398   0.899 -0.1917  0.1684 -0.9333
 8723SOL     OW26723   5.618   7.705   0.853  0.6606  0.3528 -0.7246
 8723SOL    HW126724   5.673   7.762   0.799  1.1276  0.4704 -0.1318
 8723SOL    HW226725   5.540   7.689   0.799  0.4299  1.7073 -0.8359
 8724SOL     OW26726   0.695   6.117   2.755 -0.1976  0.1691 -0.8877
 8724SOL    HW126727   0.695   6.210   2.733  0.8327  0.9794  2.0004
 8724SOL    HW226728   0.603   6.097   2.774 -0.5386  0.3583 -2.2666
 8725SOL     OW26729   3.730   3.837   0.950  0.5670  0.1287 -0.6013
 8725SOL    HW126730   3.771   3.830   0.864  1.5943  2.7754 -0.4121
 8725SOL    HW226731   3.800   3.820   1.012 -0.4793 -3.3274 -0.1280
 8726SOL     OW26732   1.841   5.813   4.951  0.1106 -0.0064  0.2383
 8726SOL    HW126733   1.882   5.898   4.933 -0.9414  0.5257  0.2744
 8726SOL    HW226734   1.747   5.831   4.949 -0.1224 -1.1169  0.5466
 8727SOL     OW26735   7.421   7.124   1.414  0.1891 -0.0561 -0.2955
 8727SOL    HW126736   7.411   7.029   1.412 -0.2280 -0.0505  1.0428
 8727SOL    HW226737   7.399   7.152   1.325 -2.6631 -0.9320  0.0420
 8728SOL     OW26738   1.599   2.656   2.062  0.8223 -0.2155 -0.6676
 8728SOL    HW126739   1.676   2.617   2.103  1.1768  1.1979  0.1093
 8728SOL    HW226740   1.597   2.746   2.096 -3.0316 -1.0400  2.0453
 8729SOL     OW26741   6.200   6.701   1.434  0.4772  0.0115  0.7877
 8729SOL    HW126742   6.135   6.652   1.484  0.1535  0.4990  0.8453
 8729SOL    HW226743   6.201   6.788   1.473  0.8098  0.1533  0.4729
 8730SOL     OW26744   5.641   5.307   7.548 -0.0622  0.2414 -0.1603
 8730SOL    HW126745   5.658   5.268   7.462  3.1933  1.7927 -0.3679
 8730SOL    HW226746   5.591   5.386   7.529  1.6274  1.1991 -0.8609
 8731SOL     OW26747   5.438   6.478   6.534  0.9309  0.2870  0.7055
 8731SOL    HW126748   5.461   6.414   6.466  0.4743  0.5490  0.2914
 8731SOL    HW226749   5.517   6.531   6.545  0.9349  0.3950  0.1954
 8732SOL     OW26750   4.124   6.745   5.927  0.0942 -0.3280 -0.7929
 8732SOL    HW126751   4.128   6.695   6.009  0.4266 -0.1529 -0.6961
 8732SOL    HW226752   4.045   6.715   5.884  0.1643 -0.7638 -0.6249
 8733SOL     OW26753   1.303   5.760   4.977  0.5756  0.1868 -0.1846
 8733SOL    HW126754   1.294   5.713   4.894  0.9462  0.5150 -0.4178
 8733SOL    HW226755   1.336   5.694   5.038 -2.3215 -0.8028  0.4680
 8734SOL     OW26756   6.611   6.514   0.483 -0.5091  0.1580 -0.4128
 8734SOL    HW126757   6.571   6.431   0.506  0.9172 -0.7172 -0.9401
 8734SOL    HW226758   6.613   6.515   0.388 -2.3613  1.7615 -0.4970
 8735SOL     OW26759   7.167   4.980   6.045 -0.3998  0.5866  0.0991
 8735SOL    HW126760   7.090   4.952   6.095  0.1022  0.3947  0.7689
 8735SOL    HW226761   7.242   4.951   6.097  0.1318  1.2911 -0.2571
 8736SOL     OW26762   5.905   4.254   3.315  0.5454  0.3691  0.8693
 8736SOL    HW126763   5.879   4.272   3.224 -0.2099 -2.9230  0.3173
 8736SOL    HW226764   5.850   4.313   3.367 -1.3282  0.1283 -0.6900
 8737SOL     OW26765   4.344   1.031   4.048 -0.4074  0.0706 -0.1388
 8737SOL    HW126766   4.259   1.023   4.004 -0.2994  1.2495 -0.5906
 8737SOL    HW226767   4.394   0.955   4.018 -1.4013 -0.8298  0.3981
 8738SOL     OW26768   1.000   0.786   4.642 -0.1841  0.4882 -0.1216
 8738SOL    HW126769   0.927   0.764   4.700 -0.5905  1.1677 -0.3588
 8738SOL    HW226770   1.057   0.840   4.696  1.6032 -2.2816  0.9525
 8739SOL     OW26771   3.975   5.707   6.459 -0.0452  0.4207 -0.0145
 8739SOL    HW126772   4.047   5.654   6.424 -0.3550  1.1118 -1.7488
 8739SOL    HW226773   4.018   5.771   6.516  0.4278 -0.9245  1.2141
 8740SOL     OW26774   4.879   6.414   1.348  0.4567 -0.0910  0.0236
 8740SOL    HW126775   4.839   6.499   1.366 -0.1923 -0.1596 -0.9901
 8740SOL    HW226776   4.863   6.363   1.428 -0.1333  0.3888  0.2228
 8741SOL     OW26777   6.820   3.128   4.637 -0.7418 -0.0467  0.6035
 8741SOL    HW126778   6.812   3.172   4.722  0.8711 -0.2414  0.8856
 8741SOL    HW226779   6.730   3.120   4.606 -1.1957  4.0000  0.2587
 8742SOL     OW26780   1.408   2.920   6.682  0.3165  0.2854 -0.1482
 8742SOL    HW126781   1.490   2.901   6.637 -0.8961  2.0263 -3.4145
 8742SOL    HW226782   1.404   3.016   6.686 -2.2215  0.3517 -1.6370
 8743SOL     OW26783   4.762   6.239   3.204 -0.2661 -0.5900  0.2393
 8743SOL    HW126784   4.806   6.246   3.289  0.2686  0.3982 -0.1139
 8743SOL    HW226785   4.675   6.204   3.226 -0.5738  0.7750  1.3439
 8744SOL     OW26786   6.302   2.539   1.968 -0.0635  0.3417  0.4111
 8744SOL    HW126787   6.352   2.538   2.050  1.7237  1.1971 -0.6122
 8744SOL    HW226788   6.278   2.631   1.956 -1.2259  0.0619  0.4647
 8745SOL     OW26789   0.619   6.303   4.923 -0.3701 -0.1914  0.0476
 8745SOL    HW126790   0.611   6.324   5.016  1.0109 -0.0734  0.1649
 8745SOL    HW226791   0.530   6.307   4.889 -0.8169  0.3345  1.2465
 8746SOL     OW26792   1.623   7.294   6.224 -0.0120  0.2538  0.1559
 8746SOL    HW126793   1.583   7.245   6.295  0.0902 -1.0322 -0.6330
 8746SOL    HW226794   1.717   7.275   6.231 -0.0598 -0.3475 -0.6319
 8747SOL     OW26795   1.769   2.393   0.802  0.5054  0.3036 -0.0196
 8747SOL    HW126796   1.733   2.477   0.774 -2.0912 -0.9727 -0.8293
 8747SOL    HW226797   1.806   2.355   0.722 -2.3390 -1.1306 -0.8122
 8748SOL     OW26798   2.594   3.861   3.723 -0.0602  0.2773 -1.1426
 8748SOL    HW126799   2.570   3.769   3.728 -2.6935  0.9136 -0.9300
 8748SOL    HW226800   2.515   3.905   3.692  0.5175  2.7229  0.6098
 8749SOL     OW26801   1.200   0.568   7.659  0.3821  0.2681 -0.0039
 8749SOL    HW126802   1.208   0.657   7.623 -2.8117  0.8327  0.3431
 8749SOL    HW226803   1.181   0.582   7.752  0.6291 -0.8320  0.2203
 8750SOL     OW26804   5.275   3.019   6.485 -0.2610  0.4852 -0.3536
 8750SOL    HW126805   5.329   2.954   6.440 -0.9527 -0.5681  0.3175
 8750SOL    HW226806   5.264   2.984   6.573 -2.7113  0.2659 -0.6980
 8751SOL     OW26807   7.697   7.488   5.493  0.0843 -0.3443  0.4325
 8751SOL    HW126808   7.749   7.564   5.468  1.7481 -0.9100  2.0216
 8751SOL    HW226809   7.680   7.443   5.410 -0.6160  1.5038 -0.4928
 8752SOL     OW26810   1.328   2.550   7.727  0.9551 -0.3180  0.2488
 8752SOL    HW126811   1.295   2.462   7.745 -0.1953  0.2807  1.1966
 8752SOL    HW226812   1.261   2.589   7.670  0.4521  0.5926  1.4263
 8753SOL     OW26813   0.500   1.096   5.011  0.0865  0.0029 -0.0214
 8753SOL    HW126814   0.568   1.112   5.077  0.2546 -0.5060 -0.0677
 8753SOL    HW226815   0.447   1.175   5.012  1.3127  0.8653 -0.7648
 8754SOL     OW26816   0.613   2.775   4.456 -0.5768  0.1410  0.0542
 8754SOL    HW126817   0.685   2.809   4.509 -0.8703 -1.8253  1.8231
 8754SOL    HW226818   0.636   2.684   4.438 -0.2550  0.7873 -3.7399
 8755SOL     OW26819   4.862   4.369   3.165 -0.1400 -0.1556  0.1603
 8755SOL    HW126820   4.858   4.383   3.070 -0.7636  1.4453  0.3985
 8755SOL    HW226821   4.894   4.452   3.201  0.1248 -0.7512  1.3619
 8756SOL     OW26822   1.630   2.869   3.448 -0.1091 -0.1998 -0.6197
 8756SOL    HW126823   1.651   2.802   3.383 -2.2485  0.3467 -2.0232
 8756SOL    HW226824   1.542   2.846   3.478  1.1206 -0.9167  2.8581
 8757SOL     OW26825   4.453   1.715   4.809 -0.0992 -0.0492  0.0174
 8757SOL    HW126826   4.409   1.797   4.832  0.2486  0.5275 -1.2462
 8757SOL    HW226827   4.431   1.701   4.717  2.1106  0.1465 -0.5987
 8758SOL     OW26828   1.638   6.800   1.205  0.2733  0.5999  0.2199
 8758SOL    HW126829   1.689   6.796   1.124 -0.7571 -0.1879 -0.4024
 8758SOL    HW226830   1.633   6.893   1.226 -4.3158  1.6059 -3.7947
 8759SOL     OW26831   6.469   7.117   5.222 -0.3283  0.0355  0.1411
 8759SOL    HW126832   6.375   7.100   5.219 -0.7675  2.0616  0.4583
 8759SOL    HW226833   6.483   7.158   5.308  1.3232 -2.4612  1.1729
 8760SOL     OW26834   3.172   6.304   3.415  0.3486  0.4717 -0.7745
 8760SOL    HW126835   3.259   6.345   3.415 -0.1773  1.6387  0.1500
 8760SOL    HW226836   3.140   6.315   3.325  0.4547  1.5859 -0.6811
 8761SOL     OW26837   4.555   1.577   3.644  0.1245 -0.2090  0.8323
 8761SOL    HW126838   4.508   1.595   3.725 -0.9890 -0.6178  0.2951
 8761SOL    HW226839   4.593   1.661   3.620 -1.0318  0.3397  0.8488
 8762SOL     OW26840   0.447   5.759   7.661 -0.0743 -0.3998 -0.3516
 8762SOL    HW126841   0.412   5.844   7.686 -0.9089 -0.4983 -1.1594
 8762SOL    HW226842   0.373   5.699   7.668 -0.1775 -0.5632 -2.3346
 8763SOL     OW26843   0.127   3.599   6.935  0.1529  0.4478 -0.2829
 8763SOL    HW126844   0.178   3.677   6.916  1.5950 -0.4966 -0.4446
 8763SOL    HW226845   0.186   3.543   6.986 -1.2390 -0.0514  0.8551
 8764SOL     OW26846   2.476   1.461   0.470 -0.3644  0.1044 -0.6270
 8764SOL    HW126847   2.468   1.369   0.444 -0.0803  0.3984 -1.8099
 8764SOL    HW226848   2.560   1.467   0.514 -0.8960 -0.4243  0.4996
 8765SOL     OW26849   2.169   7.457   0.116 -0.2857 -0.0954 -0.1218
 8765SOL    HW126850   2.219   7.523   0.068  1.0608 -0.2579  1.0123
 8765SOL    HW226851   2.216   7.375   0.102 -0.7951 -0.4440  0.1563
 8766SOL     OW26852   2.755   0.110   5.136 -0.5754  0.1029 -0.4406
 8766SOL    HW126853   2.779   0.019   5.120 -1.4524 -0.1469 -0.4133
 8766SOL    HW226854   2.730   0.144   5.050  0.9369  0.7053 -0.6763
 8767SOL     OW26855   2.255   2.944   0.900  0.3120 -0.6609  0.2241
 8767SOL    HW126856   2.170   2.972   0.933 -0.0557 -1.3603 -0.1268
 8767SOL    HW226857   2.241   2.928   0.807  1.4349  1.7059 -0.4395
 8768SOL     OW26858   7.707   2.450   5.776 -0.0328  0.3015  0.0265
 8768SOL    HW126859   7.731   2.369   5.732 -1.0816 -0.6407  1.1405
 8768SOL    HW226860   7.771   2.460   5.847  0.4878  0.8110 -0.4999
 8769SOL     OW26861   0.432   3.268   4.564  0.3715  0.1064 -0.1735
 8769SOL    HW126862   0.437   3.344   4.622  0.1394  1.8316 -2.2874
 8769SOL    HW226863   0.427   3.193   4.623  1.0300  1.6841  2.0037
 8770SOL     OW26864   6.240   1.855   2.132 -0.1077  0.8009  0.2915
 8770SOL    HW126865   6.261   1.816   2.047 -0.3117 -1.2855  1.1510
 8770SOL    HW226866   6.154   1.819   2.155 -0.9991  2.8942  0.5189
 8771SOL     OW26867   5.331   5.001   6.076  0.1086 -0.1632 -0.2684
 8771SOL    HW126868   5.382   4.973   6.000 -1.5025 -2.5571 -0.5873
 8771SOL    HW226869   5.241   5.005   6.043 -0.3471  0.8487  1.0299
 8772SOL     OW26870   3.140   1.401   1.998 -0.2860 -0.3928 -0.0401
 8772SOL    HW126871   3.202   1.349   1.947 -0.9333 -0.4371 -0.7963
 8772SOL    HW226872   3.054   1.372   1.969 -0.6679 -0.0308  0.6933
 8773SOL     OW26873   4.105   4.008   4.670 -0.0615  0.1795 -0.7435
 8773SOL    HW126874   4.168   4.078   4.653  0.4838  0.7179  2.7905
 8773SOL    HW226875   4.150   3.929   4.640  0.4346  1.0214 -2.3158
 8774SOL     OW26876   4.442   6.334   0.518  0.3316  0.0441  0.5828
 8774SOL    HW126877   4.455   6.392   0.593  0.1247 -0.8814  1.3531
 8774SOL    HW226878   4.457   6.246   0.553  0.9229 -0.3553 -0.6262
 8775SOL     OW26879   2.161   6.153   0.548 -0.1966 -0.4634 -0.6091
 8775SOL    HW126880   2.207   6.194   0.621 -1.8841  1.2318 -0.3924
 8775SOL    HW226881   2.145   6.063   0.577 -0.6130  0.0990  1.0296
 8776SOL     OW26882   2.270   0.187   2.430  0.3701  0.8140 -0.5165
 8776SOL    HW126883   2.197   0.154   2.482  1.2195  0.7220  0.6696
 8776SOL    HW226884   2.309   0.109   2.391 -0.2849  0.8857 -1.3446
 8777SOL     OW26885   6.301   3.563   5.644 -0.1652 -0.1221  0.0082
 8777SOL    HW126886   6.235   3.623   5.678 -0.2782  0.0926 -0.5792
 8777SOL    HW226887   6.377   3.577   5.701 -0.6551 -0.4534  0.7576
 8778SOL     OW26888   0.082   4.543   0.783  0.8122  0.1208  0.2642
 8778SOL    HW126889   0.026   4.620   0.774 -1.3356 -0.9893  2.8991
 8778SOL    HW226890   0.170   4.579   0.790  0.0450  2.2236  0.0070
 8779SOL     OW26891   0.837   5.052   0.277  0.5970  0.1619  0.0928
 8779SOL    HW126892   0.890   5.132   0.281  0.7010  0.0680  0.6575
 8779SOL    HW226893   0.775   5.061   0.350  0.2219 -0.0006 -0.2042
 8780SOL     OW26894   0.641   5.154   1.816 -0.2858  0.1326  0.2669
 8780SOL    HW126895   0.688   5.072   1.800 -2.0885 -0.7067 -1.1299
 8780SOL    HW226896   0.693   5.221   1.772  0.5250 -0.4655  0.2898
 8781SOL     OW26897   0.256   6.671   0.429  0.1551  0.3422 -0.2542
 8781SOL    HW126898   0.290   6.674   0.340 -0.7623  0.6328 -0.6050
 8781SOL    HW226899   0.227   6.580   0.441  2.4294 -0.3420  0.6013
 8782SOL     OW26900   4.679   7.599   0.551 -0.1489 -0.6618  0.8240
 8782SOL    HW126901   4.645   7.688   0.554 -0.1471 -0.5933 -0.7261
 8782SOL    HW226902   4.730   7.591   0.632  1.9215  1.6023 -0.1406
 8783SOL     OW26903   7.529   6.930   0.385  0.9927 -0.6405  0.0191
 8783SOL    HW126904   7.509   6.978   0.305 -0.5762  0.7717  1.1498
 8783SOL    HW226905   7.616   6.893   0.371 -0.2107 -2.6320 -3.2721
 8784SOL     OW26906   2.972   3.658   4.285  0.1200 -0.2412 -0.1934
 8784SOL    HW126907   3.023   3.724   4.239  0.5475 -1.0894 -0.9852
 8784SOL    HW226908   2.901   3.636   4.225 -0.3261 -0.1287  0.2840
 8785SOL     OW26909   2.158   0.384   0.258 -0.5023  0.1186  0.1198
 8785SOL    HW126910   2.249   0.394   0.288 -0.6064  1.6072  0.0261
 8785SOL    HW226911   2.107   0.377   0.339 -0.2416 -1.5973  0.1631
 8786SOL     OW26912   5.526   3.989   6.417 -0.3367 -0.0996  0.0506
 8786SOL    HW126913   5.453   3.927   6.417  0.7880 -1.5060  0.5208
 8786SOL    HW226914   5.486   4.074   6.400 -2.1024 -0.7750  0.5736
 8787SOL     OW26915   0.583   7.686   2.624  0.0286  0.4356 -0.2902
 8787SOL    HW126916   0.644   7.655   2.692 -0.4548 -1.3084 -0.6016
 8787SOL    HW226917   0.503   7.707   2.672 -0.8606 -2.2866 -0.3687
 8788SOL     OW26918   2.552   0.228   4.092 -0.5444  0.2475 -0.2413
 8788SOL    HW126919   2.624   0.208   4.032 -0.2948  2.0137 -0.5937
 8788SOL    HW226920   2.481   0.258   4.035 -1.0541 -0.0713  0.2143
 8789SOL     OW26921   3.228   5.702   2.702  0.1515  0.0073  0.4202
 8789SOL    HW126922   3.262   5.681   2.789  2.1843  0.3802 -0.2193
 8789SOL    HW226923   3.294   5.668   2.641 -0.9975  0.1415 -0.9696
 8790SOL     OW26924   6.789   0.195   4.779 -0.5193  0.3491 -0.1815
 8790SOL    HW126925   6.797   0.125   4.714 -0.4288  0.4678 -0.3001
 8790SOL    HW226926   6.855   0.173   4.845 -0.6228  0.2192 -0.1225
 8791SOL     OW26927   7.563   6.881   6.687  0.5208 -0.1139 -0.0351
 8791SOL    HW126928   7.568   6.977   6.687  0.6638 -0.1045  1.1821
 8791SOL    HW226929   7.475   6.861   6.718  0.6369 -0.3793  0.1245
 8792SOL     OW26930   1.542   2.795   2.739 -0.4399 -0.0478  0.2882
 8792SOL    HW126931   1.592   2.870   2.709 -0.6069  0.4739  1.2705
 8792SOL    HW226932   1.552   2.730   2.669  0.4734  0.5362 -0.1448
 8793SOL     OW26933   2.118   7.480   4.541 -0.5952  0.2830 -0.1953
 8793SOL    HW126934   2.153   7.430   4.467  1.0264 -2.3570  2.1744
 8793SOL    HW226935   2.055   7.420   4.582  1.7501 -0.2508  3.0122
 8794SOL     OW26936   4.609   4.864   0.622  0.0771 -0.1422 -0.3541
 8794SOL    HW126937   4.576   4.910   0.544 -0.3336 -0.5819 -0.4432
 8794SOL    HW226938   4.588   4.772   0.607 -0.2344 -0.2007  0.3897
 8795SOL     OW26939   0.115   4.142   6.139 -0.1775 -0.2832 -0.6306
 8795SOL    HW126940   0.038   4.119   6.191 -0.1794 -0.7526 -0.8393
 8795SOL    HW226941   0.087   4.218   6.088 -1.1161 -1.5282 -2.0480
 8796SOL     OW26942   6.176   4.037   6.614 -0.7849  0.1170 -0.3678
 8796SOL    HW126943   6.146   4.005   6.699 -0.5767  0.2105 -0.2593
 8796SOL    HW226944   6.118   4.111   6.595 -0.5962  0.3246 -0.1367
 8797SOL     OW26945   1.850   0.637   4.112 -0.3403 -0.6993 -0.5909
 8797SOL    HW126946   1.757   0.649   4.132 -0.4434 -1.5439 -0.5421
 8797SOL    HW226947   1.856   0.549   4.075  0.4649 -0.7156 -0.4435
 8798SOL     OW26948   5.675   6.799   7.138 -0.3319 -0.0337 -0.0211
 8798SOL    HW126949   5.654   6.725   7.195 -0.3089 -1.1588 -1.4467
 8798SOL    HW226950   5.641   6.875   7.186 -1.9964 -1.1354  0.6402
 8799SOL     OW26951   3.901   6.712   5.271  0.2639  0.1153 -0.2144
 8799SOL    HW126952   3.819   6.706   5.319  0.3345 -2.6429 -0.2570
 8799SOL    HW226953   3.966   6.739   5.336 -0.3555  0.4842  0.2559
 8800SOL     OW26954   6.567   6.489   6.101 -0.0397 -0.3684 -0.2071
 8800SOL    HW126955   6.511   6.556   6.062  1.2390 -0.3900 -2.2081
 8800SOL    HW226956   6.636   6.537   6.146  0.7179 -0.2862 -1.4041
 8801SOL     OW26957   5.566   5.867   2.098  0.5179 -0.5114  0.4341
 8801SOL    HW126958   5.501   5.938   2.099  0.8534 -0.1462 -1.4671
 8801SOL    HW226959   5.646   5.908   2.067  1.1429 -1.4093  0.8267
 8802SOL     OW26960   7.327   1.430   1.905  0.5674 -0.0622  0.1982
 8802SOL    HW126961   7.353   1.519   1.930  0.4087 -0.5844  2.4147
 8802SOL    HW226962   7.256   1.443   1.842  0.9879  1.3883 -0.0073
 8803SOL     OW26963   3.661   5.158   5.731  0.1252 -0.6176 -0.4680
 8803SOL    HW126964   3.695   5.115   5.809 -0.4752  0.2399  0.2983
 8803SOL    HW226965   3.650   5.088   5.667 -0.2051 -1.4933  0.5195
 8804SOL     OW26966   1.141   0.549   2.319  0.3551  0.0398  0.6945
 8804SOL    HW126967   1.052   0.531   2.350 -0.4787  0.8663 -1.0630
 8804SOL    HW226968   1.180   0.463   2.306 -0.5184 -0.3467  0.5788
 8805SOL     OW26969   0.203   6.934   6.224  0.1902  0.6271 -0.1029
 8805SOL    HW126970   0.277   6.993   6.207  1.1508 -0.2460  0.8810
 8805SOL    HW226971   0.132   6.992   6.251  0.0429  1.6143 -2.4035
 8806SOL     OW26972   1.645   1.761   6.726  0.4425  0.0309 -0.3577
 8806SOL    HW126973   1.654   1.754   6.821  1.3153  2.3749 -0.2169
 8806SOL    HW226974   1.664   1.673   6.694  1.0782 -0.5852  1.5707
 8807SOL     OW26975   2.192   5.799   2.365 -0.1465  0.2609  0.6385
 8807SOL    HW126976   2.105   5.830   2.390 -1.0724 -2.2138  0.8052
 8807SOL    HW226977   2.239   5.878   2.339 -2.5872  1.6333  0.0452
 8808SOL     OW26978   1.414   6.058   4.748  0.0092  0.1527  0.2505
 8808SOL    HW126979   1.509   6.058   4.759 -0.1327 -1.0300  1.9712
 8808SOL    HW226980   1.381   6.028   4.832 -1.8490 -0.5356 -0.6756
 8809SOL     OW26981   0.561   1.566   0.538  0.1397 -0.1683  0.7584
 8809SOL    HW126982   0.618   1.638   0.510 -0.5934  0.2321  0.2844
 8809SOL    HW226983   0.537   1.589   0.628 -0.7298  0.5936  0.3426
 8810SOL     OW26984   4.229   5.258   7.374 -0.2669 -0.3211  0.4660
 8810SOL    HW126985   4.178   5.201   7.317 -0.3032 -0.0600  0.2371
 8810SOL    HW226986   4.303   5.287   7.321 -0.3919  0.0571  0.4931
 8811SOL     OW26987   5.294   2.790   3.025  0.3763 -0.4446  0.4292
 8811SOL    HW126988   5.237   2.860   2.994  0.4541 -0.3653  0.4645
 8811SOL    HW226989   5.312   2.812   3.117 -0.0858 -0.8287  0.6201
 8812SOL     OW26990   3.826   1.336   0.274  1.1165  0.2780 -0.2615
 8812SOL    HW126991   3.757   1.363   0.335 -0.2393 -1.5687 -0.9051
 8812SOL    HW226992   3.890   1.407   0.279 -0.0191  1.2711  1.6021
 8813SOL     OW26993   4.983   1.647   5.599  0.8710 -0.3808  0.2584
 8813SOL    HW126994   4.935   1.624   5.679 -1.8867  0.2219 -1.1282
 8813SOL    HW226995   4.996   1.564   5.554  1.6780 -0.6101  0.8766
 8814SOL     OW26996   5.079   6.327   1.625 -0.3643  0.6009 -0.2557
 8814SOL    HW126997   4.998   6.313   1.674 -0.7147 -0.8358 -1.1946
 8814SOL    HW226998   5.101   6.241   1.590  0.7052  1.2976 -1.3502
 8815SOL     OW26999   1.652   6.462   5.237  0.4745  0.0072  0.2088
 8815SOL    HW127000   1.634   6.368   5.237  0.4810 -0.0001  0.6181
 8815SOL    HW227001   1.577   6.502   5.193  0.5280 -0.1988 -0.0691
 8816SOL     OW27002   1.203   6.297   1.247 -0.9606 -0.4025 -0.1407
 8816SOL    HW127003   1.245   6.324   1.329 -0.8075 -0.8276 -0.0783
 8816SOL    HW227004   1.125   6.353   1.240 -0.1137  0.7756 -0.5226
 8817SOL     OW27005   3.339   6.011   3.449  0.0138 -0.1985 -0.3415
 8817SOL    HW127006   3.392   6.044   3.377 -0.8141  0.0438 -0.8585
 8817SOL    HW227007   3.264   6.071   3.453 -0.4708 -0.8171  0.0495
 8818SOL     OW27008   3.228   4.031   5.071 -0.2305  0.1337 -0.0368
 8818SOL    HW127009   3.275   4.038   4.988 -0.7904  0.6421 -0.3224
 8818SOL    HW227010   3.140   4.003   5.047 -0.1085 -0.7252  0.4820
 8819SOL     OW27011   0.943   0.684   5.568  0.1626  0.2255 -0.3619
 8819SOL    HW127012   1.007   0.704   5.636  0.9675  0.6180 -1.2163
 8819SOL    HW227013   0.907   0.600   5.594  1.0789 -0.0419  0.0930
 8820SOL     OW27014   4.249   1.419   7.562  0.0397 -0.1173 -0.0567
 8820SOL    HW127015   4.250   1.324   7.579  1.3782 -0.3575 -1.2254
 8820SOL    HW227016   4.340   1.446   7.575  0.3513  0.3880 -2.7855
 8821SOL     OW27017   0.055   4.678   3.768 -0.3537  0.0412 -0.1774
 8821SOL    HW127018  -0.034   4.691   3.801 -0.4060  3.2005 -1.2830
 8821SOL    HW227019   0.105   4.649   3.844 -1.8298  0.4514  1.0007
 8822SOL     OW27020   0.948   2.059   1.112 -0.3593  0.2507  1.0463
 8822SOL    HW127021   1.036   2.096   1.116 -0.4066  0.2609  2.2779
 8822SOL    HW227022   0.957   1.979   1.059  0.2900  0.4916  0.7920
 8823SOL     OW27023   0.646   7.560   2.011 -0.2637 -0.1455 -0.3224
 8823SOL    HW127024   0.671   7.589   2.099  2.4354 -1.1137 -0.6631
 8823SOL    HW227025   0.642   7.641   1.960 -1.9711  0.4364  0.6622
 8824SOL     OW27026   5.899   1.823   5.270  0.3328  0.5376  0.2861
 8824SOL    HW127027   5.897   1.731   5.246  0.8572  0.7033 -0.4143
 8824SOL    HW227028   5.814   1.839   5.311  0.0061 -0.1061 -0.1375
 8825SOL     OW27029   7.709   3.400   2.974 -0.2406  0.8593 -0.2591
 8825SOL    HW127030   7.619   3.408   2.943 -0.3799 -3.4669 -1.5399
 8825SOL    HW227031   7.702   3.389   3.068 -1.3161 -1.3510 -0.5541
 8826SOL     OW27032   2.558   1.395   0.899  0.0072  0.0372  0.2143
 8826SOL    HW127033   2.612   1.432   0.829 -0.4261 -1.3751 -0.9297
 8826SOL    HW227034   2.582   1.302   0.902 -1.1650 -0.2744  0.8007
 8827SOL     OW27035   2.027   2.170   1.900  0.9845 -0.0076 -0.2349
 8827SOL    HW127036   1.977   2.097   1.862  0.0975  0.6688 -0.4074
 8827SOL    HW227037   2.119   2.147   1.885  0.7950 -1.7686  0.9546
 8828SOL     OW27038   7.586   2.549   6.886  0.3968 -0.0608 -0.1183
 8828SOL    HW127039   7.587   2.537   6.981  2.4550 -1.5557 -0.2576
 8828SOL    HW227040   7.656   2.611   6.868 -1.3755  1.9253 -0.5529
 8829SOL     OW27041   1.758   3.069   3.288 -0.3492 -0.2148 -0.3512
 8829SOL    HW127042   1.713   3.005   3.343 -0.2401 -0.8103 -0.9301
 8829SOL    HW227043   1.796   3.132   3.349 -0.1596 -0.8994  0.2506
 8830SOL     OW27044   1.138   3.829   1.869 -0.5883  0.2546 -0.0490
 8830SOL    HW127045   1.077   3.806   1.940 -1.8616 -0.1353 -1.2200
 8830SOL    HW227046   1.081   3.854   1.797  0.6860  0.6349 -0.9490
 8831SOL     OW27047   4.435   5.758   2.316 -0.3130 -0.2414 -0.0411
 8831SOL    HW127048   4.422   5.728   2.406 -0.4763  0.7838  0.2867
 8831SOL    HW227049   4.444   5.677   2.265  2.3198 -0.8523  1.2306
 8832SOL     OW27050   0.908   2.521   5.617 -0.0534 -0.0214  0.1754
 8832SOL    HW127051   0.992   2.517   5.571 -0.4341  1.8113 -0.7807
 8832SOL    HW227052   0.929   2.505   5.709  1.1408 -0.8234 -0.2167
 8833SOL     OW27053   0.734   3.318   4.664  0.0141 -0.2995 -0.1634
 8833SOL    HW127054   0.714   3.298   4.573 -0.8491  0.3841 -0.1451
 8833SOL    HW227055   0.812   3.374   4.660 -0.5706  0.5012 -0.5576
 8834SOL     OW27056   7.173   7.108   2.257  0.3860  0.2011 -0.6485
 8834SOL    HW127057   7.204   7.198   2.261 -1.0076  0.6715  0.9268
 8834SOL    HW227058   7.099   7.106   2.319  0.7395 -2.1465 -0.2223
 8835SOL     OW27059   6.099   0.117   5.980 -0.3441  0.2280 -0.5768
 8835SOL    HW127060   6.106   0.176   5.905  2.4272  1.8106  0.7776
 8835SOL    HW227061   6.037   0.160   6.038 -0.5923  0.2743 -0.8721
 8836SOL     OW27062   7.291   2.710   2.574  0.1965  0.2326  0.2644
 8836SOL    HW127063   7.306   2.693   2.667 -0.5283  2.5121  0.8841
 8836SOL    HW227064   7.198   2.695   2.561  0.2236  0.2725  0.0089
 8837SOL     OW27065   3.644   2.257   3.917  0.5503  0.2352 -0.0451
 8837SOL    HW127066   3.599   2.173   3.909 -1.4479  1.2218  0.0846
 8837SOL    HW227067   3.592   2.317   3.862  1.9027  1.4061 -0.1227
 8838SOL     OW27068   4.637   4.370   0.362 -0.0479  0.1931  0.7442
 8838SOL    HW127069   4.595   4.316   0.429 -0.8013 -0.5773 -0.3261
 8838SOL    HW227070   4.570   4.383   0.295  1.2920 -0.8968 -0.9054
 8839SOL     OW27071   3.412   5.419   3.871  0.1728 -0.4765  0.3371
 8839SOL    HW127072   3.351   5.392   3.802 -1.3562 -2.4770  2.3459
 8839SOL    HW227073   3.491   5.368   3.855  0.1422 -0.3168 -0.3698
 8840SOL     OW27074   3.800   1.714   3.445  0.0811  0.4382  0.0500
 8840SOL    HW127075   3.896   1.714   3.443  0.1608  0.3792  2.3320
 8840SOL    HW227076   3.776   1.805   3.426  0.6528  0.8253  1.1428
 8841SOL     OW27077   0.306   6.338   0.924  0.5602  0.3407 -0.6775
 8841SOL    HW127078   0.275   6.428   0.920 -1.6936 -0.3560 -0.2027
 8841SOL    HW227079   0.278   6.299   0.841 -1.6349 -0.7844  0.4856
 8842SOL     OW27080   0.025   0.849   4.497  0.2488 -0.0338  0.2082
 8842SOL    HW127081   0.032   0.909   4.571 -0.6436 -1.4761  1.5089
 8842SOL    HW227082  -0.068   0.845   4.477  0.3481 -0.6458 -0.1632
 8843SOL     OW27083   0.089   0.817   2.076  0.0395 -0.0689 -0.3325
 8843SOL    HW127084   0.153   0.803   2.145  0.4779 -1.8030 -1.0573
 8843SOL    HW227085   0.020   0.752   2.093  0.0321 -0.3467 -1.3711
 8844SOL     OW27086   2.152   4.687   3.805 -0.3559 -0.1302 -0.1159
 8844SOL    HW127087   2.122   4.777   3.820 -5.5386 -1.4370 -0.7565
 8844SOL    HW227088   2.182   4.687   3.714  1.8032  1.2874  0.5264
 8845SOL     OW27089   4.734   2.717   7.698  0.2993  0.1578  0.3037
 8845SOL    HW127090   4.739   2.765   7.616 -1.9047  1.8044  1.0394
 8845SOL    HW227091   4.774   2.776   7.762 -0.5393  0.1433  0.8594
 8846SOL     OW27092   4.262   7.649   7.124 -0.1067 -0.0219  0.5328
 8846SOL    HW127093   4.284   7.566   7.165 -0.1857 -0.1237  0.3723
 8846SOL    HW227094   4.300   7.644   7.036  1.5569  0.8958  1.1665
 8847SOL     OW27095   1.362   6.071   6.540 -0.0841 -0.6737 -0.5201
 8847SOL    HW127096   1.353   6.153   6.589 -0.8396 -0.9628 -0.1576
 8847SOL    HW227097   1.281   6.023   6.558  1.1742 -2.4167  0.9785
 8848SOL     OW27098   4.965   2.132   2.743 -0.2127 -0.0445  0.3283
 8848SOL    HW127099   4.972   2.039   2.762  1.8382  0.0371  0.2165
 8848SOL    HW227100   4.968   2.174   2.829 -0.5659 -0.0458  0.3439
 8849SOL     OW27101   0.477   1.741   7.257 -0.9320 -0.5225  0.1906
 8849SOL    HW127102   0.527   1.722   7.337  0.0310 -0.5648 -0.4111
 8849SOL    HW227103   0.390   1.764   7.289 -0.4100  0.0222  1.2922
 8850SOL     OW27104   1.542   0.848   7.381  0.1583 -0.0881  0.0281
 8850SOL    HW127105   1.584   0.770   7.344  0.5672  0.5048 -0.7773
 8850SOL    HW227106   1.461   0.814   7.421  0.4155 -0.9495 -0.1523
 8851SOL     OW27107   6.769   0.235   2.958  0.1653  0.2514  0.0397
 8851SOL    HW127108   6.677   0.257   2.975  0.3139 -0.8038  2.7483
 8851SOL    HW227109   6.779   0.146   2.991  2.0048  0.0510 -0.9199
 8852SOL     OW27110   1.370   7.378   2.059 -0.2660 -0.1866 -0.0269
 8852SOL    HW127111   1.448   7.406   2.012 -1.0827 -0.3090 -1.5356
 8852SOL    HW227112   1.402   7.321   2.128  0.9366 -0.6919 -0.9627
 8853SOL     OW27113   3.209   3.186   5.827 -0.0109 -0.5334 -0.8745
 8853SOL    HW127114   3.157   3.257   5.865 -2.1066 -2.7286  0.6397
 8853SOL    HW227115   3.243   3.222   5.745  1.1701  3.0105  0.9550
 8854SOL     OW27116   6.956   2.021   2.880  0.1945 -0.1132  0.2345
 8854SOL    HW127117   6.926   2.103   2.841  1.7597  0.0431 -0.6949
 8854SOL    HW227118   6.996   2.047   2.963 -0.1985 -0.0674  0.4138
 8855SOL     OW27119   4.146   2.358   2.084 -0.4072  0.2378 -0.0339
 8855SOL    HW127120   4.120   2.328   1.997  0.3196 -0.5488 -0.0004
 8855SOL    HW227121   4.240   2.376   2.076 -0.1722 -0.5401  0.7487
 8856SOL     OW27122   5.423   7.417   0.613  0.0168 -0.3030  0.0734
 8856SOL    HW127123   5.400   7.502   0.650 -4.4556 -0.5489 -1.4635
 8856SOL    HW227124   5.399   7.353   0.680  2.8382 -0.5246  1.0044
 8857SOL     OW27125   2.500   3.110   7.471  0.0432 -0.1687 -0.1495
 8857SOL    HW127126   2.424   3.169   7.463  1.6779  1.7541 -4.7943
 8857SOL    HW227127   2.499   3.059   7.390  2.4653 -1.7905  0.7511
 8858SOL     OW27128   0.161   1.277   2.729 -0.2510 -0.4063 -0.0729
 8858SOL    HW127129   0.174   1.273   2.635 -1.3153 -0.3952 -0.2212
 8858SOL    HW227130   0.248   1.300   2.764 -0.0980  0.6837 -1.1238
 8859SOL     OW27131   7.149   3.351   6.472 -0.1886  0.4435 -0.2440
 8859SOL    HW127132   7.088   3.284   6.503  0.4214 -0.1275 -0.2432
 8859SOL    HW227133   7.117   3.433   6.509 -0.6874  0.0828  0.1299
 8860SOL     OW27134   0.888   2.819   4.685  0.3668 -0.0004 -0.0839
 8860SOL    HW127135   0.951   2.883   4.651 -0.0321  1.0442  1.0595
 8860SOL    HW227136   0.813   2.871   4.711  0.1754 -0.8909  1.2191
 8861SOL     OW27137   7.181   2.347   3.832  0.1034 -0.7486 -0.0198
 8861SOL    HW127138   7.228   2.264   3.821  0.0356 -0.8331  0.3071
 8861SOL    HW227139   7.198   2.372   3.923  0.6076 -0.1026 -0.2898
 8862SOL     OW27140   6.981   6.380   0.862  0.0865  0.0172  0.0925
 8862SOL    HW127141   7.037   6.457   0.878 -0.2963  0.4007 -0.3637
 8862SOL    HW227142   6.914   6.412   0.801 -0.9288 -0.3027  1.0030
 8863SOL     OW27143   1.171   0.430   4.722 -0.0005  0.1267 -0.1631
 8863SOL    HW127144   1.077   0.420   4.733 -0.0509 -0.0653 -0.7437
 8863SOL    HW227145   1.199   0.349   4.679  0.1671  0.8847 -1.5280
 8864SOL     OW27146   5.336   0.101   5.506  0.2322  0.1034 -0.1017
 8864SOL    HW127147   5.247   0.106   5.471  0.5474  2.3802 -0.7955
 8864SOL    HW227148   5.381   0.039   5.449 -0.3624  0.6399 -1.1973
 8865SOL     OW27149   2.946   4.723   0.448 -0.4951 -0.0043  0.0467
 8865SOL    HW127150   2.953   4.635   0.485  0.7754  0.1873  0.2967
 8865SOL    HW227151   2.876   4.716   0.383 -0.8165 -1.0440  0.4880
 8866SOL     OW27152   4.228   1.816   5.715 -0.2561  0.2102 -0.2682
 8866SOL    HW127153   4.263   1.805   5.803  1.1448  0.3645 -0.7668
 8866SOL    HW227154   4.210   1.910   5.707 -3.1697 -0.1603  0.7893
 8867SOL     OW27155   5.330   1.173   0.365 -0.3197 -0.1152  0.4180
 8867SOL    HW127156   5.260   1.189   0.429  0.0923  4.1866  0.0981
 8867SOL    HW227157   5.286   1.175   0.280 -0.0296  2.0861  0.2484
 8868SOL     OW27158   6.438   4.591   3.478 -0.1511  0.1887 -0.4028
 8868SOL    HW127159   6.528   4.624   3.481 -0.0772  0.0336 -0.8212
 8868SOL    HW227160   6.411   4.603   3.387 -1.6004  2.9745  0.2991
 8869SOL     OW27161   3.555   5.835   5.542  0.4477  0.3863  0.5132
 8869SOL    HW127162   3.616   5.790   5.484  0.4294 -2.7787  2.6812
 8869SOL    HW227163   3.469   5.821   5.501  0.7323  1.3593 -0.4767
 8870SOL     OW27164   6.151   4.925   2.145 -0.4661  0.1221 -0.2766
 8870SOL    HW127165   6.059   4.938   2.122 -0.1361  1.2375 -1.0679
 8870SOL    HW227166   6.195   5.004   2.113  1.0252 -1.0932 -1.3562
 8871SOL     OW27167   7.280   4.594   3.420  0.2906 -0.0922 -0.2958
 8871SOL    HW127168   7.249   4.542   3.345  1.7780 -0.5899 -0.6000
 8871SOL    HW227169   7.228   4.563   3.494 -1.0144  0.2132 -1.0450
 8872SOL     OW27170   1.952   3.737   1.494 -0.0494  0.1484 -0.3952
 8872SOL    HW127171   1.921   3.679   1.563  1.5666  1.2495  1.3743
 8872SOL    HW227172   2.033   3.696   1.463  1.5513  1.7206  1.4360
 8873SOL     OW27173   0.257   1.721   5.701  0.1189 -0.0935 -0.7401
 8873SOL    HW127174   0.313   1.737   5.777  0.6354 -0.3220 -1.0642
 8873SOL    HW227175   0.318   1.716   5.628 -0.2991 -0.6734 -1.0524
 8874SOL     OW27176   6.365   1.296   4.244 -0.1204  0.4943 -0.4720
 8874SOL    HW127177   6.414   1.320   4.323 -0.0179  0.3440 -0.4888
 8874SOL    HW227178   6.337   1.379   4.207  0.5650  0.6061 -0.7431
 8875SOL     OW27179   7.456   1.118   7.750  0.4540 -0.0268 -0.1801
 8875SOL    HW127180   7.398   1.055   7.794  2.3176 -0.6395  1.5792
 8875SOL    HW227181   7.508   1.064   7.690  0.8244  0.1256  0.0042
 8876SOL     OW27182   1.271   1.964   4.328 -0.0692  0.3586  0.2127
 8876SOL    HW127183   1.189   1.985   4.284  0.3692 -2.0078 -2.0415
 8876SOL    HW227184   1.248   1.957   4.420 -2.6426 -1.0101 -0.4248
 8877SOL     OW27185   0.667   4.975   4.529 -0.2105 -0.0967 -0.3134
 8877SOL    HW127186   0.665   5.040   4.599  1.9366 -0.9101  0.6062
 8877SOL    HW227187   0.723   5.013   4.462 -0.1446 -0.3784 -0.4207
 8878SOL     OW27188   0.171   1.079   5.083  0.1751 -0.1495 -0.4853
 8878SOL    HW127189   0.087   1.103   5.121  1.1795  1.5699  0.7945
 8878SOL    HW227190   0.170   1.117   4.995 -1.0769 -1.7865 -1.2434
 8879SOL     OW27191   6.733   4.611   3.483 -0.7638  0.1870 -0.1011
 8879SOL    HW127192   6.799   4.599   3.551  0.6201  0.6032 -1.3167
 8879SOL    HW227193   6.757   4.548   3.415 -2.3280 -0.4674 -0.0824
 8880SOL     OW27194   6.694   7.146   1.331 -0.2247  0.2249  0.3290
 8880SOL    HW127195   6.622   7.084   1.325 -0.2035  0.2501 -0.2864
 8880SOL    HW227196   6.661   7.225   1.288  0.3279  0.0775 -0.3841
 8881SOL     OW27197   0.729   7.301   6.247 -0.4206 -0.7212 -0.1293
 8881SOL    HW127198   0.637   7.328   6.243 -0.2258  0.6679  2.4448
 8881SOL    HW227199   0.778   7.375   6.212 -0.2223 -1.0825 -0.6275
 8882SOL     OW27200   1.871   6.527   1.736  0.0145  0.3929  0.1525
 8882SOL    HW127201   1.911   6.613   1.747  1.1042  0.0316 -0.7437
 8882SOL    HW227202   1.880   6.484   1.821 -1.5057  1.5123  0.9394
 8883SOL     OW27203   6.757   1.561   5.234  0.4466  0.2551  0.7348
 8883SOL    HW127204   6.666   1.530   5.225  1.2469 -2.1863  0.1988
 8883SOL    HW227205   6.796   1.545   5.149  1.0399  2.7447  0.4743
 8884SOL     OW27206   7.651   2.327   3.012 -0.1981  0.4877 -0.1435
 8884SOL    HW127207   7.565   2.365   3.032  0.2642  1.4805  0.0090
 8884SOL    HW227208   7.637   2.280   2.929 -0.4882  2.1245 -1.0754
 8885SOL     OW27209   1.427   2.061   3.737  0.0989  0.2201 -0.3728
 8885SOL    HW127210   1.356   2.115   3.702  1.0359  2.2882  0.7554
 8885SOL    HW227211   1.497   2.068   3.672 -0.0445 -0.3030 -0.5914
 8886SOL     OW27212   0.144   5.937   3.652  0.5776 -0.1791  0.5209
 8886SOL    HW127213   0.117   5.966   3.739  1.4115 -1.2328  1.1594
 8886SOL    HW227214   0.142   5.841   3.657 -0.9957 -0.2786 -1.1543
 8887SOL     OW27215   0.204   5.337   3.928  0.3180  0.1337  0.5521
 8887SOL    HW127216   0.123   5.373   3.961  0.6915 -0.8389  2.6793
 8887SOL    HW227217   0.262   5.412   3.918 -0.1563  0.5807  1.1222
 8888SOL     OW27218   6.821   4.978   0.379 -0.1247 -0.2712 -0.0114
 8888SOL    HW127219   6.824   4.954   0.287  0.4001  2.1102 -0.7017
 8888SOL    HW227220   6.908   5.015   0.397 -0.7469  0.8256  0.9425
 8889SOL     OW27221   4.901   0.801   7.038 -0.7999  0.1637 -0.1827
 8889SOL    HW127222   4.985   0.773   7.074 -1.1627 -1.3939 -0.4805
 8889SOL    HW227223   4.924   0.847   6.957 -0.1482  1.3493  0.6414
 8890SOL     OW27224   4.256   3.962   5.643 -0.2704 -0.4710  0.1293
 8890SOL    HW127225   4.187   3.914   5.690 -1.1815 -0.0397 -0.7470
 8890SOL    HW227226   4.324   3.896   5.627 -0.1655 -0.7577  1.5606
 8891SOL     OW27227   6.341   0.256   7.370 -0.4165 -0.0599  0.5679
 8891SOL    HW127228   6.435   0.273   7.374 -0.4461  0.2040  0.1681
 8891SOL    HW227229   6.318   0.267   7.277 -0.6291 -1.2404  0.4578
 8892SOL     OW27230   6.971   3.720   4.844 -0.3157 -0.2548  0.0309
 8892SOL    HW127231   7.000   3.801   4.802  0.7252 -0.8425 -0.4159
 8892SOL    HW227232   7.020   3.717   4.926 -0.1907 -0.5337 -0.0527
 8893SOL     OW27233   1.067   5.065   6.796  0.4637 -0.2428 -0.0143
 8893SOL    HW127234   1.077   4.970   6.796  0.5917 -0.2318 -0.8704
 8893SOL    HW227235   1.086   5.091   6.886  1.2189 -0.9440  0.0324
 8894SOL     OW27236   0.994   3.612   2.335 -0.0417 -0.1524  0.0563
 8894SOL    HW127237   0.934   3.646   2.269  0.2690  0.8411  0.2764
 8894SOL    HW227238   0.995   3.517   2.320 -0.8179 -0.0580 -0.6479
 8895SOL     OW27239   6.771   5.358   3.631 -0.5852  0.3738  0.1748
 8895SOL    HW127240   6.714   5.282   3.620 -0.5216  0.5570 -1.6156
 8895SOL    HW227241   6.761   5.382   3.723  0.5999 -2.7215  1.2457
 8896SOL     OW27242   7.754   4.351   4.996  0.1655 -0.2141  0.3619
 8896SOL    HW127243   7.698   4.276   5.013 -1.6198  0.7543 -0.8412
 8896SOL    HW227244   7.694   4.421   4.973  1.8415  1.1930  0.0057
 8897SOL     OW27245   7.040   0.920   5.194  0.2811 -1.0613 -0.6851
 8897SOL    HW127246   7.063   0.876   5.276 -0.3937  0.6064  0.4669
 8897SOL    HW227247   6.965   0.871   5.161 -0.4236 -0.8578  0.5357
 8898SOL     OW27248   0.856   5.278   6.174  0.5764 -0.1705  0.4201
 8898SOL    HW127249   0.948   5.277   6.147  0.3381  0.7360 -0.4682
 8898SOL    HW227250   0.859   5.273   6.270  1.5477 -0.1404  0.4012
 8899SOL     OW27251   6.440   1.959   2.644 -0.1330  0.1479  0.2870
 8899SOL    HW127252   6.513   1.961   2.582 -0.5212  0.9386 -0.1524
 8899SOL    HW227253   6.369   2.005   2.600 -1.7769 -2.7112 -0.3270
 8900SOL     OW27254   5.278   1.126   7.549  0.6542 -0.6129 -0.3094
 8900SOL    HW127255   5.252   1.122   7.458  1.9068 -1.3790 -0.6642
 8900SOL    HW227256   5.340   1.199   7.553  0.4493 -0.4497 -0.0197
 8901SOL     OW27257   6.992   0.957   2.543 -0.7031  0.2739  0.5603
 8901SOL    HW127258   7.062   0.964   2.478  0.1531  0.3885  1.4834
 8901SOL    HW227259   6.952   0.871   2.526 -0.1515  0.0824  0.2190
 8902SOL     OW27260   1.124   2.023   7.379  0.3839 -0.1071  0.2846
 8902SOL    HW127261   1.218   2.031   7.363  0.4513  0.0308  0.7623
 8902SOL    HW227262   1.097   1.949   7.323  1.3876 -2.3849  2.6089
 8903SOL     OW27263   3.592   1.873   1.367  0.3647  0.0991  0.3397
 8903SOL    HW127264   3.549   1.952   1.334 -0.3805 -0.1788  0.6311
 8903SOL    HW227265   3.676   1.871   1.321 -0.3412  0.1049 -1.0228
 8904SOL     OW27266   0.645   4.680   4.578 -0.2962 -0.3531 -0.7061
 8904SOL    HW127267   0.566   4.693   4.630 -0.7769 -0.6769 -1.3423
 8904SOL    HW227268   0.666   4.767   4.544 -1.2285 -0.5137 -1.7292
 8905SOL     OW27269   3.586   7.331   2.601  0.2759  0.2559 -0.0169
 8905SOL    HW127270   3.606   7.422   2.580 -0.6761  0.1681 -1.4370
 8905SOL    HW227271   3.517   7.335   2.667 -1.9993  0.6716 -2.2433
 8906SOL     OW27272   5.791   2.565   3.894 -0.3737 -0.0531  0.2923
 8906SOL    HW127273   5.738   2.569   3.814 -2.0481 -2.1354  1.2013
 8906SOL    HW227274   5.735   2.600   3.963  0.3839  0.0860  0.8508
 8907SOL     OW27275   6.240   4.549   6.378 -0.4060  0.6302 -0.5497
 8907SOL    HW127276   6.261   4.538   6.286  0.3177 -0.5633 -0.2644
 8907SOL    HW227277   6.324   4.568   6.420 -0.9737  3.0156 -0.3583
 8908SOL     OW27278   5.022   3.102   0.508  0.0693 -0.0183  0.3575
 8908SOL    HW127279   5.092   3.149   0.463  1.0291 -2.2026 -0.5627
 8908SOL    HW227280   4.957   3.085   0.440 -0.6433  0.6139  0.8610
 8909SOL     OW27281   1.999   0.953   6.496 -0.1618 -0.0497  0.2590
 8909SOL    HW127282   2.043   0.916   6.419 -0.1266 -1.6391  0.9912
 8909SOL    HW227283   2.037   0.905   6.570  0.1969  1.7982  1.3463
 8910SOL     OW27284   2.785   2.852   2.767  0.6602  0.3039 -0.2681
 8910SOL    HW127285   2.717   2.910   2.801  0.5126  0.2865 -0.5377
 8910SOL    HW227286   2.742   2.767   2.757  0.6718  0.3367 -0.6096
 8911SOL     OW27287   2.207   6.935   0.489  0.4428  0.0820 -0.0013
 8911SOL    HW127288   2.173   6.975   0.569 -0.6978 -0.3659 -0.2375
 8911SOL    HW227289   2.223   7.008   0.430 -2.3568  0.2427 -0.7137
 8912SOL     OW27290   4.611   0.705   6.240  0.0345 -0.1048  0.3004
 8912SOL    HW127291   4.522   0.734   6.260 -0.5612 -1.7698  0.2250
 8912SOL    HW227292   4.613   0.613   6.267  0.9024 -0.8670 -2.0799
 8913SOL     OW27293   1.850   0.398   1.927 -0.7796  0.2807 -0.5215
 8913SOL    HW127294   1.820   0.467   1.987 -1.3619  1.7688 -2.4242
 8913SOL    HW227295   1.769   0.366   1.886 -0.5784 -1.9625  0.6939
 8914SOL     OW27296   7.695   4.952   4.544  0.3087 -0.1063 -0.1091
 8914SOL    HW127297   7.606   4.918   4.543 -0.0350  0.7193  0.6671
 8914SOL    HW227298   7.731   4.929   4.458 -0.8979  0.1755 -0.7119
 8915SOL     OW27299   7.331   5.203   2.152  0.4630 -0.2451  0.1178
 8915SOL    HW127300   7.241   5.216   2.182  0.8614 -0.5879  1.5612
 8915SOL    HW227301   7.329   5.120   2.104  0.0692 -0.4142  0.4277
 8916SOL     OW27302   4.980   5.729   6.867  0.6876 -0.4752 -0.1446
 8916SOL    HW127303   4.910   5.708   6.929 -0.4098  0.6204 -0.9543
 8916SOL    HW227304   4.953   5.684   6.786  1.5699 -1.0577 -0.1255
 8917SOL     OW27305   1.156   2.235   2.958 -0.1221  0.1969 -0.3679
 8917SOL    HW127306   1.073   2.229   2.912 -1.2482  1.4637  1.3934
 8917SOL    HW227307   1.143   2.185   3.039  0.5893  0.9352  0.2274
 8918SOL     OW27308   3.319   4.599   6.099 -0.0581  0.0186  0.1165
 8918SOL    HW127309   3.323   4.632   6.189  2.2608  0.9233 -0.2462
 8918SOL    HW227310   3.352   4.672   6.046  0.7607 -1.2947 -1.2345
 8919SOL     OW27311   6.884   3.499   2.709 -0.2124 -0.4928 -0.8655
 8919SOL    HW127312   6.795   3.532   2.696 -0.3625 -0.6094 -0.1797
 8919SOL    HW227313   6.930   3.571   2.753  0.2138 -0.1979 -1.7567
 8920SOL     OW27314   7.408   7.138   7.624 -0.0227  0.2287 -0.6212
 8920SOL    HW127315   7.456   7.181   7.553  1.4660 -0.4173 -0.0503
 8920SOL    HW227316   7.458   7.058   7.641  1.1504  1.5308  2.8144
 8921SOL     OW27317   5.026   6.369   5.455 -0.1459  0.1291  0.2563
 8921SOL    HW127318   5.064   6.347   5.370 -1.7615  0.5553 -0.6243
 8921SOL    HW227319   5.071   6.312   5.518 -0.7294 -2.0989 -1.2500
 8922SOL     OW27320   6.848   7.242   2.984 -0.2402 -0.1308  0.1554
 8922SOL    HW127321   6.789   7.264   2.912  0.2546 -0.7862 -0.4609
 8922SOL    HW227322   6.791   7.235   3.061 -0.5595  2.4263  0.2612
 8923SOL     OW27323   7.513   2.653   5.707  0.1442 -0.0034 -0.7674
 8923SOL    HW127324   7.572   2.728   5.700  0.1015  0.0891 -0.1820
 8923SOL    HW227325   7.569   2.581   5.736 -0.2022  0.3547  0.9383
 8924SOL     OW27326   4.645   6.402   7.038 -0.1738 -0.0566 -0.3609
 8924SOL    HW127327   4.692   6.350   7.103 -0.4686  0.9400  0.6865
 8924SOL    HW227328   4.711   6.460   7.000 -0.0501 -0.4759 -0.8030
 8925SOL     OW27329   1.117   3.630   5.321  0.1418 -0.4351  0.0384
 8925SOL    HW127330   1.060   3.664   5.253  1.0849  0.5561 -0.2907
 8925SOL    HW227331   1.071   3.554   5.356  0.8703 -2.8246 -3.6301
 8926SOL     OW27332   7.547   4.234   7.628  0.1658 -0.3495  0.6605
 8926SOL    HW127333   7.570   4.251   7.720  2.3785  0.8368 -0.0178
 8926SOL    HW227334   7.548   4.138   7.621  1.6407 -0.4410  1.5338
 8927SOL     OW27335   5.963   0.805   0.432  0.4225 -0.1420  0.3134
 8927SOL    HW127336   6.032   0.817   0.367 -1.8696  0.4191 -2.1993
 8927SOL    HW227337   5.915   0.728   0.402 -2.0907  1.4835 -0.1032
 8928SOL     OW27338   1.482   0.201   2.333 -0.1868  0.4102  0.0349
 8928SOL    HW127339   1.510   0.271   2.391 -0.2313  0.2729  0.2267
 8928SOL    HW227340   1.406   0.236   2.287  1.0297  1.2295 -1.4073
 8929SOL     OW27341   2.615   7.079   5.485 -0.3635 -0.2460  0.1214
 8929SOL    HW127342   2.599   7.173   5.491 -0.0152 -0.0018 -1.9749
 8929SOL    HW227343   2.528   7.040   5.474 -0.5819 -0.2874  1.7471
 8930SOL     OW27344   3.740   5.418   1.156  0.0730 -0.0138  0.0815
 8930SOL    HW127345   3.665   5.441   1.102  0.2855 -0.2907 -0.3354
 8930SOL    HW227346   3.785   5.350   1.106  0.3931 -0.1134  0.5033
 8931SOL     OW27347   7.160   6.062   1.704  0.7133  0.8490  0.0681
 8931SOL    HW127348   7.239   6.067   1.758  1.5053  1.1572 -1.0912
 8931SOL    HW227349   7.106   6.136   1.734  0.0769 -0.3176  2.0018
 8932SOL     OW27350   1.222   5.579   0.284 -0.1241 -0.2024 -0.1939
 8932SOL    HW127351   1.273   5.566   0.205 -1.1285 -0.9611 -0.7384
 8932SOL    HW227352   1.180   5.664   0.272 -1.5981 -1.0385 -1.2693
 8933SOL     OW27353   1.393   3.850   7.389 -0.0780 -0.8289  0.1237
 8933SOL    HW127354   1.316   3.907   7.390  0.3916 -0.1952  0.9815
 8933SOL    HW227355   1.467   3.908   7.405  0.4430 -1.6322  0.7357
 8934SOL     OW27356   3.490   3.244   2.915  0.2617  0.1378  0.6024
 8934SOL    HW127357   3.454   3.333   2.913 -2.3664 -0.8381  0.0514
 8934SOL    HW227358   3.514   3.230   3.006 -0.8226  0.8936  1.0360
 8935SOL     OW27359   2.439   4.941   6.942 -0.7757  0.8746 -0.2115
 8935SOL    HW127360   2.432   4.976   7.030  0.6613  0.6052  0.0313
 8935SOL    HW227361   2.354   4.959   6.902 -0.8862  2.4972  0.6706
 8936SOL     OW27362   7.656   5.758   3.778 -0.0301  0.0396  0.3412
 8936SOL    HW127363   7.642   5.690   3.713  0.9834  0.5879 -0.5032
 8936SOL    HW227364   7.618   5.724   3.859  1.6563 -2.1405  0.3181
 8937SOL     OW27365   2.917   5.772   5.811 -0.1984  0.2289 -0.8902
 8937SOL    HW127366   2.868   5.692   5.793 -0.9758  1.0830 -2.8822
 8937SOL    HW227367   2.866   5.816   5.879  0.7991 -1.4001  0.9798
 8938SOL     OW27368   4.889   1.593   7.018 -0.0964 -0.5917  0.7296
 8938SOL    HW127369   4.909   1.564   6.929 -1.2741 -0.7966  0.5155
 8938SOL    HW227370   4.897   1.689   7.014 -0.4925 -0.5742  0.3087
 8939SOL     OW27371   0.479   0.852   2.317  0.0666  0.2981  0.2440
 8939SOL    HW127372   0.486   0.947   2.315  1.8494  0.2177  0.5009
 8939SOL    HW227373   0.543   0.822   2.253  0.3352 -0.7291  0.9617
 8940SOL     OW27374   0.477   0.248   3.960 -0.6446 -0.2596  0.1938
 8940SOL    HW127375   0.384   0.265   3.941 -0.5439 -0.7242 -0.8054
 8940SOL    HW227376   0.515   0.335   3.971 -1.1702 -0.0582  0.4802
 8941SOL     OW27377   0.182   5.246   7.633 -0.5461  0.2059 -0.8463
 8941SOL    HW127378   0.165   5.194   7.711 -0.8555  1.8155  0.2039
 8941SOL    HW227379   0.143   5.332   7.652 -0.2301  0.7785 -2.5866
 8942SOL     OW27380   1.426   4.836   4.124 -0.6742  0.0934 -0.1356
 8942SOL    HW127381   1.503   4.829   4.067 -0.5097  0.0528  0.0927
 8942SOL    HW227382   1.389   4.921   4.101 -0.5577  0.1172 -0.2420
 8943SOL     OW27383   7.148   7.460   3.331  0.1040  0.1390 -0.1382
 8943SOL    HW127384   7.094   7.436   3.256  1.3871  0.4663 -1.2138
 8943SOL    HW227385   7.107   7.417   3.406 -1.2959 -0.0745 -1.0020
 8944SOL     OW27386   6.407   2.915   2.290  0.0726  0.0235  0.4077
 8944SOL    HW127387   6.369   2.906   2.377 -1.3828 -1.0677 -0.2857
 8944SOL    HW227388   6.452   2.832   2.275  0.3760  0.2309  0.1553
 8945SOL     OW27389   1.012   6.170   0.149  0.3946 -0.0713  0.1776
 8945SOL    HW127390   1.085   6.108   0.157 -0.4279 -1.1168 -0.1699
 8945SOL    HW227391   1.041   6.232   0.081  0.9725 -0.4612  0.0612
 8946SOL     OW27392   3.678   1.231   0.612 -0.3568  0.8134  0.5780
 8946SOL    HW127393   3.634   1.268   0.688 -0.8075  1.9455 -0.2098
 8946SOL    HW227394   3.607   1.204   0.554 -0.0893 -2.1958  1.4781
 8947SOL     OW27395   6.424   5.062   2.554 -0.2887  0.9035  0.0699
 8947SOL    HW127396   6.496   5.041   2.612 -0.7284  0.6580  0.5370
 8947SOL    HW227397   6.419   5.157   2.555  0.3162  0.9480 -0.3328
 8948SOL     OW27398   5.747   0.602   4.736 -0.1686  0.2503 -0.3901
 8948SOL    HW127399   5.835   0.628   4.709 -0.2783  1.4845  0.3441
 8948SOL    HW227400   5.713   0.678   4.784 -2.0280  0.2141 -1.5500
 8949SOL     OW27401   7.676   4.513   1.712  0.2625  0.6308 -0.2210
 8949SOL    HW127402   7.599   4.567   1.731  0.5095  1.7762 -2.1409
 8949SOL    HW227403   7.640   4.433   1.673 -0.0322  0.1032  1.0927
 8950SOL     OW27404   3.278   1.485   0.802  0.0537 -0.2326  0.0496
 8950SOL    HW127405   3.206   1.437   0.760  0.6542 -0.3493 -0.8843
 8950SOL    HW227406   3.275   1.459   0.894 -0.4370 -1.0461 -0.1935
 8951SOL     OW27407   0.407   1.392   6.163  0.4729  0.8071 -0.2369
 8951SOL    HW127408   0.335   1.428   6.112 -0.5815 -0.1099  0.5300
 8951SOL    HW227409   0.365   1.329   6.222  1.6722  1.5131  1.4698
 8952SOL     OW27410   4.583   0.465   0.802 -1.0157  0.0250 -0.6858
 8952SOL    HW127411   4.624   0.505   0.725 -1.7493 -1.1890 -1.7607
 8952SOL    HW227412   4.657   0.427   0.851 -0.6965 -1.3199 -2.1047
 8953SOL     OW27413   5.603   4.273   5.366  0.2906 -0.0090  0.0993
 8953SOL    HW127414   5.626   4.277   5.459 -1.5789  1.1488  0.5711
 8953SOL    HW227415   5.678   4.312   5.321  0.3720  1.3641  1.3287
 8954SOL     OW27416   0.296   6.360   1.524 -0.7720  0.5444  0.5111
 8954SOL    HW127417   0.242   6.438   1.514 -2.1152 -0.4145 -0.1022
 8954SOL    HW227418   0.243   6.302   1.579 -1.5326 -1.3741 -2.0397
 8955SOL     OW27419   0.791   2.354   3.110 -0.0821 -0.5266 -0.0718
 8955SOL    HW127420   0.708   2.358   3.063 -0.1370 -0.6478  0.0133
 8955SOL    HW227421   0.791   2.430   3.168  0.0726 -0.2693 -0.4117
 8956SOL     OW27422   2.597   5.952   2.469  0.3219 -0.0300  0.3079
 8956SOL    HW127423   2.511   5.976   2.436  0.6265 -1.5304 -1.8107
 8956SOL    HW227424   2.582   5.926   2.559 -1.0846  1.5187  0.5626
 8957SOL     OW27425   4.499   2.007   7.332 -0.4805  0.2118 -0.3363
 8957SOL    HW127426   4.555   1.931   7.320  0.1096  0.5525  0.1826
 8957SOL    HW227427   4.555   2.082   7.313 -0.8030  0.5518  0.0268
 8958SOL     OW27428   0.062   2.604   5.247 -0.2161 -0.0159 -0.0141
 8958SOL    HW127429   0.084   2.592   5.154  0.5040 -0.2857  0.1891
 8958SOL    HW227430  -0.017   2.552   5.260 -0.2904 -0.0204 -0.4634
 8959SOL     OW27431   2.708   7.621   6.319 -0.2696 -0.1743 -0.5844
 8959SOL    HW127432   2.620   7.582   6.316  0.3221 -1.7439  0.8288
 8959SOL    HW227433   2.767   7.546   6.328  1.1486  0.9202 -0.3446
 8960SOL     OW27434   4.449   1.444   1.351 -0.1095 -0.0640  0.1273
 8960SOL    HW127435   4.509   1.508   1.313  1.4686 -1.8396 -0.4595
 8960SOL    HW227436   4.405   1.405   1.276  1.7455 -2.3335  0.1195
 8961SOL     OW27437   1.186   0.332   2.992 -0.1528 -0.0216 -0.4912
 8961SOL    HW127438   1.116   0.279   3.031  0.8013 -0.7980  0.1797
 8961SOL    HW227439   1.187   0.413   3.044  0.1794 -0.4715  0.2143
 8962SOL     OW27440   1.243   6.016   1.225 -0.5887  0.2281 -0.1393
 8962SOL    HW127441   1.165   5.976   1.187  0.2182  0.4817 -2.2154
 8962SOL    HW227442   1.213   6.098   1.262 -1.2649  0.4670 -1.1884
 8963SOL     OW27443   6.327   4.977   3.019  0.2550  0.2397  0.3771
 8963SOL    HW127444   6.297   4.995   2.929  1.2463  0.0977  0.0061
 8963SOL    HW227445   6.351   4.884   3.018  0.6047  0.3270  0.6938
 8964SOL     OW27446   0.835   2.210   4.850 -0.2028  0.1917 -0.7607
 8964SOL    HW127447   0.866   2.239   4.764  3.4920 -2.2447 -0.4784
 8964SOL    HW227448   0.759   2.156   4.832  0.5231 -0.2942 -2.5348
 8965SOL     OW27449   4.341   1.981   3.933  0.7707  0.1231 -0.1665
 8965SOL    HW127450   4.391   1.986   3.852  0.9122  2.1728 -0.0146
 8965SOL    HW227451   4.264   2.035   3.917  1.2416  1.3180  1.3284
 8966SOL     OW27452   5.831   7.179   0.136 -0.3245  0.0221  0.1324
 8966SOL    HW127453   5.825   7.125   0.214 -2.0912  0.7087  0.5241
 8966SOL    HW227454   5.898   7.244   0.156 -0.4224 -0.1072  0.8930
 8967SOL     OW27455   5.615   0.941   6.487  0.3690  0.4215  0.5387
 8967SOL    HW127456   5.696   0.983   6.459  0.0085  1.2563  0.7108
 8967SOL    HW227457   5.620   0.938   6.582  0.7436 -0.6729  0.4992
 8968SOL     OW27458   6.550   6.785   3.142 -0.3945  0.6128 -0.2622
 8968SOL    HW127459   6.622   6.725   3.121 -1.8468 -1.7465  0.9617
 8968SOL    HW227460   6.592   6.860   3.183  1.3826 -0.9224  0.9105
 8969SOL     OW27461   4.938   3.807   0.960 -0.2078  0.3021 -0.2302
 8969SOL    HW127462   5.011   3.867   0.978  0.5106 -0.7116  0.2978
 8969SOL    HW227463   4.859   3.861   0.972  0.2855  0.5342  2.9498
 8970SOL     OW27464   0.363   5.474   1.932  0.3070  0.1878  0.2283
 8970SOL    HW127465   0.415   5.414   1.877  0.0481 -0.8945  1.1185
 8970SOL    HW227466   0.273   5.456   1.907  0.1520 -0.7180  1.3742
 8971SOL     OW27467   4.696   2.106   2.668  0.6970 -0.0414 -0.4413
 8971SOL    HW127468   4.787   2.099   2.697  0.8645  1.1174 -0.6345
 8971SOL    HW227469   4.690   2.047   2.593  0.4488 -2.5538  1.4115
 8972SOL     OW27470   2.121   1.118   2.933  0.8276 -0.1027 -0.8403
 8972SOL    HW127471   2.157   1.105   3.020 -0.1883  1.8526 -0.0789
 8972SOL    HW227472   2.130   1.212   2.916  0.1354 -0.2797 -2.4514
 8973SOL     OW27473   6.601   1.376   6.561  0.4491  0.0270 -0.2281
 8973SOL    HW127474   6.685   1.360   6.605  0.7029  0.4307 -0.5686
 8973SOL    HW227475   6.540   1.318   6.607  0.5557  0.9534  1.1490
 8974SOL     OW27476   6.832   5.712   3.326  0.4228 -0.5985  0.1458
 8974SOL    HW127477   6.802   5.802   3.309 -0.1047 -0.5501  1.2654
 8974SOL    HW227478   6.918   5.723   3.366  1.1304 -0.6750 -1.2737
 8975SOL     OW27479   0.399   0.790   4.844  0.5777 -0.0423  0.5362
 8975SOL    HW127480   0.418   0.699   4.868  0.5140 -0.6540 -1.5361
 8975SOL    HW227481   0.483   0.835   4.850  0.8025 -0.4705  0.6141
 8976SOL     OW27482   5.351   0.631   5.789  0.0009  0.2095 -0.0555
 8976SOL    HW127483   5.386   0.570   5.854  0.1675  1.1429  0.7547
 8976SOL    HW227484   5.261   0.645   5.816 -0.5482 -0.9153 -1.1909
 8977SOL     OW27485   7.376   4.880   5.538 -0.1285 -0.2425  0.3531
 8977SOL    HW127486   7.340   4.874   5.627  2.2960  0.2208  1.4331
 8977SOL    HW227487   7.410   4.792   5.520 -1.1712 -0.5146 -0.4314
 8978SOL     OW27488   7.745   4.310   0.809  0.4390 -0.6617  0.4696
 8978SOL    HW127489   7.790   4.394   0.801 -0.1795  0.0820  3.5899
 8978SOL    HW227490   7.783   4.255   0.740  3.1978  1.1522  0.4139
 8979SOL     OW27491   1.104   5.008   3.162  0.1483 -0.0474  0.4455
 8979SOL    HW127492   1.144   4.968   3.085 -0.3253  1.0914 -0.4115
 8979SOL    HW227493   1.029   5.057   3.129  1.6706  3.0150  1.1170
 8980SOL     OW27494   2.824   1.191   4.361 -0.5686 -0.0227 -0.4157
 8980SOL    HW127495   2.856   1.101   4.369 -0.1354  0.1249 -0.4443
 8980SOL    HW227496   2.751   1.186   4.299  1.4095  0.0953 -2.9030
 8981SOL     OW27497   4.816   5.259   6.100 -0.3541 -0.8271 -0.3730
 8981SOL    HW127498   4.907   5.287   6.092 -0.5727 -0.1743 -0.6403
 8981SOL    HW227499   4.798   5.261   6.194 -0.1657 -0.7270 -0.3389
 8982SOL     OW27500   4.869   6.879   7.595  0.4957  0.1433  0.1946
 8982SOL    HW127501   4.793   6.936   7.606  1.7481  1.8586  0.3553
 8982SOL    HW227502   4.873   6.861   7.501  0.3768  0.7379  0.0762
 8983SOL     OW27503   2.407   6.416   6.938 -0.2036 -0.3912 -0.6341
 8983SOL    HW127504   2.319   6.451   6.927  0.7129  2.6947  0.6776
 8983SOL    HW227505   2.462   6.473   6.884  1.2408 -0.8732  0.2816
 8984SOL     OW27506   3.449   3.715   1.473 -0.4564  0.0569  0.1861
 8984SOL    HW127507   3.417   3.625   1.470 -2.5674  0.7431  0.3702
 8984SOL    HW227508   3.431   3.750   1.386  2.4844 -0.2909 -0.6809
 8985SOL     OW27509   4.213   6.446   4.312 -0.1791 -0.0748 -0.1015
 8985SOL    HW127510   4.301   6.464   4.280  0.1433 -0.3713  0.5989
 8985SOL    HW227511   4.189   6.523   4.363 -0.4851  0.1681 -0.5936
 8986SOL     OW27512   1.781   2.715   6.839 -0.2508 -0.4264 -0.3876
 8986SOL    HW127513   1.810   2.788   6.785 -0.5084  0.8168  1.0758
 8986SOL    HW227514   1.852   2.701   6.901  0.1668 -2.0147 -1.1740
 8987SOL     OW27515   0.008   4.544   1.128  0.7538  0.2224  0.0234
 8987SOL    HW127516  -0.037   4.462   1.142  1.0893 -0.1403 -0.9098
 8987SOL    HW227517  -0.029   4.604   1.192 -2.2403  0.4153 -1.7335
 8988SOL     OW27518   2.048   7.282   4.297  0.0253  0.4327  0.1743
 8988SOL    HW127519   2.045   7.200   4.248  0.7291  1.4340 -1.6810
 8988SOL    HW227520   1.961   7.291   4.336  0.1300 -1.4556  0.9516
 8989SOL     OW27521   4.404   5.072   5.939 -0.1513 -0.0824 -0.3591
 8989SOL    HW127522   4.455   5.096   6.017  2.0035  1.8682 -2.2520
 8989SOL    HW227523   4.452   4.998   5.901 -2.1004 -2.1404  0.8803
 8990SOL     OW27524   0.301   7.599   0.208 -0.2681 -0.2020 -0.1212
 8990SOL    HW127525   0.383   7.558   0.237 -0.3873 -0.2511  0.1499
 8990SOL    HW227526   0.325   7.688   0.185 -0.0520 -0.3487 -0.4777
 8991SOL     OW27527   3.304   6.314   2.211  0.0015  0.1976  0.0370
 8991SOL    HW127528   3.397   6.334   2.221  0.1349 -0.2005 -0.3639
 8991SOL    HW227529   3.297   6.221   2.236  0.1751 -0.5496 -2.4284
 8992SOL     OW27530   6.773   7.476   2.267 -0.3336  0.4981 -0.3499
 8992SOL    HW127531   6.853   7.526   2.251  0.8204 -1.1272  0.0102
 8992SOL    HW227532   6.733   7.468   2.180  1.1497 -0.6053 -0.9980
 8993SOL     OW27533   5.524   6.748   5.819 -0.5505 -0.0502 -0.4252
 8993SOL    HW127534   5.615   6.733   5.791  0.2941 -0.1964  2.1135
 8993SOL    HW227535   5.530   6.820   5.881 -2.1061 -0.3525  0.1099
 8994SOL     OW27536   1.543   7.338   1.656 -0.0037 -0.1978  0.7392
 8994SOL    HW127537   1.623   7.326   1.706 -0.2076 -0.1900  1.0719
 8994SOL    HW227538   1.473   7.311   1.716 -0.2631  0.0188  0.5352
 8995SOL     OW27539   4.061   6.063   7.016 -0.0711 -0.5191  0.4602
 8995SOL    HW127540   4.145   6.107   7.030 -0.2505  0.3594 -0.9482
 8995SOL    HW227541   4.078   6.002   6.943 -0.9941  0.8238 -0.9385
 8996SOL     OW27542   3.911   5.720   1.084 -0.3525 -0.5717  0.3275
 8996SOL    HW127543   3.925   5.754   1.173  2.0574 -1.5700  0.4014
 8996SOL    HW227544   3.845   5.651   1.094 -0.4815 -0.3286  1.2406
 8997SOL     OW27545   2.365   1.879   0.965  0.1208  0.6759 -0.1286
 8997SOL    HW127546   2.373   1.784   0.960  3.1238  0.7743  0.9906
 8997SOL    HW227547   2.447   1.909   1.005  0.0434  3.8955 -1.9851
 8998SOL     OW27548   0.725   2.144   5.361 -0.5403  0.1809 -1.0450
 8998SOL    HW127549   0.753   2.082   5.429 -1.7574  0.4451 -0.2771
 8998SOL    HW227550   0.807   2.182   5.329  0.1411 -0.8479 -0.6058
 8999SOL     OW27551   7.016   0.165   7.433 -0.2828  0.4121  0.6314
 8999SOL    HW127552   7.092   0.106   7.434 -0.2139  0.4809 -0.1767
 8999SOL    HW227553   7.022   0.212   7.350 -1.0887  0.5823  0.6559
 9000SOL     OW27554   4.333   5.601   7.665  0.1590 -0.0797 -0.4788
 9000SOL    HW127555   4.254   5.647   7.692  0.5005 -1.4534  3.4656
 9000SOL    HW227556   4.332   5.519   7.716  3.6023 -0.6102 -1.0253
 9001SOL     OW27557   7.624   2.764   0.325  0.0085  0.6766 -0.8056
 9001SOL    HW127558   7.708   2.789   0.363  0.2319  1.8507 -1.9896
 9001SOL    HW227559   7.576   2.724   0.397  1.3243  0.6041  0.0614
 9002SOL     OW27560   4.519   0.104   4.767 -0.5534 -0.6149  0.3815
 9002SOL    HW127561   4.508   0.031   4.827 -1.8372 -1.4736 -0.8323
 9002SOL    HW227562   4.520   0.064   4.680 -0.1436  0.7124 -0.2551
 9003SOL     OW27563   5.421   4.222   3.174  0.4541  0.7233 -0.5810
 9003SOL    HW127564   5.453   4.231   3.084  1.7026 -1.6459 -0.4464
 9003SOL    HW227565   5.385   4.308   3.195  0.6575  1.5256 -3.1249
 9004SOL     OW27566   0.716   4.449   5.149 -0.2289  0.4295  0.1345
 9004SOL    HW127567   0.786   4.418   5.206 -0.7062  1.0372  1.0868
 9004SOL    HW227568   0.761   4.501   5.082  0.3746 -0.5845 -0.2635
 9005SOL     OW27569   7.123   4.034   4.885  0.1970 -0.1215 -0.6854
 9005SOL    HW127570   7.127   4.129   4.881  2.9199 -0.1340 -0.0918
 9005SOL    HW227571   7.120   4.014   4.979 -2.5315 -0.6817 -0.7913
 9006SOL     OW27572   7.365   1.569   6.388  0.3039  0.0658  0.2396
 9006SOL    HW127573   7.393   1.613   6.308  1.8184 -2.1044 -0.5161
 9006SOL    HW227574   7.446   1.537   6.428 -0.6087 -0.9010  1.4251
 9007SOL     OW27575   3.208   5.240   0.310 -0.4406 -0.2482  0.0875
 9007SOL    HW127576   3.289   5.234   0.361  1.9832  0.5682 -3.3131
 9007SOL    HW227577   3.167   5.322   0.339  0.0942 -0.5044  1.6445
 9008SOL     OW27578   7.587   3.118   1.720  0.0709  0.5798 -0.1019
 9008SOL    HW127579   7.591   3.211   1.742  1.3870  0.6967 -0.7330
 9008SOL    HW227580   7.678   3.093   1.707 -0.2702 -0.7964  0.0067
 9009SOL     OW27581   2.276   7.451   7.516  0.8056  0.8988 -0.5297
 9009SOL    HW127582   2.212   7.381   7.526  2.3580 -0.7324 -1.2776
 9009SOL    HW227583   2.238   7.526   7.562 -0.8223 -0.5050  0.5397
 9010SOL     OW27584   2.779   4.496   7.294 -0.8247  0.2068 -0.1997
 9010SOL    HW127585   2.722   4.551   7.241  0.7074  0.8224 -1.2529
 9010SOL    HW227586   2.758   4.407   7.267 -0.4337  0.4881 -1.4927
 9011SOL     OW27587   0.087   4.986   3.489  0.2857  0.1320  0.2013
 9011SOL    HW127588   0.005   4.979   3.441  0.3928 -0.5651  0.0992
 9011SOL    HW227589   0.069   5.045   3.562 -0.4378 -0.3998  0.4601
 9012SOL     OW27590   5.524   3.008   1.646 -0.0454  0.2345  0.4328
 9012SOL    HW127591   5.610   2.968   1.634 -0.4720 -0.6616  0.3471
 9012SOL    HW227592   5.469   2.968   1.580 -0.1633  1.9744 -0.6022
 9013SOL     OW27593   0.422   4.922   3.421 -0.2564 -0.0651  0.3686
 9013SOL    HW127594   0.355   4.989   3.403  1.1710  1.1985 -0.4385
 9013SOL    HW227595   0.374   4.854   3.469 -1.7296  1.6455  1.4973
 9014SOL     OW27596   3.197   7.113   0.069  0.0924 -0.2255  0.3853
 9014SOL    HW127597   3.103   7.126   0.083 -0.2291 -0.7572 -1.0666
 9014SOL    HW227598   3.234   7.200   0.074 -0.3316 -0.1029  1.8597
 9015SOL     OW27599   0.450   4.693   1.130  0.1684 -0.1077  0.3027
 9015SOL    HW127600   0.466   4.770   1.075 -1.4685 -1.2943 -1.9949
 9015SOL    HW227601   0.382   4.721   1.191  1.3791  0.9635  1.2244
 9016SOL     OW27602   2.916   6.890   0.527  0.0941  0.2644 -0.2608
 9016SOL    HW127603   2.826   6.916   0.508 -0.2560 -0.7125  0.0018
 9016SOL    HW227604   2.919   6.796   0.508  1.0135  0.2505 -0.1106
 9017SOL     OW27605   1.557   5.546   2.148  0.5051  0.1141 -0.0439
 9017SOL    HW127606   1.651   5.558   2.157  0.5620 -0.6526  0.4629
 9017SOL    HW227607   1.544   5.451   2.158 -0.2177  0.1007 -0.9925
 9018SOL     OW27608   5.449   1.568   5.848 -0.0445 -0.6333  0.6288
 9018SOL    HW127609   5.472   1.480   5.877 -0.5713 -0.8481  0.4186
 9018SOL    HW227610   5.354   1.563   5.832  0.2744 -0.6334 -1.5058
 9019SOL     OW27611   4.586   3.307   3.013  0.0332  0.4249 -0.9464
 9019SOL    HW127612   4.664   3.308   2.958  2.6326  1.0778  2.4330
 9019SOL    HW227613   4.562   3.215   3.020  0.8748  0.1589 -1.5061
 9020SOL     OW27614   2.603   0.459   4.611  0.3758 -0.1768  0.6220
 9020SOL    HW127615   2.541   0.442   4.683  0.2447 -1.3539  0.2629
 9020SOL    HW227616   2.686   0.478   4.655  0.0925  0.0004  1.0951
 9021SOL     OW27617   5.342   6.911   7.446 -0.0572  0.0402  0.1900
 9021SOL    HW127618   5.248   6.927   7.437  0.1967  2.2391  0.9808
 9021SOL    HW227619   5.375   6.911   7.356 -0.9127 -1.9002 -0.1900
 9022SOL     OW27620   4.547   7.712   4.489 -0.2608  0.6511 -0.3961
 9022SOL    HW127621   4.486   7.743   4.423 -0.6957  0.3625 -0.1349
 9022SOL    HW227622   4.505   7.636   4.528  1.1690 -0.8501 -1.6285
 9023SOL     OW27623   5.709   0.403   5.927  0.1792 -0.0215 -0.0876
 9023SOL    HW127624   5.776   0.428   5.864 -1.2529  1.2139 -1.2024
 9023SOL    HW227625   5.755   0.397   6.010  1.5788  1.2574 -0.7174
 9024SOL     OW27626   7.003   1.006   1.954 -0.0426 -0.3747  0.0391
 9024SOL    HW127627   7.023   0.922   1.912  0.8617  1.1232 -2.7477
 9024SOL    HW227628   7.057   1.070   1.908 -1.4242  1.9204  1.4010
 9025SOL     OW27629   3.192   7.349   4.315  0.1665  0.4634 -0.5308
 9025SOL    HW127630   3.204   7.444   4.323 -0.6718  0.6188 -0.9410
 9025SOL    HW227631   3.126   7.340   4.246 -0.0966 -0.4044 -0.1705
 9026SOL     OW27632   6.735   0.190   1.853  0.2299  0.2091  0.4244
 9026SOL    HW127633   6.708   0.219   1.940  1.0910  0.9218  0.4657
 9026SOL    HW227634   6.760   0.270   1.807 -0.6374 -0.1040 -0.6448
 9027SOL     OW27635   0.434   1.797   3.958  0.3851  0.1527 -0.0491
 9027SOL    HW127636   0.502   1.812   3.893  1.3255 -0.4972  0.7454
 9027SOL    HW227637   0.465   1.723   4.009 -1.2715 -0.6351 -0.0997
 9028SOL     OW27638   1.699   0.191   1.790  0.0971 -0.2147 -0.4697
 9028SOL    HW127639   1.680   0.104   1.756  0.5660  0.6236 -3.0685
 9028SOL    HW227640   1.615   0.225   1.820  0.0140 -1.7389  1.1883
 9029SOL     OW27641   2.125   6.856   0.126 -0.0703 -0.3017 -0.0356
 9029SOL    HW127642   2.200   6.803   0.150  0.4448  0.5950  0.3697
 9029SOL    HW227643   2.159   6.945   0.119 -0.9249 -0.0065 -0.6623
 9030SOL     OW27644   3.306   6.353   4.939 -0.2301  0.2915 -0.3680
 9030SOL    HW127645   3.250   6.276   4.952  0.0790  0.0624 -0.3999
 9030SOL    HW227646   3.384   6.320   4.896  0.8352  0.2647  1.4735
 9031SOL     OW27647   5.170   3.693   3.113 -0.0511  0.4740 -0.4095
 9031SOL    HW127648   5.255   3.650   3.124  0.4735  1.1215 -1.6213
 9031SOL    HW227649   5.112   3.649   3.175  0.4244 -1.9840 -1.5841
 9032SOL     OW27650   5.536   0.430   2.992  0.3362 -0.4131  0.0943
 9032SOL    HW127651   5.460   0.429   2.934 -1.5572  0.6714  2.3879
 9032SOL    HW227652   5.524   0.353   3.048  3.2780 -2.7360 -2.0936
 9033SOL     OW27653   3.656   5.986   1.580  0.1892 -0.4517  0.0829
 9033SOL    HW127654   3.702   6.044   1.641  0.3658  0.2422 -0.7022
 9033SOL    HW227655   3.627   5.912   1.635  1.1800 -0.3154  0.8204
 9034SOL     OW27656   4.078   1.860   0.832  0.0133  0.1794  0.2273
 9034SOL    HW127657   4.018   1.932   0.814 -1.0264 -0.4668  0.9722
 9034SOL    HW227658   4.165   1.900   0.831 -0.4316  1.1736 -0.6904
 9035SOL     OW27659   5.043   1.229   3.880 -0.3856 -0.2082 -0.4389
 9035SOL    HW127660   5.111   1.232   3.813 -0.1517 -0.0417 -0.1975
 9035SOL    HW227661   4.998   1.313   3.872 -0.0862 -0.0138 -0.1104
 9036SOL     OW27662   1.515   5.258   7.581 -0.6972  0.2504  0.3757
 9036SOL    HW127663   1.584   5.198   7.550 -0.5936  1.0671 -1.0445
 9036SOL    HW227664   1.515   5.247   7.676  1.6326  0.4584  0.4566
 9037SOL     OW27665   1.778   1.352   1.419 -0.7138  0.0907  0.1689
 9037SOL    HW127666   1.713   1.410   1.379 -0.9834  0.3791  1.0049
 9037SOL    HW227667   1.735   1.319   1.498  0.0582  0.0860  0.5993
 9038SOL     OW27668   2.496   4.876   4.866 -0.0406  0.0437  0.3493
 9038SOL    HW127669   2.551   4.817   4.815  2.9307  2.2377  0.7783
 9038SOL    HW227670   2.460   4.937   4.801 -1.5485 -0.9839  0.1606
 9039SOL     OW27671   1.099   6.125   1.966 -0.4152 -0.4309  0.1588
 9039SOL    HW127672   1.050   6.048   1.937  0.0901 -0.5107 -0.5312
 9039SOL    HW227673   1.184   6.091   1.993 -0.8326 -0.3324  1.6439
 9040SOL     OW27674   0.637   4.763   3.120  0.0558  0.0886 -0.4239
 9040SOL    HW127675   0.557   4.713   3.136  2.0172 -2.5407  2.1883
 9040SOL    HW227676   0.632   4.836   3.181 -1.2744  1.2605 -1.8534
 9041SOL     OW27677   7.720   3.570   1.283  0.1148 -0.4501 -0.2839
 9041SOL    HW127678   7.643   3.573   1.226  0.2611 -1.6880 -0.5807
 9041SOL    HW227679   7.723   3.480   1.315  0.5546 -0.0083  0.9889
 9042SOL     OW27680   2.669   2.359   4.995 -0.1550  0.3246 -0.1459
 9042SOL    HW127681   2.642   2.296   4.928  0.4816 -1.0961  0.8927
 9042SOL    HW227682   2.764   2.369   4.982  0.4496 -1.8236  1.9818
 9043SOL     OW27683   4.844   6.951   1.288  0.6061 -0.1792  0.2477
 9043SOL    HW127684   4.786   7.027   1.294 -0.4658 -0.8733 -0.8587
 9043SOL    HW227685   4.931   6.988   1.270  0.4926  0.8669  1.7141
 9044SOL     OW27686   6.349   1.056   2.761 -0.5993 -0.1425 -0.3658
 9044SOL    HW127687   6.320   1.087   2.847 -1.5364 -2.2959  0.1664
 9044SOL    HW227688   6.410   0.985   2.781 -0.3114 -0.2170 -1.4768
 9045SOL     OW27689   3.909   6.445   6.710  0.2165 -0.3772 -0.6082
 9045SOL    HW127690   3.902   6.396   6.628 -0.0585  1.3789 -1.6716
 9045SOL    HW227691   4.001   6.434   6.736  1.2525  1.6768 -2.9301
 9046SOL     OW27692   5.138   2.500   6.245 -0.5481 -0.0069  0.0766
 9046SOL    HW127693   5.218   2.552   6.234  0.1557 -0.8538  0.9982
 9046SOL    HW227694   5.150   2.455   6.329 -1.4404 -1.0938 -0.3532
 9047SOL     OW27695   7.282   3.478   6.880  0.2499 -0.0786 -0.1827
 9047SOL    HW127696   7.206   3.481   6.938 -0.3870  0.6482 -1.0274
 9047SOL    HW227697   7.275   3.557   6.827  1.2875 -0.2935 -0.6681
 9048SOL     OW27698   4.885   5.400   1.465 -0.4312 -0.4206  0.0829
 9048SOL    HW127699   4.914   5.357   1.385 -0.5369 -1.1214  0.4079
 9048SOL    HW227700   4.946   5.368   1.532 -1.2594 -1.0439  0.5613
 9049SOL     OW27701   5.265   0.252   2.344 -0.4760  0.2019  0.2284
 9049SOL    HW127702   5.226   0.320   2.399 -1.4317  1.6985 -2.1032
 9049SOL    HW227703   5.359   0.259   2.361 -0.7398  0.5139  1.7200
 9050SOL     OW27704   5.929   1.958   5.011  0.4233  0.2387 -0.4699
 9050SOL    HW127705   5.906   1.865   5.016  0.7503  0.2096  0.8880
 9050SOL    HW227706   5.959   1.971   4.921 -0.4476 -0.7727 -0.9220
 9051SOL     OW27707   6.563   6.721   3.881  0.5458  0.1772 -0.2796
 9051SOL    HW127708   6.539   6.793   3.939 -1.0672  0.5508 -1.3418
 9051SOL    HW227709   6.645   6.687   3.917  1.1277  2.2603  0.4877
 9052SOL     OW27710   0.906   2.312   6.962 -0.2553  0.3208 -0.3322
 9052SOL    HW127711   0.896   2.304   6.867 -1.1485  1.5072 -0.3672
 9052SOL    HW227712   0.961   2.389   6.974 -1.7689  1.3798  0.1191
 9053SOL     OW27713   5.056   1.130   1.549  0.1805 -0.3781 -0.1171
 9053SOL    HW127714   5.019   1.060   1.495  0.0674  0.2947 -0.9458
 9053SOL    HW227715   5.019   1.210   1.512 -1.5279  0.0185  2.2753
 9054SOL     OW27716   1.000   2.791   0.837 -0.0039 -0.2213  0.2409
 9054SOL    HW127717   1.028   2.882   0.823 -0.7198  0.2825  1.9157
 9054SOL    HW227718   1.076   2.749   0.877 -0.1046 -0.0152  0.6547
 9055SOL     OW27719   0.864   6.872   0.721 -0.5188 -0.2237 -0.6253
 9055SOL    HW127720   0.886   6.895   0.811 -1.1532  0.8108 -0.7158
 9055SOL    HW227721   0.856   6.777   0.722 -0.6551 -0.2160  0.4405
 9056SOL     OW27722   6.932   4.823   7.200 -0.0030 -0.3011  0.3497
 9056SOL    HW127723   6.945   4.778   7.117 -0.0516 -1.3631  0.9048
 9056SOL    HW227724   6.883   4.902   7.177 -1.5513 -1.4411 -0.4158
 9057SOL     OW27725   2.988   5.696   2.307 -0.2767 -0.0876 -0.1133
 9057SOL    HW127726   2.893   5.696   2.311 -0.3113  0.7706 -0.6505
 9057SOL    HW227727   3.013   5.787   2.328  0.2524  0.4636 -2.7955
 9058SOL     OW27728   6.122   0.193   1.171  0.5616  0.1121  0.3352
 9058SOL    HW127729   6.053   0.147   1.124 -0.5752  0.0580  1.9459
 9058SOL    HW227730   6.191   0.207   1.107 -0.9892  0.2384 -1.3630
 9059SOL     OW27731   2.910   6.250   0.007 -0.7525 -0.4489  0.3896
 9059SOL    HW127732   2.971   6.192   0.053 -0.2619  0.1115  0.4701
 9059SOL    HW227733   2.906   6.328   0.063 -0.7920 -0.0919 -0.1047
 9060SOL     OW27734   4.368   3.173   3.701 -0.1595  0.1192 -0.1612
 9060SOL    HW127735   4.338   3.085   3.726 -1.4987  1.3120  3.0362
 9060SOL    HW227736   4.307   3.201   3.633 -1.1824 -0.6106  0.4210
 9061SOL     OW27737   5.421   7.490   1.546 -0.0931  0.3292  0.1126
 9061SOL    HW127738   5.417   7.396   1.561  0.8380  0.5647  2.1735
 9061SOL    HW227739   5.333   7.513   1.517 -0.6645 -1.0226  0.6916
 9062SOL     OW27740   1.855   1.581   5.934  0.1755  0.0553 -0.0021
 9062SOL    HW127741   1.871   1.631   6.014  0.9613 -0.5854  0.2590
 9062SOL    HW227742   1.760   1.582   5.924 -0.0184 -0.6231  1.4658
 9063SOL     OW27743   1.961   4.387   7.144 -0.3799 -0.1861 -0.6011
 9063SOL    HW127744   1.882   4.435   7.166  0.8332  1.4749  0.3325
 9063SOL    HW227745   1.996   4.359   7.229  0.0611 -0.9062 -1.0066
 9064SOL     OW27746   0.651   1.587   4.638  0.3892 -0.5356  0.3751
 9064SOL    HW127747   0.631   1.501   4.676  1.0356 -0.4003  1.0428
 9064SOL    HW227748   0.594   1.648   4.685  2.1940 -0.1587  2.2338
 9065SOL     OW27749   3.681   5.758   7.666 -0.9335  0.4059  0.7355
 9065SOL    HW127750   3.765   5.730   7.702 -0.5028 -1.2097 -1.3442
 9065SOL    HW227751   3.704   5.828   7.604 -1.1313  0.1632  0.3836
 9066SOL     OW27752   7.451   2.482   0.444  0.0728  0.1036 -0.5588
 9066SOL    HW127753   7.523   2.443   0.394 -1.3393 -0.6379 -2.1367
 9066SOL    HW227754   7.393   2.518   0.376 -1.5305 -0.2101  0.5967
 9067SOL     OW27755   3.761   7.301   3.026 -0.7829  0.1398 -0.4933
 9067SOL    HW127756   3.803   7.215   3.036 -0.2516  0.5009  0.5819
 9067SOL    HW227757   3.697   7.304   3.097  0.1541  1.1627  0.3366
 9068SOL     OW27758   4.266   7.683   2.309 -0.4401  0.3395 -0.1351
 9068SOL    HW127759   4.210   7.654   2.237  0.8394  0.3178 -1.1618
 9068SOL    HW227760   4.232   7.769   2.332 -0.8594  0.3598 -0.7991
 9069SOL     OW27761   4.446   2.926   2.246 -0.0979  0.4535  0.4150
 9069SOL    HW127762   4.377   2.892   2.304  0.8787 -0.8446  0.8657
 9069SOL    HW227763   4.526   2.883   2.277  1.0484  2.4030  0.3089
 9070SOL     OW27764   7.722   1.683   0.542  0.2787  0.2867 -0.1191
 9070SOL    HW127765   7.729   1.773   0.574  0.1024  0.5977 -0.9235
 9070SOL    HW227766   7.642   1.683   0.489  0.6448 -0.1668 -0.6762
 9071SOL     OW27767   0.679   1.442   2.332  0.4306 -0.6559  0.1848
 9071SOL    HW127768   0.714   1.399   2.410  1.0895 -2.1515 -0.8769
 9071SOL    HW227769   0.739   1.515   2.315  0.5523 -0.6106  0.8134
 9072SOL     OW27770   4.907   4.103   2.971 -0.5733  0.1191  1.1493
 9072SOL    HW127771   4.876   4.179   2.921  2.1938  0.3305 -0.4699
 9072SOL    HW227772   4.835   4.041   2.968 -1.3198  1.0047 -1.3097
 9073SOL     OW27773   1.615   0.417   7.089 -0.2836 -0.2981 -0.0672
 9073SOL    HW127774   1.627   0.324   7.108 -2.8971 -0.3420  1.8807
 9073SOL    HW227775   1.523   0.434   7.108 -0.0069  2.6144 -0.8526
 9074SOL     OW27776   2.177   7.078   7.433  0.1578 -0.5003 -0.4188
 9074SOL    HW127777   2.156   7.139   7.504  2.7068  0.3028 -0.2668
 9074SOL    HW227778   2.101   7.020   7.430 -0.6977  0.3250  1.9758
 9075SOL     OW27779   3.275   7.362   6.165 -0.0700 -0.2898 -0.1413
 9075SOL    HW127780   3.180   7.355   6.168 -0.1877  0.9123 -0.4161
 9075SOL    HW227781   3.306   7.305   6.235 -0.8818 -2.3307 -1.3816
 9076SOL     OW27782   4.990   6.888   0.844  0.0683  1.3923  0.1377
 9076SOL    HW127783   4.940   6.903   0.764  2.3270 -0.3601 -1.7366
 9076SOL    HW227784   5.008   6.976   0.877 -1.5404  2.1392 -0.8347
 9077SOL     OW27785   6.481   7.239   4.152  0.2265 -0.1782 -0.4712
 9077SOL    HW127786   6.465   7.198   4.237 -0.6188  1.1736  0.0673
 9077SOL    HW227787   6.396   7.234   4.107  0.4660 -0.2173 -0.9211
 9078SOL     OW27788   5.400   2.563   2.870  0.2227 -0.2954 -0.5123
 9078SOL    HW127789   5.356   2.611   2.940 -0.6480 -1.6722 -0.0596
 9078SOL    HW227790   5.445   2.630   2.818  1.1714  0.7461  1.5331
 9079SOL     OW27791   1.431   0.435   3.326  0.0979 -0.4925  0.2095
 9079SOL    HW127792   1.363   0.465   3.267  0.3280 -1.7070 -0.7197
 9079SOL    HW227793   1.512   0.470   3.290  0.0242  0.7237  1.1598
 9080SOL     OW27794   5.592   1.765   5.960  0.4193 -0.2664  0.2181
 9080SOL    HW127795   5.533   1.695   5.935  0.6972 -0.5202  0.2675
 9080SOL    HW227796   5.679   1.725   5.960  0.5626  0.0350  0.4004
 9081SOL     OW27797   4.942   2.175   2.449 -0.4425 -0.9276  0.3749
 9081SOL    HW127798   4.861   2.223   2.462 -0.6013 -0.1179 -2.7412
 9081SOL    HW227799   4.916   2.084   2.442 -1.3302 -0.5792 -1.6219
 9082SOL     OW27800   1.774   0.709   1.055 -0.5924 -0.1650 -0.1318
 9082SOL    HW127801   1.788   0.654   0.978  4.0995 -0.1235  0.3979
 9082SOL    HW227802   1.769   0.798   1.021 -1.3286 -0.3604 -0.5444
 9083SOL     OW27803   2.222   7.357   2.266  0.5490  0.0357 -0.0652
 9083SOL    HW127804   2.209   7.450   2.250 -0.3058  0.0880  0.8001
 9083SOL    HW227805   2.303   7.336   2.221 -0.1101  0.8134 -1.6913
 9084SOL     OW27806   4.594   4.613   0.543 -0.5633 -0.0106 -0.8915
 9084SOL    HW127807   4.575   4.546   0.608 -2.7533  0.5609 -0.8665
 9084SOL    HW227808   4.598   4.566   0.459 -0.6103 -0.3441 -0.7069
 9085SOL     OW27809   7.709   6.478   5.373 -0.6316  0.0173 -0.4400
 9085SOL    HW127810   7.692   6.559   5.325 -0.1299  0.5614  0.3018
 9085SOL    HW227811   7.781   6.437   5.325  0.3777  0.9286  0.2688
 9086SOL     OW27812   2.252   5.821   0.037  0.2582 -0.2759  0.1655
 9086SOL    HW127813   2.265   5.735   0.078 -1.2375 -1.0166 -0.8272
 9086SOL    HW227814   2.270   5.807  -0.056  0.5225  0.6247  0.0697
 9087SOL     OW27815   0.739   6.168   6.008  0.2725 -0.0328 -0.2188
 9087SOL    HW127816   0.700   6.151   6.093 -1.1527 -2.1544 -1.2142
 9087SOL    HW227817   0.794   6.245   6.021 -0.2526 -0.0496  2.4808
 9088SOL     OW27818   2.572   2.494   4.393 -0.1668  0.5170 -0.2676
 9088SOL    HW127819   2.585   2.465   4.303 -2.3663 -1.6593  0.0132
 9088SOL    HW227820   2.595   2.419   4.447 -2.5515  0.4005  0.7155
 9089SOL     OW27821   7.379   1.084   5.337  0.3206 -0.1716 -0.0267
 9089SOL    HW127822   7.305   1.040   5.378  0.4058 -0.0704  0.2394
 9089SOL    HW227823   7.415   1.139   5.406  0.3477  0.1517 -0.2952
 9090SOL     OW27824   0.712   2.242   5.711  0.1780 -0.0036 -0.4946
 9090SOL    HW127825   0.666   2.323   5.690  0.7192  0.5324  0.3130
 9090SOL    HW227826   0.791   2.271   5.758  0.3979 -0.9960 -0.2298
 9091SOL     OW27827   0.084   6.962   1.154 -0.3181 -0.1716  0.1400
 9091SOL    HW127828  -0.001   7.004   1.140 -0.6040 -0.4906  0.8491
 9091SOL    HW227829   0.117   7.001   1.235  0.0417 -0.3122  0.0617
 9092SOL     OW27830   7.153   5.739   2.721 -0.2727  0.0141 -0.0445
 9092SOL    HW127831   7.077   5.773   2.674 -0.1212 -1.9246 -1.8027
 9092SOL    HW227832   7.121   5.722   2.809 -1.1452  1.6693  0.0029
 9093SOL     OW27833   5.588   0.066   1.357  0.2549 -0.0865  0.0760
 9093SOL    HW127834   5.609   0.130   1.289  0.3329 -0.0153  0.1663
 9093SOL    HW227835   5.633   0.099   1.435 -0.7931  0.4708  0.4618
 9094SOL     OW27836   3.524   1.931   6.806 -0.0247  0.4056  0.2793
 9094SOL    HW127837   3.445   1.949   6.857 -1.1210 -2.3508 -0.2717
 9094SOL    HW227838   3.504   1.964   6.718 -0.1279  0.6818  0.4059
 9095SOL     OW27839   7.079   0.966   3.706  0.5854  0.2283  0.0914
 9095SOL    HW127840   7.079   0.870   3.713 -0.0569  0.1882 -0.3861
 9095SOL    HW227841   7.009   0.985   3.644  0.6228  1.0208  0.2895
 9096SOL     OW27842   5.072   1.153   5.208 -0.3342  0.0046  0.1470
 9096SOL    HW127843   5.037   1.141   5.296 -0.8526 -2.6656 -0.3325
 9096SOL    HW227844   5.165   1.130   5.215 -0.5975 -1.2105 -0.1623
 9097SOL     OW27845   4.902   6.952   6.585 -0.2450 -0.1362  0.2959
 9097SOL    HW127846   4.809   6.960   6.609  0.1453 -1.1410  2.4312
 9097SOL    HW227847   4.940   7.036   6.610  0.1561 -1.1651  3.6643
 9098SOL     OW27848   6.797   3.532   4.377  0.1285 -0.0824 -0.9031
 9098SOL    HW127849   6.706   3.529   4.407 -0.5347  0.8473 -2.6671
 9098SOL    HW227850   6.847   3.553   4.455 -1.2349 -0.0944  0.0168
 9099SOL     OW27851   7.298   5.869   2.429 -0.2520  0.0542 -0.3652
 9099SOL    HW127852   7.301   5.824   2.514 -3.5120  1.4699  0.7078
 9099SOL    HW227853   7.342   5.953   2.445 -0.4138  0.1103 -0.2050
 9100SOL     OW27854   5.246   5.696   2.478  0.3381  0.2267 -0.8015
 9100SOL    HW127855   5.191   5.773   2.493 -1.0485 -0.8274 -0.3818
 9100SOL    HW227856   5.199   5.624   2.518  0.8236 -1.1502 -2.5825
 9101SOL     OW27857   3.301   5.064   4.052 -0.2358  0.3253 -0.6489
 9101SOL    HW127858   3.229   5.040   3.993  0.2307 -2.2807 -0.2941
 9101SOL    HW227859   3.379   5.063   3.996 -0.1058  0.1861 -0.4677
 9102SOL     OW27860   5.061   2.707   1.202  0.0402  0.3588 -0.1761
 9102SOL    HW127861   4.980   2.663   1.179  1.0576 -0.4958 -2.5364
 9102SOL    HW227862   5.057   2.719   1.296 -2.1668 -0.9429 -0.0412
 9103SOL     OW27863   0.059   4.254   5.284  0.2294 -0.6226 -0.3674
 9103SOL    HW127864  -0.031   4.246   5.317 -0.0097  0.9876 -0.5110
 9103SOL    HW227865   0.050   4.312   5.208  1.3922 -0.4104 -0.3515
 9104SOL     OW27866   0.010   1.950   0.729 -0.3982 -0.0161 -0.1975
 9104SOL    HW127867   0.035   1.942   0.821  1.4959  0.4290 -0.6369
 9104SOL    HW227868  -0.085   1.965   0.732 -0.1891  1.3680  1.7566
 9105SOL     OW27869   2.105   3.761   6.860 -0.0009  0.2342 -0.0736
 9105SOL    HW127870   2.081   3.738   6.770 -3.1606  0.5795  0.5544
 9105SOL    HW227871   2.094   3.679   6.909 -0.1827  0.4788  0.2974
 9106SOL     OW27872   3.020   1.950   0.142  0.0388 -0.5331  0.3808
 9106SOL    HW127873   3.049   1.864   0.172  2.2523 -0.2545 -0.7585
 9106SOL    HW227874   2.964   1.982   0.213  0.7035 -2.1043  1.6886
 9107SOL     OW27875   4.320   4.720   5.934  0.2441 -0.0523  0.0305
 9107SOL    HW127876   4.378   4.657   5.976  0.6883 -0.6571 -1.4140
 9107SOL    HW227877   4.379   4.779   5.886 -0.2920 -1.0163 -1.9333
 9108SOL     OW27878   0.210   3.091   3.645 -0.2109  0.2109 -0.0385
 9108SOL    HW127879   0.263   3.163   3.610 -0.6967 -0.0216 -1.3204
 9108SOL    HW227880   0.263   3.055   3.716  0.1215  1.7050  0.5147
 9109SOL     OW27881   1.548   4.974   6.765 -0.0273  0.0808 -0.2438
 9109SOL    HW127882   1.570   5.028   6.840  4.1152 -0.0304 -1.1368
 9109SOL    HW227883   1.548   4.884   6.799 -1.3576  0.2062  0.1525
 9110SOL     OW27884   7.591   6.410   0.036 -0.5714 -0.1662  0.2227
 9110SOL    HW127885   7.558   6.472  -0.029 -1.0205 -0.4185  0.2075
 9110SOL    HW227886   7.606   6.329  -0.014 -1.5232 -0.5540  0.5509
 9111SOL     OW27887   2.395   0.260   0.883  0.5957  0.1345 -0.1425
 9111SOL    HW127888   2.363   0.172   0.865  3.0762 -0.4640 -2.2400
 9111SOL    HW227889   2.429   0.291   0.799  2.9400  1.6910  1.2365
 9112SOL     OW27890   3.489   2.539   5.301  0.0340 -0.2133 -0.1435
 9112SOL    HW127891   3.493   2.445   5.287  1.2482 -0.0523 -1.0769
 9112SOL    HW227892   3.546   2.554   5.376 -1.1808 -0.3380  0.8381
 9113SOL     OW27893   6.290   1.614   7.499  0.0567  0.2886  0.4107
 9113SOL    HW127894   6.349   1.547   7.463  0.4320 -0.0892  1.6702
 9113SOL    HW227895   6.272   1.672   7.426 -0.1297 -1.0883 -0.6700
 9114SOL     OW27896   6.100   3.593   3.551  0.5553 -0.1047 -0.0910
 9114SOL    HW127897   6.023   3.541   3.575  0.8311 -0.7713 -0.6187
 9114SOL    HW227898   6.103   3.589   3.456  0.1159  1.5878 -0.1976
 9115SOL     OW27899   4.567   7.549   2.195  0.2940  0.7757  0.3226
 9115SOL    HW127900   4.514   7.622   2.163  0.5937 -0.0316 -2.1855
 9115SOL    HW227901   4.633   7.535   2.127  0.1684 -1.9038  0.6647
 9116SOL     OW27902   1.409   6.425   3.315  0.0032 -0.5120 -0.1190
 9116SOL    HW127903   1.418   6.498   3.376  1.5980  0.5531 -1.5258
 9116SOL    HW227904   1.333   6.376   3.346  0.6288  0.0835  2.5646
 9117SOL     OW27905   3.013   5.963   2.434 -0.1214 -0.0905 -0.2139
 9117SOL    HW127906   3.065   5.997   2.507  1.0485 -0.2111 -0.9633
 9117SOL    HW227907   2.944   6.028   2.422 -0.8348 -0.4731  1.5156
 9118SOL     OW27908   4.984   4.161   1.875  0.4281 -0.0154 -0.0963
 9118SOL    HW127909   5.010   4.213   1.798 -0.5354 -3.2159 -2.8089
 9118SOL    HW227910   5.036   4.081   1.869 -1.0963 -1.2001  1.5041
 9119SOL     OW27911   2.483   5.764   6.732 -0.3077  0.0366  0.1763
 9119SOL    HW127912   2.399   5.783   6.774  0.1555  2.1380  0.2245
 9119SOL    HW227913   2.547   5.815   6.781  0.8802 -0.7528 -0.4918
 9120SOL     OW27914   5.517   5.682   6.001 -0.6558 -0.8509 -0.5726
 9120SOL    HW127915   5.520   5.627   5.923 -1.9059 -1.8844  0.0712
 9120SOL    HW227916   5.596   5.736   5.995 -0.2153 -1.6023 -2.0352
 9121SOL     OW27917   3.957   2.922   0.197  0.0486 -0.5870  0.0392
 9121SOL    HW127918   3.927   2.840   0.156  0.3233  0.3241 -2.1173
 9121SOL    HW227919   3.943   2.989   0.130  3.1345  0.5480  0.3670
 9122SOL     OW27920   2.932   5.706   3.340  0.3578  0.0457  0.1771
 9122SOL    HW127921   2.951   5.780   3.398  0.6428 -0.5162  0.8185
 9122SOL    HW227922   2.914   5.633   3.400 -2.9539  0.2866 -0.3715
 9123SOL     OW27923   4.964   0.537   2.201 -0.0940 -0.1156 -0.1615
 9123SOL    HW127924   4.998   0.450   2.177 -0.2056  0.3408 -2.2247
 9123SOL    HW227925   5.041   0.592   2.207 -0.0574 -0.2515  0.7507
 9124SOL     OW27926   1.688   4.692   0.966  0.0984  0.4979 -0.3885
 9124SOL    HW127927   1.642   4.728   1.042  1.3257  0.5275  0.3601
 9124SOL    HW227928   1.738   4.618   1.001 -0.6726 -0.5922 -1.5024
 9125SOL     OW27929   5.074   7.742   2.079  0.5515 -0.3582 -0.4312
 9125SOL    HW127930   5.155   7.770   2.037  0.0252  0.3362 -1.0137
 9125SOL    HW227931   5.092   7.750   2.172  0.3684  2.2725 -0.5308
 9126SOL     OW27932   2.436   2.889   5.845 -0.0000  0.0586  0.0665
 9126SOL    HW127933   2.464   2.979   5.860 -0.4920 -0.1841  2.9870
 9126SOL    HW227934   2.500   2.836   5.892 -1.3729 -0.8953  0.9433
 9127SOL     OW27935   0.166   3.581   4.384  0.9407 -0.6865 -0.2243
 9127SOL    HW127936   0.168   3.666   4.429  2.4197 -0.3577 -0.8419
 9127SOL    HW227937   0.164   3.517   4.455 -1.5670 -0.1825  0.2626
 9128SOL     OW27938   6.446   3.123   2.755  0.0365 -0.0754 -0.3360
 9128SOL    HW127939   6.371   3.165   2.796  0.2716  1.7766 -1.6520
 9128SOL    HW227940   6.519   3.142   2.813 -0.5564 -2.6857  1.4476
 9129SOL     OW27941   6.142   0.264   4.709 -0.0004  0.0003  0.1905
 9129SOL    HW127942   6.226   0.310   4.714 -1.5350  3.3373 -1.4089
 9129SOL    HW227943   6.138   0.232   4.619 -1.0380  1.3571 -0.2925
 9130SOL     OW27944   3.699   3.920   5.253 -0.4893 -0.0504 -0.2843
 9130SOL    HW127945   3.630   3.969   5.210 -1.3685  0.4405  1.5660
 9130SOL    HW227946   3.773   3.980   5.257 -0.6861  0.1954 -0.3429
 9131SOL     OW27947   0.209   2.818   6.385  0.1356  0.3935 -0.0324
 9131SOL    HW127948   0.219   2.880   6.313 -0.9701 -0.4293 -0.9218
 9131SOL    HW227949   0.228   2.732   6.346  0.1960  0.0006  0.8257
 9132SOL     OW27950   5.477   3.344   2.478 -0.5503  0.5417 -0.1717
 9132SOL    HW127951   5.508   3.433   2.491 -1.7137  0.6204  2.7962
 9132SOL    HW227952   5.440   3.343   2.390  1.6826  2.2476 -1.2083
 9133SOL     OW27953   1.402   3.059   5.511  0.0584 -0.6645 -0.2432
 9133SOL    HW127954   1.375   3.148   5.532  2.1527 -0.1300  0.3472
 9133SOL    HW227955   1.322   3.017   5.478 -1.5097  0.7647  1.5150
 9134SOL     OW27956   3.749   3.978   2.408  0.0832  0.0041  0.4275
 9134SOL    HW127957   3.705   4.062   2.396 -0.9123 -0.5156  0.2839
 9134SOL    HW227958   3.697   3.916   2.356  1.0395 -0.6311  0.1919
 9135SOL     OW27959   3.989   1.377   4.659  0.6204  0.2632  0.5140
 9135SOL    HW127960   3.964   1.385   4.751  0.8904 -1.2861  0.7391
 9135SOL    HW227961   3.918   1.328   4.618  0.6885  0.6036 -0.0271
 9136SOL     OW27962   4.459   2.637   1.227 -0.3586 -0.4352  0.3502
 9136SOL    HW127963   4.436   2.648   1.319  0.6273 -0.1869  0.5765
 9136SOL    HW227964   4.454   2.543   1.212 -0.3754 -0.4885  0.6952
 9137SOL     OW27965   3.576   4.494   3.640 -0.2474  0.5386 -0.1447
 9137SOL    HW127966   3.588   4.433   3.712  2.2324  0.6356 -0.3842
 9137SOL    HW227967   3.494   4.467   3.598  0.5679 -2.4548 -0.0634
 9138SOL     OW27968   1.310   7.571   7.427  0.1030  0.0997 -0.1240
 9138SOL    HW127969   1.261   7.640   7.471 -1.6129 -0.0311 -1.6831
 9138SOL    HW227970   1.242   7.514   7.390  1.4427 -0.4640 -1.8464
 9139SOL     OW27971   7.671   4.657   4.704  0.5774  0.3496  0.3690
 9139SOL    HW127972   7.586   4.697   4.684  1.2151  0.5867 -2.3490
 9139SOL    HW227973   7.651   4.565   4.720 -0.0737 -0.2264 -2.9532
 9140SOL     OW27974   6.688   2.748   6.587 -0.3134 -0.0519  0.1644
 9140SOL    HW127975   6.642   2.831   6.573  0.6513  0.2793 -1.3039
 9140SOL    HW227976   6.643   2.686   6.530  0.5286  0.0884 -0.6794
 9141SOL     OW27977   7.592   5.923   3.534  0.3345  0.1684  0.0601
 9141SOL    HW127978   7.523   5.980   3.568 -0.4418 -0.7339  0.0350
 9141SOL    HW227979   7.647   5.905   3.611  0.6229  0.9879  0.0529
 9142SOL     OW27980   5.727   5.196   5.949  0.2135  0.3468  0.2915
 9142SOL    HW127981   5.645   5.229   5.987  0.9165 -0.3119  2.5135
 9142SOL    HW227982   5.709   5.103   5.931 -0.6587  0.9840 -2.7745
 9143SOL     OW27983   6.644   3.693   4.592  0.2693 -0.2290  0.4471
 9143SOL    HW127984   6.581   3.740   4.538  0.2761  0.8920  1.3817
 9143SOL    HW227985   6.718   3.754   4.600  0.1820 -0.2784  1.8705
 9144SOL     OW27986   4.739   2.225   0.296  0.0667  0.7379  0.7934
 9144SOL    HW127987   4.803   2.260   0.359  1.9758 -1.1449  0.0196
 9144SOL    HW227988   4.755   2.274   0.216 -0.0457  0.8283  0.8254
 9145SOL     OW27989   3.649   3.138   2.745  0.1174 -0.2754  0.1563
 9145SOL    HW127990   3.595   3.175   2.815  0.7832  1.9902 -0.4495
 9145SOL    HW227991   3.587   3.111   2.678 -0.4789 -1.7811  1.2534
 9146SOL     OW27992   0.311   0.861   0.550 -0.5029 -0.0905 -0.0027
 9146SOL    HW127993   0.276   0.845   0.638  0.2818 -0.8234  0.1793
 9146SOL    HW227994   0.330   0.955   0.549 -3.0295  0.5129 -0.3238
 9147SOL     OW27995   6.501   1.370   2.525 -0.2870  0.4483  0.3075
 9147SOL    HW127996   6.408   1.373   2.549 -0.4981  0.5306 -0.4845
 9147SOL    HW227997   6.538   1.303   2.582 -1.3600 -1.3770 -1.0063
 9148SOL     OW27998   2.627   0.356   2.181 -0.0341  0.1970  0.4114
 9148SOL    HW127999   2.719   0.366   2.157  0.0646 -0.2581  0.5785
 9148SOL    HW228000   2.580   0.421   2.128  0.4044  0.5613  0.4692
 9149SOL     OW28001   1.256   0.024   6.685  0.0795  0.5038  0.5026
 9149SOL    HW128002   1.262  -0.026   6.604  1.8128 -2.1596  2.1086
 9149SOL    HW228003   1.282   0.113   6.660 -0.4701  0.0349 -2.0086
 9150SOL     OW28004   3.001   6.229   6.856  0.2398  0.0910 -0.1968
 9150SOL    HW128005   3.028   6.319   6.840 -2.4399  0.6464 -2.2552
 9150SOL    HW228006   2.923   6.236   6.911  0.0347 -0.9904 -0.3268
 9151SOL     OW28007   4.541   0.945   5.631  0.3315 -0.0574  0.4319
 9151SOL    HW128008   4.630   0.913   5.619  0.4814  0.6216 -0.3347
 9151SOL    HW228009   4.485   0.873   5.601  0.5867 -0.8476  1.7904
 9152SOL     OW28010   5.862   3.373   1.698 -0.1188 -0.0422 -0.0104
 9152SOL    HW128011   5.957   3.361   1.689 -0.4418 -3.4127 -0.1713
 9152SOL    HW228012   5.830   3.382   1.609  0.0859  2.1988  0.0933
 9153SOL     OW28013   0.223   7.343   1.339  0.3954  0.3464  0.5330
 9153SOL    HW128014   0.318   7.347   1.337  0.3488  1.2818 -1.3248
 9153SOL    HW228015   0.194   7.429   1.309 -1.0704  0.3521  1.8049
 9154SOL     OW28016   2.599   3.238   1.459 -0.1822  0.5971 -0.0536
 9154SOL    HW128017   2.689   3.261   1.436 -0.0556 -0.0335 -0.2051
 9154SOL    HW228018   2.553   3.234   1.375 -0.6372  2.0345  0.0970
 9155SOL     OW28019   2.235   2.590   6.514 -0.3304  0.2020 -0.4557
 9155SOL    HW128020   2.253   2.679   6.545  1.7705 -0.2684 -0.1594
 9155SOL    HW228021   2.150   2.596   6.470 -1.2956  1.8539  1.4937
 9156SOL     OW28022   1.921   2.166   1.546  0.0183 -0.1499  0.2415
 9156SOL    HW128023   1.905   2.119   1.628  1.0206  1.0088  1.1522
 9156SOL    HW228024   2.005   2.133   1.515  0.6151  0.8148  0.7669
 9157SOL     OW28025   1.975   1.154   0.084  1.2020 -0.0707 -0.1843
 9157SOL    HW128026   1.899   1.152   0.141  1.7690 -0.5622  0.5916
 9157SOL    HW228027   2.013   1.066   0.092  1.1910 -0.2198 -1.4806
 9158SOL     OW28028   1.336   5.783   1.311  0.0381  0.4738 -0.5896
 9158SOL    HW128029   1.256   5.741   1.343 -0.2236  1.0526 -0.4687
 9158SOL    HW228030   1.311   5.874   1.298  0.7351  0.6997 -0.3619
 9159SOL     OW28031   6.521   2.461   6.239  0.3509 -0.0751 -0.1426
 9159SOL    HW128032   6.522   2.525   6.168  0.1303 -0.0848 -0.1556
 9159SOL    HW228033   6.551   2.510   6.316  2.2782 -0.4813 -0.5821
 9160SOL     OW28034   5.781   3.801   2.294 -0.1334 -0.1324  0.2726
 9160SOL    HW128035   5.731   3.881   2.309  0.8770  0.8430 -1.2623
 9160SOL    HW228036   5.747   3.767   2.211 -1.2358 -1.8843  1.3656
 9161SOL     OW28037   4.906   6.315   4.973 -0.2803  0.4452 -0.3617
 9161SOL    HW128038   4.904   6.285   4.882 -1.3136  1.4609 -0.7071
 9161SOL    HW228039   4.977   6.266   5.013 -1.3900 -1.9024 -1.0550
 9162SOL     OW28040   3.594   0.026   2.383  0.1053 -0.2923  0.0979
 9162SOL    HW128041   3.674  -0.002   2.339 -0.8077 -2.0316 -0.5403
 9162SOL    HW228042   3.579  -0.041   2.451 -1.7788 -1.0859 -1.0218
 9163SOL     OW28043   3.666   4.764   3.706 -0.2726 -0.7255 -0.1201
 9163SOL    HW128044   3.624   4.679   3.716 -0.6106 -0.6441 -0.7842
 9163SOL    HW228045   3.597   4.828   3.726 -0.5764 -0.5859 -1.4731
 9164SOL     OW28046   1.970   1.832   4.493 -0.3103 -0.3742 -0.6360
 9164SOL    HW128047   1.928   1.913   4.466 -0.1085 -0.4679 -1.2587
 9164SOL    HW228048   2.045   1.823   4.434  0.3784 -0.3904  0.2160
 9165SOL     OW28049   1.943   0.578   5.898 -0.2764 -0.2797  0.0194
 9165SOL    HW128050   1.894   0.658   5.916 -0.7456 -0.6260  0.2944
 9165SOL    HW228051   2.009   0.605   5.834 -1.1356  0.0810 -0.7289
 9166SOL     OW28052   4.809   6.221   5.342  0.0970  0.3150 -0.2994
 9166SOL    HW128053   4.828   6.311   5.318 -0.5185  0.5625  0.1129
 9166SOL    HW228054   4.852   6.209   5.426  0.2625  0.1855 -0.4002
 9167SOL     OW28055   3.638   1.712   7.093 -0.4755 -0.3466  0.0257
 9167SOL    HW128056   3.627   1.621   7.069 -2.7802 -0.1401  0.0416
 9167SOL    HW228057   3.601   1.718   7.182 -0.5444  0.6104 -0.0505
 9168SOL     OW28058   3.405   4.344   2.595 -0.4856 -0.0041 -0.1399
 9168SOL    HW128059   3.461   4.315   2.667 -0.5638  0.4655  0.1173
 9168SOL    HW228060   3.454   4.321   2.515  0.7952  1.7236  0.0771
 9169SOL     OW28061   6.957   0.902   5.671 -0.3395 -0.4838  0.0420
 9169SOL    HW128062   7.026   0.958   5.635  0.3114 -1.2104  0.1158
 9169SOL    HW228063   6.892   0.962   5.706 -0.3125  0.2346 -1.0806
 9170SOL     OW28064   2.326   1.862   7.395  0.5133 -0.0469  0.0784
 9170SOL    HW128065   2.376   1.896   7.469  1.0019  0.0991 -0.3142
 9170SOL    HW228066   2.247   1.917   7.393  0.4951 -0.0555  0.4915
 9171SOL     OW28067   3.748   0.997   6.466  0.8364 -0.2580  0.1928
 9171SOL    HW128068   3.795   1.000   6.549 -0.5583  1.7058  0.9915
 9171SOL    HW228069   3.714   1.086   6.455 -0.4191 -0.9137 -1.6675
 9172SOL     OW28070   1.728   1.312   2.043 -0.4644 -0.4178 -0.0276
 9172SOL    HW128071   1.766   1.236   1.999 -1.1993  0.8106 -3.0363
 9172SOL    HW228072   1.642   1.323   2.001 -0.4024  2.0369  0.3512
 9173SOL     OW28073   6.714   0.493   7.194 -0.3356  0.2249 -0.5296
 9173SOL    HW128074   6.661   0.460   7.121  0.1102  1.2796 -1.3625
 9173SOL    HW228075   6.728   0.585   7.173  1.6308  0.0309 -0.2133
 9174SOL     OW28076   3.340   0.451   2.023  0.1269  0.3911 -0.4938
 9174SOL    HW128077   3.285   0.380   2.056 -0.4096  0.8129 -0.4658
 9174SOL    HW228078   3.299   0.530   2.057 -0.4986  0.8523 -2.2443
 9175SOL     OW28079   0.599   0.376   6.784 -0.2925 -0.4906 -0.2358
 9175SOL    HW128080   0.562   0.296   6.747 -2.2799  0.4565 -0.4084
 9175SOL    HW228081   0.685   0.384   6.742  0.6472 -3.2681  0.8811
 9176SOL     OW28082   2.422   6.485   4.247  0.2753  0.0342  0.0468
 9176SOL    HW128083   2.347   6.455   4.196 -0.3932  1.4753  0.1295
 9176SOL    HW228084   2.489   6.503   4.182 -0.0017  0.2705 -0.1746
 9177SOL     OW28085   2.556   2.042   1.689  0.1344  0.2397 -0.4725
 9177SOL    HW128086   2.490   2.108   1.708  0.0147 -0.4309  1.6348
 9177SOL    HW228087   2.614   2.042   1.765 -0.6592 -2.9912  0.3078
 9178SOL     OW28088   6.948   5.907   5.137  0.0133  0.5715  0.4587
 9178SOL    HW128089   6.936   5.906   5.232  0.9965 -1.7680  0.6246
 9178SOL    HW228090   6.964   5.815   5.114 -1.9110  0.7992 -2.2186
 9179SOL     OW28091   4.351   3.857   5.375 -0.0457 -0.4285 -0.1469
 9179SOL    HW128092   4.266   3.887   5.407  0.0970  0.3233 -0.4590
 9179SOL    HW228093   4.396   3.824   5.452 -0.8429 -1.3849 -0.0700
 9180SOL     OW28094   2.223   4.008   7.438 -0.6641 -0.0474  0.8375
 9180SOL    HW128095   2.218   3.945   7.511 -2.6990 -0.2149  0.6168
 9180SOL    HW228096   2.277   3.963   7.372 -1.3050 -1.1905  1.0572
 9181SOL     OW28097   2.720   4.316   6.868 -0.3151 -0.0031  0.1437
 9181SOL    HW128098   2.678   4.327   6.783  1.4549 -1.0560 -0.9145
 9181SOL    HW228099   2.704   4.225   6.892 -0.3231  0.1337  0.6937
 9182SOL     OW28100   2.235   3.207   3.668  0.6167  0.1362  0.8419
 9182SOL    HW128101   2.275   3.203   3.581 -0.3327 -1.1202  0.4260
 9182SOL    HW228102   2.186   3.125   3.675 -1.4186  1.3259  1.5127
 9183SOL     OW28103   0.991   2.046   5.717  0.1714 -0.3793 -0.1330
 9183SOL    HW128104   0.923   2.030   5.652 -0.4326 -0.9009  0.6058
 9183SOL    HW228105   0.944   2.084   5.792  1.1005  1.8993 -0.6300
 9184SOL     OW28106   0.529   1.299   4.424 -0.6265  0.0178  0.2533
 9184SOL    HW128107   0.586   1.372   4.401 -0.8209  0.8864  2.3399
 9184SOL    HW228108   0.589   1.234   4.462 -0.6800 -0.1454  0.0545
 9185SOL     OW28109   6.865   4.024   6.085  0.6716 -0.5755 -0.4492
 9185SOL    HW128110   6.771   4.040   6.094  0.8042 -0.2286  0.3620
 9185SOL    HW228111   6.878   3.938   6.125  0.7440 -0.4940 -0.2977
 9186SOL     OW28112   2.419   3.317   6.395  0.3572 -0.2877  0.2533
 9186SOL    HW128113   2.505   3.290   6.427 -0.9177 -1.2365  3.2833
 9186SOL    HW228114   2.357   3.276   6.456 -2.2042  1.2671 -1.1233
 9187SOL     OW28115   2.477   5.901   5.346  0.1230  0.6006  0.4178
 9187SOL    HW128116   2.517   5.884   5.261 -0.5643 -0.3768  0.2690
 9187SOL    HW228117   2.537   5.863   5.409  1.2995  2.4818  0.5017
 9188SOL     OW28118   0.430   1.430   0.815 -0.6420 -0.4610 -0.8199
 9188SOL    HW128119   0.337   1.410   0.822 -0.3643 -2.7978 -2.5900
 9188SOL    HW228120   0.472   1.345   0.800  1.7667  0.5474 -0.3470
 9189SOL     OW28121   5.823   0.205   4.940  0.4228 -0.3682  0.1716
 9189SOL    HW128122   5.879   0.283   4.945 -0.7518  0.4409  2.1657
 9189SOL    HW228123   5.771   0.218   4.861  0.6925  0.5628  0.1286
 9190SOL     OW28124   1.357   1.200   3.694 -0.7311 -0.1149 -0.0667
 9190SOL    HW128125   1.322   1.234   3.776  1.2996  0.1987  0.7254
 9190SOL    HW228126   1.384   1.277   3.644  0.7872 -0.4006  0.2814
 9191SOL     OW28127   1.357   6.157   0.499 -0.4669  0.1513 -0.1456
 9191SOL    HW128128   1.409   6.228   0.538 -0.5747 -0.6897  1.6144
 9191SOL    HW228129   1.279   6.201   0.465 -0.2121  0.9805  0.3014
 9192SOL     OW28130   0.861   7.033   3.102 -0.3531  0.0371 -0.1537
 9192SOL    HW128131   0.952   7.038   3.130 -0.2804 -0.2525 -0.3302
 9192SOL    HW228132   0.857   7.089   3.024 -0.8235  1.8064  1.0754
 9193SOL     OW28133   1.490   7.094   2.666  0.1180  0.7451  0.3405
 9193SOL    HW128134   1.565   7.053   2.624  0.5177  1.3139  0.4885
 9193SOL    HW228135   1.414   7.065   2.614  0.6664  2.0736 -1.3053
 9194SOL     OW28136   0.532   5.251   2.585  0.2363 -0.5359  0.1669
 9194SOL    HW128137   0.480   5.219   2.511 -0.3444  0.1893  0.2616
 9194SOL    HW228138   0.472   5.305   2.636  0.4641 -1.5181  1.5137
 9195SOL     OW28139   0.404   1.336   5.028  0.2585  0.1692  0.3248
 9195SOL    HW128140   0.329   1.393   5.045  0.6029  0.1575  2.1146
 9195SOL    HW228141   0.476   1.397   5.009  0.5518  0.3785  1.9270
 9196SOL     OW28142   6.885   6.764   4.408  0.6202 -0.4083  0.5544
 9196SOL    HW128143   6.845   6.829   4.350 -1.2755 -1.1362  0.9626
 9196SOL    HW228144   6.896   6.810   4.491 -2.3430 -0.9628  1.3805
 9197SOL     OW28145   2.739   1.444   7.151  0.0177  0.3850 -0.8089
 9197SOL    HW128146   2.693   1.524   7.178  0.7746  0.3813  0.5673
 9197SOL    HW228147   2.829   1.473   7.133  0.1901 -0.0790 -0.7114
 9198SOL     OW28148   5.197   2.608   4.023 -0.2475  0.7145 -0.1353
 9198SOL    HW128149   5.267   2.588   3.961 -1.0722  0.3778 -0.9818
 9198SOL    HW228150   5.148   2.679   3.982 -0.9391  0.3344  0.0163
 9199SOL     OW28151   3.913   3.729   1.371  0.1096  0.1480  0.0683
 9199SOL    HW128152   3.843   3.763   1.428  0.3281  0.1080  0.3663
 9199SOL    HW228153   3.989   3.783   1.392  0.2274  0.0446 -0.0937
 9200SOL     OW28154   1.935   1.975   7.665 -0.3968 -0.5652  0.3001
 9200SOL    HW128155   2.022   1.954   7.631 -0.2906 -1.0900  0.8814
 9200SOL    HW228156   1.898   2.035   7.600  1.7377  2.6184  1.7739
 9201SOL     OW28157   7.033   4.866   3.190  0.4246  0.0689  0.2245
 9201SOL    HW128158   6.961   4.860   3.253 -0.8109 -2.6358 -1.2413
 9201SOL    HW228159   7.112   4.850   3.242 -0.3645 -0.1389  1.4033
 9202SOL     OW28160   6.035   6.624   4.783 -0.0532  0.2280 -0.1072
 9202SOL    HW128161   5.985   6.556   4.738  0.0084  0.0482  0.0924
 9202SOL    HW228162   6.058   6.687   4.714  1.0597 -0.6385 -0.5681
 9203SOL     OW28163   1.197   7.187   4.454  0.0691  0.2844  0.0465
 9203SOL    HW128164   1.105   7.169   4.439  0.2244 -0.3456 -0.2144
 9203SOL    HW228165   1.218   7.259   4.396 -0.4261  0.9149  0.6361
 9204SOL     OW28166   6.712   2.384   4.290 -0.6963  0.0776  0.0696
 9204SOL    HW128167   6.721   2.429   4.206 -0.7876 -0.7383 -0.3881
 9204SOL    HW228168   6.683   2.452   4.351  0.3809  0.9199 -0.3170
 9205SOL     OW28169   2.032   7.101   4.105 -0.2848  0.7181 -0.2518
 9205SOL    HW128170   2.103   7.100   4.041  1.0831 -0.9453  1.1747
 9205SOL    HW228171   1.960   7.055   4.062  0.8881 -1.0938 -0.3976
 9206SOL     OW28172   0.722   3.644   1.862  0.1122 -0.2586 -0.5714
 9206SOL    HW128173   0.768   3.661   1.780  1.0442 -2.3850 -0.5641
 9206SOL    HW228174   0.665   3.569   1.843  0.0194 -0.5073  0.5958
 9207SOL     OW28175   6.608   0.937   0.657 -0.3202 -0.0705  0.1877
 9207SOL    HW128176   6.657   0.988   0.721  0.5226 -2.4881  1.6072
 9207SOL    HW228177   6.521   0.926   0.697 -0.4132  0.0483  0.0159
 9208SOL     OW28178   7.522   5.684   0.479 -0.3002 -0.5818 -0.1710
 9208SOL    HW128179   7.435   5.679   0.440 -0.2147  0.2228 -0.4772
 9208SOL    HW228180   7.507   5.702   0.572 -0.5087 -2.6293  0.2322
 9209SOL     OW28181   7.085   1.711   4.152  0.1489  0.1969  0.7734
 9209SOL    HW128182   7.115   1.627   4.187 -0.5639 -0.2930  0.2448
 9209SOL    HW228183   7.110   1.775   4.218  1.3428 -0.3283  0.8570
 9210SOL     OW28184   2.130   1.546   4.930  0.3473  0.0205 -0.1325
 9210SOL    HW128185   2.143   1.458   4.966 -0.2425  0.7239  1.9356
 9210SOL    HW228186   2.217   1.574   4.903  0.6864 -0.8343  0.0401
 9211SOL     OW28187   5.383   3.010   2.869  0.9607 -0.1975 -0.2090
 9211SOL    HW128188   5.394   2.921   2.835  1.6638 -0.2471  0.1246
 9211SOL    HW228189   5.401   3.067   2.794  1.0743 -0.3297 -0.2833
 9212SOL     OW28190   2.947   3.192   7.398 -0.1862  0.1949  0.0620
 9212SOL    HW128191   3.003   3.115   7.397 -1.0756 -0.4730 -1.3185
 9212SOL    HW228192   2.879   3.173   7.333 -0.2502  2.2547 -0.5481
 9213SOL     OW28193   2.800   4.102   7.684  0.3304 -0.5540  0.2924
 9213SOL    HW128194   2.720   4.143   7.650 -0.9751 -1.6860  1.8223
 9213SOL    HW228195   2.809   4.022   7.632  1.8653  0.6968 -1.4787
 9214SOL     OW28196   5.264   4.969   2.271  0.4803  0.0611  0.3773
 9214SOL    HW128197   5.256   5.021   2.351 -1.7219  0.5515 -0.1175
 9214SOL    HW228198   5.232   5.026   2.201 -0.2094 -1.2790 -0.4406
 9215SOL     OW28199   2.447   6.130   4.372  0.1588 -0.6246 -0.1160
 9215SOL    HW128200   2.416   6.042   4.392 -1.1174 -0.9168 -2.9024
 9215SOL    HW228201   2.472   6.167   4.457 -1.1282 -2.9492  1.3757
 9216SOL     OW28202   1.884   7.632   1.010  0.4975 -0.2449  0.0655
 9216SOL    HW128203   1.962   7.618   0.957  0.2817  1.6783 -0.8388
 9216SOL    HW228204   1.884   7.726   1.029 -1.6612 -0.1607 -0.0770
 9217SOL     OW28205   0.174   1.717   4.020 -0.1080 -0.1571  0.0129
 9217SOL    HW128206   0.187   1.719   4.115  0.1177  0.5203 -0.0304
 9217SOL    HW228207   0.258   1.744   3.984 -0.1201 -0.6412 -0.3911
 9218SOL     OW28208   5.435   3.093   6.120 -0.3624 -0.3040  0.0700
 9218SOL    HW128209   5.356   3.076   6.069 -1.7435  2.0903  1.2110
 9218SOL    HW228210   5.445   3.017   6.177 -1.2508 -1.0982 -0.8160
 9219SOL     OW28211   7.367   3.922   3.517 -0.0811  0.8753  0.0152
 9219SOL    HW128212   7.346   3.947   3.427  1.8437 -1.4743 -1.2038
 9219SOL    HW228213   7.432   3.987   3.545  0.9214  0.3987 -1.1258
 9220SOL     OW28214   2.511   2.689   6.731 -0.3757  0.9863  0.0535
 9220SOL    HW128215   2.580   2.749   6.758 -0.3190  0.4928  1.0693
 9220SOL    HW228216   2.558   2.609   6.705 -0.5275  0.7972  0.3464
 9221SOL     OW28217   0.327   0.539   2.098  0.1866  0.2880  0.0488
 9221SOL    HW128218   0.364   0.584   2.022  0.6038 -1.0456 -0.5719
 9221SOL    HW228219   0.403   0.507   2.147 -0.0945  0.4691  0.6105
 9222SOL     OW28220   1.439   0.351   1.511 -0.0889 -0.4465 -0.0284
 9222SOL    HW128221   1.424   0.262   1.543 -0.5265 -0.3224  0.1175
 9222SOL    HW228222   1.503   0.340   1.440 -0.0048 -0.8556  0.1053
 9223SOL     OW28223   0.265   1.548   0.194 -0.5104 -0.2900  0.3747
 9223SOL    HW128224   0.278   1.554   0.289 -0.1851  0.4488  0.2907
 9223SOL    HW228225   0.190   1.605   0.177 -1.2308 -1.2295  0.3096
 9224SOL     OW28226   6.023   0.640   7.187 -0.1401 -0.2313  0.7728
 9224SOL    HW128227   6.093   0.612   7.128 -1.7979  0.6672 -1.7929
 9224SOL    HW228228   6.025   0.736   7.182 -0.9418 -0.1748  1.4087
 9225SOL     OW28229   0.092   6.228   1.329 -0.3352 -0.0193 -0.2829
 9225SOL    HW128230   0.153   6.273   1.270 -2.4019  0.6459 -2.0585
 9225SOL    HW228231   0.064   6.296   1.390  2.2427 -0.8417  2.0087
 9226SOL     OW28232   6.327   6.664   6.412 -0.0700  0.0691 -0.4185
 9226SOL    HW128233   6.235   6.640   6.398  0.1565 -1.1647  0.0731
 9226SOL    HW228234   6.366   6.664   6.325 -0.6659  1.1935 -0.6948
 9227SOL     OW28235   6.264   5.448   6.251 -0.4251 -0.8169 -0.1757
 9227SOL    HW128236   6.335   5.464   6.189 -0.5890 -0.0505 -0.1667
 9227SOL    HW228237   6.282   5.360   6.285  1.8633  0.2339  1.5962
 9228SOL     OW28238   3.563   1.388   4.747 -0.1448 -0.0685 -0.1376
 9228SOL    HW128239   3.634   1.353   4.692 -0.2160  0.6755 -0.7296
 9228SOL    HW228240   3.603   1.400   4.833  0.5056  0.4827 -0.5026
 9229SOL     OW28241   5.525   1.504   6.159 -0.3585 -0.0955  0.0769
 9229SOL    HW128242   5.515   1.550   6.243 -2.5222  0.6746 -0.5350
 9229SOL    HW228243   5.457   1.541   6.103 -0.0085 -1.7361 -1.5333
 9230SOL     OW28244   4.660   6.053   6.572  0.3077 -0.4903  0.1423
 9230SOL    HW128245   4.736   6.109   6.555  1.9537 -2.4835  0.5174
 9230SOL    HW228246   4.646   6.005   6.490  2.0599 -2.9956  1.1748
 9231SOL     OW28247   5.358   5.326   4.717 -0.6620 -0.3534  0.1051
 9231SOL    HW128248   5.441   5.287   4.743  0.7616  1.1641 -1.8462
 9231SOL    HW228249   5.354   5.409   4.765 -0.3971  0.1697 -0.7552
 9232SOL     OW28250   5.202   1.814   5.092 -0.1530  0.5404  0.8377
 9232SOL    HW128251   5.197   1.742   5.028  0.1090  0.4635  0.9021
 9232SOL    HW228252   5.227   1.771   5.174  0.4995  0.7632  0.7634
 9233SOL     OW28253   7.090   1.261   1.032 -0.3068  0.1827  0.4564
 9233SOL    HW128254   7.033   1.324   0.987 -3.4500 -0.6778  2.8581
 9233SOL    HW228255   7.063   1.265   1.123  1.2604 -2.6890  1.1819
 9234SOL     OW28256   3.796   1.124   3.365  0.1995  0.2899  0.2471
 9234SOL    HW128257   3.837   1.207   3.340 -0.4730  0.0750 -1.7451
 9234SOL    HW228258   3.708   1.148   3.392  0.7215  0.4452  1.9301
 9235SOL     OW28259   6.449   1.594   7.117 -0.3148  0.0307 -0.3122
 9235SOL    HW128260   6.420   1.612   7.028 -0.7987 -1.7521 -0.5554
 9235SOL    HW228261   6.385   1.639   7.173 -1.8316 -1.3344 -0.8681
 9236SOL     OW28262   2.004   5.954   6.144 -0.1842 -0.9569 -0.3689
 9236SOL    HW128263   1.973   5.866   6.166  0.3441 -1.3543 -1.1480
 9236SOL    HW228264   2.098   5.952   6.165 -0.4530 -0.0981  1.0048
 9237SOL     OW28265   1.308   5.351   2.423 -0.5869 -0.0498 -0.0274
 9237SOL    HW128266   1.228   5.392   2.455 -1.3844 -1.8574  0.4098
 9237SOL    HW228267   1.278   5.289   2.356  0.7303  1.1288 -1.8188
 9238SOL     OW28268   1.663   3.953   3.312  0.3004  0.2677  0.1842
 9238SOL    HW128269   1.618   3.883   3.360 -1.4252  1.6746  0.7151
 9238SOL    HW228270   1.685   3.914   3.227 -1.9342 -0.5013 -0.0990
 9239SOL     OW28271   4.455   2.357   3.967 -0.3681 -0.0263  0.0845
 9239SOL    HW128272   4.392   2.420   3.932  0.5145  0.0352 -1.4943
 9239SOL    HW228273   4.498   2.404   4.038  0.0555  1.0848 -0.8642
 9240SOL     OW28274   0.544   5.992   4.893  0.4014  0.0696 -0.2091
 9240SOL    HW128275   0.532   6.003   4.988  0.4511 -1.6124  0.0126
 9240SOL    HW228276   0.573   6.078   4.863 -1.1636  1.1067  1.0391
 9241SOL     OW28277   1.845   3.096   0.061  0.2514 -0.3992 -0.4954
 9241SOL    HW128278   1.905   3.130   0.128 -1.2468  1.5663 -0.0436
 9241SOL    HW228279   1.772   3.059   0.111 -0.6409  0.6224 -1.0072
 9242SOL     OW28280   4.808   4.131   2.673  0.4808 -0.7123 -0.5901
 9242SOL    HW128281   4.808   4.074   2.597 -0.6168 -1.1764 -0.2662
 9242SOL    HW228282   4.752   4.205   2.648 -2.2338 -2.1960  0.6569
 9243SOL     OW28283   2.848   0.266   7.343  0.9160 -0.5190  0.7856
 9243SOL    HW128284   2.868   0.219   7.424 -2.0318 -0.1760  1.8401
 9243SOL    HW228285   2.819   0.198   7.282  0.7953 -0.5325  0.8568
 9244SOL     OW28286   6.420   1.033   1.758  0.2872  0.7904  0.1109
 9244SOL    HW128287   6.463   1.044   1.673 -0.5090 -0.3864 -0.4830
 9244SOL    HW228288   6.455   1.103   1.813  2.8285  0.0082 -0.3782
 9245SOL     OW28289   6.517   6.204   0.870 -0.0098  0.2168 -0.3021
 9245SOL    HW128290   6.553   6.137   0.927  0.0417  0.6171  0.1410
 9245SOL    HW228291   6.482   6.270   0.930 -1.0314  0.0766 -0.7211
 9246SOL     OW28292   4.329   3.666   1.796 -0.3532  0.4007  0.1182
 9246SOL    HW128293   4.338   3.617   1.714 -1.7267  0.3029  0.0139
 9246SOL    HW228294   4.318   3.757   1.768 -2.1165  0.2107  0.1114
 9247SOL     OW28295   0.020   5.330   1.178  0.1698  0.3890  0.1637
 9247SOL    HW128296  -0.038   5.254   1.188  2.3916 -1.2816  1.1571
 9247SOL    HW228297   0.068   5.334   1.261  2.8244  0.4960 -1.2778
 9248SOL     OW28298   1.197   4.782   7.679  0.6043  0.0522 -0.5220
 9248SOL    HW128299   1.240   4.857   7.720 -0.3515  0.9610 -1.1486
 9248SOL    HW228300   1.194   4.803   7.586  1.5735 -1.4047 -0.9198
 9249SOL     OW28301   2.909   3.284   0.522  0.8262  0.6069 -0.2648
 9249SOL    HW128302   2.842   3.256   0.584 -0.2085 -1.3396 -2.0937
 9249SOL    HW228303   2.895   3.378   0.512  0.7746  0.8956  2.0719
 9250SOL     OW28304   1.144   7.402   0.474 -0.2546  0.0220  0.0236
 9250SOL    HW128305   1.161   7.468   0.540 -0.8425  0.5333 -0.3283
 9250SOL    HW228306   1.050   7.406   0.459 -0.1567 -0.2141 -0.7093
 9251SOL     OW28307   1.547   7.574   4.916  0.5380 -0.2605 -0.2039
 9251SOL    HW128308   1.565   7.631   4.842  2.5344 -0.5187  0.0430
 9251SOL    HW228309   1.610   7.600   4.983 -1.0344 -0.2093  1.3488
 9252SOL     OW28310   1.123   0.924   2.788  0.1812  0.2121  0.2637
 9252SOL    HW128311   1.077   0.999   2.827 -1.7335  0.9997 -3.1080
 9252SOL    HW228312   1.170   0.961   2.714  2.7171 -1.3720  0.9444
 9253SOL     OW28313   0.997   5.411   4.636  0.7834 -0.1247 -0.5078
 9253SOL    HW128314   1.069   5.460   4.675 -0.4629  2.1850 -0.8966
 9253SOL    HW228315   0.921   5.430   4.692  0.2178 -1.6295 -0.6990
 9254SOL     OW28316   4.359   4.297   6.824  0.4446  0.1690  0.0473
 9254SOL    HW128317   4.369   4.361   6.895 -0.4875  0.6584 -0.2481
 9254SOL    HW228318   4.373   4.348   6.744  1.5898 -0.3987 -0.1426
 9255SOL     OW28319   4.319   6.663   2.576 -0.2105  0.3399 -0.2369
 9255SOL    HW128320   4.353   6.596   2.518  0.5693  0.1329  0.4524
 9255SOL    HW228321   4.385   6.673   2.644  0.1939  2.5292 -0.8647
 9256SOL     OW28322   1.679   3.797   3.070  0.4943 -0.8015 -0.1939
 9256SOL    HW128323   1.701   3.724   3.129 -1.6549 -1.2416  0.1457
 9256SOL    HW228324   1.620   3.758   3.006  1.0960  0.1710 -1.3639
 9257SOL     OW28325   3.348   0.633   0.949 -0.3225 -0.4532 -0.0436
 9257SOL    HW128326   3.334   0.669   1.037  1.1138  0.7342 -0.2585
 9257SOL    HW228327   3.430   0.672   0.920 -1.1297 -0.2273 -2.2287
 9258SOL     OW28328   5.376   6.651   5.300 -0.2482 -0.1162  0.3988
 9258SOL    HW128329   5.392   6.697   5.217  0.4638 -0.7327  0.1737
 9258SOL    HW228330   5.281   6.639   5.304 -0.2164 -1.1353 -0.9374
 9259SOL     OW28331   6.291   3.450   3.938 -0.3419 -0.0177 -0.2453
 9259SOL    HW128332   6.372   3.475   3.981 -0.6686 -0.6071  0.7386
 9259SOL    HW228333   6.282   3.512   3.866  1.2780 -0.3026 -0.7396
 9260SOL     OW28334   6.921   3.891   1.560  0.1219  0.0385 -0.3162
 9260SOL    HW128335   6.996   3.866   1.506 -1.0552  0.1393 -2.0873
 9260SOL    HW228336   6.867   3.813   1.564  1.1389 -0.6464  2.5808
 9261SOL     OW28337   0.838   5.204   3.327 -0.3005 -0.1596 -0.1202
 9261SOL    HW128338   0.878   5.251   3.253  1.0126 -1.2543 -0.1451
 9261SOL    HW228339   0.764   5.259   3.353  0.2711  1.1395 -1.1194
 9262SOL     OW28340   3.145   3.473   4.374  0.7060 -0.2585 -0.4938
 9262SOL    HW128341   3.097   3.544   4.332 -0.5404  0.0577  1.3360
 9262SOL    HW228342   3.095   3.394   4.352 -0.0891 -0.0638  0.4899
 9263SOL     OW28343   4.064   4.974   6.048  0.1937 -0.2011  0.1964
 9263SOL    HW128344   4.137   5.037   6.049 -1.2115  1.5066 -0.0443
 9263SOL    HW228345   4.090   4.907   6.112  1.8691  0.4645  0.2796
 9264SOL     OW28346   0.108   2.790   0.492 -0.4248 -0.4131 -0.0092
 9264SOL    HW128347   0.163   2.767   0.567 -0.7556 -1.1530  0.0177
 9264SOL    HW228348   0.158   2.759   0.416 -0.4330 -0.3526 -0.0389
 9265SOL     OW28349   0.402   3.715   0.909 -0.0867 -0.0748  0.1722
 9265SOL    HW128350   0.313   3.713   0.943 -0.5067 -1.8683 -0.9210
 9265SOL    HW228351   0.451   3.765   0.974 -1.8886  1.0830  0.7223
 9266SOL     OW28352   1.903   5.527   5.528 -0.3464 -0.0392  0.2013
 9266SOL    HW128353   1.834   5.590   5.507 -1.3117 -0.5735  1.5996
 9266SOL    HW228354   1.951   5.567   5.601  0.3364 -0.0209 -0.2505
 9267SOL     OW28355   5.874   5.853   3.329  0.6525 -0.1133  0.3411
 9267SOL    HW128356   5.822   5.776   3.352 -0.2834  0.2486 -0.4397
 9267SOL    HW228357   5.956   5.843   3.376  0.1415 -1.0756  1.0482
 9268SOL     OW28358   4.369   2.552   5.055  0.7198 -0.0603  0.0141
 9268SOL    HW128359   4.345   2.530   4.965 -0.5187  0.3500  0.2349
 9268SOL    HW228360   4.374   2.647   5.056  0.5380 -0.0540  0.4319
 9269SOL     OW28361   3.812   3.425   7.182 -0.1107 -0.2589 -0.4420
 9269SOL    HW128362   3.866   3.359   7.226 -0.6150  1.0866  2.3617
 9269SOL    HW228363   3.863   3.505   7.185 -1.7992  0.8360  1.4865
 9270SOL     OW28364   0.541   4.206   1.868  0.1410 -0.0850 -0.0853
 9270SOL    HW128365   0.584   4.144   1.927 -0.3835  0.1614  0.5655
 9270SOL    HW228366   0.610   4.268   1.845  0.1036  0.4510  1.1455
 9271SOL     OW28367   3.454   5.201   6.428  0.2764  0.2672  0.1390
 9271SOL    HW128368   3.500   5.273   6.470 -0.1111  0.3792  0.3751
 9271SOL    HW228369   3.516   5.167   6.364  0.5364  0.6769  0.1710
 9272SOL     OW28370   0.436   3.511   6.256  0.5641  0.4900 -0.7093
 9272SOL    HW128371   0.385   3.533   6.334 -1.9417 -0.4078 -1.9677
 9272SOL    HW228372   0.525   3.496   6.288 -0.3117  0.4578  1.9101
 9273SOL     OW28373   1.690   5.565   4.855 -0.1515  0.2315  0.2593
 9273SOL    HW128374   1.753   5.516   4.909 -0.3244  1.7139  1.8658
 9273SOL    HW228375   1.605   5.531   4.882 -0.1982  0.3693  0.2812
 9274SOL     OW28376   7.019   6.787   2.866 -1.1563 -0.6489 -0.5645
 9274SOL    HW128377   7.022   6.851   2.937  1.0691  1.9250 -2.7268
 9274SOL    HW228378   6.926   6.768   2.854 -1.7261  0.5361  1.5638
 9275SOL     OW28379   3.796   7.364   2.145  0.1781 -0.2134 -0.4775
 9275SOL    HW128380   3.834   7.356   2.233 -0.9405  0.8180  0.1369
 9275SOL    HW228381   3.709   7.401   2.160 -1.0738 -2.3969 -1.8439
 9276SOL     OW28382   0.651   5.057   7.064  0.3527 -0.1397  0.0273
 9276SOL    HW128383   0.673   5.139   7.020 -1.0612  0.1275 -0.2573
 9276SOL    HW228384   0.632   5.083   7.154  3.5056 -0.7232  0.9780
 9277SOL     OW28385   5.884   1.581   4.450  0.8591  0.0287 -0.0739
 9277SOL    HW128386   5.815   1.609   4.509  0.4174 -1.4897  0.1832
 9277SOL    HW228387   5.908   1.493   4.481  0.4952 -0.8872 -2.2074
 9278SOL     OW28388   3.906   3.545   4.083 -0.2977 -0.1079 -1.0765
 9278SOL    HW128389   3.929   3.562   4.175 -0.4038 -3.3037 -0.3263
 9278SOL    HW228390   3.821   3.587   4.072 -0.4835 -0.0211  0.4233
 9279SOL     OW28391   7.491   6.196   5.786 -0.0105  0.0059 -0.1290
 9279SOL    HW128392   7.525   6.283   5.807 -0.1376  0.4196 -1.5167
 9279SOL    HW228393   7.423   6.212   5.721 -0.5780 -1.0812  0.1632
 9280SOL     OW28394   1.879   1.225   7.607 -0.3427  0.2262 -0.5293
 9280SOL    HW128395   1.921   1.208   7.692  0.2712 -0.1952 -0.9083
 9280SOL    HW228396   1.818   1.296   7.625  0.1596  0.5016  0.1537
 9281SOL     OW28397   7.013   6.030   1.462 -0.1966  0.4553  0.3721
 9281SOL    HW128398   7.090   6.086   1.453 -0.0360  0.2387  0.3807
 9281SOL    HW228399   7.027   5.982   1.544  0.4112 -0.7102 -0.3713
 9282SOL     OW28400   6.345   2.317   7.186 -0.1319  0.0912 -0.5037
 9282SOL    HW128401   6.296   2.244   7.223  2.7838 -1.4023  0.6417
 9282SOL    HW228402   6.366   2.373   7.261  0.8654  0.1203 -0.7985
 9283SOL     OW28403   1.344   0.382   2.753 -0.6766 -0.0064 -0.3577
 9283SOL    HW128404   1.265   0.435   2.748 -1.6270 -1.4172 -1.1209
 9283SOL    HW228405   1.329   0.323   2.827  0.1113  0.3866  0.1253
 9284SOL     OW28406   4.566   3.719   4.099 -0.0252  0.0260  0.8672
 9284SOL    HW128407   4.646   3.739   4.148  1.9778 -0.3591 -2.0304
 9284SOL    HW228408   4.569   3.624   4.086 -0.8621  0.0353  0.5546
 9285SOL     OW28409   3.559   1.294   4.077  0.0088 -0.0411  0.0311
 9285SOL    HW128410   3.495   1.321   4.142 -0.0414  0.8109 -0.3606
 9285SOL    HW228411   3.524   1.323   3.994 -0.9310 -2.9054 -0.7053
 9286SOL     OW28412   1.819   4.649   6.079  0.7272 -0.4370  0.0360
 9286SOL    HW128413   1.784   4.582   6.138  1.3377 -1.1342 -0.3769
 9286SOL    HW228414   1.764   4.644   6.001  0.5975 -0.2641  0.1166
 9287SOL     OW28415   6.771   3.732   1.921  0.1840  0.1809  0.6057
 9287SOL    HW128416   6.707   3.682   1.970  0.4959 -1.4901 -0.6053
 9287SOL    HW228417   6.720   3.780   1.855  0.1485 -1.4027 -0.5703
 9288SOL     OW28418   2.196   4.143   6.638 -0.3693  0.3465  0.1241
 9288SOL    HW128419   2.217   4.235   6.654 -0.9528  0.2924  1.3364
 9288SOL    HW228420   2.281   4.100   6.632 -0.0550  1.1886 -2.0905
 9289SOL     OW28421   7.069   2.129   7.006  0.4113 -0.4641  0.4477
 9289SOL    HW128422   7.123   2.050   7.001 -1.1674 -1.4930 -1.7704
 9289SOL    HW228423   7.132   2.201   7.009  1.8975 -1.6675 -0.4390
 9290SOL     OW28424   4.912   6.884   5.423  0.0484  0.0362 -0.1727
 9290SOL    HW128425   4.953   6.822   5.362  1.8422  0.3325  0.6808
 9290SOL    HW228426   4.860   6.941   5.367  0.1703 -0.8358 -1.2145
 9291SOL     OW28427   4.665   2.850   7.418  0.2826  0.0756 -0.7029
 9291SOL    HW128428   4.699   2.938   7.399  1.8208 -0.1257  0.8284
 9291SOL    HW228429   4.721   2.791   7.367  0.4431 -0.1119 -0.3129
 9292SOL     OW28430   2.955   2.205   6.329  0.4662 -0.0089  0.4537
 9292SOL    HW128431   2.900   2.184   6.405  0.7240 -1.2548  0.3099
 9292SOL    HW228432   3.026   2.141   6.332 -1.4239 -2.5657 -2.8672
 9293SOL     OW28433   5.139   2.112   1.303  0.6397  0.1085 -0.0202
 9293SOL    HW128434   5.098   2.132   1.387  1.9882 -0.6947  0.8592
 9293SOL    HW228435   5.068   2.120   1.239  0.0558  2.9587  0.8560
 9294SOL     OW28436   0.196   5.162   6.229  0.2145  0.0760  0.1838
 9294SOL    HW128437   0.240   5.089   6.185  1.7709  0.3095  1.2853
 9294SOL    HW228438   0.261   5.197   6.289 -0.2596  2.8235 -0.7600
 9295SOL     OW28439   4.423   7.729   1.545 -0.2878 -0.5169 -0.1851
 9295SOL    HW128440   4.402   7.793   1.612  2.1063  0.8538 -0.6089
 9295SOL    HW228441   4.352   7.735   1.482 -1.1613  0.1861  0.8403
 9296SOL     OW28442   0.620   4.190   2.894 -0.4360 -0.4415 -0.3420
 9296SOL    HW128443   0.593   4.136   2.820 -1.5483 -0.7368  0.2463
 9296SOL    HW228444   0.626   4.129   2.967 -0.5895  0.0363  0.0788
 9297SOL     OW28445   3.452   0.529   2.342 -0.0919 -0.1283 -0.1451
 9297SOL    HW128446   3.471   0.461   2.406 -1.4851 -0.5029 -0.0967
 9297SOL    HW228447   3.372   0.500   2.299 -1.0446  1.7341  0.2608
 9298SOL     OW28448   2.241   3.356   2.310  0.2138  0.0960 -0.2177
 9298SOL    HW128449   2.203   3.312   2.234 -1.3341  0.5180  0.2623
 9298SOL    HW228450   2.315   3.406   2.275 -0.2312 -0.0294 -1.3780
 9299SOL     OW28451   0.167   4.553   3.097  0.1193 -0.8531 -0.3896
 9299SOL    HW128452   0.117   4.473   3.116 -0.8729 -0.3951 -0.9806
 9299SOL    HW228453   0.100   4.619   3.078  0.8406  0.5239  1.4998
 9300SOL     OW28454   1.128   4.203   1.292 -0.0856  0.3746  0.2225
 9300SOL    HW128455   1.134   4.131   1.229  0.2845  0.5794  0.0218
 9300SOL    HW228456   1.195   4.265   1.264 -0.0916  0.5857  0.6700
 9301SOL     OW28457   1.633   1.629   3.940 -0.0107  0.7211 -1.0216
 9301SOL    HW128458   1.563   1.661   3.883 -1.4023  1.7832  1.1361
 9301SOL    HW228459   1.652   1.703   3.999  1.3602 -0.2967 -0.1032
 9302SOL     OW28460   2.446   1.178   3.031  0.1834 -0.2066 -0.8617
 9302SOL    HW128461   2.459   1.086   3.010 -1.7292 -0.7944  0.2827
 9302SOL    HW228462   2.351   1.186   3.047  0.3465  1.8905 -0.6956
 9303SOL     OW28463   0.887   3.412   7.401 -0.4136  0.2815  0.5618
 9303SOL    HW128464   0.871   3.507   7.400 -0.4935  0.2828 -0.9302
 9303SOL    HW228465   0.801   3.373   7.409 -0.3900  0.3253  1.0686
 9304SOL     OW28466   2.150   2.768   4.393  0.5439  0.5381  0.5518
 9304SOL    HW128467   2.230   2.740   4.437  0.7438 -0.8283 -0.5899
 9304SOL    HW228468   2.119   2.689   4.348 -1.6200  0.9534  1.2141
 9305SOL     OW28469   3.229   3.905   7.380  0.2735  0.7979  0.5754
 9305SOL    HW128470   3.198   3.861   7.302  1.2004  0.1615  0.5523
 9305SOL    HW228471   3.174   3.983   7.387 -0.2359  0.5347 -0.3451
 9306SOL     OW28472   7.661   7.081   1.536  0.0575  0.0733 -0.2524
 9306SOL    HW128473   7.579   7.087   1.487 -0.4970 -0.5806  0.5480
 9306SOL    HW228474   7.729   7.078   1.470 -0.7341 -2.0409 -1.0549
 9307SOL     OW28475   1.052   3.029   4.663 -0.6308 -0.9409 -0.5773
 9307SOL    HW128476   1.041   3.114   4.706  0.8214 -1.0293  0.0577
 9307SOL    HW228477   1.097   2.975   4.728  1.8783 -1.0211 -2.2156
 9308SOL     OW28478   4.180   2.514   2.608  0.0787  0.0144 -0.3864
 9308SOL    HW128479   4.195   2.599   2.649 -0.1711 -0.1489  0.0464
 9308SOL    HW228480   4.191   2.450   2.679 -1.5963 -0.1915 -0.2704
 9309SOL     OW28481   5.812   5.249   0.488  0.1593 -0.4532  0.4970
 9309SOL    HW128482   5.882   5.194   0.453  0.2462 -1.3321  2.0097
 9309SOL    HW228483   5.792   5.212   0.574 -0.8314  0.9689  0.9112
 9310SOL     OW28484   6.939   7.528   6.155 -0.0465  0.1131 -0.2694
 9310SOL    HW128485   6.999   7.463   6.192  0.8758 -0.6441 -2.8808
 9310SOL    HW228486   6.980   7.612   6.174  1.5485 -0.3639 -1.4151
 9311SOL     OW28487   1.808   3.262   3.710 -0.1947  0.4124 -0.0681
 9311SOL    HW128488   1.718   3.293   3.710  0.1576  1.5091 -0.8041
 9311SOL    HW228489   1.833   3.259   3.802 -1.3493 -1.1032  0.2363
 9312SOL     OW28490   1.504   6.135   2.303  0.1044  0.2780 -0.4977
 9312SOL    HW128491   1.515   6.043   2.280  2.1656  0.3988 -0.2299
 9312SOL    HW228492   1.476   6.178   2.222  1.3442 -0.2568 -1.2405
 9313SOL     OW28493   3.067   1.378   0.654  0.0277 -0.7895 -0.5275
 9313SOL    HW128494   2.983   1.335   0.668 -1.5504  1.8646 -1.2311
 9313SOL    HW228495   3.045   1.464   0.617  3.0159  0.2854 -0.1006
 9314SOL     OW28496   0.420   4.259   0.595  0.4215 -0.3553  0.6546
 9314SOL    HW128497   0.424   4.200   0.519 -2.2549 -1.7087  1.4293
 9314SOL    HW228498   0.413   4.200   0.670  0.3845  0.9653  1.7206
 9315SOL     OW28499   1.869   6.527   5.101  0.0063 -0.1243  0.6683
 9315SOL    HW128500   1.787   6.503   5.144 -0.3291  0.5419  0.4210
 9315SOL    HW228501   1.886   6.455   5.040 -0.1366 -0.5004  1.0699
 9316SOL     OW28502   2.793   4.377   2.226  0.0964  0.7061  0.2045
 9316SOL    HW128503   2.864   4.440   2.240  0.2318  0.8653 -1.0934
 9316SOL    HW228504   2.715   4.430   2.216 -0.1929  0.5400  1.4016
 9317SOL     OW28505   6.376   4.191   6.473  0.0159  0.0560 -0.2734
 9317SOL    HW128506   6.316   4.122   6.502  1.1269 -1.0312 -0.4809
 9317SOL    HW228507   6.331   4.233   6.399 -0.0730 -1.4159 -1.0893
 9318SOL     OW28508   2.078   3.725   2.186 -0.6043  0.1252 -0.7668
 9318SOL    HW128509   2.141   3.797   2.188 -0.2359 -0.2077 -0.0490
 9318SOL    HW228510   2.027   3.740   2.106  0.5101  0.2984 -1.4687
 9319SOL     OW28511   1.606   3.938   2.085 -0.1004 -0.3497 -0.0645
 9319SOL    HW128512   1.660   3.934   2.006 -1.6760  0.5799 -1.2604
 9319SOL    HW228513   1.632   4.019   2.128  0.2926 -0.5147  0.0085
 9320SOL     OW28514   1.637   6.980   3.401  0.3512 -0.3257  0.3398
 9320SOL    HW128515   1.611   7.070   3.379 -0.6576 -1.1984 -2.5508
 9320SOL    HW228516   1.579   6.925   3.349 -0.9445 -2.8608  4.0339
 9321SOL     OW28517   3.200   4.552   0.660  0.4402 -0.5218  0.0334
 9321SOL    HW128518   3.241   4.492   0.722  2.5850  1.3294  0.5513
 9321SOL    HW228519   3.189   4.634   0.709 -1.9503 -0.2685 -0.7824
 9322SOL     OW28520   1.703   6.506   5.564 -0.0458  0.4652 -0.3400
 9322SOL    HW128521   1.621   6.550   5.587 -0.4627 -0.0214 -0.8489
 9322SOL    HW228522   1.749   6.568   5.508  0.1090  0.8875  0.2395
 9323SOL     OW28523   1.541   2.261   5.283  0.0303 -0.4034  0.6879
 9323SOL    HW128524   1.542   2.197   5.212  0.6531 -0.6603  0.9206
 9323SOL    HW228525   1.540   2.208   5.363  0.1877 -0.1220  0.8778
 9324SOL     OW28526   0.556   0.216   7.046  0.1338 -0.6056  0.3105
 9324SOL    HW128527   0.633   0.269   7.025  0.2563 -0.3944  1.2381
 9324SOL    HW228528   0.547   0.157   6.971  1.0009 -0.4076  0.0311
 9325SOL     OW28529   4.032   1.418   3.548 -0.0841  0.2610  0.3160
 9325SOL    HW128530   4.002   1.370   3.625  0.9278 -2.0919 -0.6598
 9325SOL    HW228531   4.084   1.491   3.583 -1.5917  0.6589  1.8480
 9326SOL     OW28532   5.491   6.178   1.251  0.2011 -0.0895 -0.4859
 9326SOL    HW128533   5.545   6.257   1.261  0.0913 -0.1047  0.3717
 9326SOL    HW228534   5.403   6.212   1.234  0.1824 -0.0276 -0.2707
 9327SOL     OW28535   6.027   4.614   4.691  0.7701  0.2779  0.5211
 9327SOL    HW128536   6.084   4.646   4.762  2.2319 -0.2554 -0.3573
 9327SOL    HW228537   6.083   4.554   4.641 -0.4120  0.1831 -0.7466
 9328SOL     OW28538   3.452   7.495   7.433 -0.6936 -0.1154 -0.5945
 9328SOL    HW128539   3.447   7.548   7.513  0.1019 -0.4846 -0.2948
 9328SOL    HW228540   3.362   7.495   7.399 -0.7972  1.0695 -0.3709
 9329SOL     OW28541   5.772   6.815   5.229  0.2451  0.1348 -0.8625
 9329SOL    HW128542   5.747   6.756   5.300 -0.1863  0.5236 -0.6846
 9329SOL    HW228543   5.865   6.835   5.246 -0.5488  2.5305  1.3328
 9330SOL     OW28544   6.774   2.842   4.264  0.1277  0.8038 -0.5848
 9330SOL    HW128545   6.835   2.835   4.337  0.4846  0.9133 -0.8707
 9330SOL    HW228546   6.829   2.844   4.186 -0.3068 -0.5567 -0.9484
 9331SOL     OW28547   6.840   0.921   3.989 -0.1207 -0.1095  0.3858
 9331SOL    HW128548   6.758   0.873   4.004 -1.1357  1.4667  0.0670
 9331SOL    HW228549   6.848   0.926   3.894  1.4438 -2.0008  0.3603
 9332SOL     OW28550   2.363   7.371   6.522 -0.2009 -0.3699  0.2959
 9332SOL    HW128551   2.285   7.341   6.571 -0.8501 -0.7716 -0.9339
 9332SOL    HW228552   2.342   7.352   6.431  0.9312  0.4901 -0.1591
 9333SOL     OW28553   5.801   5.849   2.654 -0.3964 -0.1464  0.0832
 9333SOL    HW128554   5.831   5.909   2.723  1.2434 -1.1644  0.3128
 9333SOL    HW228555   5.881   5.825   2.608 -0.9056 -2.5384  0.3238
 9334SOL     OW28556   2.845   6.844   5.776  0.3240  0.1307  0.0606
 9334SOL    HW128557   2.777   6.779   5.760  1.7428 -1.6838  0.9843
 9334SOL    HW228558   2.811   6.897   5.848 -1.2624  1.1209 -1.3318
 9335SOL     OW28559   5.124   5.138   4.280  0.0987 -0.2256  0.5440
 9335SOL    HW128560   5.158   5.053   4.309  0.5506  0.3150  1.6739
 9335SOL    HW228561   5.199   5.182   4.240 -0.2409 -0.5103 -0.4397
 9336SOL     OW28562   3.624   3.798   7.508 -0.0806  0.0731  0.3838
 9336SOL    HW128563   3.552   3.859   7.520 -2.0993 -2.2848  1.0550
 9336SOL    HW228564   3.619   3.772   7.416  1.8025  2.0024 -0.3488
 9337SOL     OW28565   4.079   6.294   0.708  0.2593  0.2086 -0.3600
 9337SOL    HW128566   4.041   6.208   0.725 -0.1600  0.4623  0.0344
 9337SOL    HW228567   4.125   6.316   0.789  2.1365 -0.5342 -1.1923
 9338SOL     OW28568   4.597   5.398   1.554  0.1579 -0.1370  1.0200
 9338SOL    HW128569   4.549   5.470   1.514 -1.7288 -0.2092  2.9297
 9338SOL    HW228570   4.689   5.416   1.536 -0.2760  2.5497  1.1065
 9339SOL     OW28571   4.734   2.422   5.634  0.3540  0.1315  0.1732
 9339SOL    HW128572   4.748   2.498   5.691  0.2913  1.0204 -0.9542
 9339SOL    HW228573   4.815   2.372   5.640  0.1854 -0.0135  1.3642
 9340SOL     OW28574   0.725   0.058   0.876  0.2154  0.3819  0.5509
 9340SOL    HW128575   0.703   0.054   0.783  0.1181 -1.2155  0.6208
 9340SOL    HW228576   0.641   0.070   0.920  0.1260 -0.0724  0.5030
 9341SOL     OW28577   1.778   6.248   2.437  0.0995  0.4098 -0.1301
 9341SOL    HW128578   1.839   6.307   2.393  2.5504 -1.5063  0.4353
 9341SOL    HW228579   1.755   6.183   2.371  0.2100  0.0543  0.1746
 9342SOL     OW28580   2.739   3.028   1.622  0.0938 -0.3511  0.8931
 9342SOL    HW128581   2.728   3.121   1.642 -1.6672 -0.5433  1.0108
 9342SOL    HW228582   2.673   2.985   1.676 -2.9767 -1.1589 -2.9725
 9343SOL     OW28583   0.923   6.816   6.279 -0.4392 -0.0837 -0.2648
 9343SOL    HW128584   0.877   6.737   6.249 -1.7323  0.3144  0.5797
 9343SOL    HW228585   1.004   6.817   6.229 -0.6572 -1.6508 -0.7027
 9344SOL     OW28586   6.961   5.437   5.993  0.4347 -0.4623 -0.2177
 9344SOL    HW128587   6.978   5.358   6.044  1.4382  0.0321  0.2534
 9344SOL    HW228588   6.907   5.491   6.051 -0.6871 -1.0004 -0.7399
 9345SOL     OW28589   0.846   2.395   5.961  0.0889  0.0516  0.6889
 9345SOL    HW128590   0.930   2.430   5.931 -0.3687 -0.5626 -1.5040
 9345SOL    HW228591   0.869   2.320   6.017  0.9904  1.2508  1.9806
 9346SOL     OW28592   0.795   5.077   3.038 -0.6000  0.2334  0.1670
 9346SOL    HW128593   0.771   5.033   3.120 -0.3771  1.3208  0.8364
 9346SOL    HW228594   0.712   5.103   2.999 -0.6594  1.0437  0.8130
 9347SOL     OW28595   7.134   2.343   0.940 -0.3653  0.6149 -0.1243
 9347SOL    HW128596   7.054   2.391   0.963  0.0923  0.9329  0.8392
 9347SOL    HW228597   7.183   2.338   1.021  0.4056  0.0376 -0.6142
 9348SOL     OW28598   1.297   4.516   0.077  0.0794  0.3132  0.3067
 9348SOL    HW128599   1.214   4.564   0.073  0.4377  1.0681  1.4586
 9348SOL    HW228600   1.332   4.523  -0.011 -0.9238  0.2680 -0.1147
 9349SOL     OW28601   3.283   1.684   1.632 -0.1469  0.0934  0.1037
 9349SOL    HW128602   3.288   1.779   1.626  0.4497  0.0527 -0.1375
 9349SOL    HW228603   3.333   1.652   1.556 -1.0250 -0.4103 -0.2800
 9350SOL     OW28604   2.640   2.616   2.800  0.2536 -0.3384  0.3268
 9350SOL    HW128605   2.586   2.642   2.724 -1.7836 -0.1744  1.7403
 9350SOL    HW228606   2.587   2.549   2.844  2.2716 -1.8209  0.6051
 9351SOL     OW28607   6.367   7.635   1.667  0.2136  0.2257  0.2257
 9351SOL    HW128608   6.334   7.724   1.663 -2.8200 -0.8263 -1.4047
 9351SOL    HW228609   6.375   7.608   1.575 -0.3340 -1.6099  0.6629
 9352SOL     OW28610   3.684   7.056   3.535 -0.2250 -0.1955  0.3112
 9352SOL    HW128611   3.591   7.036   3.530  0.2615 -2.2574 -2.8418
 9352SOL    HW228612   3.696   7.132   3.478  0.4040 -2.2104 -2.4677
 9353SOL     OW28613   5.185   6.541   1.782 -0.0455  0.1591 -0.0882
 9353SOL    HW128614   5.159   6.469   1.724 -1.1872 -1.5800  2.3998
 9353SOL    HW228615   5.264   6.509   1.825 -0.8987  0.0523  1.4844
 9354SOL     OW28616   0.967   3.089   6.210  0.3712  0.4205  0.3739
 9354SOL    HW128617   0.935   3.107   6.122 -4.5599  0.8298  1.9300
 9354SOL    HW228618   0.969   2.994   6.216 -1.1630  0.3518  0.2693
 9355SOL     OW28619   5.199   7.708   4.457  0.3563  0.8868  0.6502
 9355SOL    HW128620   5.137   7.749   4.518  0.0513 -0.2469  1.1307
 9355SOL    HW228621   5.284   7.744   4.482  0.3334 -0.0132  2.2154
 9356SOL     OW28622   4.739   3.626   0.953  0.0771 -0.1514  0.2332
 9356SOL    HW128623   4.791   3.681   1.011 -0.3729 -0.1077  0.5987
 9356SOL    HW228624   4.750   3.666   0.866  1.9670 -1.1004  0.0018
 9357SOL     OW28625   3.804   0.771   4.845 -0.1213 -0.2814 -0.1868
 9357SOL    HW128626   3.888   0.785   4.800 -0.5691  0.9659 -0.6920
 9357SOL    HW228627   3.741   0.823   4.795 -1.3218 -1.6104 -0.1256
 9358SOL     OW28628   6.146   1.403   2.146 -0.1900 -0.2032 -0.1842
 9358SOL    HW128629   6.090   1.326   2.153  1.4760 -1.3634  1.6729
 9358SOL    HW228630   6.228   1.370   2.111  0.0184  1.0604 -0.9287
 9359SOL     OW28631   7.580   7.082   7.102  0.5397 -0.6450 -0.0869
 9359SOL    HW128632   7.607   7.143   7.033 -1.6799 -0.9267 -1.3037
 9359SOL    HW228633   7.600   6.996   7.067  0.4966 -0.7431  0.1321
 9360SOL     OW28634   1.919   0.914   4.140  0.3130 -0.0062 -0.0177
 9360SOL    HW128635   1.905   0.827   4.103 -1.0071 -0.1396  0.7295
 9360SOL    HW228636   1.840   0.963   4.117  1.6766  1.5211 -1.7707
 9361SOL     OW28637   7.625   2.871   0.707  0.1870 -0.8553 -0.2670
 9361SOL    HW128638   7.694   2.830   0.655  0.2714  0.6360 -1.3929
 9361SOL    HW228639   7.659   2.959   0.726 -0.6601 -0.7213  0.6883
 9362SOL     OW28640   5.393   7.566   2.393  0.4441 -0.0673 -0.1850
 9362SOL    HW128641   5.326   7.616   2.347  0.5571  0.7212  0.4881
 9362SOL    HW228642   5.343   7.500   2.442  0.1621  0.4507  0.2330
 9363SOL     OW28643   0.836   3.692   2.118 -0.5062  0.5809  0.0324
 9363SOL    HW128644   0.748   3.694   2.156 -0.3426  3.1912  0.4386
 9363SOL    HW228645   0.821   3.680   2.024 -1.1658 -0.8316  0.2920
 9364SOL     OW28646   1.566   4.353   4.232 -0.0331 -0.0941  0.5344
 9364SOL    HW128647   1.621   4.374   4.307 -0.5334 -0.2899  0.9613
 9364SOL    HW228648   1.495   4.417   4.235  0.5282  0.6018 -0.4197
 9365SOL     OW28649   4.609   6.273   3.791 -0.1313 -0.3009 -0.6364
 9365SOL    HW128650   4.521   6.238   3.779 -0.5250  0.7345 -0.8088
 9365SOL    HW228651   4.645   6.281   3.703 -0.6308  1.2086 -0.7143
 9366SOL     OW28652   3.909   0.289   6.631 -0.3048 -0.5517 -0.2138
 9366SOL    HW128653   3.909   0.377   6.669 -0.3628 -1.1429  1.2175
 9366SOL    HW228654   4.001   0.266   6.624 -0.2748 -0.2228 -0.9954
 9367SOL     OW28655   6.602   0.726   0.482 -0.0632  0.1986 -0.4456
 9367SOL    HW128656   6.546   0.736   0.405 -1.1222 -1.0844  0.1130
 9367SOL    HW228657   6.603   0.812   0.522 -0.0093  0.7261 -1.5484
 9368SOL     OW28658   6.230   1.089   3.027 -0.3150  0.1789 -1.0452
 9368SOL    HW128659   6.155   1.033   3.049 -0.2806 -0.0013 -1.3757
 9368SOL    HW228660   6.255   1.130   3.110 -0.9679  0.4735 -0.9861
 9369SOL     OW28661   3.415   4.593   5.206  0.5465  0.3081  0.1270
 9369SOL    HW128662   3.472   4.541   5.262  1.0929  0.5155 -0.2294
 9369SOL    HW228663   3.361   4.644   5.267  1.5908  1.0215  0.4777
 9370SOL     OW28664   5.440   5.229   6.940  0.1205 -0.1863 -0.4077
 9370SOL    HW128665   5.512   5.264   6.888  1.4619  1.2312  2.1969
 9370SOL    HW228666   5.385   5.305   6.959 -0.9863 -0.8975 -0.6739
 9371SOL     OW28667   7.175   4.176   7.526 -0.2098  0.2354  0.5759
 9371SOL    HW128668   7.131   4.123   7.460 -1.2639  0.2794  1.2272
 9371SOL    HW228669   7.240   4.227   7.477 -1.3242  0.6600 -0.4969
 9372SOL     OW28670   0.963   5.803   1.109 -0.2760 -0.0727  0.0365
 9372SOL    HW128671   0.920   5.864   1.049 -1.3831 -0.3139  0.5657
 9372SOL    HW228672   0.923   5.719   1.090  0.3808 -0.4153  0.1490
 9373SOL     OW28673   5.355   0.394   2.742  0.2566  0.4523 -0.1413
 9373SOL    HW128674   5.282   0.358   2.792 -0.3256  1.9294  0.1179
 9373SOL    HW228675   5.402   0.317   2.710  0.1149 -0.5588  1.8927
 9374SOL     OW28676   7.115   6.826   4.126 -0.0784  0.3594 -0.1763
 9374SOL    HW128677   7.138   6.838   4.033  1.9253  1.8228  0.4484
 9374SOL    HW228678   7.125   6.732   4.140 -2.9926 -0.3834 -1.9889
 9375SOL     OW28679   0.421   3.556   4.641 -0.4135  0.1320  0.3808
 9375SOL    HW128680   0.385   3.577   4.555  0.0538 -1.0099 -0.1110
 9375SOL    HW228681   0.503   3.605   4.645 -0.9322  0.9932  0.6019
 9376SOL     OW28682   1.668   1.481   5.514  0.1300 -0.3196 -0.9326
 9376SOL    HW128683   1.692   1.424   5.588 -0.7585  0.5450  0.0677
 9376SOL    HW228684   1.634   1.561   5.556 -1.1319 -0.1148 -2.2575
 9377SOL     OW28685   6.945   4.246   0.047  0.0619  0.1284  0.3414
 9377SOL    HW128686   6.951   4.300  -0.032  1.0967 -2.1525 -1.2372
 9377SOL    HW228687   7.037   4.234   0.074 -0.2401  0.2717  1.5039
 9378SOL     OW28688   4.464   0.035   2.108 -0.1259  0.1889  0.6002
 9378SOL    HW128689   4.441   0.086   2.031  1.1372 -0.9839 -0.5974
 9378SOL    HW228690   4.380   0.020   2.153 -1.0088  0.1346 -1.0064
 9379SOL     OW28691   4.493   4.423   3.249  0.4293 -0.2293 -0.1201
 9379SOL    HW128692   4.525   4.513   3.262 -0.0229 -0.0513 -0.2169
 9379SOL    HW228693   4.504   4.407   3.156 -1.9720  0.7259 -0.6658
 9380SOL     OW28694   5.877   1.545   5.249 -0.5960  0.6383  0.6033
 9380SOL    HW128695   5.894   1.531   5.156 -0.5114  2.2212  0.3397
 9380SOL    HW228696   5.963   1.540   5.290 -0.4151  1.4455  0.3488
 9381SOL     OW28697   2.449   7.506   3.598  0.1872  0.2076 -0.1835
 9381SOL    HW128698   2.426   7.521   3.690  0.5163  2.5864 -0.4156
 9381SOL    HW228699   2.366   7.517   3.551  0.3079  0.6835 -0.2952
 9382SOL     OW28700   3.990   0.130   4.830 -0.0529  0.0148  0.2969
 9382SOL    HW128701   3.943   0.073   4.769 -1.4704  1.5129 -0.0962
 9382SOL    HW228702   4.062   0.166   4.778  1.7323 -2.4039  0.9426
 9383SOL     OW28703   5.875   4.983   2.122 -0.1139 -0.1246 -0.0066
 9383SOL    HW128704   5.799   4.955   2.174  1.5493 -1.7468  1.6766
 9383SOL    HW228705   5.869   5.079   2.121 -0.7751 -0.0869  2.3640
 9384SOL     OW28706   6.244   4.198   5.635 -0.4158  0.1923 -0.4202
 9384SOL    HW128707   6.266   4.283   5.597  1.6893 -0.0567  0.0723
 9384SOL    HW228708   6.293   4.197   5.718 -2.5516 -0.4372  0.9161
 9385SOL     OW28709   2.324   5.098   7.264 -0.4178 -0.2451 -0.4923
 9385SOL    HW128710   2.263   5.154   7.313 -0.7594 -1.8423  1.0248
 9385SOL    HW228711   2.271   5.022   7.240  0.7972 -1.3604  0.2749
 9386SOL     OW28712   6.558   6.229   7.417  0.6029 -0.5302 -0.0278
 9386SOL    HW128713   6.572   6.315   7.376 -1.1109  0.2170  0.8068
 9386SOL    HW228714   6.638   6.211   7.465  0.9961  0.6049 -0.2305
 9387SOL     OW28715   2.868   2.933   0.889  0.0033  0.7317 -0.2296
 9387SOL    HW128716   2.913   2.857   0.852 -2.2748 -0.9608  0.2375
 9387SOL    HW228717   2.930   3.005   0.879  1.7955 -0.9155 -1.8024
 9388SOL     OW28718   5.976   7.024   1.583  0.0416 -0.1487 -0.3455
 9388SOL    HW128719   6.024   6.950   1.620 -0.7448 -0.1414  0.7442
 9388SOL    HW228720   5.989   7.095   1.646  0.8856  0.6864 -1.4402
 9389SOL     OW28721   6.940   7.189   2.380 -0.0875 -0.2997  0.5274
 9389SOL    HW128722   6.904   7.269   2.340 -2.1000 -1.7444 -0.8055
 9389SOL    HW228723   6.888   7.177   2.460  0.2286 -0.2575  0.7383
 9390SOL     OW28724   7.409   4.664   5.897  0.8960 -0.1410  0.6047
 9390SOL    HW128725   7.417   4.570   5.907 -1.7106 -0.4560  0.4892
 9390SOL    HW228726   7.322   4.677   5.858  1.0575  2.3194  0.8668
 9391SOL     OW28727   0.663   5.338   6.978  0.4867  0.1919 -0.0190
 9391SOL    HW128728   0.633   5.429   6.970  1.9229  0.8149  1.1646
 9391SOL    HW228729   0.705   5.319   6.894 -0.2842  0.4299 -0.4674
 9392SOL     OW28730   3.839   4.669   3.153  0.0199  0.1453  0.1057
 9392SOL    HW128731   3.813   4.610   3.223 -2.1289 -0.3790 -1.0540
 9392SOL    HW228732   3.791   4.750   3.170  0.8357  0.6288  0.1701
 9393SOL     OW28733   4.108   7.562   1.137  0.0085  0.2404  0.2190
 9393SOL    HW128734   4.032   7.512   1.169 -0.9919  1.6594  0.1684
 9393SOL    HW228735   4.092   7.573   1.044  0.3711  0.3937  0.1742
 9394SOL     OW28736   5.936   6.788   7.035 -0.2861 -0.7984  0.5487
 9394SOL    HW128737   5.978   6.873   7.051 -0.7945 -0.3765 -0.2855
 9394SOL    HW228738   5.842   6.808   7.034 -0.4107 -1.3909  0.4248
 9395SOL     OW28739   5.149   4.371   1.208  0.3607  0.0560 -0.0914
 9395SOL    HW128740   5.127   4.453   1.164 -0.4389 -0.9970 -1.7641
 9395SOL    HW228741   5.190   4.318   1.140  1.9474 -0.5365  1.2635
 9396SOL     OW28742   7.697   7.315   5.705  0.2073 -0.3649 -0.5006
 9396SOL    HW128743   7.649   7.352   5.779 -1.3858 -1.0506 -1.1189
 9396SOL    HW228744   7.687   7.380   5.635 -0.1950 -0.6823 -0.7477
 9397SOL     OW28745   1.286   6.212   3.476  0.6843 -0.2169  1.0223
 9397SOL    HW128746   1.287   6.119   3.495  0.2225 -0.1670  1.3245
 9397SOL    HW228747   1.353   6.249   3.534 -0.8619 -0.0381  2.7955
 9398SOL     OW28748   2.852   6.780   0.115 -0.0867 -0.3666 -0.6586
 9398SOL    HW128749   2.830   6.689   0.137  0.6216 -0.9082 -2.0514
 9398SOL    HW228750   2.947   6.785   0.124 -0.0625  0.0817 -1.1144
 9399SOL     OW28751   1.195   4.039   5.570  0.5184 -0.0420 -0.1610
 9399SOL    HW128752   1.104   4.038   5.602  0.5610  0.0075 -0.0388
 9399SOL    HW228753   1.187   4.018   5.477  0.3659  0.1280 -0.1882
 9400SOL     OW28754   4.783   0.169   0.357 -0.0018  0.0559  0.2767
 9400SOL    HW128755   4.836   0.213   0.292 -1.6802 -0.1069 -1.2983
 9400SOL    HW228756   4.694   0.200   0.340 -0.7477 -1.3926  1.2909
 9401SOL     OW28757   4.821   6.020   5.137 -0.2109 -0.2049  0.1987
 9401SOL    HW128758   4.903   5.983   5.170 -0.5409 -0.1801  1.0793
 9401SOL    HW228759   4.796   6.085   5.202 -0.1754  0.8504 -0.8195
 9402SOL     OW28760   3.511   0.032   7.127 -0.3820  0.1775  0.1337
 9402SOL    HW128761   3.567  -0.044   7.141 -1.0422 -1.1857 -3.4941
 9402SOL    HW228762   3.481   0.056   7.215  3.0241 -1.1533  1.8517
 9403SOL     OW28763   5.833   0.881   7.665 -0.0948  0.3503  0.2648
 9403SOL    HW128764   5.889   0.831   7.606 -0.2174  1.4207 -0.7985
 9403SOL    HW228765   5.892   0.914   7.732  0.3420  0.4516 -0.1636
 9404SOL     OW28766   3.515   2.551   7.739 -0.5878  0.1923 -0.3881
 9404SOL    HW128767   3.505   2.468   7.786  0.3492  0.5100  0.3864
 9404SOL    HW228768   3.558   2.527   7.657  0.4934  0.0139  0.2193
 9405SOL     OW28769   5.972   6.564   3.753 -0.1351  0.1677 -0.4845
 9405SOL    HW128770   6.058   6.531   3.778 -0.2030  0.4713  0.1718
 9405SOL    HW228771   5.917   6.486   3.748  0.4891 -0.2101 -2.3176
 9406SOL     OW28772   3.470   6.501   4.081 -0.2697  0.1604  0.4519
 9406SOL    HW128773   3.395   6.498   4.022 -1.2039  1.6770  1.5172
 9406SOL    HW228774   3.518   6.579   4.054  0.6045 -0.4388  0.2101
 9407SOL     OW28775   1.073   5.880   5.625 -0.4287  0.3399 -0.4219
 9407SOL    HW128776   1.063   5.787   5.646 -2.5154  0.8022  0.9805
 9407SOL    HW228777   1.138   5.912   5.688 -0.2076 -0.0298 -0.4589
 9408SOL     OW28778   6.894   7.127   6.238 -0.0341  0.3597 -0.2828
 9408SOL    HW128779   6.931   7.166   6.317  0.3938  1.0971 -0.8288
 9408SOL    HW228780   6.956   7.057   6.215  0.4845  0.9116 -0.6097
 9409SOL     OW28781   1.928   0.400   3.351  0.6485 -0.7703 -0.7804
 9409SOL    HW128782   1.893   0.339   3.416  1.3623 -0.8292 -0.4405
 9409SOL    HW228783   1.873   0.388   3.274  0.3350 -1.3248 -0.4712
 9410SOL     OW28784   3.573   0.862   1.086  0.4689 -0.2634  0.0561
 9410SOL    HW128785   3.594   0.809   1.009  0.3884  0.3175 -0.3704
 9410SOL    HW228786   3.658   0.889   1.121  0.4912  0.5774 -0.6125
 9411SOL     OW28787   7.518   5.843   4.706 -0.5165  0.1566 -0.3072
 9411SOL    HW128788   7.429   5.862   4.735 -0.5119  0.4228 -0.4650
 9411SOL    HW228789   7.521   5.876   4.616 -0.6779 -1.0892 -0.7931
 9412SOL     OW28790   7.136   6.606   0.578 -1.1097 -0.2052 -0.6554
 9412SOL    HW128791   7.204   6.645   0.523 -0.6146 -1.3451 -0.8864
 9412SOL    HW228792   7.171   6.520   0.601 -2.3822 -0.7302 -0.6007
 9413SOL     OW28793   1.950   4.283   1.764  0.3368 -0.0765  0.2203
 9413SOL    HW128794   1.859   4.310   1.750  0.1734 -0.6818  0.0843
 9413SOL    HW228795   2.000   4.365   1.760 -0.2405  0.3083  0.6447
 9414SOL     OW28796   2.932   7.045   3.712  0.4262 -0.1053  0.1745
 9414SOL    HW128797   2.961   6.997   3.789 -0.7165 -0.2706  0.5226
 9414SOL    HW228798   2.843   7.074   3.733  0.3970  0.5491 -0.7609
 9415SOL     OW28799   1.478   3.469   2.483 -0.1275  0.0352 -0.5167
 9415SOL    HW128800   1.421   3.489   2.409 -0.0761 -1.3815 -0.9823
 9415SOL    HW228801   1.564   3.504   2.458 -0.1760 -0.1901 -1.0164
 9416SOL     OW28802   5.924   3.994   6.106  0.2848 -0.6414 -0.5263
 9416SOL    HW128803   6.003   4.033   6.143  0.0776 -0.6704 -0.0303
 9416SOL    HW228804   5.924   4.020   6.014  0.4016  0.1241 -0.3187
 9417SOL     OW28805   2.582   7.389   4.012  0.2379  0.7700 -0.2165
 9417SOL    HW128806   2.586   7.426   4.101 -1.6352  0.7870 -0.0948
 9417SOL    HW228807   2.617   7.458   3.956  0.4255  1.1922  0.4091
 9418SOL     OW28808   7.037   5.469   2.795  0.4530  0.2133 -0.0208
 9418SOL    HW128809   7.010   5.500   2.708 -1.1234 -0.9587  0.0111
 9418SOL    HW228810   6.971   5.504   2.854  0.5649 -0.3904  0.4665
 9419SOL     OW28811   7.035   1.625   7.133  0.0263  0.3033 -0.8533
 9419SOL    HW128812   6.957   1.671   7.161 -0.3775  1.0413 -2.9709
 9419SOL    HW228813   7.087   1.691   7.086  0.8205 -0.6999 -1.4487
 9420SOL     OW28814   7.313   1.597   7.259 -0.4052  0.2642 -0.5435
 9420SOL    HW128815   7.250   1.618   7.329 -0.7121 -0.8103 -0.4869
 9420SOL    HW228816   7.262   1.548   7.195  0.2539 -0.1242 -0.7778
 9421SOL     OW28817   7.075   1.479   5.108  0.2598  0.2228 -0.4037
 9421SOL    HW128818   6.981   1.466   5.097  0.1854 -1.5572  1.6164
 9421SOL    HW228819   7.104   1.403   5.158  2.4368  1.6454  0.6551
 9422SOL     OW28820   6.286   4.858   4.408 -0.1777  0.3439  0.0573
 9422SOL    HW128821   6.294   4.854   4.504 -0.7945 -1.7382  0.0685
 9422SOL    HW228822   6.244   4.943   4.391  1.0552  1.3054  1.5109
 9423SOL     OW28823   1.864   0.711   3.009 -0.0350 -0.1900  0.5743
 9423SOL    HW128824   1.914   0.638   3.045  0.5616  0.0909  0.3373
 9423SOL    HW228825   1.931   0.775   2.984 -0.5873  0.9620  1.9183
 9424SOL     OW28826   6.293   6.462   5.809  0.0755 -0.2282 -0.0385
 9424SOL    HW128827   6.299   6.557   5.816  1.4415 -0.3000  0.0604
 9424SOL    HW228828   6.222   6.438   5.869 -0.4434  0.7426 -0.2463
 9425SOL     OW28829   3.537   5.880   0.980  0.5092 -0.0423  0.2254
 9425SOL    HW128830   3.470   5.942   1.010 -0.8006 -1.1407 -0.3466
 9425SOL    HW228831   3.617   5.907   1.026 -0.6155  0.4943  1.9509
 9426SOL     OW28832   5.677   3.175   4.554 -0.1209 -0.3870 -0.0078
 9426SOL    HW128833   5.617   3.185   4.627  1.2606 -1.0608  1.2753
 9426SOL    HW228834   5.741   3.246   4.565 -1.3835  1.2285 -2.1698
 9427SOL     OW28835   0.379   6.778   3.870  0.6030  0.7778  0.0284
 9427SOL    HW128836   0.463   6.741   3.845  1.1254  0.8602  1.5599
 9427SOL    HW228837   0.382   6.783   3.966 -1.2433  0.5461  0.1418
 9428SOL     OW28838   6.953   7.670   3.782  0.1989 -0.2916 -0.0038
 9428SOL    HW128839   6.868   7.656   3.740 -0.1471  0.6139  0.3515
 9428SOL    HW228840   7.002   7.722   3.720 -0.5286  1.5658  0.8863
 9429SOL     OW28841   1.347   3.341   5.542 -0.5742  0.6495  0.1137
 9429SOL    HW128842   1.323   3.336   5.450  0.4279  0.3111 -0.1398
 9429SOL    HW228843   1.435   3.381   5.542  0.2269 -1.0215  0.7803
 9430SOL     OW28844   1.659   6.908   5.512  0.2257 -0.3772  0.8185
 9430SOL    HW128845   1.589   6.849   5.540 -0.0383 -0.9962 -1.0201
 9430SOL    HW228846   1.659   6.902   5.416  0.9416  1.7643  0.6351
 9431SOL     OW28847   0.854   3.954   5.814 -0.2162  0.9238  0.2731
 9431SOL    HW128848   0.861   4.007   5.734 -1.1235  0.4575 -0.1378
 9431SOL    HW228849   0.930   3.978   5.866  0.6426  0.9072 -0.9356
 9432SOL     OW28850   7.713   3.460   2.390 -0.5281 -0.2565  0.7699
 9432SOL    HW128851   7.795   3.444   2.344 -0.7929  1.2403 -0.3152
 9432SOL    HW228852   7.727   3.542   2.437 -1.1436 -0.4031  1.2246
 9433SOL     OW28853   5.664   3.427   5.289 -0.7054 -0.2129  0.1375
 9433SOL    HW128854   5.753   3.394   5.276 -0.3946  0.5327  0.3419
 9433SOL    HW228855   5.673   3.499   5.351 -1.5278 -0.4805  0.5932
 9434SOL     OW28856   0.949   3.462   4.712 -0.1013  0.4739 -0.2748
 9434SOL    HW128857   1.034   3.419   4.705 -0.6112 -0.9878  1.7574
 9434SOL    HW228858   0.948   3.499   4.800 -1.2100  1.2783 -0.6108
 9435SOL     OW28859   3.511   0.199   1.562 -0.1331 -0.4930 -0.0265
 9435SOL    HW128860   3.517   0.211   1.657 -1.9541  0.7345 -0.0397
 9435SOL    HW228861   3.444   0.132   1.551 -0.3080 -0.2428 -0.4750
 9436SOL     OW28862   1.598   3.267   6.296 -0.2711  0.3113  0.5200
 9436SOL    HW128863   1.527   3.318   6.334 -0.4356 -0.1748  0.8791
 9436SOL    HW228864   1.639   3.326   6.232  0.1010  1.2038  1.5397
 9437SOL     OW28865   2.225   5.212   7.581 -0.4093 -0.2731 -0.4501
 9437SOL    HW128866   2.276   5.185   7.658 -0.1723 -0.9013 -0.8256
 9437SOL    HW228867   2.161   5.274   7.616  2.4646  2.9210 -0.3963
 9438SOL     OW28868   4.175   3.839   6.879  0.0372 -0.0653  0.6925
 9438SOL    HW128869   4.230   3.868   6.952  1.3161  0.6093 -0.5127
 9438SOL    HW228870   4.196   3.899   6.808  0.1330 -1.7925 -0.7960
 9439SOL     OW28871   3.692   0.157   3.703 -0.4131  0.2394  0.4357
 9439SOL    HW128872   3.721   0.094   3.769 -2.6344 -1.1931  0.1593
 9439SOL    HW228873   3.745   0.236   3.720  0.8464 -0.9169  2.2649
 9440SOL     OW28874   5.078   3.653   3.619 -0.1006 -0.0954 -0.0209
 9440SOL    HW128875   5.056   3.585   3.555 -2.9336  0.0732  0.6236
 9440SOL    HW228876   5.116   3.724   3.567  1.1892 -1.4039 -0.9460
 9441SOL     OW28877   0.729   3.768   1.160  0.0981  0.4035  0.1818
 9441SOL    HW128878   0.776   3.765   1.076  0.3279  2.0875  0.2028
 9441SOL    HW228879   0.690   3.856   1.162  0.6157  0.6390  2.1125
 9442SOL     OW28880   0.010   6.996   2.922  0.2510  0.4715  0.2265
 9442SOL    HW128881  -0.015   6.993   3.014 -0.3827  0.1499  0.0473
 9442SOL    HW228882  -0.012   6.910   2.887 -1.3456  1.1888 -0.6785
 9443SOL     OW28883   4.284   4.882   4.999 -0.3666 -0.4512  0.6843
 9443SOL    HW128884   4.340   4.954   4.970  0.4449 -1.2278  0.2860
 9443SOL    HW228885   4.230   4.862   4.923  2.7463 -3.4520 -1.0263
 9444SOL     OW28886   7.418   0.119   0.053  0.0559  0.1342  0.0573
 9444SOL    HW128887   7.508   0.101   0.027  0.7546  0.7325  1.9000
 9444SOL    HW228888   7.393   0.045   0.108  1.7265  2.6480  4.7452
 9445SOL     OW28889   0.114   4.677   4.914  0.6420 -0.1952 -0.1151
 9445SOL    HW128890   0.178   4.680   4.843 -0.2510 -1.0148 -0.9833
 9445SOL    HW228891   0.029   4.684   4.871  0.0638 -1.2358  0.8026
 9446SOL     OW28892   2.401   4.574   3.653  0.2934 -0.0590 -0.5777
 9446SOL    HW128893   2.315   4.552   3.618 -0.1895  0.9364 -0.0487
 9446SOL    HW228894   2.442   4.489   3.670 -1.2328 -0.5826  0.7080
 9447SOL     OW28895   6.072   5.854   0.159 -0.2122  0.1284 -0.0964
 9447SOL    HW128896   6.158   5.864   0.202 -0.4017 -1.7192  0.7862
 9447SOL    HW228897   6.077   5.912   0.083  1.5761  0.5721  0.3049
 9448SOL     OW28898   6.171   4.659   4.920 -0.5032  0.1364 -0.0519
 9448SOL    HW128899   6.266   4.653   4.934 -0.8964 -1.1210  2.5273
 9448SOL    HW228900   6.143   4.731   4.977 -1.0777  0.8440 -1.1900
 9449SOL     OW28901   1.657   3.959   4.408  0.1558  0.2268 -0.0952
 9449SOL    HW128902   1.675   3.950   4.502 -0.5741 -0.9965 -0.0499
 9449SOL    HW228903   1.582   4.018   4.404  0.5056  0.6880  0.0528
 9450SOL     OW28904   7.428   2.758   1.541  0.7293  0.5909  0.6362
 9450SOL    HW128905   7.387   2.726   1.622 -2.0411 -0.0516 -0.8615
 9450SOL    HW228906   7.515   2.718   1.541 -0.3630 -2.0830  1.7957
 9451SOL     OW28907   7.120   4.504   3.227  0.1773  0.6257  0.0289
 9451SOL    HW128908   7.037   4.487   3.271  1.2914  1.8432  2.9241
 9451SOL    HW228909   7.097   4.553   3.148 -1.8431  1.8626  1.2859
 9452SOL     OW28910   4.297   3.559   6.097  0.0840  0.3436  0.1091
 9452SOL    HW128911   4.313   3.468   6.122  0.0997  0.0650 -0.8766
 9452SOL    HW228912   4.293   3.606   6.180 -2.0287 -0.8867  0.7897
 9453SOL     OW28913   4.476   7.673   5.244  0.3469 -0.1722  0.4170
 9453SOL    HW128914   4.546   7.627   5.289  0.4602 -1.4019 -0.9455
 9453SOL    HW228915   4.521   7.726   5.178  0.0320 -0.6613 -0.1992
 9454SOL     OW28916   1.689   1.672   7.265  0.2866 -0.1345  0.5440
 9454SOL    HW128917   1.730   1.759   7.257  1.8134 -0.8019  0.6934
 9454SOL    HW228918   1.760   1.611   7.247 -0.7650 -1.3661  0.4537
 9455SOL     OW28919   0.042   2.673   1.397  0.7661  0.0714  0.7167
 9455SOL    HW128920   0.102   2.613   1.352 -0.5475 -2.2896  1.9185
 9455SOL    HW228921   0.007   2.728   1.327  1.0640 -1.4246 -0.6868
 9456SOL     OW28922   7.258   0.389   6.397 -0.4951  0.2190 -0.4606
 9456SOL    HW128923   7.279   0.309   6.349 -1.4114  0.6029 -1.5561
 9456SOL    HW228924   7.182   0.365   6.451 -0.2333  0.1247 -0.1299
 9457SOL     OW28925   6.255   3.007   3.976 -0.1977  0.1665  0.1847
 9457SOL    HW128926   6.283   3.036   4.063 -1.0044  1.1380  0.1421
 9457SOL    HW228927   6.166   2.976   3.989 -0.1431 -0.1635 -0.2140
 9458SOL     OW28928   0.073   2.044   4.729  0.0945  0.5533 -0.2691
 9458SOL    HW128929   0.131   2.107   4.686  1.0604  0.7488  1.2042
 9458SOL    HW228930   0.083   2.064   4.823  1.3760 -2.5280  0.3655
 9459SOL     OW28931   4.454   2.908   2.653 -0.0114  0.3519 -0.1607
 9459SOL    HW128932   4.393   2.956   2.709  0.0431  0.5586 -0.2769
 9459SOL    HW228933   4.524   2.971   2.633 -0.6153  0.6636 -1.4181
 9460SOL     OW28934   1.228   4.273   6.847 -0.4138  0.0697 -0.2875
 9460SOL    HW128935   1.264   4.355   6.814  1.2558 -0.0582  1.0526
 9460SOL    HW228936   1.263   4.266   6.936 -3.1713 -0.5090  0.8264
 9461SOL     OW28937   4.286   5.882   5.359  0.3251 -0.3149  0.7183
 9461SOL    HW128938   4.371   5.860   5.319 -0.3280  2.6279 -2.8745
 9461SOL    HW228939   4.231   5.806   5.342  1.1365 -0.6071 -0.7647
 9462SOL     OW28940   7.289   4.049   3.288 -0.0813 -0.3169  0.0413
 9462SOL    HW128941   7.253   3.968   3.253  0.1280 -0.4574  0.1447
 9462SOL    HW228942   7.306   4.104   3.212  1.7484 -1.1822 -0.2202
 9463SOL     OW28943   4.587   1.321   0.862  0.3349  0.3649  0.6722
 9463SOL    HW128944   4.665   1.275   0.893  1.0961  0.8607 -0.4387
 9463SOL    HW228945   4.523   1.253   0.847 -0.2425  0.1308  3.7130
 9464SOL     OW28946   1.090   4.148   7.712 -0.1266 -1.1138  0.2185
 9464SOL    HW128947   1.069   4.206   7.785  1.0468 -0.7223  0.2632
 9464SOL    HW228948   1.124   4.069   7.754  0.2981 -0.9909  0.1113
 9465SOL     OW28949   1.485   6.188   1.717 -0.5176  0.2408  0.2626
 9465SOL    HW128950   1.530   6.261   1.674 -1.0488  0.2102 -0.3612
 9465SOL    HW228951   1.555   6.129   1.742  0.0263  1.4221  1.7039
 9466SOL     OW28952   1.023   4.233   0.990  0.0548 -0.5329  0.1159
 9466SOL    HW128953   1.052   4.155   1.037  1.6593 -0.1758 -0.1980
 9466SOL    HW228954   0.964   4.200   0.923  1.7771 -1.6957 -0.9183
 9467SOL     OW28955   6.354   7.348   3.605 -0.5665 -0.0886  0.4021
 9467SOL    HW128956   6.343   7.267   3.555 -2.0565 -0.1846  0.8274
 9467SOL    HW228957   6.394   7.320   3.688 -1.5046 -0.4877  0.7407
 9468SOL     OW28958   4.796   6.766   2.359  0.5152  0.0164  0.8781
 9468SOL    HW128959   4.817   6.692   2.303 -0.7793 -0.0835  0.4763
 9468SOL    HW228960   4.861   6.832   2.338  0.5822 -0.3471 -0.1058
 9469SOL     OW28961   2.569   5.361   4.376  0.0511  0.3869 -0.0489
 9469SOL    HW128962   2.599   5.427   4.438 -1.1044  1.0614 -0.1802
 9469SOL    HW228963   2.523   5.411   4.308 -0.1560 -0.4865 -0.5678
 9470SOL     OW28964   7.160   4.459   3.628 -0.3735  0.2069 -0.0326
 9470SOL    HW128965   7.179   4.414   3.710  0.3449  2.6513  1.2254
 9470SOL    HW228966   7.072   4.494   3.640  0.0923  1.3664  0.0998
 9471SOL     OW28967   5.157   1.241   7.345  0.8586  0.4321 -0.1778
 9471SOL    HW128968   5.220   1.255   7.275  0.2026  0.0862 -0.8528
 9471SOL    HW228969   5.076   1.282   7.313  0.1211 -1.0723 -0.3130
 9472SOL     OW28970   5.060   1.294   2.339  0.0987  0.2416  0.2270
 9472SOL    HW128971   5.024   1.240   2.269 -0.4099  2.1909 -1.0917
 9472SOL    HW228972   5.125   1.350   2.297  1.8997 -0.4815  1.8747
 9473SOL     OW28973   3.314   1.249   1.263 -0.2080  0.1406  0.5167
 9473SOL    HW128974   3.351   1.186   1.325 -0.0108  0.5521  0.8236
 9473SOL    HW228975   3.310   1.331   1.313  0.4207  0.6007 -0.1696
 9474SOL     OW28976   6.686   7.205   4.826 -0.6081  0.1973 -0.2800
 9474SOL    HW128977   6.627   7.262   4.776 -0.0611  0.6125 -0.4565
 9474SOL    HW228978   6.773   7.227   4.795 -0.2777  0.2780  0.6719
 9475SOL     OW28979   0.104   6.729   6.091  0.2122 -0.2405  0.3606
 9475SOL    HW128980   0.143   6.798   6.146 -0.3950  2.1356 -1.9698
 9475SOL    HW228981   0.034   6.692   6.145 -0.0408  1.6330  1.4153
 9476SOL     OW28982   5.954   5.460   3.596 -0.0708  0.1250 -0.4421
 9476SOL    HW128983   5.920   5.425   3.515  0.7807 -0.5534 -0.5242
 9476SOL    HW228984   5.895   5.532   3.619 -1.1764 -0.6414 -0.8639
 9477SOL     OW28985   5.819   3.413   6.521 -0.0105  0.0444  0.0008
 9477SOL    HW128986   5.866   3.442   6.443  0.6240 -0.7424  0.0865
 9477SOL    HW228987   5.887   3.403   6.588 -0.5501  0.7707  0.6910
 9478SOL     OW28988   4.012   4.666   2.902  0.0046  0.0815  0.2454
 9478SOL    HW128989   3.952   4.691   2.972 -1.3861 -0.9103 -0.5478
 9478SOL    HW228990   3.998   4.732   2.834 -0.0328 -0.0399  0.1364
 9479SOL     OW28991   5.253   0.341   4.562  0.2017 -0.1212  0.8023
 9479SOL    HW128992   5.254   0.406   4.493  1.9101 -1.9159 -0.9947
 9479SOL    HW228993   5.342   0.341   4.597 -0.4527  0.2674  2.5823
 9480SOL     OW28994   2.492   7.547   5.280  0.7676 -0.0242 -0.0629
 9480SOL    HW128995   2.465   7.593   5.359 -1.8799 -1.3071 -0.1208
 9480SOL    HW228996   2.586   7.532   5.292  0.6423  0.6929  2.3509
 9481SOL     OW28997   1.529   4.458   4.988 -0.0455  0.7003  0.1733
 9481SOL    HW128998   1.492   4.521   4.926  1.3084  1.5750  0.2158
 9481SOL    HW228999   1.515   4.498   5.074 -1.2462 -0.1621  0.4092
 9482SOL     OW29000   2.810   1.431   5.389 -0.0589 -0.2778  0.0346
 9482SOL    HW129001   2.808   1.449   5.295  0.0554  2.1595  0.4207
 9482SOL    HW229002   2.888   1.378   5.402 -0.2114 -0.8515 -1.2707
 9483SOL     OW29003   4.539   4.715   3.723  0.2395 -0.3184 -0.7623
 9483SOL    HW129004   4.536   4.801   3.765  0.3045  0.5320 -2.4118
 9483SOL    HW229005   4.448   4.685   3.723  0.4182 -0.9810  1.1791
 9484SOL     OW29006   4.655   0.155   2.693  0.5362 -0.3297 -0.2514
 9484SOL    HW129007   4.690   0.242   2.676 -1.6588  0.9448  1.2064
 9484SOL    HW229008   4.589   0.142   2.624  0.8773 -0.8529 -0.4830
 9485SOL     OW29009   3.735   6.293   0.398  0.2812  0.6636  0.4565
 9485SOL    HW129010   3.684   6.365   0.361  0.0936  0.2994 -0.0034
 9485SOL    HW229011   3.820   6.332   0.418  0.0205  1.1302  0.6721
 9486SOL     OW29012   6.857   4.220   3.771 -0.5631 -0.0594  0.5432
 9486SOL    HW129013   6.876   4.246   3.861  0.0611  1.0400  0.1163
 9486SOL    HW229014   6.918   4.148   3.754 -3.2334 -2.9536  2.1828
 9487SOL     OW29015   6.489   2.225   6.099  0.0188 -0.3435  0.0144
 9487SOL    HW129016   6.494   2.319   6.118 -0.7736 -0.2439 -0.2544
 9487SOL    HW229017   6.580   2.195   6.105  0.8266  1.0847 -3.2637
 9488SOL     OW29018   6.796   7.747   7.458 -0.2022  0.2440 -0.0766
 9488SOL    HW129019   6.863   7.679   7.449 -0.8447 -0.1101 -3.1750
 9488SOL    HW229020   6.842   7.828   7.438  0.0293  0.4765  1.2901
 9489SOL     OW29021   6.110   6.454   0.789 -0.0317  0.3666  0.0432
 9489SOL    HW129022   6.080   6.533   0.743  0.2407 -0.5286 -1.7551
 9489SOL    HW229023   6.205   6.455   0.779 -0.0962 -0.6701 -0.8412
 9490SOL     OW29024   2.389   7.327   2.942 -0.1480 -0.3119 -0.5890
 9490SOL    HW129025   2.360   7.296   2.857 -0.9104 -0.0693 -0.4235
 9490SOL    HW229026   2.446   7.257   2.975 -0.5032 -0.7710 -0.9458
 9491SOL     OW29027   5.794   0.680   2.504  0.3750  0.0046 -0.1688
 9491SOL    HW129028   5.808   0.585   2.510 -1.3702 -0.2176  0.9460
 9491SOL    HW229029   5.738   0.692   2.428 -1.1071 -0.1143  0.8572
 9492SOL     OW29030   5.806   0.989   7.364 -0.6908 -0.0154  0.4077
 9492SOL    HW129031   5.802   0.963   7.456 -0.4008 -0.3971  0.3135
 9492SOL    HW229032   5.825   1.083   7.367 -0.6116 -0.0406  0.7386
 9493SOL     OW29033   3.480   0.181   0.575  0.2450  0.1261  0.0104
 9493SOL    HW129034   3.544   0.195   0.645  0.7088 -1.8152  0.0311
 9493SOL    HW229035   3.396   0.207   0.614  0.2832 -2.0880  1.7991
 9494SOL     OW29036   3.872   6.564   3.918  0.2796 -0.0129 -0.3823
 9494SOL    HW129037   3.938   6.564   3.848 -1.3344 -0.5483 -2.0055
 9494SOL    HW229038   3.913   6.611   3.990  2.3484 -0.1602 -1.3791
 9495SOL     OW29039   0.871   3.659   7.448 -0.6654 -0.1105  0.0357
 9495SOL    HW129040   0.806   3.720   7.412  0.0498  0.8691  0.3670
 9495SOL    HW229041   0.939   3.715   7.484  0.0167 -1.1186  0.3549
 9496SOL     OW29042   7.475   0.367   0.601  0.3150 -0.6385 -0.2507
 9496SOL    HW129043   7.478   0.387   0.695 -0.6033 -1.8423  0.0561
 9496SOL    HW229044   7.383   0.377   0.578  0.3285 -1.5838 -0.7384
 9497SOL     OW29045   6.874   5.728   0.400  0.0275 -0.2489  0.3281
 9497SOL    HW129046   6.821   5.807   0.389  1.6007  0.8407  0.1771
 9497SOL    HW229047   6.934   5.729   0.325 -0.1205 -1.7630  0.1654
 9498SOL     OW29048   3.038   6.226   4.806  0.1579 -0.1798  0.6999
 9498SOL    HW129049   2.954   6.271   4.811 -0.2944 -0.8516 -0.5241
 9498SOL    HW229050   3.038   6.167   4.881 -0.0730  0.4435  1.2043
 9499SOL     OW29051   4.867   6.534   7.152 -0.6546  0.2766 -0.3988
 9499SOL    HW129052   4.951   6.521   7.109 -0.8336 -0.8635 -0.4241
 9499SOL    HW229053   4.842   6.447   7.184 -2.1704  0.4540 -1.0347
 9500SOL     OW29054   7.696   3.644   5.308 -0.4461 -0.7198  0.0017
 9500SOL    HW129055   7.754   3.568   5.304  1.0208  0.2189  1.9518
 9500SOL    HW229056   7.755   3.719   5.317 -1.9148  0.4259  0.5335
 9501SOL     OW29057   7.265   7.538   1.605  0.4804 -0.3671  0.2673
 9501SOL    HW129058   7.264   7.608   1.670 -0.2236 -0.6125  0.5290
 9501SOL    HW229059   7.325   7.569   1.537 -0.9487  1.1724 -0.3617
 9502SOL     OW29060   1.993   2.653   6.385 -0.3886 -0.3555  0.3108
 9502SOL    HW129061   1.972   2.746   6.397 -0.5253 -0.4814  1.1261
 9502SOL    HW229062   1.931   2.622   6.319  0.5576  0.4447 -1.0015
 9503SOL     OW29063   7.419   3.306   1.256  0.1855 -0.1401 -0.7682
 9503SOL    HW129064   7.371   3.386   1.231  0.8862  0.2643 -0.8396
 9503SOL    HW229065   7.492   3.302   1.195  1.2794  0.2533  0.4686
 9504SOL     OW29066   7.194   1.847   4.370  0.8110  0.2737  0.5465
 9504SOL    HW129067   7.126   1.816   4.431 -2.9793  0.3268 -3.1716
 9504SOL    HW229068   7.192   1.942   4.377 -1.2470  0.4163 -0.9851
 9505SOL     OW29069   7.688   0.159   5.816  0.3499 -0.3192 -0.8031
 9505SOL    HW129070   7.728   0.074   5.802  2.3518 -0.0496  2.2771
 9505SOL    HW229071   7.686   0.169   5.911 -0.8844  2.5986 -1.0310
 9506SOL     OW29072   5.469   6.907   0.540 -0.0710  0.3197  0.0948
 9506SOL    HW129073   5.441   6.871   0.624  0.2297 -0.2092 -0.0242
 9506SOL    HW229074   5.415   6.861   0.475  0.4394 -0.0543 -0.0712
 9507SOL     OW29075   7.233   5.314   5.623 -0.0295 -0.3055 -0.4753
 9507SOL    HW129076   7.158   5.254   5.615 -0.6130  0.3352  0.1264
 9507SOL    HW229077   7.214   5.384   5.561 -0.3725  0.3057  0.3043
 9508SOL     OW29078   0.445   5.317   4.098 -0.3536 -0.1406 -0.4661
 9508SOL    HW129079   0.396   5.247   4.054 -1.5768  0.5156 -0.1947
 9508SOL    HW229080   0.378   5.370   4.140  0.6239  0.6919  0.0846
 9509SOL     OW29081   2.440   2.018   3.181  0.2666 -0.3098  0.0852
 9509SOL    HW129082   2.438   1.925   3.201 -0.4398 -0.8252 -2.0855
 9509SOL    HW229083   2.358   2.052   3.217 -0.2287 -0.8700 -0.4957
 9510SOL     OW29084   2.588   2.484   0.882  0.2363  0.1358 -0.3644
 9510SOL    HW129085   2.657   2.507   0.820  0.4415  0.6639  0.0473
 9510SOL    HW229086   2.526   2.556   0.878 -0.1635 -0.2126 -0.5389
 9511SOL     OW29087   4.707   3.874   7.273  0.1280 -0.0431  0.3214
 9511SOL    HW129088   4.785   3.928   7.283  0.9191 -1.4432  2.2598
 9511SOL    HW229089   4.634   3.936   7.279  1.0389  1.1687 -0.6119
 9512SOL     OW29090   5.776   7.646   3.470  0.0733  0.4752  0.0057
 9512SOL    HW129091   5.789   7.652   3.564 -0.4619 -0.0629  0.1193
 9512SOL    HW229092   5.864   7.632   3.434  0.2379  0.3652  0.4479
 9513SOL     OW29093   0.826   5.209   6.797  0.2223  0.1978 -0.2971
 9513SOL    HW129094   0.784   5.124   6.788  0.2665  0.1119  0.2606
 9513SOL    HW229095   0.917   5.189   6.819 -0.2345  0.3572  1.9976
 9514SOL     OW29096   6.737   2.552   4.032  0.2322  0.2421 -0.0545
 9514SOL    HW129097   6.665   2.595   4.078 -0.8292  0.0456 -1.4794
 9514SOL    HW229098   6.806   2.619   4.028 -0.2410  0.7745  0.4480
 9515SOL     OW29099   0.875   5.299   3.909  0.2406 -0.1208 -0.4753
 9515SOL    HW129100   0.914   5.299   3.822 -1.2513 -0.2231 -1.1789
 9515SOL    HW229101   0.949   5.300   3.969  1.3125 -0.9809 -1.7389
 9516SOL     OW29102   6.678   7.401   5.041  0.1127  0.3154  0.0382
 9516SOL    HW129103   6.705   7.430   4.954 -3.0280 -0.2794 -1.2950
 9516SOL    HW229104   6.641   7.314   5.027 -0.5484  0.2482  1.9434
 9517SOL     OW29105   6.168   5.045   6.738  0.6967 -0.3484  0.2316
 9517SOL    HW129106   6.146   4.954   6.760  1.9666 -0.3498  1.6315
 9517SOL    HW229107   6.247   5.039   6.686 -0.3415 -0.1182 -1.4502
 9518SOL     OW29108   1.561   6.730   5.882 -0.0526  0.3486 -0.5753
 9518SOL    HW129109   1.517   6.716   5.966  0.6145  0.1999 -0.2427
 9518SOL    HW229110   1.519   6.669   5.822  0.6718 -0.8506  0.0916
 9519SOL     OW29111   2.867   1.493   5.128 -0.0592  0.2951  0.7309
 9519SOL    HW129112   2.837   1.573   5.085 -0.4308 -0.7372 -1.0311
 9519SOL    HW229113   2.919   1.448   5.062  1.2376 -0.3391  2.1128
 9520SOL     OW29114   6.733   1.226   3.900 -0.4210 -0.5118  0.4345
 9520SOL    HW129115   6.730   1.155   3.964  1.2278 -0.9398  0.0927
 9520SOL    HW229116   6.826   1.244   3.889 -0.7488  0.7018 -0.6008
 9521SOL     OW29117   3.032   2.751   0.790  0.3362  0.2330 -0.3257
 9521SOL    HW129118   3.046   2.778   0.699  0.3200 -0.1774 -0.4521
 9521SOL    HW229119   3.110   2.699   0.812  0.2837  0.2295 -0.1459
 9522SOL     OW29120   4.301   0.985   2.262 -0.0778 -0.2876 -0.8304
 9522SOL    HW129121   4.294   0.921   2.191 -1.2856 -0.2382 -0.7766
 9522SOL    HW229122   4.251   0.947   2.334  2.1167 -0.8963  0.4522
 9523SOL     OW29123   4.618   7.704   3.789 -0.6996  0.0557 -0.1502
 9523SOL    HW129124   4.638   7.748   3.706 -1.0891 -0.0100 -0.2826
 9523SOL    HW229125   4.646   7.765   3.856 -0.3693  0.1045 -0.3319
 9524SOL     OW29126   5.384   3.409   4.968  0.4146 -0.3846 -0.2074
 9524SOL    HW129127   5.394   3.502   4.986  2.5018 -0.9378  2.0451
 9524SOL    HW229128   5.370   3.369   5.054  3.1222 -2.4534 -0.5668
 9525SOL     OW29129   0.717   4.048   1.982 -0.1256  0.2312  0.7068
 9525SOL    HW129130   0.758   4.039   2.068  0.1308  0.1137  0.5717
 9525SOL    HW229131   0.653   3.977   1.978  0.2182 -0.0721  0.5975
 9526SOL     OW29132   7.663   6.075   7.707 -0.4225  0.5766  0.0275
 9526SOL    HW129133   7.726   6.106   7.642 -1.0011 -0.6815 -1.1879
 9526SOL    HW229134   7.710   6.009   7.757 -0.4670  0.3790 -0.1918
 9527SOL     OW29135   6.747   7.415   3.719 -0.2855 -0.0943 -0.2281
 9527SOL    HW129136   6.770   7.474   3.648  0.1514  1.6357  1.2733
 9527SOL    HW229137   6.827   7.408   3.771 -1.3051  0.8949  1.5809
 9528SOL     OW29138   3.822   0.411   3.766 -0.7439  0.1755 -0.0688
 9528SOL    HW129139   3.753   0.477   3.765  0.3453  1.4353  1.9860
 9528SOL    HW229140   3.893   0.450   3.816  0.6039 -1.9373 -0.1807
 9529SOL     OW29141   3.576   6.746   6.431  0.4980 -0.1471  0.0510
 9529SOL    HW129142   3.549   6.669   6.380 -1.6537  0.7120 -0.1968
 9529SOL    HW229143   3.655   6.778   6.386 -0.3509 -0.4190 -1.7205
 9530SOL     OW29144   0.874   7.431   3.937 -0.4505  0.8164 -0.4783
 9530SOL    HW129145   0.783   7.455   3.918 -0.3607  2.7776  1.1785
 9530SOL    HW229146   0.867   7.360   4.000 -0.7920  0.2157 -1.1690
 9531SOL     OW29147   5.284   6.506   5.041  0.0615  0.1728 -0.1424
 9531SOL    HW129148   5.369   6.502   4.995  0.0386  0.3680 -0.2033
 9531SOL    HW229149   5.257   6.597   5.032  0.3010  0.3339  0.7046
 9532SOL     OW29150   1.855   0.519   0.857  0.4583  0.0676 -0.0347
 9532SOL    HW129151   1.946   0.504   0.886  1.0650 -3.3704 -2.9170
 9532SOL    HW229152   1.860   0.598   0.805  1.6237  0.3910  0.5123
 9533SOL     OW29153   6.740   5.407   3.939  0.1415  0.0541  0.0763
 9533SOL    HW129154   6.825   5.447   3.958  0.1094 -0.2628  0.9554
 9533SOL    HW229155   6.709   5.377   4.024  0.6852 -2.8901 -0.6656
 9534SOL     OW29156   2.183   7.566   5.305  0.4258 -0.0451  0.6775
 9534SOL    HW129157   2.175   7.506   5.380 -1.3713 -2.3128 -1.1775
 9534SOL    HW229158   2.096   7.568   5.266  1.3142  0.9878 -1.4523
 9535SOL     OW29159   2.616   7.352   4.864 -0.3466  0.1052  0.2807
 9535SOL    HW129160   2.604   7.430   4.919  0.3930 -0.0569  0.6751
 9535SOL    HW229161   2.528   7.313   4.859 -0.6930  0.8721  0.2073
 9536SOL     OW29162   7.008   3.315   3.479  0.5519 -0.0484  0.0257
 9536SOL    HW129163   7.070   3.243   3.471  1.2644  0.4118  1.1610
 9536SOL    HW229164   6.945   3.285   3.544 -0.4623 -0.5120 -1.1163
 9537SOL     OW29165   0.086   3.936   1.907  0.6142  0.3458  0.2404
 9537SOL    HW129166   0.153   3.884   1.863  1.0772 -0.0112  1.3288
 9537SOL    HW229167   0.135   3.995   1.964  0.0476  1.1640 -0.0942
 9538SOL     OW29168   6.679   5.301   2.573 -0.3894 -0.0797  0.2427
 9538SOL    HW129169   6.713   5.317   2.661  0.3140  1.3520 -0.2607
 9538SOL    HW229170   6.584   5.312   2.582 -0.3583 -0.2945  0.8860
 9539SOL     OW29171   0.843   5.923   0.354  0.2487 -0.8098 -0.5798
 9539SOL    HW129172   0.839   6.006   0.307  0.4812 -1.2741 -1.4443
 9539SOL    HW229173   0.852   5.947   0.446  1.1419  0.1108 -0.9003
 9540SOL     OW29174   2.739   3.482   6.938  0.2383 -0.0276  0.1112
 9540SOL    HW129175   2.650   3.447   6.947  0.1963  0.4185  1.5366
 9540SOL    HW229176   2.754   3.483   6.843 -0.3172 -2.4616 -0.0823
 9541SOL     OW29177   7.482   6.723   2.703 -0.1548  0.0619 -0.4554
 9541SOL    HW129178   7.440   6.734   2.788 -2.3281 -0.9228 -1.3349
 9541SOL    HW229179   7.508   6.630   2.700 -1.8660 -0.4367 -1.5562
 9542SOL     OW29180   3.711   0.789   2.879  0.4750  0.6980 -0.0669
 9542SOL    HW129181   3.743   0.878   2.893  3.0583 -0.2889  1.0871
 9542SOL    HW229182   3.731   0.743   2.961 -2.2486 -0.6237 -0.0209
 9543SOL     OW29183   0.228   6.500   5.780  0.3871  0.3965  0.5391
 9543SOL    HW129184   0.208   6.566   5.714  0.4486  0.4232  0.5469
 9543SOL    HW229185   0.143   6.463   5.804  0.3944  0.1493  0.1979
 9544SOL     OW29186   6.474   5.863   3.225  0.0131  0.9520  0.6296
 9544SOL    HW129187   6.394   5.908   3.253 -0.2340  0.5118  0.6488
 9544SOL    HW229188   6.519   5.841   3.307 -0.5865 -0.1136  0.6979
 9545SOL     OW29189   5.637   5.731   7.229 -0.4104 -0.6340  0.5199
 9545SOL    HW129190   5.615   5.782   7.307 -1.5115 -3.4987  2.2251
 9545SOL    HW229191   5.714   5.680   7.254 -0.5247 -1.3023 -0.4319
 9546SOL     OW29192   4.563   2.760   6.534 -0.0811 -0.1434 -0.3585
 9546SOL    HW129193   4.615   2.816   6.476 -0.6926  0.6394 -0.1712
 9546SOL    HW229194   4.511   2.706   6.475 -1.0909  1.0177 -0.5617
 9547SOL     OW29195   7.134   2.514   5.778 -0.4341  0.4074 -0.3046
 9547SOL    HW129196   7.085   2.433   5.795 -3.4552  1.7250 -1.9918
 9547SOL    HW229197   7.132   2.561   5.861 -0.8406 -0.1683  0.0257
 9548SOL     OW29198   5.977   5.842   1.251 -0.3528  0.6785 -0.7660
 9548SOL    HW129199   5.911   5.829   1.183 -0.2487 -0.0545 -0.7350
 9548SOL    HW229200   6.042   5.774   1.235 -0.2906  0.5412  0.0268
 9549SOL     OW29201   3.180   3.946   0.981  0.2339  0.1004 -0.1209
 9549SOL    HW129202   3.125   4.001   0.925  1.9813  0.6392 -1.3654
 9549SOL    HW229203   3.240   4.007   1.023  1.6544 -0.7387 -0.8754
 9550SOL     OW29204   0.334   4.560   7.262  0.1677 -0.4796  0.2935
 9550SOL    HW129205   0.300   4.598   7.180  2.5727 -0.5975 -0.8250
 9550SOL    HW229206   0.383   4.483   7.234 -0.0397 -1.2746  2.0179
 9551SOL     OW29207   4.629   1.773   2.977 -0.9199  0.1735 -0.0285
 9551SOL    HW129208   4.664   1.731   2.899  1.7685 -0.2687  1.3150
 9551SOL    HW229209   4.571   1.706   3.015 -1.8610  0.2137 -1.3111
 9552SOL     OW29210   5.031   7.173   2.825  0.1616  0.1485 -0.1253
 9552SOL    HW129211   5.071   7.122   2.895 -2.2789 -4.4886 -1.6881
 9552SOL    HW229212   5.104   7.222   2.786  2.6843 -1.6703  1.9858
 9553SOL     OW29213   5.392   1.483   3.565  0.3801  0.3302  0.5295
 9553SOL    HW129214   5.464   1.456   3.508 -1.8273 -0.7085 -1.9418
 9553SOL    HW229215   5.339   1.542   3.511 -1.2273  0.1911  1.8715
 9554SOL     OW29216   5.808   4.111   4.864 -0.4056 -0.5500  0.4278
 9554SOL    HW129217   5.769   4.033   4.825 -1.7410 -0.1742  0.9284
 9554SOL    HW229218   5.758   4.124   4.945  0.8018 -0.0364  1.1107
 9555SOL     OW29219   0.719   7.596   2.263  0.1801  0.1787 -0.2372
 9555SOL    HW129220   0.730   7.672   2.321  0.3892 -0.3601  0.4494
 9555SOL    HW229221   0.658   7.539   2.311 -1.2474  0.6147 -1.4639
 9556SOL     OW29222   5.490   6.967   6.546 -1.0629 -0.4598 -0.1297
 9556SOL    HW129223   5.395   6.970   6.541 -0.9730  0.7205 -1.8176
 9556SOL    HW229224   5.516   6.907   6.475 -0.5149  0.2048 -0.5030
 9557SOL     OW29225   2.803   2.550   0.746 -0.1262  0.4750  0.2687
 9557SOL    HW129226   2.808   2.542   0.651  0.5451 -1.0373  0.3949
 9557SOL    HW229227   2.886   2.591   0.771 -0.8424  2.0604  0.1219
 9558SOL     OW29228   0.820   3.796   2.595  0.9569  0.4690 -0.0880
 9558SOL    HW129229   0.834   3.817   2.687 -1.6603 -1.0905  0.7753
 9558SOL    HW229230   0.906   3.771   2.563  1.9910  1.3414  1.8336
 9559SOL     OW29231   1.041   5.326   1.355  0.3479 -0.1511  0.1553
 9559SOL    HW129232   0.998   5.307   1.438  2.0173 -0.6337  0.9693
 9559SOL    HW229233   1.100   5.252   1.341  0.1235 -0.0740 -1.4735
 9560SOL     OW29234   1.353   3.349   3.345 -0.5072 -0.0036 -0.0143
 9560SOL    HW129235   1.286   3.290   3.380  1.0724 -2.4593 -0.8262
 9560SOL    HW229236   1.428   3.336   3.403  0.5182 -0.3674 -1.3642
 9561SOL     OW29237   5.322   6.363   1.461 -0.4279  0.0832 -0.3999
 9561SOL    HW129238   5.258   6.381   1.393 -1.2439  0.5192  0.4618
 9561SOL    HW229239   5.270   6.338   1.537  0.2843  2.0768  0.8339
 9562SOL     OW29240   4.849   0.618   3.361  0.2325 -0.5706 -0.3005
 9562SOL    HW129241   4.937   0.637   3.396  0.7488  0.1099 -1.8790
 9562SOL    HW229242   4.825   0.697   3.313 -1.4513 -0.5940  0.4431
 9563SOL     OW29243   3.191   5.770   6.819 -0.4778  0.4246 -0.6948
 9563SOL    HW129244   3.234   5.713   6.755 -1.3847  0.8222 -1.6881
 9563SOL    HW229245   3.245   5.849   6.821 -1.0057  0.8422 -1.7897
 9564SOL     OW29246   7.029   3.174   4.305  0.3628  0.1420  0.6947
 9564SOL    HW129247   7.112   3.146   4.267 -0.6732 -0.9021 -1.0071
 9564SOL    HW229248   6.973   3.191   4.229 -0.9533  0.8887  1.7793
 9565SOL     OW29249   1.533   2.665   0.118 -0.5115  0.0991  0.2907
 9565SOL    HW129250   1.482   2.604   0.066 -0.9521  0.4288  0.3287
 9565SOL    HW229251   1.556   2.616   0.197 -0.7191 -0.0735  0.2459
 9566SOL     OW29252   5.714   5.804   6.970 -0.2042 -0.5558  0.3141
 9566SOL    HW129253   5.687   5.778   7.058 -1.4690 -0.0779  0.0874
 9566SOL    HW229254   5.763   5.728   6.937 -1.7523 -1.7129  0.5563
 9567SOL     OW29255   6.489   6.953   4.035 -0.4219  0.5168 -0.1566
 9567SOL    HW129256   6.510   7.040   4.067  0.2424  0.4729 -0.4377
 9567SOL    HW229257   6.438   6.968   3.955 -0.2093  0.6552 -0.2686
 9568SOL     OW29258   5.786   0.631   1.860  0.2330 -0.4245 -0.4846
 9568SOL    HW129259   5.757   0.708   1.810  0.7379  0.0133 -0.1196
 9568SOL    HW229260   5.718   0.565   1.845 -1.7901  1.0433  1.5804
 9569SOL     OW29261   3.501   2.063   2.972 -0.8410 -0.0053 -0.7069
 9569SOL    HW129262   3.416   2.030   3.002  0.3488 -2.9274 -0.1902
 9569SOL    HW229263   3.553   2.069   3.052  0.8280 -2.9935 -1.4162
 9570SOL     OW29264   6.905   4.508   3.722  0.2236  0.3447  0.2665
 9570SOL    HW129265   6.897   4.414   3.707 -0.7712  0.4273  0.2487
 9570SOL    HW229266   6.897   4.518   3.817  0.3824  0.4153  0.2737
 9571SOL     OW29267   2.306   3.466   2.593  0.0398  0.2570 -0.1552
 9571SOL    HW129268   2.357   3.537   2.553  2.3083 -0.8311  0.6520
 9571SOL    HW229269   2.286   3.407   2.521  2.2453 -0.6006 -0.1531
 9572SOL     OW29270   3.999   6.649   6.452  0.6641 -0.4699 -0.3792
 9572SOL    HW129271   4.008   6.657   6.547  1.5129 -0.2514 -0.4685
 9572SOL    HW229272   3.988   6.555   6.437  0.2430 -0.4770 -0.0456
 9573SOL     OW29273   2.220   1.898   7.704 -0.3049  0.7367 -0.3663
 9573SOL    HW129274   2.241   1.819   7.754 -1.4968  0.1904 -0.6944
 9573SOL    HW229275   2.305   1.938   7.685  0.2180  0.7451  1.7228
 9574SOL     OW29276   2.760   0.920   3.810 -0.2826  0.3759  0.6269
 9574SOL    HW129277   2.666   0.933   3.805 -0.5542 -1.3887  0.4886
 9574SOL    HW229278   2.777   0.845   3.753  1.6250  2.3906 -1.6551
 9575SOL     OW29279   7.656   3.679   7.568  0.4746  0.7723 -0.5379
 9575SOL    HW129280   7.718   3.744   7.535  0.8906  0.8840  0.4317
 9575SOL    HW229281   7.619   3.639   7.489 -0.1700  2.5227 -1.1883
 9576SOL     OW29282   1.451   1.143   2.024  0.1810  0.1801  0.0351
 9576SOL    HW129283   1.473   1.098   2.106  1.5470  1.6296  0.4993
 9576SOL    HW229284   1.500   1.095   1.957  2.4886  1.4991  0.6615
 9577SOL     OW29285   3.618   1.615   4.158 -0.3112  0.1617  0.1039
 9577SOL    HW129286   3.526   1.639   4.171 -0.9654 -1.3030 -1.5113
 9577SOL    HW229287   3.638   1.559   4.232 -1.3584 -1.1159 -0.5296
 9578SOL     OW29288   6.195   3.905   4.889 -0.5878  0.3986 -0.5961
 9578SOL    HW129289   6.246   3.861   4.821 -0.9423 -0.6985 -0.1780
 9578SOL    HW229290   6.189   3.996   4.860 -0.9403 -0.0914 -2.1592
 9579SOL     OW29291   0.630   0.169   3.061  0.3597 -0.1139 -0.3392
 9579SOL    HW129292   0.610   0.190   3.153 -0.8261  0.5766 -0.7284
 9579SOL    HW229293   0.545   0.147   3.023  0.8622 -0.5184 -1.2552
 9580SOL     OW29294   3.600   2.826   0.680  0.0962 -0.1412 -0.0015
 9580SOL    HW129295   3.657   2.903   0.685  0.2437 -0.1314 -1.4429
 9580SOL    HW229296   3.536   2.839   0.750 -0.0129  1.4182 -0.3572
 9581SOL     OW29297   7.231   4.908   5.757  0.3336 -0.7095 -0.4733
 9581SOL    HW129298   7.238   4.918   5.852 -0.2028 -2.1307 -0.2544
 9581SOL    HW229299   7.138   4.922   5.738  0.6110  0.5864 -0.9399
 9582SOL     OW29300   3.970   7.112   4.317  0.3573 -0.2509 -0.0492
 9582SOL    HW129301   3.931   7.200   4.312  0.4246 -0.2600 -0.9603
 9582SOL    HW229302   4.034   7.111   4.245  0.7648 -0.8525  0.3167
 9583SOL     OW29303   2.951   3.532   2.385  0.4053  0.3175  0.8173
 9583SOL    HW129304   2.951   3.437   2.397  0.1880  0.4390  1.8250
 9583SOL    HW229305   2.859   3.556   2.375  0.5338  0.2893 -0.7029
 9584SOL     OW29306   3.184   0.135   4.387  0.1282  0.0178  0.2986
 9584SOL    HW129307   3.123   0.169   4.322 -1.2118 -1.6430  0.6146
 9584SOL    HW229308   3.129   0.088   4.450  1.5095  0.5408  1.9732
 9585SOL     OW29309   6.518   2.946   7.722  0.3927 -0.1772 -0.4619
 9585SOL    HW129310   6.448   2.965   7.785  0.0742 -0.5541 -0.7029
 9585SOL    HW229311   6.484   2.875   7.668  0.7627 -0.0202 -0.9091
 9586SOL     OW29312   4.742   3.443   7.738  0.3015 -0.3034  0.2313
 9586SOL    HW129313   4.647   3.456   7.729  0.1900 -1.1501  0.0858
 9586SOL    HW229314   4.755   3.349   7.721  1.2448 -0.0778 -0.4062
 9587SOL     OW29315   7.272   1.776   6.554  0.5167 -0.1456  0.2920
 9587SOL    HW129316   7.330   1.707   6.523 -1.4988 -2.9305  2.2990
 9587SOL    HW229317   7.307   1.799   6.640  0.0102 -0.1311  0.4943
 9588SOL     OW29318   2.249   4.671   2.772 -0.1223 -0.3518  0.0815
 9588SOL    HW129319   2.320   4.694   2.711  0.6523  1.7181  1.6277
 9588SOL    HW229320   2.291   4.672   2.858 -2.2161  2.1084  1.1892
 9589SOL     OW29321   4.851   4.989   1.043 -0.2545 -0.1338  0.1815
 9589SOL    HW129322   4.824   4.934   0.970 -0.2947  0.5007 -0.2868
 9589SOL    HW229323   4.771   5.036   1.069 -0.1380 -0.0234  0.3451
 9590SOL     OW29324   0.464   0.810   2.632 -0.0062  0.0866  0.9090
 9590SOL    HW129325   0.410   0.848   2.563 -0.7987 -1.4188  0.6442
 9590SOL    HW229326   0.404   0.798   2.705  0.1933 -0.7103  0.9496
 9591SOL     OW29327   6.298   4.921   5.298 -0.1482  0.3857  0.0524
 9591SOL    HW129328   6.378   4.877   5.329 -1.3184 -1.1038  1.1165
 9591SOL    HW229329   6.248   4.938   5.378 -0.3518  2.5521 -0.4542
 9592SOL     OW29330   4.001   2.087   2.249  0.3346  0.1470 -0.2869
 9592SOL    HW129331   3.946   2.120   2.178 -2.1425 -3.1212 -0.1358
 9592SOL    HW229332   3.997   2.155   2.316 -2.6493  0.6219 -0.7856
 9593SOL     OW29333   6.734   4.272   0.224 -0.3619 -0.3382  1.2375
 9593SOL    HW129334   6.803   4.255   0.160 -1.3053 -0.7890  0.3043
 9593SOL    HW229335   6.768   4.342   0.280  0.5272 -0.0199  0.3100
 9594SOL     OW29336   3.132   7.620   6.328 -0.0573 -0.1907 -0.5530
 9594SOL    HW129337   3.195   7.616   6.400  0.2040  1.3772 -0.6731
 9594SOL    HW229338   3.128   7.530   6.295  0.0394 -0.8775  1.2062
 9595SOL     OW29339   0.337   6.831   5.006  0.1969 -0.1745  0.0580
 9595SOL    HW129340   0.318   6.870   4.921  0.1090 -0.7000 -0.1682
 9595SOL    HW229341   0.251   6.814   5.045  0.2238 -0.6969 -0.1051
 9596SOL     OW29342   0.988   5.118   0.768 -0.2911  0.1261 -0.4333
 9596SOL    HW129343   0.916   5.076   0.815  0.1135 -2.9751 -2.3162
 9596SOL    HW229344   1.067   5.076   0.801  0.3436  0.8264 -1.0060
 9597SOL     OW29345   6.205   3.222   2.920 -0.4481 -0.3343 -0.5178
 9597SOL    HW129346   6.182   3.273   2.843 -0.4594  0.8531  0.2531
 9597SOL    HW229347   6.281   3.266   2.957 -1.4885  0.1870  1.1261
 9598SOL     OW29348   1.009   3.711   0.428  0.0955 -0.4887 -0.0799
 9598SOL    HW129349   0.928   3.672   0.463  0.4091 -3.2813 -2.1224
 9598SOL    HW229350   0.983   3.800   0.402 -2.5109 -1.4572 -1.1678
 9599SOL     OW29351   4.892   7.721   6.606 -0.0751  0.2618  0.2823
 9599SOL    HW129352   4.872   7.804   6.650 -0.0698 -0.2515  1.2780
 9599SOL    HW229353   4.938   7.747   6.527 -1.1682  1.2754 -0.0571
 9600SOL     OW29354   0.709   3.734   7.138  0.0974  0.0968 -0.0790
 9600SOL    HW129355   0.700   3.766   7.228  0.5935  0.4080 -0.1370
 9600SOL    HW229356   0.772   3.794   7.097 -0.3793  0.1652 -0.7365
 9601SOL     OW29357   0.555   1.804   5.493  0.2982 -0.4683 -0.2153
 9601SOL    HW129358   0.497   1.812   5.417  0.4445 -1.1714 -0.4117
 9601SOL    HW229359   0.596   1.718   5.482  1.4185  0.0417 -0.1066
 9602SOL     OW29360   7.693   3.128   0.658 -0.5692 -0.6528  0.0149
 9602SOL    HW129361   7.762   3.194   0.657 -1.4226  0.2483  0.3340
 9602SOL    HW229362   7.688   3.098   0.567 -0.0955 -0.3764 -0.1059
 9603SOL     OW29363   2.824   2.980   5.262 -0.4569 -0.1765 -0.1722
 9603SOL    HW129364   2.802   2.905   5.206  1.0581  0.6071 -1.9499
 9603SOL    HW229365   2.739   3.014   5.291 -1.3421 -0.5896 -2.1003
 9604SOL     OW29366   2.154   2.926   3.722  0.0403 -0.3280  0.1932
 9604SOL    HW129367   2.247   2.911   3.738 -0.2021 -1.5900  0.5494
 9604SOL    HW229368   2.110   2.881   3.793 -0.8522  0.1370 -0.0564
 9605SOL     OW29369   0.845   6.488   7.280  0.0514 -0.0813  0.4603
 9605SOL    HW129370   0.871   6.580   7.279 -0.8075  0.1661 -0.4506
 9605SOL    HW229371   0.757   6.487   7.244 -0.1263 -1.2191  0.8673
 9606SOL     OW29372   7.434   0.816   2.284  0.0921 -0.1948  0.9469
 9606SOL    HW129373   7.358   0.806   2.227 -0.4015  2.1527  1.0852
 9606SOL    HW229374   7.503   0.766   2.241 -0.2986  1.3197 -1.6641
 9607SOL     OW29375   3.532   5.564   4.643  0.0124  0.4774 -0.4391
 9607SOL    HW129376   3.565   5.654   4.636  0.4013  0.3314 -0.5113
 9607SOL    HW229377   3.449   5.566   4.596  0.4242  0.5972 -1.1840
 9608SOL     OW29378   4.389   0.760   0.377  0.1430 -0.0010 -0.1269
 9608SOL    HW129379   4.468   0.803   0.407  1.0770 -0.7706 -1.4081
 9608SOL    HW229380   4.357   0.712   0.454  2.3522 -1.7454 -0.1836
 9609SOL     OW29381   4.793   1.096   6.395  0.4875  0.2177  0.7071
 9609SOL    HW129382   4.776   1.004   6.413 -0.5652 -0.1063 -1.5764
 9609SOL    HW229383   4.870   1.096   6.338  1.8662  0.9609  2.4721
 9610SOL     OW29384   4.925   4.038   4.148  0.4523  0.0139 -0.4644
 9610SOL    HW129385   5.010   4.058   4.187  0.8286  0.4641 -1.4981
 9610SOL    HW229386   4.941   4.037   4.054 -0.5516 -0.5711 -0.6419
 9611SOL     OW29387   1.138   5.190   7.038 -0.0161 -0.1299  0.2265
 9611SOL    HW129388   1.181   5.274   7.022 -0.5666 -0.0353 -0.7721
 9611SOL    HW229389   1.204   5.139   7.086  0.4392  0.7441  0.5604
 9612SOL     OW29390   4.735   1.943   3.164  0.8358 -0.1237 -0.1772
 9612SOL    HW129391   4.789   1.869   3.192  2.5573  0.8404 -0.8004
 9612SOL    HW229392   4.680   1.908   3.094  0.8719 -1.0464  0.2365
 9613SOL     OW29393   0.324   6.931   4.610  0.2536 -0.0404 -0.8933
 9613SOL    HW129394   0.350   6.912   4.520  1.2771 -0.8973 -0.4440
 9613SOL    HW229395   0.236   6.894   4.618  1.5119 -3.2914 -0.5670
 9614SOL     OW29396   5.833   4.394   2.395 -0.0609  0.9132 -0.5078
 9614SOL    HW129397   5.898   4.334   2.361  0.9513  1.3811  0.5365
 9614SOL    HW229398   5.754   4.377   2.343  0.9078  0.3973 -1.8472
 9615SOL     OW29399   2.486   7.051   2.941 -0.1596 -0.0177 -0.1895
 9615SOL    HW129400   2.500   7.013   3.027 -1.1149  1.0461  0.4779
 9615SOL    HW229401   2.452   6.980   2.888 -0.3010 -0.5053  0.5399
 9616SOL     OW29402   5.945   5.071   1.599  0.2392  0.1074 -0.5298
 9616SOL    HW129403   5.985   5.014   1.665 -1.0351 -2.6426 -1.9870
 9616SOL    HW229404   6.019   5.113   1.555  1.1411  1.4646  2.0572
 9617SOL     OW29405   5.378   1.870   7.666  0.6708 -0.2750 -0.1066
 9617SOL    HW129406   5.433   1.871   7.589  1.1349 -0.2804  0.2227
 9617SOL    HW229407   5.292   1.897   7.634  0.9682  0.1689 -0.5377
 9618SOL     OW29408   5.094   6.496   6.981 -0.4053  0.2856 -0.0166
 9618SOL    HW129409   5.138   6.581   6.989  2.3809 -0.9089 -1.3851
 9618SOL    HW229410   5.140   6.452   6.909 -1.5578 -2.5264  0.8359
 9619SOL     OW29411   1.747   6.689   6.250 -0.1449  0.1721 -0.3162
 9619SOL    HW129412   1.654   6.710   6.247 -0.3997 -0.9666 -1.8578
 9619SOL    HW229413   1.791   6.769   6.220 -0.4427  1.3255  2.0987
 9620SOL     OW29414   1.296   5.453   3.840  0.0348 -0.1410  0.0845
 9620SOL    HW129415   1.322   5.368   3.805  0.6466 -0.2679  0.8265
 9620SOL    HW229416   1.335   5.517   3.780 -0.0087 -0.3683 -0.1898
 9621SOL     OW29417   0.711   1.993   0.292  0.3467 -0.3735  0.1167
 9621SOL    HW129418   0.667   1.944   0.223 -0.5721  1.4756 -0.6835
 9621SOL    HW229419   0.797   2.015   0.255 -0.5885  1.6663 -1.0298
 9622SOL     OW29420   1.141   4.911   7.443  0.0987  0.1550 -0.5235
 9622SOL    HW129421   1.057   4.910   7.398 -0.3231  1.0926  0.2109
 9622SOL    HW229422   1.150   5.000   7.476  0.9461 -0.1846  0.2182
 9623SOL     OW29423   2.147   7.683   4.074  0.1470  0.2220  0.0568
 9623SOL    HW129424   2.134   7.606   4.131 -0.6991  1.8671  2.2135
 9623SOL    HW229425   2.224   7.726   4.110  0.8926  0.1878 -1.4349
 9624SOL     OW29426   1.735   0.177   5.571  0.1144  0.2952  0.0630
 9624SOL    HW129427   1.710   0.107   5.631 -3.9134  0.0612 -1.5550
 9624SOL    HW229428   1.772   0.133   5.495  1.8533  0.3618  0.8126
 9625SOL     OW29429   2.028   5.907   0.570 -0.1116  0.1352 -0.0951
 9625SOL    HW129430   2.046   5.857   0.650 -1.8415  0.6055  0.6355
 9625SOL    HW229431   2.048   5.847   0.499 -0.1717 -0.8867  0.7223
 9626SOL     OW29432   3.934   2.453   4.581 -0.7220  0.4492  0.3286
 9626SOL    HW129433   3.957   2.460   4.673 -0.0609  1.7499  0.0871
 9626SOL    HW229434   3.911   2.361   4.569 -1.3700  0.3799  1.9044
 9627SOL     OW29435   4.357   1.035   4.900  0.6840  0.6975 -0.1262
 9627SOL    HW129436   4.310   0.979   4.962  0.1116  1.0411 -0.2411
 9627SOL    HW229437   4.351   1.123   4.937  2.9487  0.4940  0.8748
 9628SOL     OW29438   3.863   0.897   7.019  0.0328 -0.0585  0.6373
 9628SOL    HW129439   3.849   0.834   7.090 -2.4384 -1.7144 -1.1502
 9628SOL    HW229440   3.796   0.964   7.032  0.3852  0.3070  0.5813
 9629SOL     OW29441   3.208   3.920   5.350 -0.1974 -0.4791 -0.3539
 9629SOL    HW129442   3.202   3.906   5.256  1.9097 -1.4616 -0.4200
 9629SOL    HW229443   3.242   4.009   5.360 -1.5541  0.0643 -0.4505
 9630SOL     OW29444   3.538   2.676   5.992 -0.5738  0.7024 -0.9095
 9630SOL    HW129445   3.608   2.626   5.951  0.2971  1.2315 -0.0967
 9630SOL    HW229446   3.581   2.754   6.028 -1.5105  0.8704 -0.1019
 9631SOL     OW29447   5.651   4.343   6.390  0.0966  0.2967  0.1051
 9631SOL    HW129448   5.686   4.254   6.380 -0.8097 -0.0588 -0.0500
 9631SOL    HW229449   5.682   4.372   6.476  1.1492  0.1841 -0.2287
 9632SOL     OW29450   7.296   7.230   6.934 -0.0503  0.4113  0.2224
 9632SOL    HW129451   7.314   7.243   6.841 -2.7739  3.1911 -0.0624
 9632SOL    HW229452   7.267   7.139   6.941  0.5074  0.0598 -1.5637
 9633SOL     OW29453   0.276   2.273   1.098  0.5699  0.0960  0.0660
 9633SOL    HW129454   0.248   2.340   1.161  1.4609  0.2144  0.3548
 9633SOL    HW229455   0.195   2.228   1.073  0.0435  0.8618  0.3527
 9634SOL     OW29456   4.344   6.368   1.932 -0.7830 -0.3054  0.3664
 9634SOL    HW129457   4.411   6.302   1.943 -0.7561 -0.4900 -0.8059
 9634SOL    HW229458   4.264   6.328   1.967 -0.3619 -0.2042  1.4634
 9635SOL     OW29459   2.006   0.765   4.529 -0.1932 -0.0099 -0.7182
 9635SOL    HW129460   1.959   0.704   4.473 -0.4127 -0.1737 -0.3625
 9635SOL    HW229461   2.076   0.713   4.569 -0.8551 -0.2384  0.1866
 9636SOL     OW29462   4.945   4.954   5.778  0.1233 -0.7632 -0.1460
 9636SOL    HW129463   4.981   4.997   5.701 -0.4103 -0.5239 -0.2726
 9636SOL    HW229464   4.916   4.868   5.747 -1.6160 -0.0489 -0.6242
 9637SOL     OW29465   4.366   3.621   3.624 -0.7088 -0.2145  0.4677
 9637SOL    HW129466   4.361   3.711   3.655  1.8726  0.5351 -0.9544
 9637SOL    HW229467   4.376   3.568   3.703  0.0587  1.0057  1.2135
 9638SOL     OW29468   7.037   5.307   4.829 -0.1112  0.3113 -0.4844
 9638SOL    HW129469   7.103   5.267   4.772  1.6946 -1.0339  2.3519
 9638SOL    HW229470   6.999   5.234   4.877 -2.6006  1.2486 -0.8778
 9639SOL     OW29471   0.306   4.668   5.431  0.3701 -0.4813  0.3776
 9639SOL    HW129472   0.271   4.671   5.342 -0.3372 -0.4412  0.6482
 9639SOL    HW229473   0.257   4.598   5.474 -1.9479  1.8190  1.7989
 9640SOL     OW29474   4.116   5.851   2.257 -0.3764 -0.0631 -0.7121
 9640SOL    HW129475   4.166   5.775   2.227  0.3817  0.6228 -1.2133
 9640SOL    HW229476   4.084   5.892   2.177 -1.5273 -0.3233 -0.4132
 9641SOL     OW29477   6.930   5.614   6.752  0.3705 -0.1805  0.2730
 9641SOL    HW129478   6.883   5.625   6.834 -0.0091 -1.0633  0.1829
 9641SOL    HW229479   6.994   5.545   6.770  1.5546  0.9053  0.3551
 9642SOL     OW29480   3.249   6.619   0.999 -0.4619  0.3249  0.1145
 9642SOL    HW129481   3.297   6.541   0.975 -3.2103 -1.5795  0.3664
 9642SOL    HW229482   3.231   6.664   0.916 -0.1637 -0.1287 -0.1959
 9643SOL     OW29483   1.664   4.691   2.428  0.0113  0.2109  0.2954
 9643SOL    HW129484   1.706   4.722   2.508  1.1620 -0.1637 -0.1539
 9643SOL    HW229485   1.697   4.602   2.415  0.4274  0.5284 -0.9999
 9644SOL     OW29486   5.698   4.179   3.893  0.1951 -0.2961  0.0098
 9644SOL    HW129487   5.695   4.184   3.988  2.8014  2.2021  0.1026
 9644SOL    HW229488   5.621   4.227   3.863 -0.1975 -0.3943  0.8515
 9645SOL     OW29489   3.305   3.878   1.681 -0.2218 -0.1082  0.2186
 9645SOL    HW129490   3.372   3.869   1.613 -0.0135  0.6050  0.3213
 9645SOL    HW229491   3.234   3.820   1.653 -0.0349 -0.0040 -0.4827
 9646SOL     OW29492   3.524   7.311   5.256  0.0915 -0.1137 -0.0674
 9646SOL    HW129493   3.519   7.407   5.253  2.0368  0.0145 -0.6847
 9646SOL    HW229494   3.433   7.282   5.253 -0.5750  1.7188  0.6892
 9647SOL     OW29495   7.353   2.648   2.821  0.6857  0.1006 -0.1695
 9647SOL    HW129496   7.360   2.680   2.911 -0.2609  1.6770 -0.6081
 9647SOL    HW229497   7.435   2.601   2.805  0.5160 -0.9496  1.7675
 9648SOL     OW29498   0.618   0.801   7.175 -0.4554  0.3265  0.0556
 9648SOL    HW129499   0.630   0.715   7.134 -1.1633 -0.4801  1.4340
 9648SOL    HW229500   0.611   0.862   7.102 -1.3788 -0.9953 -1.0167
 9649SOL     OW29501   5.305   2.727   1.425  0.3279 -0.2694  0.3956
 9649SOL    HW129502   5.338   2.816   1.423  1.1623 -0.5075  2.0713
 9649SOL    HW229503   5.210   2.737   1.429  0.4185  0.5347  0.6548
 9650SOL     OW29504   1.944   0.986   6.871  0.2842 -0.3270 -0.1427
 9650SOL    HW129505   1.976   0.926   6.939 -0.2887  1.6325  1.9806
 9650SOL    HW229506   1.850   0.993   6.887  0.2116  0.4951 -0.8705
 9651SOL     OW29507   2.686   0.435   5.805 -0.3927  0.6514  0.1236
 9651SOL    HW129508   2.688   0.468   5.715 -2.9439  0.8784  0.0703
 9651SOL    HW229509   2.638   0.353   5.798  0.3368  0.1296  1.1498
 9652SOL     OW29510   2.795   6.284   1.408 -0.1791  0.0434 -0.3400
 9652SOL    HW129511   2.800   6.245   1.320 -0.2672  1.0285 -0.7965
 9652SOL    HW229512   2.881   6.266   1.446  0.1575  0.3353 -0.9497
 9653SOL     OW29513   5.009   5.871   5.571 -0.0623 -0.1233  0.3024
 9653SOL    HW129514   5.090   5.920   5.557 -0.1560 -0.2277 -0.6499
 9653SOL    HW229515   5.038   5.784   5.598  0.1674 -0.3123 -0.5224
 9654SOL     OW29516   4.847   5.952   6.272  0.1725 -0.3517 -0.3716
 9654SOL    HW129517   4.765   5.927   6.314 -1.7718  3.7174 -1.2102
 9654SOL    HW229518   4.828   5.950   6.178  0.4620  1.9460 -0.5377
 9655SOL     OW29519   4.933   1.833   6.046 -0.0279 -0.0025  0.3374
 9655SOL    HW129520   4.950   1.740   6.064  0.9284  0.0786 -0.0569
 9655SOL    HW229521   4.934   1.875   6.132  2.9356  0.1410  0.3388
 9656SOL     OW29522   3.603   1.346   7.738 -0.4112 -0.0616  0.4048
 9656SOL    HW129523   3.627   1.432   7.705  1.0879  0.0850  1.8012
 9656SOL    HW229524   3.574   1.361   7.828  0.8023 -1.1173  1.0007
 9657SOL     OW29525   5.295   3.003   0.067 -0.1768  0.2941 -0.4044
 9657SOL    HW129526   5.330   2.914   0.079 -1.3425 -0.0940  0.2949
 9657SOL    HW229527   5.367   3.061   0.093  0.2113 -0.4582  0.2605
 9658SOL     OW29528   1.341   4.518   5.436 -0.0642 -0.6286 -0.7768
 9658SOL    HW129529   1.250   4.529   5.411 -0.7630 -1.7124  1.0367
 9658SOL    HW229530   1.338   4.455   5.508  1.6783  2.1208  1.9818
 9659SOL     OW29531   0.027   2.726   6.942 -0.1486 -0.3567  0.0563
 9659SOL    HW129532   0.105   2.723   6.888 -0.9182  0.8586 -1.1801
 9659SOL    HW229533   0.059   2.729   7.032  1.2521  1.0677 -0.4602
 9660SOL     OW29534   2.495   0.179   6.520  0.0534  0.2247  0.2492
 9660SOL    HW129535   2.484   0.273   6.504  0.2165  0.2508  0.2954
 9660SOL    HW229536   2.459   0.137   6.442 -0.9138  0.2927  0.6443
 9661SOL     OW29537   6.067   7.264   4.703  0.0708 -0.1093 -0.0511
 9661SOL    HW129538   6.075   7.183   4.651  1.9892  0.1616 -0.2738
 9661SOL    HW229539   6.024   7.326   4.644 -1.2363 -0.8807  0.0509
 9662SOL     OW29540   2.453   1.554   2.375 -0.1537 -0.4829 -0.3348
 9662SOL    HW129541   2.509   1.631   2.365 -0.4083 -0.2836 -0.2540
 9662SOL    HW229542   2.374   1.576   2.325 -0.8133 -0.1037  0.8287
 9663SOL     OW29543   6.261   0.588   4.972  0.3186  0.7250  0.5220
 9663SOL    HW129544   6.267   0.674   5.012  0.6873  0.5820  0.7783
 9663SOL    HW229545   6.308   0.596   4.889 -0.5847  1.0658  0.0285
 9664SOL     OW29546   5.882   1.458   7.597  0.2041 -0.0742  0.0860
 9664SOL    HW129547   5.971   1.426   7.582  0.8226  0.8386  1.4877
 9664SOL    HW229548   5.892   1.520   7.670 -1.6318 -0.1984  0.4840
 9665SOL     OW29549   4.682   4.924   1.851  0.3871  0.0157  0.5383
 9665SOL    HW129550   4.678   4.861   1.923  0.2463  0.9066  1.3344
 9665SOL    HW229551   4.595   4.921   1.812  0.5737 -0.7362  0.1618
 9666SOL     OW29552   4.927   7.747   3.004  0.1026 -0.1336  0.0950
 9666SOL    HW129553   4.840   7.783   2.985 -0.1383 -0.7746 -0.0496
 9666SOL    HW229554   4.972   7.746   2.920  0.2038  0.0637  0.1450
 9667SOL     OW29555   4.494   0.125   6.632  0.3004 -0.2306 -0.4455
 9667SOL    HW129556   4.428   0.093   6.693  0.1497 -0.3072 -0.6498
 9667SOL    HW229557   4.529   0.046   6.591 -1.4636 -0.0697 -2.4137
 9668SOL     OW29558   0.531   7.480   0.333 -0.1475  0.0601 -0.3991
 9668SOL    HW129559   0.608   7.533   0.314  1.0186 -1.5252 -0.3146
 9668SOL    HW229560   0.539   7.458   0.426  0.3158 -1.6105 -0.7990
 9669SOL     OW29561   6.955   1.850   4.712  0.0279  0.8696 -0.1024
 9669SOL    HW129562   7.023   1.912   4.739 -0.1326  1.0320 -0.0713
 9669SOL    HW229563   6.969   1.838   4.618  0.2847  0.6742 -0.0410
 9670SOL     OW29564   6.299   3.114   7.041  0.1281 -0.3797  0.4540
 9670SOL    HW129565   6.295   3.173   7.115 -1.2958 -0.5892  0.5622
 9670SOL    HW229566   6.378   3.140   6.994 -1.8386  3.5621 -1.1262
 9671SOL     OW29567   5.371   0.699   1.195 -0.5111 -0.2886 -0.4358
 9671SOL    HW129568   5.346   0.694   1.103 -0.0764  0.2845 -0.5853
 9671SOL    HW229569   5.464   0.720   1.195 -0.7065  0.6858  0.1254
 9672SOL     OW29570   7.741   5.668   6.651 -0.2470  0.4150 -0.5798
 9672SOL    HW129571   7.672   5.608   6.682  0.4077  0.4389  1.0577
 9672SOL    HW229572   7.755   5.727   6.725  1.2261  0.6849 -1.0491
 9673SOL     OW29573   4.482   6.089   0.657  0.1123 -0.4915  0.0063
 9673SOL    HW129574   4.444   6.082   0.745  0.2791  2.8930  0.4488
 9673SOL    HW229575   4.575   6.072   0.670 -0.1800 -2.4518 -0.0287
 9674SOL     OW29576   1.925   1.043   2.606 -0.3367  0.0849  0.6791
 9674SOL    HW129577   1.848   1.071   2.656 -3.0124 -1.0481 -2.4807
 9674SOL    HW229578   1.920   0.947   2.605  0.0514  0.0465 -1.0588
 9675SOL     OW29579   7.374   0.576   6.697 -0.0784  0.1076  0.3059
 9675SOL    HW129580   7.417   0.655   6.667  0.2754 -0.7209 -1.4676
 9675SOL    HW229581   7.288   0.606   6.728  0.7869  1.4224  1.5716
 9676SOL     OW29582   0.363   1.911   4.461  0.7091  0.0165 -0.3406
 9676SOL    HW129583   0.396   1.993   4.497  1.8784  1.0846 -3.5144
 9676SOL    HW229584   0.397   1.844   4.520  2.3031  1.6261  0.6802
 9677SOL     OW29585   4.118   0.911   6.381 -0.3503  0.1492  0.7069
 9677SOL    HW129586   4.076   0.840   6.431  1.1326 -0.5894  0.9797
 9677SOL    HW229587   4.046   0.955   6.337 -1.2774 -2.0448 -0.1166
 9678SOL     OW29588   5.623   5.119   0.917 -0.2899 -0.3756  0.1288
 9678SOL    HW129589   5.695   5.110   0.980  1.1670  0.3257 -1.3627
 9678SOL    HW229590   5.578   5.199   0.944  1.1750  0.7028 -0.4852
 9679SOL     OW29591   7.289   2.992   0.138 -0.2152 -0.5081 -0.0872
 9679SOL    HW129592   7.242   2.921   0.095 -0.7870  0.0822 -0.4578
 9679SOL    HW229593   7.220   3.053   0.166  0.2925  0.1647 -0.2667
 9680SOL     OW29594   3.112   4.632   3.351  0.4200  0.1041  0.7244
 9680SOL    HW129595   3.117   4.642   3.256  0.1717  0.8151  0.7734
 9680SOL    HW229596   3.181   4.570   3.373  0.4184 -0.1333  0.0702
 9681SOL     OW29597   4.579   4.245   0.594 -0.1945  0.2296  0.2227
 9681SOL    HW129598   4.550   4.279   0.678 -0.1728  1.1311 -0.1225
 9681SOL    HW229599   4.635   4.171   0.615 -0.8596 -0.0736  0.9689
 9682SOL     OW29600   6.918   5.490   7.119 -0.4482  0.2810  0.3648
 9682SOL    HW129601   6.929   5.423   7.052  1.5260  0.6483  0.2468
 9682SOL    HW229602   6.935   5.444   7.202  1.3200  0.6562  0.2543
 9683SOL     OW29603   1.815   0.170   1.060  0.3211 -0.0762  0.3624
 9683SOL    HW129604   1.879   0.240   1.068 -0.5230  0.5930  1.6192
 9683SOL    HW229605   1.735   0.214   1.030 -0.4021 -0.3521  1.7874
 9684SOL     OW29606   2.110   7.196   5.341 -0.4730 -0.5900 -0.1782
 9684SOL    HW129607   2.016   7.211   5.327 -0.0978  1.4040 -1.0265
 9684SOL    HW229608   2.124   7.105   5.315 -1.9232 -0.4676 -1.5663
 9685SOL     OW29609   5.196   1.666   2.591  0.2586 -0.2472  0.0388
 9685SOL    HW129610   5.173   1.732   2.525 -0.9857 -1.2964 -0.6112
 9685SOL    HW229611   5.281   1.696   2.624 -0.0662  1.4600 -0.5171
 9686SOL     OW29612   0.176   4.640   4.013 -0.0256  0.2245 -0.2312
 9686SOL    HW129613   0.116   4.624   4.086 -0.8057  2.4271 -0.3204
 9686SOL    HW229614   0.226   4.717   4.039  1.4015 -0.3905 -1.0241
 9687SOL     OW29615   4.783   1.521   0.859 -0.2383  0.0658  0.3802
 9687SOL    HW129616   4.777   1.426   0.858 -0.4545  0.0809 -0.6402
 9687SOL    HW229617   4.692   1.550   0.865 -0.1162  0.2143  1.8394
 9688SOL     OW29618   3.263   4.256   7.737  0.0768  0.6085  0.1643
 9688SOL    HW129619   3.175   4.287   7.717 -0.5165 -0.0021  1.7029
 9688SOL    HW229620   3.314   4.278   7.659 -1.5695  0.3711 -1.0313
 9689SOL     OW29621   4.477   3.018   3.043 -0.5824 -0.4878  0.3666
 9689SOL    HW129622   4.535   3.051   3.112  0.2029  0.1869 -0.5898
 9689SOL    HW229623   4.536   2.981   2.977 -1.2353  0.0432 -0.5407
 9690SOL     OW29624   4.823   0.418   6.922 -0.3555 -0.2717 -0.6518
 9690SOL    HW129625   4.816   0.486   6.990  0.4980  2.3626 -3.0226
 9690SOL    HW229626   4.733   0.388   6.909 -0.5956 -0.5205  1.2842
 9691SOL     OW29627   2.078   3.438   3.680  0.8262  0.2896 -0.5788
 9691SOL    HW129628   2.118   3.351   3.675  1.7862  0.4436  2.3517
 9691SOL    HW229629   2.009   3.430   3.745  0.4684  1.5544 -0.7674
 9692SOL     OW29630   5.097   4.885   5.438 -0.4679 -0.1841  0.3978
 9692SOL    HW129631   5.113   4.826   5.512 -0.6376  0.9517  1.3708
 9692SOL    HW229632   5.004   4.874   5.418  0.0576 -2.2199 -1.2191
 9693SOL     OW29633   6.376   0.230   6.586  0.1750 -0.1142  0.2087
 9693SOL    HW129634   6.434   0.304   6.567 -0.8700  0.8268  0.5507
 9693SOL    HW229635   6.342   0.204   6.500 -0.4058  0.6267  0.2028
 9694SOL     OW29636   3.398   0.168   6.897 -0.1909  0.4256  0.6419
 9694SOL    HW129637   3.475   0.154   6.842  0.1491  2.4484  0.5052
 9694SOL    HW229638   3.404   0.101   6.965  1.8834  0.7283  0.8309
 9695SOL     OW29639   0.748   6.344   7.513 -0.6428  0.7179 -0.4119
 9695SOL    HW129640   0.806   6.276   7.480 -0.2983  0.2792  1.0167
 9695SOL    HW229641   0.772   6.422   7.463  0.7172  0.3852 -0.3242
 9696SOL     OW29642   0.139   4.234   4.795 -0.1468 -0.5561  0.2602
 9696SOL    HW129643   0.227   4.273   4.794 -0.8647  1.3823 -2.6346
 9696SOL    HW229644   0.093   4.280   4.866  0.5592  0.0621  0.3293
 9697SOL     OW29645   5.828   7.401   2.130 -0.4056  0.3253 -0.0361
 9697SOL    HW129646   5.742   7.360   2.132  0.1227 -0.7736  1.8641
 9697SOL    HW229647   5.886   7.334   2.093  0.2743 -0.3565  2.1368
 9698SOL     OW29648   6.725   0.958   1.672 -0.0984  0.4273  0.1116
 9698SOL    HW129649   6.718   1.033   1.730  2.9509 -1.2078  2.9440
 9698SOL    HW229650   6.809   0.969   1.628 -0.1918 -0.6798 -0.3912
 9699SOL     OW29651   3.033   5.938   7.565 -0.5468  0.4836 -0.1874
 9699SOL    HW129652   3.112   5.991   7.558 -0.4159  0.4510  0.8315
 9699SOL    HW229653   3.025   5.895   7.480  1.0079 -0.1584 -0.0514
 9700SOL     OW29654   5.667   6.818   3.730  0.4074 -0.8552 -0.0424
 9700SOL    HW129655   5.706   6.903   3.750  1.6280 -1.4794  0.3400
 9700SOL    HW229656   5.650   6.820   3.636  0.7294 -0.2974 -0.0897
 9701SOL     OW29657   6.152   5.248   1.555 -0.1014  0.3418 -0.0882
 9701SOL    HW129658   6.152   5.299   1.474  1.5057  2.0833  0.9501
 9701SOL    HW229659   6.119   5.308   1.621  1.5302 -0.0159  1.1141
 9702SOL     OW29660   2.024   5.490   0.395 -0.8720  0.0486  0.0757
 9702SOL    HW129661   2.109   5.468   0.434  0.3448  3.1554 -0.5210
 9702SOL    HW229662   1.965   5.501   0.470 -0.2385 -0.3197  0.6335
 9703SOL     OW29663   5.718   1.456   6.497 -0.0326 -0.0240 -0.0530
 9703SOL    HW129664   5.732   1.539   6.450  0.4109  0.0036  0.1210
 9703SOL    HW229665   5.637   1.422   6.461 -0.4886  0.7313  0.2229
 9704SOL     OW29666   6.248   4.779   7.407  0.7517 -0.1841  0.3898
 9704SOL    HW129667   6.236   4.760   7.313  0.9344  0.3257  0.2616
 9704SOL    HW229668   6.324   4.727   7.433  0.7358 -0.2824  0.2401
 9705SOL     OW29669   5.475   1.230   4.931  0.3551 -0.1500  0.6360
 9705SOL    HW129670   5.430   1.267   4.855 -0.0705  0.1312  1.0197
 9705SOL    HW229671   5.494   1.140   4.906 -0.0872 -0.1591  0.3165
 9706SOL     OW29672   6.780   5.627   6.113  0.3253 -0.4800 -0.0817
 9706SOL    HW129673   6.749   5.592   6.196  0.0176  0.5727  0.2565
 9706SOL    HW229674   6.824   5.709   6.136  0.3829 -0.2619 -0.9352
 9707SOL     OW29675   4.859   1.998   7.672 -0.5206 -0.3592 -0.8725
 9707SOL    HW129676   4.832   1.948   7.595 -0.7944 -1.1650 -0.2632
 9707SOL    HW229677   4.818   1.953   7.746  2.5330 -1.7613  0.1379
 9708SOL     OW29678   7.084   2.902   5.158  0.0165  0.4624  0.3215
 9708SOL    HW129679   7.162   2.883   5.106 -0.6485 -1.1659 -0.1420
 9708SOL    HW229680   7.043   2.977   5.115 -0.3949 -0.7029 -1.4169
 9709SOL     OW29681   3.846   2.311   5.626  0.4971 -0.2923 -0.2298
 9709SOL    HW129682   3.820   2.235   5.679 -3.6794  1.2076  0.2399
 9709SOL    HW229683   3.854   2.383   5.690  0.5710  0.4755 -1.0813
 9710SOL     OW29684   1.488   5.313   6.737  0.1179 -0.2746  0.3706
 9710SOL    HW129685   1.543   5.257   6.683 -0.9497 -1.3419  0.3513
 9710SOL    HW229686   1.475   5.263   6.817 -0.6972  0.0294  0.4318
 9711SOL     OW29687   0.497   3.160   6.246 -0.8973  0.0662  0.0295
 9711SOL    HW129688   0.580   3.151   6.294 -0.7360  1.4645  0.0658
 9711SOL    HW229689   0.497   3.250   6.215 -0.9689 -0.7750 -2.7126
 9712SOL     OW29690   1.675   4.558   3.773 -0.1814 -0.2208 -0.0192
 9712SOL    HW129691   1.758   4.518   3.745 -1.6663 -2.4720 -1.4526
 9712SOL    HW229692   1.630   4.489   3.821 -1.8759  0.4716 -0.5520
 9713SOL     OW29693   7.019   5.655   4.584  0.0848  0.0261  0.3150
 9713SOL    HW129694   7.084   5.665   4.653 -0.8569 -0.7680  1.3537
 9713SOL    HW229695   6.935   5.671   4.627 -0.4240  1.0613 -1.0073
 9714SOL     OW29696   7.398   2.395   6.072  0.0456  0.2432 -0.1548
 9714SOL    HW129697   7.426   2.391   6.163  0.2913  0.8991 -0.2023
 9714SOL    HW229698   7.474   2.364   6.022  0.4035  1.2317 -0.2282
 9715SOL     OW29699   6.030   6.251   2.476 -0.3433  0.4974  0.5432
 9715SOL    HW129700   6.018   6.177   2.416  1.2712 -0.3602  1.1961
 9715SOL    HW229701   5.971   6.232   2.549 -1.1607  0.7302 -0.0533
 9716SOL     OW29702   1.763   0.398   5.093  0.0690 -0.6431  0.5158
 9716SOL    HW129703   1.787   0.472   5.149  0.4639 -0.1312 -0.2978
 9716SOL    HW229704   1.669   0.407   5.081  0.1522 -0.0993  0.2065
 9717SOL     OW29705   0.858   4.533   0.798  0.1693  0.1970  0.2275
 9717SOL    HW129706   0.882   4.474   0.727  0.3343 -0.2253  0.6312
 9717SOL    HW229707   0.766   4.513   0.816  0.2543 -0.0058  0.4327
 9718SOL     OW29708   2.127   0.836   0.168  0.3079  0.2583  0.2153
 9718SOL    HW129709   2.126   0.784   0.088 -0.5540  0.2916  0.1991
 9718SOL    HW229710   2.103   0.775   0.237  1.0802  0.2223  0.4605
 9719SOL     OW29711   4.894   1.124   2.489 -0.4672 -0.5304 -0.0972
 9719SOL    HW129712   4.974   1.176   2.480 -0.7082 -0.3073 -1.0456
 9719SOL    HW229713   4.907   1.049   2.431 -0.3632 -1.2418  0.8266
 9720SOL     OW29714   1.262   2.636   2.301  0.0813  0.4034  0.0957
 9720SOL    HW129715   1.264   2.628   2.397 -0.2611  1.8440  0.2459
 9720SOL    HW229716   1.314   2.713   2.282  0.0295  0.2106 -0.8824
 9721SOL     OW29717   5.138   5.213   3.680 -0.7853 -0.0475  0.3180
 9721SOL    HW129718   5.057   5.263   3.674 -0.3105  0.5979 -1.0364
 9721SOL    HW229719   5.181   5.225   3.595  0.4386 -0.8796  0.7823
 9722SOL     OW29720   2.869   7.611   5.052 -0.2322  0.1526 -0.5316
 9722SOL    HW129721   2.948   7.653   5.018 -0.0386  0.1285 -0.1129
 9722SOL    HW229722   2.847   7.545   4.986  2.0012 -2.1778  0.8488
 9723SOL     OW29723   5.836   0.880   5.206 -0.0796 -0.1770 -0.1505
 9723SOL    HW129724   5.895   0.890   5.280 -1.1225 -0.3270  0.7170
 9723SOL    HW229725   5.850   0.790   5.176  0.5710 -0.0150 -0.3584
 9724SOL     OW29726   1.550   4.569   5.288 -0.1750  0.3972  0.5540
 9724SOL    HW129727   1.477   4.553   5.347 -1.6289  1.1790 -0.9631
 9724SOL    HW229728   1.532   4.655   5.249  0.5422 -0.2194 -1.2662
 9725SOL     OW29729   5.445   4.613   1.171 -0.3140 -0.1455  0.0969
 9725SOL    HW129730   5.352   4.612   1.149 -0.1674 -2.1793 -0.6753
 9725SOL    HW229731   5.472   4.522   1.161  2.1211  0.6463 -1.2468
 9726SOL     OW29732   1.251   0.297   3.870 -0.3744 -0.1431 -0.3964
 9726SOL    HW129733   1.295   0.225   3.824 -1.8779 -0.5976 -1.2168
 9726SOL    HW229734   1.266   0.373   3.815  1.5939  0.3125  0.6978
 9727SOL     OW29735   0.762   6.188   0.010 -0.1798 -0.6181 -0.0220
 9727SOL    HW129736   0.839   6.163   0.061 -0.4284 -2.3136 -0.4149
 9727SOL    HW229737   0.794   6.189  -0.081 -0.9210 -2.9574 -0.3819
 9728SOL     OW29738   4.169   1.222   3.875  0.1892 -0.1195 -0.4333
 9728SOL    HW129739   4.221   1.164   3.820  0.4681  0.5332 -0.8684
 9728SOL    HW229740   4.220   1.303   3.880  0.2467 -0.2150  0.9237
 9729SOL     OW29741   6.309   0.043   4.322 -0.3061 -0.2017 -0.1008
 9729SOL    HW129742   6.267  -0.036   4.288  0.4330 -1.0674  0.9443
 9729SOL    HW229743   6.360   0.077   4.248  0.7180 -1.6588 -0.1023
 9730SOL     OW29744   4.546   5.820   5.945  0.1936 -0.3881  0.2096
 9730SOL    HW129745   4.477   5.841   6.008  0.0267  1.2641 -0.4828
 9730SOL    HW229746   4.518   5.863   5.863  1.9554  0.1962 -0.1233
 9731SOL     OW29747   3.810   3.966   7.574  0.0731 -0.2797  0.2516
 9731SOL    HW129748   3.872   3.976   7.501 -1.0848  1.1881 -0.6027
 9731SOL    HW229749   3.750   3.897   7.546  0.3437 -0.5611  0.3590
 9732SOL     OW29750   4.539   1.933   1.620  0.0059 -0.3822  0.3566
 9732SOL    HW129751   4.588   1.873   1.676 -1.5192 -1.4259  0.6209
 9732SOL    HW229752   4.545   1.895   1.533 -0.0877 -0.3587  0.3393
 9733SOL     OW29753   6.749   5.476   0.364 -0.2034  0.0446  0.2170
 9733SOL    HW129754   6.736   5.406   0.428 -0.4842  0.2832  0.4213
 9733SOL    HW229755   6.823   5.527   0.398 -0.1277 -0.0341  0.1709
 9734SOL     OW29756   7.418   1.824   3.584  0.0308  0.5598  0.2092
 9734SOL    HW129757   7.391   1.817   3.675 -1.9055  0.8464 -0.3055
 9734SOL    HW229758   7.365   1.895   3.548 -0.2568 -0.4545 -1.4834
 9735SOL     OW29759   1.768   2.039   2.512  0.1642 -0.2204 -0.4655
 9735SOL    HW129760   1.768   2.028   2.417 -0.0759  1.1557 -0.6455
 9735SOL    HW229761   1.853   2.078   2.531 -1.0819  2.7961 -0.5843
 9736SOL     OW29762   6.641   3.724   1.247  0.4046  0.0551 -0.2399
 9736SOL    HW129763   6.613   3.651   1.192  0.2780  0.3585 -0.5836
 9736SOL    HW229764   6.735   3.731   1.233  0.2365  0.7127 -1.1402
 9737SOL     OW29765   1.878   5.944   7.317  0.2397  0.8486  0.1435
 9737SOL    HW129766   1.861   5.913   7.406  0.1340 -1.6491 -0.6830
 9737SOL    HW229767   1.793   5.972   7.284 -0.3518 -1.1976 -0.1984
 9738SOL     OW29768   1.154   7.112   2.246 -0.1738 -0.6137  0.5057
 9738SOL    HW129769   1.218   7.107   2.175 -0.2046 -0.8974  0.4953
 9738SOL    HW229770   1.171   7.033   2.298 -0.0905 -0.3620  0.8636
 9739SOL     OW29771   3.935   5.073   1.814  0.1784  0.3277 -0.2343
 9739SOL    HW129772   3.871   5.004   1.796 -0.3411  0.6613  0.2794
 9739SOL    HW229773   4.010   5.027   1.852 -1.2346  0.2679  2.7687
 9740SOL     OW29774   2.983   2.933   1.517  0.5825 -0.3100 -0.1212
 9740SOL    HW129775   2.889   2.943   1.531  0.3438 -1.2987 -0.8907
 9740SOL    HW229776   2.998   2.970   1.431  0.6857 -1.1843 -0.4904
 9741SOL     OW29777   5.963   7.611   6.090  0.1336 -0.0880 -0.4418
 9741SOL    HW129778   5.984   7.537   6.033 -1.3361  0.2989 -1.5684
 9741SOL    HW229779   5.937   7.681   6.029 -0.4495  0.6927  0.6753
 9742SOL     OW29780   1.135   2.223   3.752 -0.2524  0.2560  0.7503
 9742SOL    HW129781   1.073   2.196   3.684 -1.6445  1.0077  1.6782
 9742SOL    HW229782   1.185   2.295   3.712  0.0946 -0.3975 -0.0264
 9743SOL     OW29783   1.861   4.435   0.758  0.0565  0.0599  0.1311
 9743SOL    HW129784   1.842   4.351   0.799 -0.0470  0.1657  0.3037
 9743SOL    HW229785   1.907   4.485   0.825  0.7416 -0.1088 -0.2074
 9744SOL     OW29786   0.135   6.110   5.320  0.1034  0.2219 -0.2855
 9744SOL    HW129787   0.131   6.122   5.225 -0.7066 -1.9733 -0.5843
 9744SOL    HW229788   0.079   6.034   5.337  1.9968 -0.8496  1.6619
 9745SOL     OW29789   3.707   5.552   4.119 -0.6031  0.6919  0.5036
 9745SOL    HW129790   3.760   5.631   4.133  0.5761 -0.2477  1.5875
 9745SOL    HW229791   3.769   5.480   4.129 -1.3325 -0.3827 -2.0161
 9746SOL     OW29792   6.627   5.701   1.778  0.1915  0.9761  0.0378
 9746SOL    HW129793   6.582   5.705   1.862 -0.4830  0.0603 -0.2696
 9746SOL    HW229794   6.563   5.733   1.714  0.3870  0.7904 -0.2545
 9747SOL     OW29795   1.426   5.451   2.841  0.3131 -0.3627  0.2355
 9747SOL    HW129796   1.409   5.361   2.814  1.5937 -0.9242  1.1863
 9747SOL    HW229797   1.370   5.465   2.917 -2.3141  0.7815 -1.7801
 9748SOL     OW29798   7.545   6.486   5.915  0.4843 -0.6505  0.1221
 9748SOL    HW129799   7.636   6.467   5.893  0.3658  0.2292 -1.2512
 9748SOL    HW229800   7.528   6.434   5.994  1.5245 -2.4804 -0.7918
 9749SOL     OW29801   3.164   0.878   0.690  0.5365  0.2797 -0.1260
 9749SOL    HW129802   3.256   0.902   0.676  1.0498 -0.5108  1.5534
 9749SOL    HW229803   3.144   0.911   0.778  0.2626 -2.3083  0.8887
 9750SOL     OW29804   6.043   4.249   0.199  0.2493  0.0133  0.0992
 9750SOL    HW129805   6.009   4.204   0.277  0.2706 -0.2293 -0.0342
 9750SOL    HW229806   5.977   4.232   0.132 -0.5502  1.4768  0.4597
 9751SOL     OW29807   4.670   5.870   3.263  0.2058  0.1307 -0.7655
 9751SOL    HW129808   4.635   5.948   3.305 -0.3716 -1.2707  1.5248
 9751SOL    HW229809   4.595   5.831   3.219  0.1252  0.0344 -0.5451
 9752SOL     OW29810   3.204   6.664   4.545  0.2060 -0.6332  0.4875
 9752SOL    HW129811   3.236   6.578   4.518 -2.0167 -1.2268 -0.4527
 9752SOL    HW229812   3.139   6.645   4.613  0.3792  0.3919  0.9572
 9753SOL     OW29813   4.941   7.283   2.119  0.0559  0.5897  0.4138
 9753SOL    HW129814   4.902   7.201   2.149 -1.6655  0.9513 -0.7348
 9753SOL    HW229815   4.989   7.259   2.040  0.2940  0.5414  0.5720
 9754SOL     OW29816   2.059   6.287   3.510  0.1223 -0.4241 -0.3948
 9754SOL    HW129817   2.116   6.350   3.554 -0.0001 -0.6984  0.1551
 9754SOL    HW229818   1.971   6.315   3.531  0.0156  0.3441 -1.7215
 9755SOL     OW29819   5.645   0.007   2.285 -0.1314  0.3679  0.2793
 9755SOL    HW129820   5.733  -0.030   2.286  0.1473  1.0224  0.1483
 9755SOL    HW229821   5.587  -0.069   2.289  0.4242 -0.1410 -1.0934
 9756SOL     OW29822   5.810   1.219   1.491  0.1765  0.1657  0.6919
 9756SOL    HW129823   5.804   1.263   1.576 -0.4338  0.6081  0.4310
 9756SOL    HW229824   5.858   1.282   1.436 -0.5374  0.4346  0.3680
 9757SOL     OW29825   1.403   3.344   4.408 -0.0481 -0.1665 -0.3212
 9757SOL    HW129826   1.450   3.427   4.411  2.1327 -1.3087 -0.5848
 9757SOL    HW229827   1.339   3.354   4.337 -0.8759  1.7483  0.6438
 9758SOL     OW29828   6.339   0.449   1.212  0.4565  0.1261 -0.1025
 9758SOL    HW129829   6.340   0.354   1.218 -0.9744  0.1101  0.1758
 9758SOL    HW229830   6.247   0.473   1.214  0.8124  1.5719  0.5484
 9759SOL     OW29831   5.845   2.868   5.916 -0.2795  0.2858 -0.0669
 9759SOL    HW129832   5.770   2.809   5.923 -0.2272  0.2845  0.4714
 9759SOL    HW229833   5.847   2.892   5.823 -0.5244 -0.2640 -0.2169
 9760SOL     OW29834   1.452   1.666   2.568 -0.0103  0.3599  0.0172
 9760SOL    HW129835   1.488   1.631   2.487 -0.7586  0.5157 -0.3990
 9760SOL    HW229836   1.370   1.709   2.541 -2.0315 -2.3924  1.2562
 9761SOL     OW29837   6.332   7.031   6.842 -0.3345  0.1191 -0.1353
 9761SOL    HW129838   6.391   7.091   6.796 -0.8480  0.3148 -0.5442
 9761SOL    HW229839   6.340   6.948   6.794 -0.5000  0.1888 -0.2887
 9762SOL     OW29840   5.970   0.187   4.225  0.4907 -0.2155 -0.2848
 9762SOL    HW129841   5.897   0.126   4.231 -0.2219  0.5144 -1.1880
 9762SOL    HW229842   6.041   0.144   4.273 -0.0068 -1.7155 -0.8225
 9763SOL     OW29843   6.824   0.639   1.754 -0.5388 -0.3237  0.3329
 9763SOL    HW129844   6.902   0.620   1.702  1.9872  1.9740  2.9677
 9763SOL    HW229845   6.783   0.714   1.709 -0.0318 -0.1769  0.1136
 9764SOL     OW29846   0.290   5.033   2.146  0.2842  0.4921  0.8772
 9764SOL    HW129847   0.293   4.954   2.093 -0.8911  0.1041  1.3561
 9764SOL    HW229848   0.212   5.080   2.115  0.5791  1.1188  1.0653
 9765SOL     OW29849   0.481   6.245   3.028  0.3970  0.3886  0.6693
 9765SOL    HW129850   0.436   6.223   3.109  0.8324  0.3572  0.9068
 9765SOL    HW229851   0.465   6.171   2.970  1.9200 -0.6257  1.4884
 9766SOL     OW29852   2.854   2.954   0.082  0.0014  0.3791 -0.2685
 9766SOL    HW129853   2.889   3.042   0.089 -0.8963  0.9112 -1.8104
 9766SOL    HW229854   2.791   2.959   0.010 -0.1794 -1.4849 -0.3010
 9767SOL     OW29855   3.231   5.817   1.583 -0.8630  0.4761 -0.1891
 9767SOL    HW129856   3.251   5.891   1.640  0.3511  0.6658 -0.8238
 9767SOL    HW229857   3.253   5.847   1.495 -0.1516 -0.6885 -0.4373
 9768SOL     OW29858   6.787   4.868   1.941 -0.3110 -0.2991  0.0879
 9768SOL    HW129859   6.832   4.952   1.939 -1.4892  0.3513 -0.4071
 9768SOL    HW229860   6.736   4.869   2.022 -1.0622 -0.1135 -0.3724
 9769SOL     OW29861   2.473   6.113   5.541 -0.1621  0.5624 -0.1739
 9769SOL    HW129862   2.483   6.033   5.490  1.6391  0.8457 -0.3354
 9769SOL    HW229863   2.382   6.139   5.527 -0.0106  0.0763 -2.4476
 9770SOL     OW29864   7.148   6.117   5.221  0.7211  0.1460 -0.2601
 9770SOL    HW129865   7.129   6.030   5.186 -0.9861 -0.0841  1.1020
 9770SOL    HW229866   7.066   6.165   5.213  0.2847  0.1561  3.0782
 9771SOL     OW29867   0.653   5.392   4.574 -0.6819  0.0727 -0.3758
 9771SOL    HW129868   0.584   5.439   4.527 -0.2092  0.2434 -0.9008
 9771SOL    HW229869   0.718   5.458   4.595 -0.2728 -0.2382 -0.6394
 9772SOL     OW29870   7.048   6.506   2.999  0.4169 -0.5340 -0.1496
 9772SOL    HW129871   7.038   6.556   2.918  2.0211  0.9304  0.4887
 9772SOL    HW229872   7.012   6.420   2.979 -1.4468  0.5177 -1.6507
 9773SOL     OW29873   1.277   2.089   2.416  0.2855  0.6135  0.2128
 9773SOL    HW129874   1.348   2.071   2.478 -0.0043 -0.5716  0.2198
 9773SOL    HW229875   1.312   2.159   2.360  1.1884  0.5440  0.6659
 9774SOL     OW29876   0.745   6.029   7.065  0.0034 -0.2749 -0.1678
 9774SOL    HW129877   0.734   5.948   7.016 -1.3322 -0.2742  0.0926
 9774SOL    HW229878   0.715   6.098   7.005 -3.4850 -0.4318  1.1668
 9775SOL     OW29879   3.235   1.024   4.998 -0.3386  0.1512 -0.2791
 9775SOL    HW129880   3.310   1.042   5.054 -0.6709 -0.6056  0.4284
 9775SOL    HW229881   3.273   0.988   4.917  0.1406  1.2425 -0.5520
 9776SOL     OW29882   1.574   5.859   4.577 -0.0880 -0.0297 -0.2172
 9776SOL    HW129883   1.501   5.799   4.590 -1.3965  1.5099 -0.1683
 9776SOL    HW229884   1.546   5.917   4.506  0.6231  1.2482  0.5059
 9777SOL     OW29885   3.403   3.021   4.239  0.1250  0.4037  0.2159
 9777SOL    HW129886   3.322   3.027   4.289  0.4653  0.1122  0.8270
 9777SOL    HW229887   3.379   2.972   4.160  0.1734 -1.9076  1.5263
 9778SOL     OW29888   1.070   3.404   7.636  0.1554 -0.3986  0.0225
 9778SOL    HW129889   1.060   3.439   7.548  0.8397 -0.7905 -0.2161
 9778SOL    HW229890   1.156   3.435   7.665  1.0401 -2.3194 -0.4127
 9779SOL     OW29891   1.516   1.971   7.099  0.2730  0.1223  0.2169
 9779SOL    HW129892   1.482   1.933   7.180  0.4815 -0.8498 -0.1424
 9779SOL    HW229893   1.464   2.051   7.087 -0.6031 -0.3592  0.6605
 9780SOL     OW29894   3.817   0.458   2.923 -0.0352  0.2483 -0.7961
 9780SOL    HW129895   3.839   0.493   2.836  0.6700  0.6938 -0.4461
 9780SOL    HW229896   3.901   0.445   2.966 -0.3410 -0.7136 -0.4497
 9781SOL     OW29897   3.269   3.218   2.546  0.3518  0.0454 -0.1921
 9781SOL    HW129898   3.289   3.292   2.604  0.7694  0.9964 -1.5000
 9781SOL    HW229899   3.355   3.189   2.516  0.1565 -0.6767 -0.0699
 9782SOL     OW29900   7.122   0.438   3.072  0.0529 -0.0358 -0.2036
 9782SOL    HW129901   7.104   0.344   3.078  0.4205 -0.1996 -1.3473
 9782SOL    HW229902   7.172   0.448   2.991  0.5559  1.0747  0.2115
 9783SOL     OW29903   1.382   5.762   2.632 -0.4089 -0.1162 -0.3762
 9783SOL    HW129904   1.409   5.797   2.547  1.8794  1.0375  0.7189
 9783SOL    HW229905   1.391   5.667   2.622 -1.1880 -0.0765 -1.7048
 9784SOL     OW29906   6.227   5.218   6.409 -0.0440  0.5528  0.1262
 9784SOL    HW129907   6.220   5.273   6.487 -0.8349 -0.6747  0.9553
 9784SOL    HW229908   6.151   5.160   6.413 -0.0642  0.4054 -1.5333
 9785SOL     OW29909   2.360   1.302   6.926 -0.5196  0.7669  0.2631
 9785SOL    HW129910   2.312   1.336   7.001  0.8266  1.3713  0.8855
 9785SOL    HW229911   2.448   1.286   6.959 -0.4696 -1.0598 -0.6526
 9786SOL     OW29912   0.256   3.152   4.921  0.2391  0.5310  0.0079
 9786SOL    HW129913   0.197   3.123   4.991 -0.4961  0.0622 -0.7920
 9786SOL    HW229914   0.341   3.162   4.965  0.1455 -1.2263  0.6771
 9787SOL     OW29915   3.054   0.501   2.181 -0.0860  0.4742  0.3581
 9787SOL    HW129916   3.041   0.478   2.273 -1.0733 -3.0157 -0.5183
 9787SOL    HW229917   3.004   0.581   2.169 -1.7181 -0.1551  2.4006
 9788SOL     OW29918   7.158   6.823   5.832 -0.3606 -1.1147 -0.7281
 9788SOL    HW129919   7.133   6.795   5.920 -0.1602  0.1546 -0.2430
 9788SOL    HW229920   7.250   6.797   5.823 -0.5458 -1.7511 -0.7795
 9789SOL     OW29921   3.628   4.286   3.825 -0.3320 -0.1688  0.3218
 9789SOL    HW129922   3.645   4.200   3.786 -1.9436 -1.6078  2.5769
 9789SOL    HW229923   3.711   4.310   3.867 -0.2013 -1.1993  0.6840
 9790SOL     OW29924   4.832   4.347   7.290  0.1153 -0.1485  0.2457
 9790SOL    HW129925   4.811   4.329   7.198  1.0012 -1.4457  0.2697
 9790SOL    HW229926   4.915   4.395   7.287 -0.9874  1.8338  0.2962
 9791SOL     OW29927   1.692   2.405   6.730  0.3790 -0.3647  0.4448
 9791SOL    HW129928   1.784   2.429   6.733  0.5491 -1.1080  2.8443
 9791SOL    HW229929   1.689   2.315   6.761 -1.1262 -0.4969  0.0022
 9792SOL     OW29930   0.250   1.050   0.791  0.0450 -0.3151 -0.4786
 9792SOL    HW129931   0.247   0.960   0.824  0.5239 -0.0475  0.3512
 9792SOL    HW229932   0.201   1.101   0.856  2.3209  0.4697  0.7442
 9793SOL     OW29933   0.120   0.698   7.192 -0.0561  0.1465 -0.1222
 9793SOL    HW129934   0.169   0.717   7.272 -2.2262 -0.0708  1.3678
 9793SOL    HW229935   0.033   0.674   7.223 -0.0760 -3.3249 -2.3851
 9794SOL     OW29936   7.387   0.502   6.158 -0.5317  0.1386  0.2328
 9794SOL    HW129937   7.438   0.541   6.086 -2.3335  0.4345 -0.9421
 9794SOL    HW229938   7.454   0.470   6.219  1.0707  0.1062 -1.4330
 9795SOL     OW29939   4.413   6.571   3.654 -0.2067  0.0196 -0.5154
 9795SOL    HW129940   4.387   6.658   3.682 -0.8376 -0.2365 -0.2736
 9795SOL    HW229941   4.374   6.561   3.567 -0.1565 -0.0282 -0.5330
 9796SOL     OW29942   1.521   4.613   4.764  0.6735 -0.0494 -0.2253
 9796SOL    HW129943   1.527   4.598   4.670 -0.1781 -3.7637  0.1668
 9796SOL    HW229944   1.428   4.612   4.783  0.8383  0.5230  0.7050
 9797SOL     OW29945   2.912   7.318   7.550  0.1505  0.0276  0.3150
 9797SOL    HW129946   2.855   7.339   7.476  1.0571 -1.0990 -0.7521
 9797SOL    HW229947   2.894   7.226   7.568  1.5394 -0.3250  0.0099
 9798SOL     OW29948   1.548   4.063   4.920 -0.0648  0.2192  0.2381
 9798SOL    HW129949   1.503   3.985   4.887  1.1503 -0.1799 -0.5597
 9798SOL    HW229950   1.582   4.035   5.006 -2.5404  1.0033  1.5602
 9799SOL     OW29951   1.491   1.563   2.320  0.1081 -0.3441 -0.4866
 9799SOL    HW129952   1.429   1.557   2.248 -1.1087 -0.4363  0.5275
 9799SOL    HW229953   1.558   1.624   2.289 -0.8216  0.2537 -1.3940
 9800SOL     OW29954   3.735   7.223   2.409 -0.3826  0.0950 -0.3839
 9800SOL    HW129955   3.825   7.224   2.443 -0.6620 -0.0655  0.3771
 9800SOL    HW229956   3.682   7.256   2.481 -0.8584  0.8786 -1.0748
 9801SOL     OW29957   0.417   1.711   5.926  0.3946  0.3790 -0.0188
 9801SOL    HW129958   0.468   1.752   5.996  0.2571 -0.7165  0.7490
 9801SOL    HW229959   0.460   1.626   5.913  0.3971  0.5606 -1.2551
 9802SOL     OW29960   5.434   6.091   7.515  0.3393  0.5485 -0.5047
 9802SOL    HW129961   5.407   6.179   7.540 -0.1657  0.2746 -0.0423
 9802SOL    HW229962   5.351   6.045   7.498  0.6494  0.6430 -2.4575
 9803SOL     OW29963   3.585   5.390   6.585  0.4262 -0.0748  0.3262
 9803SOL    HW129964   3.648   5.431   6.644 -1.6177  2.2027  1.1274
 9803SOL    HW229965   3.542   5.463   6.541  1.3937 -1.6591 -3.6358
 9804SOL     OW29966   6.727   6.285   7.658 -0.4469  0.1697 -0.4331
 9804SOL    HW129967   6.766   6.363   7.617 -3.3894  1.7592 -0.4527
 9804SOL    HW229968   6.639   6.312   7.683 -0.6733 -2.4090  2.0508
 9805SOL     OW29969   7.714   2.195   5.669  0.5236 -0.4219 -0.2697
 9805SOL    HW129970   7.775   2.121   5.666 -0.7836 -1.4998 -1.8295
 9805SOL    HW229971   7.628   2.155   5.674 -0.2787  0.9475 -2.0342
 9806SOL     OW29972   6.300   1.749   3.076 -0.7552 -0.1296 -0.1459
 9806SOL    HW129973   6.317   1.819   3.139  0.6402 -2.1761  1.9321
 9806SOL    HW229974   6.218   1.774   3.034 -0.4639  2.5743  0.6892
 9807SOL     OW29975   5.404   7.224   7.525 -0.8684  0.1151 -0.1097
 9807SOL    HW129976   5.412   7.132   7.549  0.0759  0.2245  0.0590
 9807SOL    HW229977   5.320   7.230   7.480 -0.8183 -0.8890 -0.3743
 9808SOL     OW29978   7.702   0.930   7.754  0.2275 -0.0996  0.1890
 9808SOL    HW129979   7.654   0.856   7.792  0.8538 -1.5681 -1.7630
 9808SOL    HW229980   7.786   0.931   7.800  0.1789 -0.5231  0.2876
 9809SOL     OW29981   3.759   2.791   1.553  0.3191  0.7614 -0.0987
 9809SOL    HW129982   3.773   2.885   1.570  0.2758  1.2646 -2.4758
 9809SOL    HW229983   3.828   2.767   1.492  1.7079 -1.3929  2.1555
 9810SOL     OW29984   0.075   5.705   6.399 -0.2620 -0.3647  0.1125
 9810SOL    HW129985   0.033   5.652   6.332 -2.5326  0.8980  0.4054
 9810SOL    HW229986   0.037   5.674   6.482  1.1094 -0.6774  0.6466
 9811SOL     OW29987   2.657   2.220   7.313 -0.2976 -0.6638 -0.1550
 9811SOL    HW129988   2.704   2.157   7.369  0.1025 -1.0013 -0.8550
 9811SOL    HW229989   2.650   2.298   7.367  0.3055 -0.9009  0.2881
 9812SOL     OW29990   2.778   5.323   4.626  0.2681  0.0651  0.7355
 9812SOL    HW129991   2.746   5.406   4.591  0.6300  0.2337  0.8004
 9812SOL    HW229992   2.729   5.312   4.708 -0.2575 -0.1131  0.3973
 9813SOL     OW29993   6.217   0.967   3.975 -0.2889 -0.1399  0.2649
 9813SOL    HW129994   6.280   0.959   3.903  1.4189  1.2494  1.5359
 9813SOL    HW229995   6.213   0.879   4.012  0.2754 -0.4300 -0.3281
 9814SOL     OW29996   6.603   7.413   6.268 -0.1940  0.0888  0.0028
 9814SOL    HW129997   6.517   7.390   6.304  1.1701 -0.5244  3.1556
 9814SOL    HW229998   6.637   7.331   6.232 -0.5960  0.1900 -0.6405
 9815SOL     OW29999   6.532   3.953   6.499 -0.0172  0.2461  0.0541
 9815SOL    HW130000   6.509   4.045   6.487 -1.1141  0.2703  2.0004
 9815SOL    HW230001   6.622   3.946   6.468 -0.3488  1.6743 -1.3371
 9816SOL     OW30002   0.668   2.614   6.120 -0.6863  0.4734  0.2771
 9816SOL    HW130003   0.730   2.636   6.050 -0.8187 -0.7947 -0.2816
 9816SOL    HW230004   0.582   2.639   6.086 -0.6631  0.6083  0.3193
 9817SOL     OW30005   4.936   1.978   2.007  0.0329  0.1728 -0.1385
 9817SOL    HW130006   4.930   2.073   1.998  0.9081  0.1329 -1.4682
 9817SOL    HW230007   4.959   1.947   1.920  0.4254 -1.2052  0.4214
 9818SOL     OW30008   2.643   7.486   2.825  0.0487 -0.5767  0.5558
 9818SOL    HW130009   2.562   7.435   2.835 -0.1830 -0.4921 -0.6440
 9818SOL    HW230010   2.619   7.575   2.852 -0.0396 -0.7299  0.9795
 9819SOL     OW30011   0.838   0.623   4.383 -0.5423  0.1921 -0.1571
 9819SOL    HW130012   0.838   0.528   4.397  0.3435 -0.2708 -2.7941
 9819SOL    HW230013   0.901   0.656   4.447  0.8060 -1.2937 -0.6617
 9820SOL     OW30014   5.584   0.348   0.659  0.2582  0.1789 -0.0788
 9820SOL    HW130015   5.589   0.256   0.632 -0.2266 -0.4827  1.9181
 9820SOL    HW230016   5.491   0.370   0.650  0.4979  0.7623 -1.3395
 9821SOL     OW30017   3.477   1.097   2.374 -0.2536 -0.1225  0.3063
 9821SOL    HW130018   3.404   1.112   2.434 -0.1915  1.6727 -0.0231
 9821SOL    HW230019   3.471   1.004   2.352 -2.2959 -0.0740  0.4656
 9822SOL     OW30020   3.404   5.188   0.030  0.2269 -0.5422  0.0940
 9822SOL    HW130021   3.446   5.230   0.106  0.1520 -0.7035  0.2261
 9822SOL    HW230022   3.314   5.219   0.034  0.0004 -1.2466  0.5856
 9823SOL     OW30023   2.860   5.385   7.389  0.3720 -0.3394 -0.2580
 9823SOL    HW130024   2.847   5.341   7.472  1.9396 -1.0581 -0.3479
 9823SOL    HW230025   2.866   5.478   7.411  0.4241 -0.4916  0.3805
 9824SOL     OW30026   0.532   0.660   5.980  0.3869 -0.2376  0.4433
 9824SOL    HW130027   0.554   0.751   5.962  1.7536 -0.4499  0.9430
 9824SOL    HW230028   0.454   0.665   6.035  0.5434  0.6321  0.6041
 9825SOL     OW30029   0.718   7.361   3.629  0.2048 -0.6531 -0.2251
 9825SOL    HW130030   0.756   7.437   3.674 -1.0683 -0.6744  0.9316
 9825SOL    HW230031   0.658   7.400   3.566  0.5273 -0.6781 -0.5513
 9826SOL     OW30032   7.489   4.444   3.427 -0.0149 -0.3246  0.7082
 9826SOL    HW130033   7.408   4.496   3.438  0.4847  0.2169  2.0543
 9826SOL    HW230034   7.552   4.507   3.393  0.6608  0.0794  2.5753
 9827SOL     OW30035   6.166   3.262   3.571  0.1527 -0.2173 -0.3919
 9827SOL    HW130036   6.252   3.284   3.534 -0.0318  0.8752 -0.2221
 9827SOL    HW230037   6.184   3.249   3.664  0.0336  0.6996 -0.2337
 9828SOL     OW30038   5.220   1.486   6.338 -0.5301  0.1836 -0.0886
 9828SOL    HW130039   5.167   1.429   6.282 -1.0514 -1.3628  1.8721
 9828SOL    HW230040   5.190   1.467   6.427  0.4734  2.3218  0.7776
 9829SOL     OW30041   0.094   3.819   0.919  0.3571 -0.3664  0.1634
 9829SOL    HW130042   0.083   3.745   0.860 -0.7626  0.6563 -0.9666
 9829SOL    HW230043   0.013   3.869   0.912 -0.2706 -0.6789  3.3488
 9830SOL     OW30044   1.050   7.748   4.283 -0.7318 -0.0451 -0.0657
 9830SOL    HW130045   0.997   7.826   4.269 -2.4036 -0.8914  1.1451
 9830SOL    HW230046   1.063   7.711   4.196  0.7976  1.9692 -0.7544
 9831SOL     OW30047   2.834   2.552   7.195 -0.1271  0.2062 -0.0551
 9831SOL    HW130048   2.869   2.603   7.268 -1.3498 -0.7057  1.2099
 9831SOL    HW230049   2.743   2.581   7.187 -0.3557 -0.5828 -0.3950
 9832SOL     OW30050   5.416   4.278   6.718  0.3668 -0.3702 -0.3633
 9832SOL    HW130051   5.488   4.337   6.739  0.6133 -1.4095  2.0227
 9832SOL    HW230052   5.337   4.326   6.742  0.5417 -0.7583  1.0890
 9833SOL     OW30053   7.031   2.283   5.819  0.2424 -0.4870  0.5535
 9833SOL    HW130054   6.995   2.227   5.750  1.7183 -0.7972 -0.0146
 9833SOL    HW230055   7.104   2.232   5.855  1.3023  0.8548  0.3797
 9834SOL     OW30056   7.746   2.062   6.715 -0.8718  0.5799  0.3006
 9834SOL    HW130057   7.812   2.054   6.784 -0.3849  0.8404 -0.1334
 9834SOL    HW230058   7.669   2.097   6.761 -1.1911 -1.0352  1.0838
 9835SOL     OW30059   6.063   4.897   5.112 -0.2294 -0.0587  0.2753
 9835SOL    HW130060   6.003   4.949   5.166 -0.4933 -1.3550  1.2844
 9835SOL    HW230061   6.149   4.914   5.149 -0.0549  1.0771 -0.5856
 9836SOL     OW30062   4.647   7.363   5.241  0.2064  0.1156 -0.6741
 9836SOL    HW130063   4.716   7.381   5.305  1.1458 -0.4587 -1.4915
 9836SOL    HW230064   4.616   7.276   5.262  0.8268 -0.2562 -1.2506
 9837SOL     OW30065   1.633   7.605   6.218  0.2807 -0.1224  0.0668
 9837SOL    HW130066   1.607   7.530   6.165 -0.1645  0.6117 -0.7862
 9837SOL    HW230067   1.583   7.678   6.182 -0.6720  0.2531  2.0448
 9838SOL     OW30068   1.320   1.938   7.733 -0.0536  0.0058  0.1323
 9838SOL    HW130069   1.386   1.985   7.682 -0.3208 -0.8392 -1.0127
 9838SOL    HW230070   1.241   1.992   7.725 -0.2666 -0.4440 -0.8919
 9839SOL     OW30071   4.826   2.435   0.752  0.2726  0.4154 -0.2362
 9839SOL    HW130072   4.853   2.526   0.739 -1.5243  0.8609 -1.1629
 9839SOL    HW230073   4.901   2.394   0.796  1.1067  2.3322  0.2401
 9840SOL     OW30074   5.414   6.053   1.602 -0.1240 -0.1341  0.7459
 9840SOL    HW130075   5.496   6.085   1.564 -0.7824  1.2667  0.4419
 9840SOL    HW230076   5.411   6.093   1.689 -1.8392  2.3130 -0.3127
 9841SOL     OW30077   0.597   1.733   6.130 -0.1781  0.5837 -0.0038
 9841SOL    HW130078   0.627   1.771   6.212 -1.8040 -0.8811  1.3424
 9841SOL    HW230079   0.618   1.640   6.138 -2.1501  0.0711 -0.3496
 9842SOL     OW30080   4.652   6.289   0.222  0.1640  0.2982 -0.1641
 9842SOL    HW130081   4.631   6.197   0.239  0.2363  0.2288 -0.4471
 9842SOL    HW230082   4.573   6.337   0.247  0.4838  0.2677  0.9937
 9843SOL     OW30083   5.479   5.315   2.190  0.2561  0.0460  0.3911
 9843SOL    HW130084   5.516   5.374   2.256 -2.2371  1.3986  0.7041
 9843SOL    HW230085   5.470   5.369   2.112  0.6048 -0.7693 -0.2286
 9844SOL     OW30086   3.810   5.957   2.327  0.1284 -0.2186 -0.1645
 9844SOL    HW130087   3.847   6.019   2.264  1.0253 -0.5118  0.0616
 9844SOL    HW230088   3.886   5.920   2.372 -0.4471 -0.7902  0.3583
 9845SOL     OW30089   4.035   4.235   3.488 -0.3242 -0.2184  0.2454
 9845SOL    HW130090   3.948   4.238   3.448 -0.7742  1.3214  1.2701
 9845SOL    HW230091   4.095   4.247   3.415 -1.1676  4.1848  0.0033
 9846SOL     OW30092   5.324   6.268   2.309  0.2297 -0.2905 -1.1313
 9846SOL    HW130093   5.396   6.273   2.372 -1.6019  0.9515  1.0183
 9846SOL    HW230094   5.350   6.199   2.249  2.5959 -0.8043  0.3315
 9847SOL     OW30095   0.448   5.903   6.114  0.1894  0.4666 -0.0872
 9847SOL    HW130096   0.449   5.960   6.037 -0.6225  0.4492 -0.1172
 9847SOL    HW230097   0.371   5.848   6.103  1.9554 -1.9922 -1.0188
 9848SOL     OW30098   6.952   2.568   1.903 -0.0828  0.2438  0.0895
 9848SOL    HW130099   7.038   2.577   1.862 -0.3904 -1.4826 -1.0404
 9848SOL    HW230100   6.967   2.510   1.977 -0.0335  1.1716  0.8323
 9849SOL     OW30101   0.941   5.804   6.222  0.0224 -0.3747  0.2482
 9849SOL    HW130102   0.974   5.719   6.192 -2.0570 -1.4638  0.8475
 9849SOL    HW230103   0.858   5.815   6.175 -0.4971  0.5784  1.3461
 9850SOL     OW30104   2.518   1.457   1.337  0.6846 -0.5880 -0.2816
 9850SOL    HW130105   2.603   1.491   1.309  0.5194 -0.1796 -0.2812
 9850SOL    HW230106   2.533   1.427   1.427  0.6907 -0.0049 -0.0844
 9851SOL     OW30107   0.253   5.449   4.219 -0.2500  0.4815  0.1975
 9851SOL    HW130108   0.173   5.412   4.255 -0.4856  0.2702 -0.5209
 9851SOL    HW230109   0.227   5.532   4.180 -0.0170  0.6643  0.4265
 9852SOL     OW30110   7.495   6.343   3.857 -0.0466 -0.4509  0.1536
 9852SOL    HW130111   7.512   6.249   3.852  1.7394 -0.1283 -0.4941
 9852SOL    HW230112   7.576   6.380   3.889  0.3817  1.1493 -2.4620
 9853SOL     OW30113   6.970   6.870   0.727 -0.3349 -0.2540 -0.2112
 9853SOL    HW130114   6.916   6.841   0.654  0.4370  0.9047 -1.2913
 9853SOL    HW230115   6.923   6.946   0.763 -0.9399 -1.0863  0.8148
 9854SOL     OW30116   4.846   0.486   6.453  0.2294 -0.1430 -0.3805
 9854SOL    HW130117   4.917   0.424   6.471 -0.2130 -0.0770  1.8237
 9854SOL    HW230118   4.890   0.570   6.442  0.5824 -0.2960 -0.1585
 9855SOL     OW30119   1.730   0.680   6.166  0.4539  0.0313 -0.0309
 9855SOL    HW130120   1.757   0.621   6.236 -0.8237  0.3583  0.7729
 9855SOL    HW230121   1.638   0.659   6.152  0.9094 -0.7159 -2.3264
 9856SOL     OW30122   5.221   6.618   6.400  0.4486  0.4880  0.0946
 9856SOL    HW130123   5.308   6.588   6.427  0.3505 -0.0164 -0.1291
 9856SOL    HW230124   5.215   6.708   6.432  0.6822  0.2052  0.9691
 9857SOL     OW30125   5.568   5.549   0.772  0.4328 -0.1561 -0.4378
 9857SOL    HW130126   5.498   5.489   0.744  0.0655  0.2677 -0.4407
 9857SOL    HW230127   5.649   5.504   0.749  0.2110 -1.4242  1.0755
 9858SOL     OW30128   6.616   4.453   1.233 -0.2706  0.1730 -0.7044
 9858SOL    HW130129   6.541   4.503   1.203  0.2382  0.3491 -1.7406
 9858SOL    HW230130   6.692   4.503   1.202  0.2663 -0.1382  0.0851
 9859SOL     OW30131   3.815   6.160   4.773  0.2505  0.4456 -0.1307
 9859SOL    HW130132   3.905   6.185   4.796  0.0181  1.5128 -0.3498
 9859SOL    HW230133   3.824   6.072   4.737  1.0055 -0.0679  1.2299
 9860SOL     OW30134   6.520   0.186   7.670  0.6851 -0.0746  0.1844
 9860SOL    HW130135   6.450   0.135   7.629  0.0907  0.6222  0.2995
 9860SOL    HW230136   6.474   0.241   7.734  1.4195 -0.0570  0.7078
 9861SOL     OW30137   3.733   0.849   2.029  0.0650 -0.1108  0.0763
 9861SOL    HW130138   3.807   0.795   2.000  0.2140  0.6691 -1.0815
 9861SOL    HW230139   3.694   0.800   2.101  1.1904 -0.9534  0.1351
 9862SOL     OW30140   6.703   2.894   2.442 -0.2898  0.2388 -0.1127
 9862SOL    HW130141   6.652   2.848   2.376  0.0373  0.4778 -0.5366
 9862SOL    HW230142   6.680   2.852   2.524  0.3784 -1.0256 -0.5489
 9863SOL     OW30143   2.398   6.483   0.429 -0.2416 -0.3032 -0.2050
 9863SOL    HW130144   2.383   6.448   0.517 -0.9988 -0.4963 -0.3952
 9863SOL    HW230145   2.470   6.545   0.438 -1.3831  0.9269  0.8812
 9864SOL     OW30146   0.578   0.251   4.602 -0.7320 -0.3665  0.5966
 9864SOL    HW130147   0.587   0.320   4.537 -0.1651  0.7363  1.8135
 9864SOL    HW230148   0.506   0.197   4.570 -0.7876  0.4372 -0.6770
 9865SOL     OW30149   6.841   6.968   7.033 -0.1622  0.2230 -0.0918
 9865SOL    HW130150   6.842   6.874   7.014 -1.7188 -0.0875  1.1498
 9865SOL    HW230151   6.773   7.003   6.975 -0.7425  0.2868  0.6182
 9866SOL     OW30152   7.433   4.878   6.053 -0.3927  0.2701 -0.2068
 9866SOL    HW130153   7.439   4.801   5.997  2.5256 -0.6209  1.1473
 9866SOL    HW230154   7.503   4.936   6.023 -0.2918  0.8194  1.0383
 9867SOL     OW30155   0.584   2.715   6.673 -0.6284  0.2719  0.5297
 9867SOL    HW130156   0.658   2.684   6.726 -0.1427 -1.4315 -1.0467
 9867SOL    HW230157   0.507   2.676   6.715 -0.2242 -1.2916 -0.1456
 9868SOL     OW30158   2.457   5.318   3.674  0.4766  0.1214 -0.4592
 9868SOL    HW130159   2.428   5.285   3.759  2.4514 -2.3439 -0.6304
 9868SOL    HW230160   2.409   5.400   3.662  0.4138  0.7620  3.1866
 9869SOL     OW30161   0.014   0.236   2.848  0.2831 -0.7152  0.3987
 9869SOL    HW130162   0.011   0.278   2.935  0.8238  0.0048  0.0829
 9869SOL    HW230163  -0.078   0.226   2.823  0.1208  1.3922 -0.0237
 9870SOL     OW30164   5.385   7.441   4.179  0.4359  0.2057  0.5395
 9870SOL    HW130165   5.352   7.519   4.224  0.9700  0.9157 -0.2581
 9870SOL    HW230166   5.333   7.436   4.099  0.0662 -0.5570  0.8175
 9871SOL     OW30167   0.724   1.192   1.394  0.4745 -0.4988 -0.1922
 9871SOL    HW130168   0.698   1.266   1.339  0.5603  0.4622  1.0226
 9871SOL    HW230169   0.680   1.116   1.354  1.2666 -0.0169 -2.1102
 9872SOL     OW30170   0.408   7.685   6.635  0.1272 -0.0578  0.1107
 9872SOL    HW130171   0.366   7.713   6.554 -0.6443  0.0997  0.5616
 9872SOL    HW230172   0.445   7.599   6.614  1.9133  0.9282 -1.0766
 9873SOL     OW30173   5.589   4.742   7.501  0.2975 -0.4225  0.1941
 9873SOL    HW130174   5.662   4.711   7.554  0.3028  1.3369  1.2642
 9873SOL    HW230175   5.512   4.701   7.540  0.6298 -2.0724 -0.7753
 9874SOL     OW30176   4.792   3.042   5.405  0.7073  0.2570 -0.0181
 9874SOL    HW130177   4.832   3.025   5.320 -1.4114 -0.1943 -0.9932
 9874SOL    HW230178   4.721   3.103   5.386 -1.5171 -1.8828  0.9238
 9875SOL     OW30179   3.218   4.405   1.092  0.5996 -0.3869  0.4132
 9875SOL    HW130180   3.135   4.357   1.092 -0.1392  0.8427  0.0962
 9875SOL    HW230181   3.216   4.455   1.173 -0.1624  1.5663 -0.7383
 9876SOL     OW30182   5.546   6.500   0.109 -0.4570 -0.2305  0.8091
 9876SOL    HW130183   5.494   6.420   0.116  0.8992 -1.1363  0.9391
 9876SOL    HW230184   5.583   6.511   0.197  2.7483 -1.8935 -0.1864
 9877SOL     OW30185   5.634   1.493   2.085  0.4328 -0.8442 -0.1777
 9877SOL    HW130186   5.629   1.399   2.103 -1.5579 -0.5078  1.4933
 9877SOL    HW230187   5.672   1.531   2.164  0.2543 -0.1619 -0.4086
 9878SOL     OW30188   6.009   2.645   6.341 -0.7885 -0.4302  0.2653
 9878SOL    HW130189   5.930   2.674   6.295 -0.3102  0.9664  0.2603
 9878SOL    HW230190   6.072   2.625   6.272 -0.3218  0.9354  0.2547
 9879SOL     OW30191   0.214   3.596   3.586  0.8281  0.1372 -0.2633
 9879SOL    HW130192   0.216   3.622   3.679 -1.3280 -0.3451 -0.0416
 9879SOL    HW230193   0.186   3.675   3.540 -0.9055 -0.3894 -0.1520
 9880SOL     OW30194   0.650   2.434   5.443 -0.5552  0.3703 -0.0844
 9880SOL    HW130195   0.735   2.452   5.484 -1.1326  0.9436  0.8965
 9880SOL    HW230196   0.645   2.338   5.441 -0.7126  0.3020  1.6887
 9881SOL     OW30197   0.005   5.589   6.991 -0.1436 -0.1526 -0.2631
 9881SOL    HW130198  -0.017   5.643   7.068  0.2355 -0.4467  0.0578
 9881SOL    HW230199   0.100   5.584   6.992 -0.1642 -0.6675 -0.4005
 9882SOL     OW30200   7.603   1.359   2.059  0.1245 -0.5415  0.7369
 9882SOL    HW130201   7.600   1.411   2.139  3.0396  2.6813 -1.0120
 9882SOL    HW230202   7.532   1.394   2.005  0.5456 -0.0467  0.4966
 9883SOL     OW30203   6.597   3.775   6.188  0.4663 -0.1109  0.1033
 9883SOL    HW130204   6.676   3.721   6.184  0.4294 -0.0707 -2.7264
 9883SOL    HW230205   6.628   3.860   6.219  0.9378 -0.9484  2.1168
 9884SOL     OW30206   0.316   4.475   2.357  0.6414 -0.1443  0.0468
 9884SOL    HW130207   0.322   4.397   2.412  2.0184  1.0924  1.7807
 9884SOL    HW230208   0.301   4.547   2.419  0.7925  1.1381 -1.3454
 9885SOL     OW30209   4.810   6.666   0.923 -0.3320 -0.0990 -0.4862
 9885SOL    HW130210   4.736   6.702   0.973 -0.8482 -0.7240 -0.7740
 9885SOL    HW230211   4.866   6.741   0.906 -0.9414  0.4072 -0.3200
 9886SOL     OW30212   3.215   2.594   2.419  0.0896  0.0742 -0.6080
 9886SOL    HW130213   3.189   2.686   2.422 -2.0614 -0.5058  0.7184
 9886SOL    HW230214   3.185   2.563   2.334 -2.4536 -0.1970  0.2991
 9887SOL     OW30215   5.448   0.091   0.466 -0.0097  0.1054 -0.7666
 9887SOL    HW130216   5.420   0.050   0.384  0.0598 -1.4596 -0.0271
 9887SOL    HW230217   5.368   0.132   0.501 -0.2231  0.0456 -1.1808
 9888SOL     OW30218   4.814   4.911   6.437 -0.2153 -0.3734 -1.0544
 9888SOL    HW130219   4.839   4.911   6.530  0.5973  0.3146 -1.2663
 9888SOL    HW230220   4.729   4.955   6.435  0.5874  1.2418 -0.8380
 9889SOL     OW30221   4.432   0.406   5.275  0.1467 -0.2220 -0.5332
 9889SOL    HW130222   4.526   0.417   5.257  0.5672 -0.1867  1.4336
 9889SOL    HW230223   4.401   0.494   5.293  0.7513 -0.5580  2.9507
 9890SOL     OW30224   4.222   0.369   1.603  0.5364 -0.0597  0.6840
 9890SOL    HW130225   4.254   0.344   1.516 -1.8513  0.2181 -0.3769
 9890SOL    HW230226   4.254   0.458   1.615  0.9140 -0.1063  0.0863
 9891SOL     OW30227   1.340   4.030   1.433 -0.1253  0.2369  0.3444
 9891SOL    HW130228   1.374   4.033   1.344  0.9307  3.7936  0.7207
 9891SOL    HW230229   1.262   4.085   1.431  0.3532  1.0297  1.7327
 9892SOL     OW30230   3.820   5.058   5.925  0.2828 -0.3106  0.2299
 9892SOL    HW130231   3.889   5.005   5.964  1.0887  1.0436  0.6704
 9892SOL    HW230232   3.855   5.146   5.921 -0.5268 -0.0131 -1.7199
 9893SOL     OW30233   3.019   6.011   5.413  0.1118  0.3866  0.0817
 9893SOL    HW130234   2.975   5.993   5.330  2.3463 -0.6212 -0.9596
 9893SOL    HW230235   3.072   6.089   5.395 -0.2911  0.8805  0.9604
 9894SOL     OW30236   1.037   7.720   1.892 -0.2981 -0.7384  0.2432
 9894SOL    HW130237   1.049   7.625   1.900  1.2069 -0.6367 -0.4086
 9894SOL    HW230238   0.986   7.731   1.812  0.7725 -0.9639 -0.4920
 9895SOL     OW30239   1.835   3.138   5.239  0.0021  0.3481 -0.3569
 9895SOL    HW130240   1.928   3.125   5.255 -0.3531 -1.5273  0.5443
 9895SOL    HW230241   1.798   3.159   5.325 -0.3847  1.2876 -0.7439
 9896SOL     OW30242   4.333   6.237   3.382 -0.1707  0.8131  0.1015
 9896SOL    HW130243   4.349   6.274   3.469 -1.5054  1.2173  0.2045
 9896SOL    HW230244   4.267   6.295   3.343 -0.3727  0.0339 -0.7665
 9897SOL     OW30245   7.568   4.818   1.105 -0.0099 -0.0081 -0.0262
 9897SOL    HW130246   7.559   4.777   1.191 -2.9377 -1.4104 -0.8587
 9897SOL    HW230247   7.662   4.817   1.088  0.3755 -5.0115  0.7893
 9898SOL     OW30248   6.040   7.524   0.852  0.5140  0.4309  0.2504
 9898SOL    HW130249   6.053   7.619   0.858  1.6549  0.4652 -1.7548
 9898SOL    HW230250   6.090   7.488   0.925 -0.9196  1.3933  1.7755
 9899SOL     OW30251   7.199   1.621   4.910  0.8903  0.3905  0.4006
 9899SOL    HW130252   7.230   1.535   4.882  1.2922  1.0784 -1.3488
 9899SOL    HW230253   7.158   1.604   4.995 -0.2950 -1.7771 -0.5160
 9900SOL     OW30254   7.088   3.494   3.704 -0.0912  0.0981  0.5051
 9900SOL    HW130255   7.027   3.567   3.702 -0.0402  0.1278 -0.0802
 9900SOL    HW230256   7.083   3.455   3.616  0.9508  0.2925  0.3472
 9901SOL     OW30257   1.778   0.812   5.840  0.3856 -0.0124  0.2214
 9901SOL    HW130258   1.700   0.805   5.895 -0.2103  2.5045 -0.2008
 9901SOL    HW230259   1.749   0.779   5.754  0.6138 -1.5939  0.7094
 9902SOL     OW30260   4.326   0.514   4.259 -0.5708  0.3125 -0.4287
 9902SOL    HW130261   4.293   0.570   4.189  3.4742  2.5374 -0.8110
 9902SOL    HW230262   4.375   0.445   4.214 -0.0446  0.2819  0.1814
 9903SOL     OW30263   6.003   6.751   5.790 -0.0277  0.2902  0.5200
 9903SOL    HW130264   5.970   6.832   5.829 -0.2851  0.7040 -0.5367
 9903SOL    HW230265   5.930   6.718   5.738  0.5905  0.2098 -0.3164
 9904SOL     OW30266   5.994   6.370   7.525  0.1513  0.3916 -0.1589
 9904SOL    HW130267   5.926   6.429   7.557 -0.5270 -1.0397  1.1491
 9904SOL    HW230268   5.953   6.320   7.454  0.6999  1.3862 -1.2095
 9905SOL     OW30269   7.106   3.232   5.572  0.0602  0.3491 -0.2800
 9905SOL    HW130270   7.146   3.167   5.628 -0.1298 -0.0255 -0.5748
 9905SOL    HW230271   7.012   3.223   5.587  0.0325  0.5559 -0.3213
 9906SOL     OW30272   3.103   2.500   1.860  0.0127  0.1837  0.3965
 9906SOL    HW130273   3.196   2.482   1.842  0.5872  0.2828  2.9248
 9906SOL    HW230274   3.056   2.427   1.821  1.2014 -0.1969 -0.3732
 9907SOL     OW30275   0.872   2.520   1.584 -0.3694  0.4374 -0.4246
 9907SOL    HW130276   0.858   2.612   1.606 -1.4644  0.0896  0.4485
 9907SOL    HW230277   0.787   2.488   1.555  0.1303 -0.1658 -1.2837
 9908SOL     OW30278   5.413   4.953   1.269  0.8368  0.0476  0.3090
 9908SOL    HW130279   5.502   4.919   1.264  0.5109 -0.8799  0.5792
 9908SOL    HW230280   5.413   5.031   1.213  1.4726 -0.7095 -0.7721
 9909SOL     OW30281   4.862   6.944   3.181 -0.0984  0.2009 -0.2157
 9909SOL    HW130282   4.803   6.929   3.255 -0.0368  1.2202  0.0644
 9909SOL    HW230283   4.838   7.031   3.149 -0.3352 -0.3549 -1.6172
 9910SOL     OW30284   0.294   2.579   1.556  0.3557  0.1407  0.2339
 9910SOL    HW130285   0.207   2.581   1.595  0.6334  1.0028  0.8560
 9910SOL    HW230286   0.298   2.496   1.510 -1.6741  1.0859 -1.8584
 9911SOL     OW30287   2.856   4.978   4.754  0.5264 -0.0481  0.1351
 9911SOL    HW130288   2.773   4.971   4.802 -1.1893 -0.1641 -2.6247
 9911SOL    HW230289   2.900   5.053   4.794 -0.5199 -0.4514  2.1905
 9912SOL     OW30290   0.334   5.799   0.418  0.1905 -0.8656 -0.4213
 9912SOL    HW130291   0.266   5.747   0.377 -0.5793  0.0439 -0.3362
 9912SOL    HW230292   0.323   5.887   0.381  0.2020 -0.3016  0.8591
 9913SOL     OW30293   5.158   4.772   7.570  0.3698 -0.5841  0.1609
 9913SOL    HW130294   5.180   4.826   7.494 -0.6621  0.2558  0.4320
 9913SOL    HW230295   5.241   4.735   7.599  1.1499  1.0759  0.1174
 9914SOL     OW30296   4.475   2.652   4.433 -0.4904 -0.4733 -0.2820
 9914SOL    HW130297   4.539   2.594   4.475 -0.3253  0.6145  1.0156
 9914SOL    HW230298   4.521   2.687   4.356  0.2601 -0.1706  0.2990
 9915SOL     OW30299   2.201   5.464   1.768 -0.0632  0.1125 -0.8271
 9915SOL    HW130300   2.251   5.520   1.709 -1.6230  1.6210 -0.8062
 9915SOL    HW230301   2.126   5.518   1.795  0.2724 -0.7259  2.1004
 9916SOL     OW30302   5.500   2.204   5.235  0.4407  0.5611 -0.0776
 9916SOL    HW130303   5.518   2.123   5.187  3.8231  1.6660 -0.9677
 9916SOL    HW230304   5.510   2.273   5.169 -0.1458  1.8192  1.1088
 9917SOL     OW30305   2.334   5.778   3.475 -0.0447 -0.0509  0.0511
 9917SOL    HW130306   2.405   5.791   3.411  1.1596  0.5475  1.4506
 9917SOL    HW230307   2.286   5.860   3.475  1.4250  0.8823  1.5889
 9918SOL     OW30308   5.057   1.615   4.699  0.1050  0.2648  0.4839
 9918SOL    HW130309   5.105   1.535   4.677 -0.9773 -0.3116  0.1009
 9918SOL    HW230310   5.085   1.679   4.633  0.8355  0.1397  0.6738
 9919SOL     OW30311   5.440   0.210   2.009  0.0138 -0.6705  0.0265
 9919SOL    HW130312   5.512   0.162   1.968  0.2753 -2.0643  2.0070
 9919SOL    HW230313   5.479   0.248   2.088 -0.7296  1.0473 -0.3988
 9920SOL     OW30314   4.988   3.596   3.300  0.2422 -0.3515  0.4760
 9920SOL    HW130315   4.942   3.677   3.319  1.5002  0.7182 -0.8718
 9920SOL    HW230316   4.919   3.534   3.276 -0.6038  0.7687 -0.0328
 9921SOL     OW30317   6.016   2.744   0.949  0.2971 -0.4170 -0.1589
 9921SOL    HW130318   5.986   2.779   0.865  0.9640 -0.1537 -0.2944
 9921SOL    HW230319   5.942   2.691   0.980 -0.0747 -0.2718 -0.7627
 9922SOL     OW30320   2.522   5.338   2.661  0.1426 -0.4235 -0.3574
 9922SOL    HW130321   2.524   5.330   2.566  1.2191 -0.2329 -0.3667
 9922SOL    HW230322   2.504   5.431   2.677  2.5777  0.1462 -0.4446
 9923SOL     OW30323   0.645   6.257   6.256 -0.0648 -0.7505 -0.4657
 9923SOL    HW130324   0.703   6.278   6.329  0.1765  2.0435 -1.3304
 9923SOL    HW230325   0.566   6.223   6.297 -0.2056  1.3495  1.2254
 9924SOL     OW30326   6.851   3.022   2.242 -0.1232  0.3474 -0.0859
 9924SOL    HW130327   6.791   3.003   2.170  1.3498 -1.8564 -0.8573
 9924SOL    HW230328   6.832   2.955   2.308  1.4989 -0.4591 -0.3951
 9925SOL     OW30329   5.830   6.398   5.700  0.0676 -0.5114  0.2043
 9925SOL    HW130330   5.913   6.446   5.704 -0.5023  0.4207  3.0131
 9925SOL    HW230331   5.772   6.455   5.650 -0.1036  1.0639  2.0687
 9926SOL     OW30332   0.921   7.639   3.453 -0.1417 -0.5916  0.2400
 9926SOL    HW130333   1.016   7.628   3.453  0.0980  1.1741  0.2156
 9926SOL    HW230334   0.900   7.668   3.542 -0.0838  2.6977 -0.6615
 9927SOL     OW30335   7.246   5.472   3.760  0.2392  0.8039 -0.8129
 9927SOL    HW130336   7.171   5.480   3.700 -2.8255 -0.4735  2.4717
 9927SOL    HW230337   7.270   5.380   3.756  0.8927  0.9780 -1.0013
 9928SOL     OW30338   4.794   2.701   2.715 -0.0815  0.3296  0.2783
 9928SOL    HW130339   4.863   2.702   2.782 -0.1329  0.5540  0.3314
 9928SOL    HW230340   4.840   2.711   2.632 -0.0004 -0.1711  0.2648
 9929SOL     OW30341   7.112   5.166   3.350 -0.5669  0.4001 -0.3000
 9929SOL    HW130342   7.091   5.142   3.440  0.4757  0.9825  0.1112
 9929SOL    HW230343   7.102   5.261   3.348  2.5214  0.8305  0.1103
 9930SOL     OW30344   5.173   4.922   3.725 -0.1060  0.5064  0.4208
 9930SOL    HW130345   5.139   5.011   3.729  0.7396  0.9770 -1.5415
 9930SOL    HW230346   5.234   4.923   3.652  1.2991 -1.2557  1.4962
 9931SOL     OW30347   3.296   1.341   5.547  0.1946 -0.7418  0.1280
 9931SOL    HW130348   3.338   1.408   5.601 -0.3503 -1.4001  1.4132
 9931SOL    HW230349   3.330   1.259   5.581 -1.2789 -1.2371  0.4735
 9932SOL     OW30350   5.638   7.079   6.094  0.5115 -0.4307 -0.3791
 9932SOL    HW130351   5.716   7.133   6.079 -1.2022  1.7797 -2.0765
 9932SOL    HW230352   5.601   7.112   6.176 -0.0000  0.3893 -0.9158
 9933SOL     OW30353   4.139   6.421   0.964  0.5526  0.3594  0.4976
 9933SOL    HW130354   4.055   6.428   1.010 -0.5254 -1.2438 -1.0830
 9933SOL    HW230355   4.170   6.512   0.958 -1.1458  1.0183  0.9875
 9934SOL     OW30356   3.036   6.601   4.727  0.0217 -0.2149 -0.2632
 9934SOL    HW130357   2.980   6.678   4.714  1.3425  0.6093 -1.3255
 9934SOL    HW230358   3.052   6.599   4.822 -1.5811 -0.3432  0.0403
 9935SOL     OW30359   2.111   4.586   5.511 -0.3664  0.0259  0.0980
 9935SOL    HW130360   2.108   4.510   5.453 -0.1194 -0.7301  1.0620
 9935SOL    HW230361   2.035   4.638   5.484 -0.7452 -0.7287 -0.3421
 9936SOL     OW30362   2.400   2.796   3.168  0.3588 -0.0546  0.3939
 9936SOL    HW130363   2.432   2.863   3.108  0.5343  0.0278  0.5769
 9936SOL    HW230364   2.382   2.843   3.249  0.8486 -0.2857  0.6445
 9937SOL     OW30365   3.493   5.926   6.600  0.4544 -0.2271 -0.1970
 9937SOL    HW130366   3.493   5.907   6.693  0.2511 -1.5583 -0.4498
 9937SOL    HW230367   3.407   5.964   6.583  0.4718 -0.0346  0.1449
 9938SOL     OW30368   3.243   4.294   4.714  0.3065 -0.1928 -0.5716
 9938SOL    HW130369   3.167   4.351   4.716  1.0094  0.7532  1.7970
 9938SOL    HW230370   3.305   4.339   4.656 -0.0873  0.1698 -0.7144
 9939SOL     OW30371   4.035   3.438   5.319 -0.2238  0.1429  0.2061
 9939SOL    HW130372   3.969   3.508   5.315 -1.4826 -1.0128  0.0591
 9939SOL    HW230373   4.035   3.400   5.231  1.5775  0.9294 -0.1605
 9940SOL     OW30374   4.011   4.733   5.870  0.3308 -0.3340 -0.2849
 9940SOL    HW130375   4.067   4.668   5.911  0.2635 -0.8758 -1.0328
 9940SOL    HW230376   4.021   4.811   5.924 -1.5413 -1.6318  2.1973
 9941SOL     OW30377   2.918   4.494   2.843  0.3370  0.0112  0.0287
 9941SOL    HW130378   2.936   4.403   2.818  0.2463 -0.2488  0.8989
 9941SOL    HW230379   2.830   4.510   2.809  0.1448 -0.3968  0.3221
 9942SOL     OW30380   3.536   1.766   2.924 -0.0915 -0.4163 -0.7488
 9942SOL    HW130381   3.606   1.750   2.988  0.7747  1.1954 -1.2469
 9942SOL    HW230382   3.503   1.853   2.946 -2.0595 -1.2021 -0.4502
 9943SOL     OW30383   2.438   4.827   3.801 -0.4211  0.4193  0.4828
 9943SOL    HW130384   2.408   4.739   3.781 -1.3124  0.3324  2.0675
 9943SOL    HW230385   2.533   4.823   3.793 -0.5390 -0.3333 -0.7248
 9944SOL     OW30386   3.489   4.051   5.175 -0.3251  0.5954 -0.0774
 9944SOL    HW130387   3.399   4.028   5.154 -0.3509  1.3385 -0.8316
 9944SOL    HW230388   3.522   4.095   5.097  0.0385  2.1820  0.9125
 9945SOL     OW30389   5.735   5.071   5.005  0.2792 -0.3357 -0.2699
 9945SOL    HW130390   5.757   5.054   5.096  1.5679  0.4458 -0.4192
 9945SOL    HW230391   5.647   5.109   5.008 -0.2660 -1.5817  0.5067
 9946SOL     OW30392   7.524   1.260   2.495 -0.1839 -0.1962 -0.4460
 9946SOL    HW130393   7.550   1.325   2.430  1.6443  0.2941  0.6843
 9946SOL    HW230394   7.448   1.298   2.539 -0.2159  0.3632 -0.9807
 9947SOL     OW30395   3.601   6.620   2.054  0.2854 -0.5393 -0.1580
 9947SOL    HW130396   3.610   6.655   2.143 -0.6639  0.0317 -0.2729
 9947SOL    HW230397   3.632   6.690   1.997 -1.7249  0.2147 -0.3936
 9948SOL     OW30398   1.818   7.643   2.044  0.4289 -0.1085  0.7875
 9948SOL    HW130399   1.738   7.629   1.994  1.6392 -1.2728 -0.9396
 9948SOL    HW230400   1.815   7.735   2.070 -1.0367  0.0918 -0.0249
 9949SOL     OW30401   2.096   3.537   7.028 -0.0109 -0.7696 -0.1072
 9949SOL    HW130402   2.010   3.534   7.070  0.0632  0.6733  0.1894
 9949SOL    HW230403   2.155   3.566   7.097  0.6670 -1.4181 -0.4057
 9950SOL     OW30404   4.378   4.181   1.600 -0.2659  0.3177 -0.3795
 9950SOL    HW130405   4.472   4.199   1.606 -0.2419  0.2171 -0.4481
 9950SOL    HW230406   4.372   4.097   1.554 -0.4585  1.5338 -2.7502
 9951SOL     OW30407   0.465   4.065   5.414  0.3625 -0.1113  0.3678
 9951SOL    HW130408   0.392   4.127   5.419  0.6140  0.1266  1.4201
 9951SOL    HW230409   0.477   4.049   5.321 -1.6864 -0.9631  0.2055
 9952SOL     OW30410   5.559   0.985   7.642  0.0373  0.1255 -0.4585
 9952SOL    HW130411   5.552   1.052   7.710 -0.9520  1.0889 -1.4607
 9952SOL    HW230412   5.641   0.940   7.661 -0.3469  0.1616  1.5399
 9953SOL     OW30413   6.131   7.047   2.863  0.3743  0.2648  0.1586
 9953SOL    HW130414   6.224   7.046   2.883  0.3220  2.1521  0.7049
 9953SOL    HW230415   6.090   7.086   2.941 -0.8882 -0.6397 -0.0185
 9954SOL     OW30416   6.801   4.618   2.455 -0.1951 -0.0536 -0.6692
 9954SOL    HW130417   6.818   4.678   2.382  3.3859  0.2116  0.1787
 9954SOL    HW230418   6.885   4.573   2.469 -1.4826 -2.0018  1.6358
 9955SOL     OW30419   6.445   0.540   0.269 -0.0831 -0.6050 -0.0821
 9955SOL    HW130420   6.356   0.563   0.296 -0.5576 -3.0922  0.7298
 9955SOL    HW230421   6.485   0.501   0.347  1.8542  0.6612 -0.3576
 9956SOL     OW30422   4.693   5.656   0.242 -0.6556  0.5487 -0.5345
 9956SOL    HW130423   4.731   5.726   0.190 -1.2334  1.0041 -0.3548
 9956SOL    HW230424   4.741   5.577   0.215 -1.8026  0.5302 -2.7095
 9957SOL     OW30425   6.915   1.786   5.332  0.1516  0.7764  0.1781
 9957SOL    HW130426   6.898   1.699   5.297  2.2955  0.1080  0.6554
 9957SOL    HW230427   6.839   1.805   5.388 -0.0374 -1.0749  0.6117
 9958SOL     OW30428   1.050   1.827   5.176  0.1143 -0.3029 -0.1151
 9958SOL    HW130429   1.137   1.863   5.193 -0.2500  0.6305 -0.1658
 9958SOL    HW230430   1.011   1.888   5.113 -0.3724 -1.0243 -0.5263
 9959SOL     OW30431   6.102   4.028   6.336  0.1869 -0.8061  0.6699
 9959SOL    HW130432   6.172   3.984   6.288 -0.1711 -0.6698  0.0065
 9959SOL    HW230433   6.142   4.109   6.367  0.4632 -0.9618  0.7233
 9960SOL     OW30434   5.138   6.143   4.846  0.4024 -1.0625  0.0525
 9960SOL    HW130435   5.173   6.100   4.768 -2.5152 -0.8184 -1.5299
 9960SOL    HW230436   5.123   6.234   4.819  0.0416 -0.7848  1.1338
 9961SOL     OW30437   2.963   7.501   3.331 -0.4288 -0.0172 -0.6025
 9961SOL    HW130438   2.912   7.457   3.399  0.7958  0.8100  0.9493
 9961SOL    HW230439   3.054   7.484   3.355  0.0461 -0.1573 -2.3881
 9962SOL     OW30440   1.663   2.354   2.229 -0.2876  0.3031  0.4122
 9962SOL    HW130441   1.711   2.272   2.239 -0.2812  0.4400  1.5533
 9962SOL    HW230442   1.730   2.420   2.213 -0.2587  0.1745 -0.0172
 9963SOL     OW30443   6.156   0.812   0.237 -0.2644  0.2266  0.4541
 9963SOL    HW130444   6.239   0.852   0.264  0.1805 -0.2994 -0.1073
 9963SOL    HW230445   6.178   0.721   0.219 -0.7472  0.3207 -0.6931
 9964SOL     OW30446   5.565   0.688   6.736 -0.2538 -0.6918  0.0423
 9964SOL    HW130447   5.592   0.642   6.657  0.7742  1.0147 -0.6593
 9964SOL    HW230448   5.596   0.634   6.808  2.4980 -0.3050 -0.7337
 9965SOL     OW30449   2.906   4.162   3.041  0.0042  0.2243 -0.0729
 9965SOL    HW130450   2.923   4.070   3.061 -1.6950 -0.4138 -1.3783
 9965SOL    HW230451   2.932   4.173   2.950 -0.8902  0.7224 -0.2831
 9966SOL     OW30452   3.335   3.067   3.687  0.4540  0.4902 -0.2284
 9966SOL    HW130453   3.331   3.161   3.706  1.4794  1.6062 -4.4552
 9966SOL    HW230454   3.395   3.060   3.613  0.7165 -3.6096  0.1574
 9967SOL     OW30455   0.757   4.992   4.980 -0.4856  0.1898 -0.1499
 9967SOL    HW130456   0.734   5.074   4.936 -0.3952 -0.4659 -1.4936
 9967SOL    HW230457   0.807   4.943   4.914 -2.7391 -2.0396 -0.3927
 9968SOL     OW30458   0.364   6.640   2.149  0.1476  0.0653  0.4041
 9968SOL    HW130459   0.379   6.728   2.114 -0.2770  0.2301  0.6290
 9968SOL    HW230460   0.423   6.584   2.099  1.7643  0.7334  1.4894
 9969SOL     OW30461   5.616   6.548   4.647 -0.0394 -0.2694  0.7437
 9969SOL    HW130462   5.599   6.499   4.566 -0.7985 -0.2203  0.8617
 9969SOL    HW230463   5.710   6.560   4.648 -0.2089  2.9392 -2.0513
 9970SOL     OW30464   7.433   0.469   3.683 -0.4656 -0.1285  0.3402
 9970SOL    HW130465   7.451   0.466   3.777 -0.1495 -0.4239  0.2749
 9970SOL    HW230466   7.441   0.562   3.660  0.3580 -0.1671  0.4388
 9971SOL     OW30467   4.349   2.650   1.807 -0.4273  0.2757 -0.5285
 9971SOL    HW130468   4.311   2.679   1.889  0.8886  0.3048  0.0978
 9971SOL    HW230469   4.368   2.557   1.820  1.4871  0.6954 -0.0988
 9972SOL     OW30470   6.919   3.509   1.052 -0.6608  0.3649  0.0734
 9972SOL    HW130471   6.908   3.416   1.034  0.4172  0.2917 -0.2488
 9972SOL    HW230472   6.928   3.550   0.965 -2.9683  1.0428  0.0900
 9973SOL     OW30473   7.347   5.555   7.497  0.0895 -0.3683  0.7844
 9973SOL    HW130474   7.342   5.577   7.590 -2.2802 -1.2000  0.9341
 9973SOL    HW230475   7.351   5.640   7.452 -0.8540  0.1251  1.5955
 9974SOL     OW30476   6.607   6.987   2.232 -0.1841  0.4967  0.2615
 9974SOL    HW130477   6.551   7.043   2.178 -0.3718 -0.9064 -1.0720
 9974SOL    HW230478   6.546   6.931   2.280 -0.0019  1.4523  1.6583
 9975SOL     OW30479   1.346   4.353   1.184 -0.5771  0.0413 -0.7415
 9975SOL    HW130480   1.428   4.310   1.161  1.7602  2.8124  1.6134
 9975SOL    HW230481   1.344   4.432   1.130 -0.8729  0.7821  0.3262
 9976SOL     OW30482   1.588   6.908   2.306  0.1217  0.4736 -0.1319
 9976SOL    HW130483   1.570   6.886   2.214  0.1298 -0.1522  0.0153
 9976SOL    HW230484   1.654   6.978   2.301  0.4434  0.1450 -0.5970
 9977SOL     OW30485   2.545   6.493   0.869 -0.4210  0.0623 -0.2427
 9977SOL    HW130486   2.504   6.575   0.842 -0.1018  0.2734 -0.0850
 9977SOL    HW230487   2.637   6.504   0.847 -0.2198  0.0970  0.6103
 9978SOL     OW30488   2.374   6.316   1.521  0.6578 -0.2222  0.5064
 9978SOL    HW130489   2.389   6.360   1.605 -0.0110  3.2721 -1.0330
 9978SOL    HW230490   2.433   6.359   1.460 -0.0885 -1.4752 -1.1801
 9979SOL     OW30491   5.532   0.507   4.280 -0.6414 -0.1691  0.3013
 9979SOL    HW130492   5.604   0.545   4.331  0.2143  1.0740 -1.6976
 9979SOL    HW230493   5.573   0.435   4.232 -1.4773 -1.4558  1.4708
 9980SOL     OW30494   2.496   0.192   5.876 -0.4707  0.4001  0.5582
 9980SOL    HW130495   2.534   0.137   5.943  0.3161  1.0062  0.6252
 9980SOL    HW230496   2.540   0.165   5.795  0.9455  1.8380  0.8033
 9981SOL     OW30497   5.541   3.001   5.214  0.2772 -0.5349 -0.1870
 9981SOL    HW130498   5.524   3.089   5.248 -1.2178 -1.5183  1.7668
 9981SOL    HW230499   5.626   3.009   5.171 -0.4548  2.1782 -1.3380
 9982SOL     OW30500   4.517   1.472   4.440  0.0089  0.4363  0.2703
 9982SOL    HW130501   4.560   1.483   4.355 -0.7353 -0.2476 -0.2107
 9982SOL    HW230502   4.578   1.418   4.491  0.2238  0.4153 -0.0059
 9983SOL     OW30503   2.120   2.206   2.444 -0.3567  0.1721  0.2619
 9983SOL    HW130504   2.074   2.256   2.511 -2.0780  1.3816 -1.7106
 9983SOL    HW230505   2.201   2.255   2.429 -0.7476  0.8385  0.2903
 9984SOL     OW30506   7.085   7.608   7.750  0.4111 -0.5789 -0.6359
 9984SOL    HW130507   7.091   7.653   7.666  1.5592 -0.7447 -0.6698
 9984SOL    HW230508   7.172   7.619   7.789 -0.1688 -0.3143  0.6371
 9985SOL     OW30509   6.628   1.904   2.445 -0.4004 -0.1969  0.5045
 9985SOL    HW130510   6.680   1.984   2.436  0.8345 -0.8607  1.2897
 9985SOL    HW230511   6.591   1.889   2.359  0.7835  0.2797 -0.1107
 9986SOL     OW30512   3.872   4.677   0.185  0.1913 -0.7806  0.2767
 9986SOL    HW130513   3.881   4.616   0.111 -0.3099 -0.2970 -0.2037
 9986SOL    HW230514   3.944   4.739   0.174  0.8519 -1.4202  0.9102
 9987SOL     OW30515   7.707   4.290   0.528 -0.3305 -0.0672 -0.2784
 9987SOL    HW130516   7.701   4.384   0.509 -0.9208 -0.5360 -2.7978
 9987SOL    HW230517   7.625   4.270   0.573 -0.3851  0.5428 -0.0925
 9988SOL     OW30518   5.357   7.701   2.883 -0.3719 -0.0863 -0.4226
 9988SOL    HW130519   5.307   7.663   2.811  1.1863 -2.4433 -0.4086
 9988SOL    HW230520   5.380   7.625   2.938 -0.0353  1.4038  1.6123
 9989SOL     OW30521   4.390   5.311   2.631  0.1901  0.5796  0.2297
 9989SOL    HW130522   4.350   5.382   2.681 -0.6768  0.3438 -0.1189
 9989SOL    HW230523   4.390   5.342   2.540  0.8254  0.5827  0.2220
 9990SOL     OW30524   4.053   2.081   6.412 -0.6486 -0.0891 -0.0892
 9990SOL    HW130525   4.080   2.155   6.358 -0.6491 -0.3474 -0.4534
 9990SOL    HW230526   3.978   2.044   6.365 -1.4896  0.4649  0.7704
 9991SOL     OW30527   2.139   7.033   1.887 -0.3164  0.0689 -0.4017
 9991SOL    HW130528   2.136   7.049   1.982 -1.0255  0.0280 -0.4094
 9991SOL    HW230529   2.228   7.003   1.871 -0.7761 -2.0785  0.6253
 9992SOL     OW30530   7.206   3.196   5.042 -0.3784  0.4203 -0.1431
 9992SOL    HW130531   7.150   3.246   4.982 -1.9846 -0.5172  0.5337
 9992SOL    HW230532   7.184   3.229   5.129  0.1278  0.0331  0.1410
 9993SOL     OW30533   0.787   0.020   2.452 -0.6231  0.2535  0.2140
 9993SOL    HW130534   0.859  -0.042   2.441 -1.1766 -0.1119 -1.6847
 9993SOL    HW230535   0.731  -0.020   2.519  0.0789 -0.2647  0.5035
 9994SOL     OW30536   0.368   4.013   3.702 -0.6489 -0.2742 -0.8468
 9994SOL    HW130537   0.341   4.101   3.676  0.4941  0.2280 -0.4367
 9994SOL    HW230538   0.385   3.967   3.620  1.2991  0.7596 -1.0899
 9995SOL     OW30539   6.446   1.960   7.468 -0.2851  0.2064 -0.3836
 9995SOL    HW130540   6.410   1.909   7.396 -0.3674  0.4841 -0.5420
 9995SOL    HW230541   6.539   1.970   7.446 -0.5256  1.2305 -1.0263
 9996SOL     OW30542   7.470   0.307   3.229  0.3416 -0.6731 -0.1428
 9996SOL    HW130543   7.493   0.230   3.177 -1.7585 -1.1774 -0.4215
 9996SOL    HW230544   7.377   0.294   3.251 -0.4134  2.3121 -1.1578
 9997SOL     OW30545   1.916   0.147   7.499 -0.0059 -0.2708 -0.4955
 9997SOL    HW130546   1.912   0.199   7.419  0.2722 -0.8338 -0.8870
 9997SOL    HW230547   1.947   0.061   7.470 -2.5316 -1.3812 -0.2269
 9998SOL     OW30548   0.746   7.645   5.626  0.4612  0.0991  0.0748
 9998SOL    HW130549   0.711   7.721   5.672  0.2538 -0.6065  1.0952
 9998SOL    HW230550   0.775   7.586   5.695  1.4051 -0.3942 -0.7193
 9999SOL     OW30551   4.598   5.553   3.355 -0.7865 -0.1755  0.4836
 9999SOL    HW130552   4.512   5.574   3.319  0.1385  2.9343 -0.1857
 9999SOL    HW230553   4.592   5.579   3.447 -0.0743  1.9416 -0.0095
10000SOL     OW30554   5.048   4.614   2.249  0.0642  0.3479  0.0962
10000SOL    HW130555   5.131   4.655   2.223  0.6031 -1.4657 -1.3149
10000SOL    HW230556   5.068   4.566   2.329  0.6045 -0.6028 -0.5801
10001SOL     OW30557   2.155   2.010   4.115 -0.3781  0.4062 -1.1893
10001SOL    HW130558   2.170   1.984   4.024  1.2799  1.9561 -1.4160
10001SOL    HW230559   2.222   2.076   4.132 -0.8106  0.3225  1.0965
10002SOL     OW30560   0.708   0.201   7.355  0.3084  0.1094 -1.0823
10002SOL    HW130561   0.712   0.125   7.296 -1.0779  0.7912 -2.1111
10002SOL    HW230562   0.708   0.163   7.443 -1.7589 -1.2109 -1.5658
10003SOL     OW30563   3.606   4.985   4.683  0.0820  0.3215 -0.2382
10003SOL    HW130564   3.600   5.079   4.699  1.4040  0.1280  1.6427
10003SOL    HW230565   3.515   4.955   4.685 -0.2470  1.3266  0.7594
10004SOL     OW30566   2.025   3.746   6.593 -0.6504 -0.7678  0.1724
10004SOL    HW130567   1.932   3.754   6.569 -0.9848 -0.4902  1.4618
10004SOL    HW230568   2.050   3.835   6.619  0.0374 -0.8052 -0.3388
10005SOL     OW30569   0.960   4.212   4.098  0.1817  0.2558 -0.4563
10005SOL    HW130570   1.018   4.272   4.051  0.3628 -0.6206 -1.4040
10005SOL    HW230571   0.926   4.263   4.171  1.1271  1.1880 -0.6435
10006SOL     OW30572   5.180   7.734   2.336 -0.2207  0.0708 -0.2462
10006SOL    HW130573   5.223   7.817   2.352  0.2613 -0.4658  1.4402
10006SOL    HW230574   5.126   7.719   2.414 -0.2803 -1.1986 -0.5055
10007SOL     OW30575   0.199   1.445   5.977  0.1136  0.4963 -0.4302
10007SOL    HW130576   0.277   1.438   5.921 -0.2466 -0.3604 -0.8401
10007SOL    HW230577   0.144   1.511   5.934  0.8834  1.5947  0.2119
10008SOL     OW30578   1.131   4.230   0.563  0.2126 -0.4662 -0.1222
10008SOL    HW130579   1.187   4.201   0.491  0.9388 -0.0812  0.2717
10008SOL    HW230580   1.185   4.219   0.642 -0.4644 -0.6044  0.3359
10009SOL     OW30581   3.553   6.304   3.888  0.3837 -0.4238  0.0380
10009SOL    HW130582   3.468   6.328   3.851  1.3284  0.5696 -1.5839
10009SOL    HW230583   3.550   6.336   3.978 -1.8413 -2.5838  0.8708
10010SOL     OW30584   0.764   7.146   5.081  0.7470  0.0384  0.3356
10010SOL    HW130585   0.806   7.122   5.164 -0.4518 -1.6995  0.4976
10010SOL    HW230586   0.829   7.124   5.015  1.2081  0.1590  0.7393
10011SOL     OW30587   6.289   1.994   2.357 -0.3720 -0.3833  0.0131
10011SOL    HW130588   6.199   2.011   2.385 -0.2784 -1.0559  0.7717
10011SOL    HW230589   6.283   1.978   2.263 -0.9321  0.3360 -0.0759
10012SOL     OW30590   1.815   3.659   5.436 -0.4130  0.1609  0.2915
10012SOL    HW130591   1.909   3.646   5.449  0.0812 -0.2259 -2.8574
10012SOL    HW230592   1.773   3.594   5.493  1.3399 -1.4131 -0.1327
10013SOL     OW30593   2.684   6.217   2.196  0.2607 -0.3701  0.6952
10013SOL    HW130594   2.705   6.311   2.197  1.1235 -0.5003 -1.0202
10013SOL    HW230595   2.745   6.180   2.132  0.2797 -2.1981  1.7072
10014SOL     OW30596   4.538   4.443   0.787 -0.3516 -0.3864  0.0100
10014SOL    HW130597   4.600   4.468   0.856 -0.4891 -1.1949  0.4334
10014SOL    HW230598   4.458   4.491   0.809 -0.5673 -1.0662  0.7334
10015SOL     OW30599   4.835   6.531   2.912 -0.1976 -0.2880  0.4326
10015SOL    HW130600   4.924   6.525   2.878  0.1777  0.6495  1.2275
10015SOL    HW230601   4.782   6.550   2.834  0.4992  0.6252  0.1514
10016SOL     OW30602   0.423   4.663   0.088 -0.0058  0.1333 -0.0788
10016SOL    HW130603   0.410   4.739   0.145  0.9135  2.1893 -2.3845
10016SOL    HW230604   0.334   4.629   0.072 -0.7622  2.3141 -0.9119
10017SOL     OW30605   4.683   3.174   1.620  0.1692 -0.0409  0.0703
10017SOL    HW130606   4.606   3.226   1.596 -0.4787 -0.9934  0.0301
10017SOL    HW230607   4.676   3.094   1.569  1.6478  0.1944 -0.5558
10018SOL     OW30608   6.455   5.822   1.521 -0.2820 -0.5185  0.5147
10018SOL    HW130609   6.417   5.852   1.438 -1.7970 -2.5023  0.4304
10018SOL    HW230610   6.455   5.727   1.515  2.3587 -0.6839  1.6338
10019SOL     OW30611   1.084   2.894   2.597  0.0688 -0.3871  0.0019
10019SOL    HW130612   1.137   2.974   2.604 -0.6877  0.2342 -1.1561
10019SOL    HW230613   1.145   2.829   2.563  0.7672 -0.4110  1.2158
10020SOL     OW30614   3.406   1.258   0.496 -0.0199 -0.2672 -0.3319
10020SOL    HW130615   3.319   1.246   0.532  0.2828 -0.8277  0.2288
10020SOL    HW230616   3.394   1.254   0.401 -0.6550  0.0751 -0.2686
10021SOL     OW30617   6.095   6.860   4.640  0.0029  0.0506  0.3294
10021SOL    HW130618   6.162   6.901   4.695  0.0467 -0.8638  0.9876
10021SOL    HW230619   6.057   6.932   4.589 -0.7194  1.0939  2.2588
10022SOL     OW30620   1.335   7.530   6.881  0.3114  0.0772  0.2383
10022SOL    HW130621   1.394   7.505   6.810  1.1240 -0.2415  1.0080
10022SOL    HW230622   1.385   7.512   6.961 -0.2851  1.1550  0.8811
10023SOL     OW30623   3.382   3.545   1.157  0.5708 -0.0406  0.0765
10023SOL    HW130624   3.374   3.500   1.072 -0.4376 -1.0085  0.6454
10023SOL    HW230625   3.414   3.477   1.216  0.2734  0.3381  0.6759
10024SOL     OW30626   3.640   7.539   7.238  0.5199  0.5083 -0.1785
10024SOL    HW130627   3.571   7.553   7.303 -0.9354  0.8670 -1.7469
10024SOL    HW230628   3.721   7.537   7.290 -0.7904 -2.2593  2.0244
10025SOL     OW30629   7.680   0.795   3.210 -0.5750 -0.7708  0.1396
10025SOL    HW130630   7.663   0.887   3.193 -0.1188 -0.9756 -1.6782
10025SOL    HW230631   7.594   0.753   3.207 -0.5613 -0.7536 -1.7030
10026SOL     OW30632   7.712   3.495   5.565  0.1774 -0.2734  0.4930
10026SOL    HW130633   7.703   3.518   5.473 -0.3436 -3.0924 -0.2593
10026SOL    HW230634   7.714   3.579   5.611 -3.4369  1.2181 -1.6913
10027SOL     OW30635   7.744   1.540   1.359 -0.5119  0.6975 -0.1923
10027SOL    HW130636   7.687   1.519   1.286  0.3932  1.2767 -1.1065
10027SOL    HW230637   7.808   1.469   1.362 -1.2290  0.0739  0.7950
10028SOL     OW30638   4.283   0.209   3.644 -0.2326  0.0578  0.0827
10028SOL    HW130639   4.279   0.162   3.727  0.7592 -0.4153 -0.1246
10028SOL    HW230640   4.376   0.223   3.628 -0.4546  1.0993 -0.4306
10029SOL     OW30641   5.569   4.205   3.577  0.2801  1.1322 -0.2883
10029SOL    HW130642   5.577   4.284   3.523  0.2926  0.8776 -0.6556
10029SOL    HW230643   5.519   4.234   3.654 -0.1893  1.3675 -0.6783
10030SOL     OW30644   6.201   1.891   3.541 -0.2317 -0.6330  0.0435
10030SOL    HW130645   6.164   1.966   3.494  1.1858 -1.0285 -1.8177
10030SOL    HW230646   6.172   1.815   3.492  1.1957 -1.0748 -0.1475
10031SOL     OW30647   6.928   4.860   3.784  0.5268 -0.6521 -0.3804
10031SOL    HW130648   6.899   4.815   3.705  1.1867 -1.4308 -0.1880
10031SOL    HW230649   6.975   4.793   3.834 -0.3440 -0.3336  0.9299
10032SOL     OW30650   6.839   6.947   2.352  0.8640  0.1439  0.8471
10032SOL    HW130651   6.763   6.942   2.294  2.6365 -2.1395 -1.5030
10032SOL    HW230652   6.867   7.038   2.348  0.3821  0.2386 -1.2138
10033SOL     OW30653   0.125   4.967   4.755  0.0977 -0.4788 -0.1684
10033SOL    HW130654   0.208   4.920   4.751  0.8613  0.8658 -1.3361
10033SOL    HW230655   0.085   4.954   4.669 -0.8074 -0.9200  0.3000
10034SOL     OW30656   5.997   4.552   5.668 -0.0690 -0.5830 -0.2530
10034SOL    HW130657   5.907   4.542   5.698 -0.3023 -0.1427 -0.7747
10034SOL    HW230658   5.992   4.534   5.574  0.7849 -2.7965  0.0586
10035SOL     OW30659   2.245   0.588   6.176  0.6098  0.3516 -0.0997
10035SOL    HW130660   2.229   0.639   6.097 -1.0216 -1.5937 -1.1453
10035SOL    HW230661   2.284   0.506   6.145 -2.1623 -1.4438  0.6852
10036SOL     OW30662   4.702   1.965   4.889  0.2386  0.2758  0.5038
10036SOL    HW130663   4.614   1.967   4.852  0.3054 -1.9034  0.1120
10036SOL    HW230664   4.689   1.938   4.980  0.4232  1.2235  0.8223
10037SOL     OW30665   7.647   3.955   5.309  0.4396 -0.4296 -0.4529
10037SOL    HW130666   7.734   3.923   5.334  1.5618  0.3326 -3.0913
10037SOL    HW230667   7.613   3.994   5.390  2.1707 -1.4865  0.8740
10038SOL     OW30668   5.728   0.681   3.842  0.2563  0.0627 -0.0095
10038SOL    HW130669   5.736   0.608   3.781 -1.0058  1.7298 -2.3388
10038SOL    HW230670   5.671   0.648   3.912  2.6749 -2.2613  1.0269
10039SOL     OW30671   2.925   7.480   4.793  0.5287 -0.0230  0.0002
10039SOL    HW130672   2.994   7.540   4.767 -0.3650  0.7135 -0.7354
10039SOL    HW230673   2.945   7.398   4.746  1.2906 -0.0519  0.3643
10040SOL     OW30674   3.047   2.887   6.639 -0.6177  0.2890 -0.2956
10040SOL    HW130675   2.970   2.905   6.693 -2.0175 -2.9551 -0.9324
10040SOL    HW230676   3.013   2.885   6.550  0.0747 -1.5126 -0.5580
10041SOL     OW30677   3.417   0.799   6.243  0.4812 -0.1980 -0.0263
10041SOL    HW130678   3.413   0.808   6.147  0.1502 -1.0730 -0.1010
10041SOL    HW230679   3.375   0.716   6.261 -1.5099  0.9878  1.0837
10042SOL     OW30680   0.757   7.457   1.106 -0.1947  0.2122  0.4155
10042SOL    HW130681   0.777   7.550   1.119  1.1942 -0.1203  0.7615
10042SOL    HW230682   0.721   7.453   1.017  0.3560  0.9985  0.1432
10043SOL     OW30683   3.994   3.521   1.080  0.2865 -0.2470  0.2545
10043SOL    HW130684   3.957   3.608   1.066  1.3650  0.1604 -0.2581
10043SOL    HW230685   3.997   3.510   1.175  0.0180  0.2188  0.3179
10044SOL     OW30686   5.589   3.163   7.126 -0.0972 -0.1032 -0.2646
10044SOL    HW130687   5.522   3.099   7.147  0.2310 -0.1465  0.7049
10044SOL    HW230688   5.543   3.248   7.130  0.2926  0.0666  2.4692
10045SOL     OW30689   3.199   7.417   4.619  0.4248 -0.4881  0.0959
10045SOL    HW130690   3.174   7.383   4.533  0.7690 -1.5991  0.4236
10045SOL    HW230691   3.167   7.508   4.619  0.0917 -0.5925 -1.0547
10046SOL     OW30692   4.831   0.091   6.165 -0.2783 -0.2574 -0.0631
10046SOL    HW130693   4.767   0.047   6.220  0.7665  0.0154  1.4234
10046SOL    HW230694   4.905   0.031   6.162 -0.3488 -0.3157 -1.2926
10047SOL     OW30695   3.031   2.807   2.939 -0.1479  0.0932  0.4128
10047SOL    HW130696   2.937   2.803   2.921  0.3285 -2.2420 -2.1923
10047SOL    HW230697   3.049   2.727   2.988  0.6960 -0.2338 -0.4177
10048SOL     OW30698   6.759   4.641   6.666 -0.6234 -0.3182 -0.0344
10048SOL    HW130699   6.805   4.655   6.749 -3.1023  0.4244  1.3059
10048SOL    HW230700   6.671   4.614   6.691 -1.6750  0.6193 -2.4119
10049SOL     OW30701   1.126   3.239   5.687 -0.1577  0.2178  0.0354
10049SOL    HW130702   1.093   3.231   5.597 -0.4011  1.3106  0.0086
10049SOL    HW230703   1.200   3.299   5.680 -0.3061  0.4732  0.5872
10050SOL     OW30704   4.657   0.326   4.624  0.2577  0.2451 -0.0497
10050SOL    HW130705   4.591   0.389   4.594  0.4149  0.3800 -0.1151
10050SOL    HW230706   4.625   0.241   4.593  0.7952  0.4629 -1.2834
10051SOL     OW30707   5.459   7.576   5.705 -0.3282  0.3825 -0.6288
10051SOL    HW130708   5.493   7.489   5.724 -0.8283  0.1692 -0.6962
10051SOL    HW230709   5.467   7.585   5.610  2.6078  1.6311 -0.3684
10052SOL     OW30710   4.354   5.088   4.844  0.7662 -0.1240  1.0366
10052SOL    HW130711   4.298   5.103   4.768  0.2833 -2.4681  0.8499
10052SOL    HW230712   4.338   5.163   4.901 -0.4411  0.6473 -0.2565
10053SOL     OW30713   2.895   5.742   6.827 -0.7334 -0.0826  0.0032
10053SOL    HW130714   2.874   5.699   6.910 -0.8149  0.4407  0.2538
10053SOL    HW230715   2.982   5.781   6.841  0.6483 -2.5049 -1.1254
10054SOL     OW30716   0.540   7.564   1.566 -0.0882 -0.1726  0.1590
10054SOL    HW130717   0.588   7.529   1.640  1.6677  1.1526 -0.2662
10054SOL    HW230718   0.497   7.489   1.527  0.1811 -1.1281  1.6379
10055SOL     OW30719   2.106   3.299   6.521 -0.2961 -0.2211 -0.6065
10055SOL    HW130720   2.108   3.394   6.508  2.4286 -0.3717 -2.1970
10055SOL    HW230721   2.076   3.264   6.437 -1.2191 -0.7943 -0.0487
10056SOL     OW30722   6.844   7.180   7.239 -0.2046 -0.2614  0.0254
10056SOL    HW130723   6.833   7.096   7.193 -2.1324  0.0772 -0.2256
10056SOL    HW230724   6.918   7.221   7.195  0.5706 -1.6860 -0.0638
10057SOL     OW30725   6.005   2.641   2.055  0.5180  0.3066 -0.3009
10057SOL    HW130726   6.088   2.665   2.012  0.9964 -3.4100 -1.7764
10057SOL    HW230727   6.031   2.616   2.144  0.6716  0.8965 -0.1739
10058SOL     OW30728   7.556   5.623   5.405 -0.0529  0.1060 -0.2611
10058SOL    HW130729   7.547   5.630   5.310 -0.0688 -0.1848 -0.2815
10058SOL    HW230730   7.559   5.529   5.422  0.9250  0.1551 -0.0714
10059SOL     OW30731   3.524   5.726   3.388 -0.0006  0.1515  0.5757
10059SOL    HW130732   3.573   5.688   3.316  0.5707  0.4974  0.7777
10059SOL    HW230733   3.525   5.820   3.371 -1.6970  0.0904 -0.1078
10060SOL     OW30734   7.105   3.111   6.640 -0.3131 -0.3023  0.4758
10060SOL    HW130735   7.195   3.142   6.651 -0.7882  1.3447  0.0300
10060SOL    HW230736   7.054   3.164   6.702 -1.4384  1.3370 -1.6906
10061SOL     OW30737   3.112   2.374   0.414  0.2804 -0.2650  0.0520
10061SOL    HW130738   3.092   2.465   0.396 -0.9599  0.4405  4.0859
10061SOL    HW230739   3.050   2.324   0.361 -1.5945  1.4194  0.5548
10062SOL     OW30740   0.868   2.503   6.589  0.1538 -0.0494 -0.3104
10062SOL    HW130741   0.791   2.448   6.609 -0.4433  0.7327 -0.4326
10062SOL    HW230742   0.867   2.512   6.494  0.0081  0.5178 -0.2568
10063SOL     OW30743   1.825   5.216   0.470 -0.3190 -0.3016  0.9239
10063SOL    HW130744   1.845   5.263   0.551 -0.7419 -0.4745  1.1307
10063SOL    HW230745   1.736   5.183   0.482  0.0794 -1.4352  0.9212
10064SOL     OW30746   7.586   7.070   1.142 -0.2586  0.1933  0.1010
10064SOL    HW130747   7.633   7.153   1.140 -1.2041  0.7687  0.7856
10064SOL    HW230748   7.534   7.070   1.061  0.8434 -0.4219 -0.6314
10065SOL     OW30749   5.090   1.763   1.369  0.1599 -0.0106  0.3552
10065SOL    HW130750   5.118   1.674   1.346  3.3323  1.0145 -0.3048
10065SOL    HW230751   5.084   1.808   1.286  0.9122  0.9661  0.8126
10066SOL     OW30752   7.318   2.962   4.964  0.3441  0.4261  0.0962
10066SOL    HW130753   7.262   3.039   4.972 -1.3841 -0.8092  0.4557
10066SOL    HW230754   7.407   2.996   4.978 -0.3814  2.2945  0.5453
10067SOL     OW30755   4.212   2.487   4.069  0.2459  0.4682  0.1376
10067SOL    HW130756   4.198   2.576   4.039  0.6234  0.4358 -0.1335
10067SOL    HW230757   4.207   2.494   4.165 -3.0065  0.2359  0.1145
10068SOL     OW30758   4.119   2.640   0.616  0.2236  0.1362  0.0832
10068SOL    HW130759   4.168   2.722   0.607 -0.0299  0.2406 -0.3703
10068SOL    HW230760   4.032   2.659   0.580  0.2530 -0.4096 -0.3053
10069SOL     OW30761   7.753   3.299   1.343  0.0638  0.0255 -0.3062
10069SOL    HW130762   7.801   3.244   1.280 -1.2312  0.4851 -1.7606
10069SOL    HW230763   7.710   3.238   1.402 -1.6900 -0.6094 -2.1489
10070SOL     OW30764   6.827   7.481   4.803  0.0288 -0.5197 -0.0118
10070SOL    HW130765   6.909   7.530   4.799  0.8245 -1.8231 -0.0835
10070SOL    HW230766   6.801   7.470   4.712 -0.7379  0.6760  0.0352
10071SOL     OW30767   2.998   3.921   1.679 -0.0420 -0.3180 -0.2955
10071SOL    HW130768   2.976   3.998   1.626 -1.3655 -0.7265 -0.3628
10071SOL    HW230769   3.059   3.955   1.745  0.1208  0.5921 -0.8864
10072SOL     OW30770   6.343   3.491   4.414 -0.0769  0.1479 -0.0652
10072SOL    HW130771   6.288   3.469   4.339 -0.6431 -0.2287  0.4573
10072SOL    HW230772   6.310   3.575   4.445  0.9151  0.9006 -0.9380
10073SOL     OW30773   3.869   4.129   5.212  0.1248 -0.3208  0.3869
10073SOL    HW130774   3.953   4.084   5.223 -0.2777 -1.0441  0.5029
10073SOL    HW230775   3.885   4.193   5.142  0.3361 -1.5495 -0.7164
10074SOL     OW30776   3.128   0.903   3.853 -0.1009  0.3368 -0.2516
10074SOL    HW130777   3.142   0.979   3.796 -0.7943  0.0462 -0.8202
10074SOL    HW230778   3.209   0.898   3.905  0.0385  1.3394 -0.3399
10075SOL     OW30779   5.635   4.581   3.844 -0.0339  0.2171  0.3462
10075SOL    HW130780   5.650   4.551   3.933 -1.8028  1.1554  1.0219
10075SOL    HW230781   5.543   4.608   3.843  0.0969  0.7648 -1.6083
10076SOL     OW30782   1.331   3.123   1.383 -0.5620 -0.2016  0.0286
10076SOL    HW130783   1.251   3.071   1.382 -0.7454  0.0834  0.1297
10076SOL    HW230784   1.317   3.192   1.318 -1.2786  1.1897  1.6001
10077SOL     OW30785   4.414   6.970   7.262 -0.3609 -0.3353  0.1710
10077SOL    HW130786   4.388   6.922   7.341  0.8769  0.0602  0.8461
10077SOL    HW230787   4.498   7.010   7.285  0.7180 -1.3141 -1.7899
10078SOL     OW30788   4.427   2.017   3.636 -0.3692  0.3078 -0.4758
10078SOL    HW130789   4.486   1.958   3.590 -0.8165  1.2731 -2.4097
10078SOL    HW230790   4.484   2.087   3.669 -0.3203  1.0662 -2.0530
10079SOL     OW30791   6.787   2.600   3.700 -0.1248  0.0752  0.3001
10079SOL    HW130792   6.695   2.578   3.716  0.0533  0.1776  1.5368
10079SOL    HW230793   6.801   2.577   3.608 -1.2477 -0.3998  0.2276
10080SOL     OW30794   1.790   4.762   2.125 -0.3217 -0.6675 -0.3889
10080SOL    HW130795   1.878   4.787   2.096 -1.5431  1.2769 -2.9283
10080SOL    HW230796   1.791   4.774   2.220  2.1634 -0.8820 -0.3202
10081SOL     OW30797   4.256   0.177   3.323  0.3989  0.1431  0.2631
10081SOL    HW130798   4.318   0.148   3.390  0.0936  0.0417  0.5060
10081SOL    HW230799   4.308   0.230   3.263  0.7343  0.0004  0.4262
10082SOL     OW30800   5.058   0.768   2.753  0.2638  0.4313  0.1529
10082SOL    HW130801   5.076   0.821   2.675  0.3277  0.4203  0.1605
10082SOL    HW230802   5.134   0.781   2.809  0.1917  0.4829  0.2376
10083SOL     OW30803   2.411   6.858   2.006  0.5326 -0.3751  0.2617
10083SOL    HW130804   2.402   6.930   2.068  0.6746  0.7765 -1.0012
10083SOL    HW230805   2.494   6.817   2.029  1.0597  0.6443  0.2430
10084SOL     OW30806   5.846   0.009   6.743 -0.2305  0.3634  0.2876
10084SOL    HW130807   5.823  -0.065   6.800  0.4359  1.0009  1.4138
10084SOL    HW230808   5.939  -0.003   6.725  0.0683  1.3240  1.1100
10085SOL     OW30809   3.468   2.033   0.526  0.0940  0.3236 -0.3032
10085SOL    HW130810   3.455   1.954   0.474  0.0261 -0.7378  1.2382
10085SOL    HW230811   3.479   2.103   0.462  1.3999 -1.1199 -1.7353
10086SOL     OW30812   6.911   5.244   1.324 -0.0692 -0.2150 -0.0518
10086SOL    HW130813   6.927   5.336   1.304 -2.4307  0.9351  2.7582
10086SOL    HW230814   6.835   5.221   1.271  1.0559 -0.9294 -1.4468
10087SOL     OW30815   5.200   3.438   4.408 -0.3935  0.1900 -0.5890
10087SOL    HW130816   5.106   3.418   4.414 -0.4103  0.5666  1.0053
10087SOL    HW230817   5.243   3.358   4.439 -0.2230  0.3112 -0.5147
10088SOL     OW30818   3.078   1.951   3.472 -0.4211  0.2112  0.7837
10088SOL    HW130819   3.004   2.008   3.492 -0.5351  0.3820 -0.0967
10088SOL    HW230820   3.074   1.882   3.539 -0.6726  0.8647  1.4481
10089SOL     OW30821   1.402   6.858   4.038  0.3176 -0.4126  0.0418
10089SOL    HW130822   1.344   6.793   3.997  1.7395 -2.7197  1.4220
10089SOL    HW230823   1.347   6.902   4.102 -0.0386 -2.6655  1.4328
10090SOL     OW30824   6.421   7.101   0.038  0.5312 -0.0492 -0.2793
10090SOL    HW130825   6.516   7.115   0.042  0.4326  0.3864  1.2043
10090SOL    HW230826   6.411   7.008   0.058  0.5818  0.2374  1.1900
10091SOL     OW30827   1.618   4.601   3.502 -0.4765 -1.0918  0.1402
10091SOL    HW130828   1.536   4.560   3.528 -0.8826 -0.2107  0.2931
10091SOL    HW230829   1.669   4.606   3.583 -1.1893  0.4024  0.5269
10092SOL     OW30830   2.933   7.437   1.198  0.2612 -0.4735 -0.4709
10092SOL    HW130831   3.019   7.393   1.199  0.5475  0.0836  0.0135
10092SOL    HW230832   2.954   7.530   1.191 -0.3262 -0.3667 -0.8381
10093SOL     OW30833   0.451   4.255   1.183 -0.3097 -0.1790  0.4463
10093SOL    HW130834   0.395   4.286   1.111  0.2409 -0.2619 -0.0332
10093SOL    HW230835   0.493   4.335   1.216  0.6449 -0.3047 -0.3884
10094SOL     OW30836   5.793   3.610   1.042 -0.2421  0.2610  0.6534
10094SOL    HW130837   5.771   3.543   0.977 -0.7932  0.4444  0.6468
10094SOL    HW230838   5.783   3.693   0.995 -2.4781  0.5098  1.4466
10095SOL     OW30839   4.612   2.594   6.811  0.1017 -0.2294  0.8643
10095SOL    HW130840   4.548   2.544   6.760 -0.3845  1.4679 -0.2665
10095SOL    HW230841   4.660   2.646   6.745  0.3656  1.0271  2.0076
10096SOL     OW30842   4.237   5.990   3.352  0.2360  0.0589  0.1669
10096SOL    HW130843   4.210   5.975   3.442 -0.8478 -0.0605 -0.1622
10096SOL    HW230844   4.275   6.078   3.352 -1.1017  0.6574  0.4583
10097SOL     OW30845   0.452   1.158   1.537 -0.0588  0.0105 -0.0966
10097SOL    HW130846   0.537   1.158   1.580 -0.7053  0.9655  1.2508
10097SOL    HW230847   0.405   1.085   1.577 -0.2562  0.1745 -0.0272
10098SOL     OW30848   2.021   6.751   1.325  0.3860  0.3839 -0.7665
10098SOL    HW130849   2.031   6.844   1.345 -1.9165  0.5617 -0.1121
10098SOL    HW230850   2.098   6.709   1.364  0.6825  1.8371  0.2827
10099SOL     OW30851   2.888   2.729   5.586  0.3174  0.4877 -0.0256
10099SOL    HW130852   2.900   2.780   5.666 -0.6219 -0.1278  0.5258
10099SOL    HW230853   2.919   2.787   5.516 -0.4470  1.7189  0.6144
10100SOL     OW30854   2.303   3.612   5.260 -0.1240  0.1695  0.5488
10100SOL    HW130855   2.291   3.629   5.167  1.7373 -1.2644 -0.0051
10100SOL    HW230856   2.250   3.679   5.304 -2.3450 -0.1216 -1.5096
10101SOL     OW30857   1.834   6.097   1.015  0.0042 -0.1987 -0.0267
10101SOL    HW130858   1.792   6.066   0.935  1.5058  0.1424 -0.9863
10101SOL    HW230859   1.915   6.139   0.985 -0.1579  1.3514  1.5397
10102SOL     OW30860   1.809   7.502   0.352 -0.0648 -0.2853  0.1298
10102SOL    HW130861   1.788   7.508   0.445 -2.3422 -0.2165 -0.3318
10102SOL    HW230862   1.885   7.444   0.348  0.5963  0.3712  2.0677
10103SOL     OW30863   6.501   0.882   1.515  0.2554 -0.5005 -0.0759
10103SOL    HW130864   6.470   0.794   1.536 -1.2807  0.5589  2.7784
10103SOL    HW230865   6.557   0.906   1.590 -1.1809  1.7049  0.3859
10104SOL     OW30866   0.281   7.497   6.822  0.1429  0.6436  0.0380
10104SOL    HW130867   0.295   7.569   6.761  1.7142  0.9996  0.7700
10104SOL    HW230868   0.309   7.419   6.773 -2.8432  0.2394 -1.2532
10105SOL     OW30869   7.656   2.284   5.055 -0.4387 -0.2483 -0.0093
10105SOL    HW130870   7.647   2.243   5.142 -0.5553  0.2781  0.2325
10105SOL    HW230871   7.603   2.363   5.061 -1.3945 -0.7867 -0.9376
10106SOL     OW30872   5.222   2.911   0.538  0.1673 -0.0150 -0.0438
10106SOL    HW130873   5.150   2.972   0.521 -1.3506 -1.6650  0.1715
10106SOL    HW230874   5.230   2.911   0.634 -0.3586 -0.6885  0.0100
10107SOL     OW30875   3.934   7.559   7.289 -0.2882 -0.5389  0.1806
10107SOL    HW130876   3.948   7.476   7.244 -1.1696  0.2068 -1.5936
10107SOL    HW230877   3.972   7.625   7.230 -1.3351  0.4767  0.5937
10108SOL     OW30878   5.244   6.000   5.040  0.4370 -0.3437  0.2400
10108SOL    HW130879   5.182   6.044   4.982  1.0245 -0.1253 -0.2307
10108SOL    HW230880   5.330   6.024   5.005  0.8189  0.2304  1.5045
10109SOL     OW30881   5.697   1.606   0.098  0.4395  0.0814 -0.5351
10109SOL    HW130882   5.718   1.569   0.183 -0.0161 -0.6067 -0.7121
10109SOL    HW230883   5.616   1.654   0.111  1.0415  1.0687 -0.3009
10110SOL     OW30884   5.159   6.892   6.421  0.4666 -0.2363 -0.2990
10110SOL    HW130885   5.222   6.942   6.370 -0.2480 -0.0743 -1.0407
10110SOL    HW230886   5.169   6.924   6.511 -0.6421  1.9563 -0.8933
10111SOL     OW30887   0.348   6.198   3.282  0.3434  0.1809 -0.4094
10111SOL    HW130888   0.271   6.169   3.331  0.5985  0.2395  0.0297
10111SOL    HW230889   0.380   6.274   3.330  0.8501 -0.0207 -0.4266
10112SOL     OW30890   1.142   2.434   0.788  0.4021 -0.0203 -0.6098
10112SOL    HW130891   1.162   2.481   0.707  1.5804  0.0541 -0.2990
10112SOL    HW230892   1.177   2.490   0.857 -0.3156 -0.2293 -0.0634
10113SOL     OW30893   6.451   0.589   6.780  0.1081  0.4808  1.0985
10113SOL    HW130894   6.485   0.678   6.778  2.7917 -0.4598  1.2540
10113SOL    HW230895   6.402   0.581   6.698  3.1054  0.9833 -0.8992
10114SOL     OW30896   3.577   7.579   6.598 -0.7639 -0.9880 -0.5382
10114SOL    HW130897   3.581   7.491   6.637  0.0096  0.1712  2.2237
10114SOL    HW230898   3.663   7.590   6.556 -0.0850 -0.8530  0.8404
10115SOL     OW30899   2.830   0.676   7.687  0.4504 -0.3396  0.1898
10115SOL    HW130900   2.864   0.602   7.637  0.3847  0.0350 -0.4195
10115SOL    HW230901   2.877   0.673   7.770  2.0196  0.2087 -0.6469
10116SOL     OW30902   7.341   4.018   0.655  0.2254 -0.8127  0.2362
10116SOL    HW130903   7.336   3.950   0.723  0.6747 -0.9510  0.1351
10116SOL    HW230904   7.381   3.974   0.580 -2.0442 -1.2114 -0.8288
10117SOL     OW30905   1.189   2.950   2.197  0.0209  0.5357  0.3445
10117SOL    HW130906   1.247   2.934   2.271  0.6705  3.6624  0.6622
10117SOL    HW230907   1.244   2.992   2.131 -0.3275 -2.8502 -2.4218
10118SOL     OW30908   1.571   2.472   6.090  0.2240 -0.4971  0.7424
10118SOL    HW130909   1.656   2.428   6.100 -0.3345 -1.2725  2.5738
10118SOL    HW230910   1.576   2.546   6.150 -0.2628 -0.3226  0.5680
10119SOL     OW30911   5.424   1.798   2.502  0.0540 -0.4859 -0.1277
10119SOL    HW130912   5.503   1.745   2.492  1.3098  1.2583  0.1527
10119SOL    HW230913   5.427   1.828   2.593 -0.7248 -0.0937 -0.2242
10120SOL     OW30914   2.217   0.884   7.408  0.0464  0.2869  0.6660
10120SOL    HW130915   2.269   0.879   7.489 -0.3117  0.3411  0.9006
10120SOL    HW230916   2.129   0.906   7.437  0.1318  1.3493  0.1773
10121SOL     OW30917   2.463   5.268   0.276 -0.4756 -0.0830 -0.1304
10121SOL    HW130918   2.510   5.195   0.315 -2.3411 -1.3173 -0.0388
10121SOL    HW230919   2.411   5.304   0.349  0.4621  1.4223 -0.1524
10122SOL     OW30920   7.636   7.022   5.568  0.1519 -0.3877 -0.6912
10122SOL    HW130921   7.615   6.929   5.578  0.2201 -0.3079  0.3133
10122SOL    HW230922   7.556   7.068   5.595  0.9257 -0.1202  1.2576
10123SOL     OW30923   7.269   2.189   0.394 -0.4247 -0.1332  0.5404
10123SOL    HW130924   7.185   2.213   0.432 -0.4953 -1.3994  1.2415
10123SOL    HW230925   7.309   2.272   0.370 -1.6557  0.5125  0.6659
10124SOL     OW30926   5.613   0.091   7.023  0.4039  0.0587 -0.3226
10124SOL    HW130927   5.603   0.156   7.092 -3.3351  2.7567 -2.9936
10124SOL    HW230928   5.577   0.011   7.060  1.1793  0.5703  1.6822
10125SOL     OW30929   0.568   6.629   4.935 -0.1094 -0.3893  0.2658
10125SOL    HW130930   0.490   6.681   4.951 -0.3360 -0.8835  0.8148
10125SOL    HW230931   0.628   6.653   5.005  0.8575  1.1230 -1.0046
10126SOL     OW30932   7.423   0.669   3.230  0.2775 -0.0127  0.0183
10126SOL    HW130933   7.341   0.649   3.274 -0.6491  0.3399 -1.4658
10126SOL    HW230934   7.413   0.760   3.201  1.0916 -0.0331 -0.3640
10127SOL     OW30935   7.059   1.287   1.321  0.4694 -0.2890  0.3811
10127SOL    HW130936   7.092   1.373   1.297 -0.0278 -0.1204  0.2894
10127SOL    HW230937   7.108   1.264   1.400  0.3541  0.2305  0.6084
10128SOL     OW30938   1.662   1.814   4.146  0.4099  0.1909  0.2719
10128SOL    HW130939   1.602   1.878   4.185  1.7906  0.3978  2.2108
10128SOL    HW230940   1.717   1.866   4.087 -0.0630  0.3301 -0.0545
10129SOL     OW30941   0.418   3.020   4.687  0.0572  0.0503  0.3816
10129SOL    HW130942   0.457   2.989   4.769  1.0142  1.4643  0.4842
10129SOL    HW230943   0.332   2.978   4.684  1.3625 -2.8860  0.3403
10130SOL     OW30944   4.341   6.993   4.653 -0.2257 -0.4373 -0.0912
10130SOL    HW130945   4.314   6.950   4.572 -2.0095 -1.6105  1.0489
10130SOL    HW230946   4.417   6.943   4.683 -0.3784 -0.8367 -0.3626
10131SOL     OW30947   7.004   0.673   7.143  0.7903  0.3537 -0.6210
10131SOL    HW130948   6.965   0.757   7.116  1.8007  0.9050 -0.4087
10131SOL    HW230949   6.976   0.663   7.234 -0.6795 -0.3619 -1.1154
10132SOL     OW30950   7.384   4.375   5.584  0.4120  0.3764 -0.8269
10132SOL    HW130951   7.463   4.368   5.639 -0.5187 -1.2993  0.3820
10132SOL    HW230952   7.323   4.313   5.622 -0.8416  0.2475 -2.9133
10133SOL     OW30953   5.652   2.381   7.354  0.4010  0.2256 -0.7139
10133SOL    HW130954   5.634   2.432   7.276 -1.4044  1.6745  0.5727
10133SOL    HW230955   5.583   2.405   7.416  0.5458 -2.4142  0.6317
10134SOL     OW30956   2.461   3.987   1.354  0.4916 -0.5522 -0.1253
10134SOL    HW130957   2.454   3.958   1.445  0.3749 -1.3933 -0.3975
10134SOL    HW230958   2.546   4.032   1.350 -0.8310  2.3064  1.1415
10135SOL     OW30959   1.964   1.306   7.342  0.2621 -0.1773 -0.2985
10135SOL    HW130960   1.925   1.393   7.350  0.7036 -0.0460  0.5021
10135SOL    HW230961   1.930   1.257   7.416  0.9369 -0.3243 -0.0807
10136SOL     OW30962   4.586   4.708   5.301  0.2780 -0.6531  0.4501
10136SOL    HW130963   4.512   4.651   5.279  1.2181 -1.8401  0.2288
10136SOL    HW230964   4.661   4.668   5.256  1.0795  0.4570  0.7494
10137SOL     OW30965   6.519   6.245   3.808  0.0950 -0.6648  0.1968
10137SOL    HW130966   6.585   6.283   3.866 -0.8682  0.6060  0.5228
10137SOL    HW230967   6.443   6.230   3.865 -0.7458  0.2679 -0.6436
10138SOL     OW30968   6.737   6.583   3.078  0.3492 -0.6020  0.3394
10138SOL    HW130969   6.825   6.613   3.102 -0.5984  2.0243  0.9558
10138SOL    HW230970   6.750   6.494   3.046  3.4565  0.1870 -1.0489
10139SOL     OW30971   7.317   2.545   6.474  0.3813 -1.0856 -0.0349
10139SOL    HW130972   7.242   2.558   6.415  0.9886  2.2263 -0.2461
10139SOL    HW230973   7.388   2.516   6.417  0.0868 -1.1691 -0.3610
10140SOL     OW30974   1.088   4.196   1.706  0.1206 -0.2766  0.2344
10140SOL    HW130975   1.074   4.274   1.652 -0.3294  0.0274  0.7745
10140SOL    HW230976   1.023   4.133   1.674 -0.7183  0.1936  0.9473
10141SOL     OW30977   6.278   3.196   1.860 -0.1008 -0.2610 -0.1477
10141SOL    HW130978   6.335   3.260   1.903  0.1975 -0.8002  0.2837
10141SOL    HW230979   6.213   3.173   1.926  1.3700 -2.3717  0.6831
10142SOL     OW30980   2.693   4.615   3.889  0.0548  0.3943 -0.1970
10142SOL    HW130981   2.697   4.540   3.829 -0.4988  0.1923  0.0139
10142SOL    HW230982   2.755   4.678   3.852 -1.5687  1.0312 -2.0498
10143SOL     OW30983   5.158   2.513   2.027  0.5631  0.3067 -0.1250
10143SOL    HW130984   5.090   2.577   2.005  1.3767  0.8697 -1.0704
10143SOL    HW230985   5.116   2.454   2.089 -0.4827  1.2355  0.0802
10144SOL     OW30986   2.375   6.343   7.354 -0.2199  0.0082 -0.0683
10144SOL    HW130987   2.407   6.256   7.376  0.1362 -0.1724 -1.2432
10144SOL    HW230988   2.391   6.396   7.433  1.4464 -0.4808 -0.0504
10145SOL     OW30989   0.899   4.731   7.276 -0.1791  0.0987 -0.2799
10145SOL    HW130990   0.861   4.762   7.194 -0.0878  2.3056  0.4244
10145SOL    HW230991   0.974   4.677   7.250 -0.5923  0.1666 -1.6486
10146SOL     OW30992   6.630   7.353   7.526  0.4390 -0.6682 -0.1949
10146SOL    HW130993   6.723   7.356   7.545  0.4501  0.7429 -0.3650
10146SOL    HW230994   6.597   7.440   7.550 -0.1229  0.2051 -3.5902
10147SOL     OW30995   7.181   7.736   7.545  0.1958 -0.2644  0.1350
10147SOL    HW130996   7.254   7.730   7.484 -0.5838 -0.4806 -0.7933
10147SOL    HW230997   7.203   7.811   7.601  1.5139 -0.8302  0.4197
10148SOL     OW30998   3.702   3.450   3.929 -0.7102 -0.3655 -0.0449
10148SOL    HW130999   3.683   3.511   3.858 -1.5625 -1.7068 -1.0028
10148SOL    HW231000   3.787   3.479   3.963 -0.7881  0.9514 -0.8797
10149SOL     OW31001   5.885   3.945   2.732 -0.4647 -0.1040  0.0783
10149SOL    HW131002   5.939   4.015   2.768 -1.3496  0.9098 -0.5044
10149SOL    HW231003   5.807   3.944   2.788 -1.4181  0.8427 -1.1696
10150SOL     OW31004   3.159   1.716   3.638  0.0095 -0.0506  0.5396
10150SOL    HW131005   3.187   1.769   3.713  0.1424 -0.7005  0.9500
10150SOL    HW231006   3.099   1.652   3.674 -1.1608  0.6136 -0.1615
10151SOL     OW31007   1.188   1.344   7.601 -0.0230  0.1557 -0.0744
10151SOL    HW131008   1.104   1.353   7.646  0.1496 -0.4182  0.3797
10151SOL    HW231009   1.198   1.426   7.552 -0.2870  0.7212  0.8075
10152SOL     OW31010   5.266   1.654   0.755  0.4915  0.3196 -0.5902
10152SOL    HW131011   5.280   1.561   0.771  1.8856  0.5506 -0.3676
10152SOL    HW231012   5.278   1.663   0.660 -0.9928  0.0688 -0.8215
10153SOL     OW31013   7.515   4.546   0.910 -0.1238 -0.4819  0.2859
10153SOL    HW131014   7.533   4.459   0.873 -1.1774 -0.7259  0.3053
10153SOL    HW231015   7.463   4.528   0.988  1.6006  0.0596  1.6179
10154SOL     OW31016   7.270   1.301   3.383  0.2372  0.0245  0.2275
10154SOL    HW131017   7.363   1.281   3.395  0.5867  0.8590 -0.8933
10154SOL    HW231018   7.231   1.288   3.469  1.1980 -1.3176  0.4891
10155SOL     OW31019   1.738   7.694   5.741 -0.4866 -0.3380  0.5767
10155SOL    HW131020   1.747   7.605   5.706 -1.0083 -0.0036 -0.4577
10155SOL    HW231021   1.808   7.702   5.805  0.6914 -0.9126 -0.5856
10156SOL     OW31022   5.785   2.131   3.487  0.2059  0.3283 -0.0385
10156SOL    HW131023   5.800   2.201   3.424 -0.5047  0.2052 -0.3480
10156SOL    HW231024   5.692   2.111   3.480  0.8278 -2.4665 -1.8705
10157SOL     OW31025   6.370   6.336   6.201 -0.5902 -0.6472 -0.7904
10157SOL    HW131026   6.457   6.371   6.186 -0.3091 -0.1465  1.5365
10157SOL    HW231027   6.332   6.325   6.114  1.2113  0.6169 -1.7880
10158SOL     OW31028   1.122   2.157   0.813  0.4751 -0.1611 -0.0548
10158SOL    HW131029   1.131   2.252   0.818  0.5681 -0.1846  0.2713
10158SOL    HW231030   1.152   2.126   0.898  0.5540 -0.4915 -0.2022
10159SOL     OW31031   6.660   4.008   2.813  0.6755 -0.2065 -0.6014
10159SOL    HW131032   6.737   4.053   2.848  0.5383 -0.7791  0.4850
10159SOL    HW231033   6.674   4.007   2.718  2.5484 -1.2352 -0.3695
10160SOL     OW31034   3.846   1.729   4.557  0.4367 -0.3122 -0.5060
10160SOL    HW131035   3.939   1.719   4.577  0.2217 -1.9880 -0.2538
10160SOL    HW231036   3.809   1.642   4.567 -1.5801  0.6603  1.4041
10161SOL     OW31037   1.030   1.242   6.184  0.1230 -0.3924 -0.7691
10161SOL    HW131038   0.969   1.271   6.117 -0.9651  0.5769  0.5902
10161SOL    HW231039   1.012   1.148   6.195 -1.4050 -0.0518 -0.1377
10162SOL     OW31040   7.370   0.295   5.124 -0.0131 -0.4263  0.5790
10162SOL    HW131041   7.457   0.331   5.110 -0.5275  0.9934  0.8374
10162SOL    HW231042   7.385   0.212   5.170  1.1870 -0.0773  0.8396
10163SOL     OW31043   6.782   2.206   0.661  0.5150  0.1033 -0.2737
10163SOL    HW131044   6.773   2.236   0.751 -0.5501  1.2877 -0.7322
10163SOL    HW231045   6.696   2.169   0.640  0.8061 -0.3112 -0.7432
10164SOL     OW31046   7.185   7.151   6.143 -0.0961  0.3929  0.0538
10164SOL    HW131047   7.259   7.179   6.089 -0.6717  1.4062 -0.2539
10164SOL    HW231048   7.154   7.071   6.101  0.4116  0.3314 -0.2100
10165SOL     OW31049   2.441   6.846   2.754 -0.5473  0.3497  0.1296
10165SOL    HW131050   2.461   6.825   2.663  0.9270  0.0377  0.5071
10165SOL    HW231051   2.442   6.762   2.800 -0.5336  0.5873  0.5733
10166SOL     OW31052   6.081   0.043   0.865 -0.1326 -0.5724  0.1272
10166SOL    HW131053   6.124   0.126   0.842  0.1625 -1.1291 -1.5370
10166SOL    HW231054   5.988   0.061   0.854  0.0010 -0.8365 -1.7763
10167SOL     OW31055   5.407   4.242   4.610  0.0220 -0.1873  0.0086
10167SOL    HW131056   5.448   4.291   4.681  0.1575 -0.3190  0.0189
10167SOL    HW231057   5.479   4.196   4.567 -0.0777 -0.2120 -0.1332
10168SOL     OW31058   1.472   6.379   0.585 -0.2631  0.0024 -0.3710
10168SOL    HW131059   1.408   6.450   0.585 -0.3499 -0.0771 -0.5554
10168SOL    HW231060   1.554   6.421   0.613 -0.3882  0.1071 -0.1595
10169SOL     OW31061   5.840   1.324   6.983  0.1494  0.0590  0.0382
10169SOL    HW131062   5.785   1.260   7.028  0.6466 -0.3843  0.0293
10169SOL    HW231063   5.783   1.362   6.916 -0.0747 -0.5794 -0.1445
10170SOL     OW31064   6.129   2.070   5.382  0.0921  0.5667 -0.3074
10170SOL    HW131065   6.150   2.136   5.315  0.6674  0.0607 -0.6321
10170SOL    HW231066   6.121   2.120   5.463 -0.7051  1.2013 -0.7663
10171SOL     OW31067   3.096   0.675   2.791  0.0872 -0.1540 -1.0823
10171SOL    HW131068   3.066   0.585   2.782 -1.6689  0.2270  0.3132
10171SOL    HW231069   3.038   0.725   2.733 -0.4967  0.3185 -0.1237
10172SOL     OW31070   0.091   2.575   2.511  0.4094  0.3178  0.0127
10172SOL    HW131071   0.011   2.618   2.543  0.1883 -0.2712  0.2624
10172SOL    HW231072   0.102   2.499   2.568  2.0165  1.2201  0.9846
10173SOL     OW31073   6.312   6.234   2.516 -0.5606 -0.3513  0.0357
10173SOL    HW131074   6.218   6.220   2.504 -0.5192  0.9070 -2.5704
10173SOL    HW231075   6.318   6.324   2.550 -0.2853 -0.4948  0.3724
10174SOL     OW31076   3.903   1.403   0.588  0.0598  0.5663  0.2966
10174SOL    HW131077   3.848   1.325   0.591 -2.1834  2.0765  0.2648
10174SOL    HW231078   3.963   1.387   0.516 -2.3860  0.1133 -1.7692
10175SOL     OW31079   4.308   5.592   4.325  0.1038  0.0080 -0.4151
10175SOL    HW131080   4.384   5.569   4.378  0.4469  0.9632 -0.4726
10175SOL    HW231081   4.234   5.590   4.385  0.2291 -0.5752 -0.2796
10176SOL     OW31082   3.739   6.902   2.752  0.4242 -0.1989  0.0643
10176SOL    HW131083   3.777   6.924   2.667 -0.2060  1.4141  0.1597
10176SOL    HW231084   3.794   6.949   2.816 -1.5044  2.0605  0.2106
10177SOL     OW31085   6.699   0.093   6.459 -0.3307 -0.0590 -0.1716
10177SOL    HW131086   6.678   0.000   6.457 -1.0477  0.0450  1.3492
10177SOL    HW231087   6.782   0.098   6.506  0.0974  0.0350 -0.9083
10178SOL     OW31088   5.178   3.065   1.172 -0.1989 -0.7552  0.5612
10178SOL    HW131089   5.112   3.041   1.106  0.3388 -3.3555  0.8508
10178SOL    HW231090   5.127   3.103   1.243 -0.9871  0.3503 -0.5489
10179SOL     OW31091   1.366   2.309   2.296  0.5377 -0.1399  0.4406
10179SOL    HW131092   1.314   2.386   2.276  0.1577 -0.2655  0.9286
10179SOL    HW231093   1.456   2.335   2.276  0.1512 -0.5208 -2.2212
10180SOL     OW31094   5.924   1.674   4.981  0.1609  0.1472 -0.4801
10180SOL    HW131095   5.853   1.636   4.930 -1.6152  2.0849  0.3982
10180SOL    HW231096   5.988   1.604   4.990 -1.4968 -1.5854 -1.5641
10181SOL     OW31097   3.512   7.439   4.301  0.2867 -0.0469  0.2046
10181SOL    HW131098   3.536   7.464   4.391 -0.3497 -0.5901  0.5364
10181SOL    HW231099   3.418   7.425   4.304  0.1026  0.8579 -0.7936
10182SOL     OW31100   1.346   3.314   0.696 -0.2165 -0.0235  0.0185
10182SOL    HW131101   1.352   3.401   0.658 -0.4807  0.0540  0.1576
10182SOL    HW231102   1.261   3.312   0.740  0.2006 -0.0148  0.8450
10183SOL     OW31103   5.291   1.021   0.851 -0.0251 -0.0068  0.9152
10183SOL    HW131104   5.364   0.986   0.902 -0.6390 -0.4833  1.4857
10183SOL    HW231105   5.311   0.997   0.760  0.8253  0.4029  0.9865
10184SOL     OW31106   1.720   6.949   6.464 -0.3574  0.2974  0.0107
10184SOL    HW131107   1.716   6.957   6.369  0.6081 -0.3834 -0.0987
10184SOL    HW231108   1.662   6.877   6.485 -0.9452  0.7569 -0.0065
10185SOL     OW31109   1.274   0.082   2.876  0.2798  0.1583 -0.5559
10185SOL    HW131110   1.362   0.049   2.858 -0.0143 -2.1958  1.7480
10185SOL    HW231111   1.286   0.143   2.949  0.0816  0.1010 -0.4737
10186SOL     OW31112   4.708   4.666   6.373 -0.8142  0.6679  0.0542
10186SOL    HW131113   4.741   4.753   6.395  1.1140 -0.6377  3.1275
10186SOL    HW231114   4.782   4.620   6.335 -0.9473 -0.3900  0.9878
10187SOL     OW31115   5.720   7.292   4.018 -0.4163  0.6783 -0.2889
10187SOL    HW131116   5.743   7.383   4.039 -1.8224  1.1753 -0.7254
10187SOL    HW231117   5.651   7.271   4.081 -0.9766  0.3628 -0.9944
10188SOL     OW31118   5.080   1.433   3.556  0.1975 -0.3632 -0.6306
10188SOL    HW131119   5.163   1.476   3.577 -0.7189  1.8972 -1.2840
10188SOL    HW231120   5.024   1.449   3.632 -0.0973 -0.6241 -0.7889
10189SOL     OW31121   1.400   1.336   5.514 -0.4403 -0.4813  0.8230
10189SOL    HW131122   1.490   1.368   5.510  0.1709 -2.1912 -0.1281
10189SOL    HW231123   1.347   1.411   5.486  1.0067 -0.5196 -2.4768
10190SOL     OW31124   0.621   4.424   0.901  0.3917 -0.1178  0.5139
10190SOL    HW131125   0.539   4.397   0.942 -0.0765  0.4263 -0.0459
10190SOL    HW231126   0.681   4.352   0.919  0.0577 -0.1330  1.6964
10191SOL     OW31127   0.801   1.298   1.917 -0.4183 -0.2273  0.7424
10191SOL    HW131128   0.797   1.204   1.899 -0.1191  0.0098 -0.6624
10191SOL    HW231129   0.894   1.319   1.911 -0.7312  0.7998 -2.7569
10192SOL     OW31130   3.244   2.834   2.138 -0.0348  0.6123  0.2124
10192SOL    HW131131   3.317   2.772   2.133  0.1626  0.8450  0.2416
10192SOL    HW231132   3.246   2.866   2.228 -1.1559 -0.5874  0.7131
10193SOL     OW31133   3.687   5.867   5.996 -0.2917  0.0969  0.1206
10193SOL    HW131134   3.597   5.853   6.023  0.3832  0.3253  2.7152
10193SOL    HW231135   3.715   5.782   5.960 -0.3461 -1.3284  3.1301
10194SOL     OW31136   2.672   2.935   7.590  0.2226  0.1832  0.3550
10194SOL    HW131137   2.730   2.965   7.520 -0.5465 -0.9908 -0.8197
10194SOL    HW231138   2.599   2.997   7.588  1.3723  1.6601  1.8331
10195SOL     OW31139   0.682   2.980   6.711  0.5905  0.1195  0.1482
10195SOL    HW131140   0.705   3.016   6.625  0.3663  1.1584  0.5016
10195SOL    HW231141   0.626   2.905   6.692 -0.9286  1.3866 -0.6092
10196SOL     OW31142   3.896   4.907   5.375 -0.6940  0.1710 -0.5307
10196SOL    HW131143   3.857   4.838   5.321 -2.1838 -0.0630  0.7677
10196SOL    HW231144   3.983   4.919   5.339 -0.3839 -2.4013 -0.8242
10197SOL     OW31145   5.654   2.650   1.791 -0.6227 -0.1270 -0.2027
10197SOL    HW131146   5.673   2.657   1.884  0.3743 -1.3697 -0.2887
10197SOL    HW231147   5.565   2.614   1.787 -0.5665 -0.3203  0.2651
10198SOL     OW31148   0.955   6.703   2.796  0.5307 -0.1219 -0.4652
10198SOL    HW131149   0.995   6.618   2.813 -0.2445 -0.9624 -2.5184
10198SOL    HW231150   0.881   6.708   2.856 -0.5147 -1.7475 -1.5477
10199SOL     OW31151   5.184   0.342   5.941 -0.1457  0.2826 -0.3631
10199SOL    HW131152   5.187   0.301   5.855  0.8027  1.8395 -1.1155
10199SOL    HW231153   5.247   0.292   5.994 -0.1553 -0.1855 -0.7874
10200SOL     OW31154   3.379   3.249   6.253 -0.1945  0.0639 -0.3822
10200SOL    HW131155   3.316   3.317   6.231 -3.0719 -1.6232  1.9740
10200SOL    HW231156   3.406   3.270   6.343 -0.4228 -1.3840  0.0443
10201SOL     OW31157   5.926   2.822   5.081 -0.8344  0.0025  0.5907
10201SOL    HW131158   5.906   2.742   5.032 -1.5833 -0.3233  1.3862
10201SOL    HW231159   6.020   2.835   5.070 -0.4850 -1.6243  1.3538
10202SOL     OW31160   1.422   5.497   1.085 -0.4522  0.3654  0.1517
10202SOL    HW131161   1.374   5.553   1.024  1.1806  2.2441  0.5147
10202SOL    HW231162   1.484   5.555   1.128  1.1444 -1.6676  0.7760
10203SOL     OW31163   1.108   1.757   7.269  0.1411  0.6101 -0.2761
10203SOL    HW131164   1.025   1.760   7.317  0.8164  0.3026  0.9580
10203SOL    HW231165   1.118   1.665   7.244  1.3953  0.0343  2.0198
10204SOL     OW31166   6.401   1.217   3.934  0.4116  0.1218  0.1145
10204SOL    HW131167   6.311   1.183   3.937 -0.2161  1.4120 -1.8750
10204SOL    HW231168   6.440   1.190   4.017 -2.6430  1.7548  2.2666
10205SOL     OW31169   2.713   2.242   2.970  0.0550  0.0789  0.1549
10205SOL    HW131170   2.651   2.255   3.042  0.2154  0.6299  0.1984
10205SOL    HW231171   2.797   2.224   3.013 -0.4889 -3.2263  0.1501
10206SOL     OW31172   4.673   3.566   4.355  0.7505  0.2388 -0.0895
10206SOL    HW131173   4.738   3.553   4.287  3.2526  1.1046  1.9751
10206SOL    HW231174   4.674   3.661   4.372 -1.0735  0.2795  0.0166
10207SOL     OW31175   3.474   5.612   1.311 -0.3258  0.0663  0.1513
10207SOL    HW131176   3.464   5.612   1.406  2.8594 -4.5952  0.8127
10207SOL    HW231177   3.568   5.616   1.296 -0.6117 -1.1272 -2.6699
10208SOL     OW31178   4.825   6.264   1.101  0.1493  0.2779  0.7088
10208SOL    HW131179   4.766   6.191   1.119  0.9248 -0.7039 -0.5506
10208SOL    HW231180   4.855   6.293   1.187  0.7824 -1.7015  1.2011
10209SOL     OW31181   6.437   6.141   4.460  0.0435  0.8973 -0.2414
10209SOL    HW131182   6.530   6.163   4.468  0.1443  0.7400 -0.9268
10209SOL    HW231183   6.407   6.131   4.550  1.0684 -0.6497 -0.0312
10210SOL     OW31184   4.438   0.474   4.505  0.1148 -0.3311  0.1702
10210SOL    HW131185   4.506   0.540   4.519 -0.6897  0.1571  2.0784
10210SOL    HW231186   4.404   0.494   4.418  0.7221  1.0141  0.2061
10211SOL     OW31187   2.608   7.126   3.997  0.5425 -0.3718  0.3262
10211SOL    HW131188   2.601   7.221   3.994  2.1921 -0.1500  2.0324
10211SOL    HW231189   2.544   7.099   4.063 -0.8018 -0.6156 -1.0139
10212SOL     OW31190   7.694   5.364   4.343  0.1167  0.1860  0.3059
10212SOL    HW131191   7.682   5.280   4.300  2.2661 -0.3748  0.7301
10212SOL    HW231192   7.609   5.383   4.383 -1.4472 -0.0969 -2.6125
10213SOL     OW31193   3.456   2.290   0.047 -0.4508 -0.3119 -0.3453
10213SOL    HW131194   3.395   2.226   0.008 -0.5248 -0.1629 -0.4746
10213SOL    HW231195   3.540   2.271   0.004 -0.5813 -0.0047 -0.7404
10214SOL     OW31196   7.618   4.245   6.599 -0.4080 -0.2624  0.1216
10214SOL    HW131197   7.589   4.307   6.666 -2.2270 -0.6509 -0.2425
10214SOL    HW231198   7.595   4.159   6.635  0.4646 -0.6198 -0.1430
10215SOL     OW31199   2.157   2.299   4.454 -0.1447 -0.1967  0.0562
10215SOL    HW131200   2.242   2.257   4.464  0.2607  0.5217 -0.3335
10215SOL    HW231201   2.128   2.316   4.543 -1.0866 -2.7692  0.3461
10216SOL     OW31202   4.569   5.016   2.204 -0.2006 -0.0700  0.4529
10216SOL    HW131203   4.664   5.029   2.193 -0.5025  1.2699 -0.9154
10216SOL    HW231204   4.562   4.944   2.267  1.7607 -1.9329 -1.2791
10217SOL     OW31205   2.907   6.038   2.836 -0.0535 -0.2280  0.1861
10217SOL    HW131206   2.928   6.007   2.925  0.5978 -0.4305 -0.0289
10217SOL    HW231207   2.984   6.014   2.784 -0.5715 -0.4122 -0.5101
10218SOL     OW31208   5.563   1.960   7.251  0.0402  0.4166 -0.3149
10218SOL    HW131209   5.602   2.016   7.184 -0.3930 -2.0236 -2.8017
10218SOL    HW231210   5.534   1.882   7.203 -1.2937 -1.0301  2.5821
10219SOL     OW31211   5.731   3.807   5.991 -0.1080  0.1892  0.0108
10219SOL    HW131212   5.747   3.822   6.084  0.5546 -2.4554  0.4119
10219SOL    HW231213   5.796   3.861   5.946  1.0214 -0.1520  1.1857
10220SOL     OW31214   1.103   0.921   7.111 -0.0350 -0.1688 -0.4214
10220SOL    HW131215   1.153   1.000   7.132  0.3995 -0.0830 -1.6935
10220SOL    HW231216   1.022   0.952   7.073 -0.2084 -0.3341 -0.1924
10221SOL     OW31217   3.348   6.480   4.321 -0.0934 -0.0723 -0.7412
10221SOL    HW131218   3.384   6.489   4.233  0.4773  0.8128 -0.4373
10221SOL    HW231219   3.254   6.468   4.308  0.1114 -0.9622 -1.4999
10222SOL     OW31220   7.652   1.337   2.749 -0.1544 -0.1564  0.5628
10222SOL    HW131221   7.614   1.305   2.667  0.8703  1.3169 -0.5457
10222SOL    HW231222   7.745   1.313   2.744  0.3062  1.5273  0.4060
10223SOL     OW31223   6.979   6.761   3.565  0.0043  0.1950  0.6607
10223SOL    HW131224   6.913   6.732   3.628 -0.3138  0.3714  0.4150
10223SOL    HW231225   6.930   6.774   3.484  0.3565  0.2586  0.4572
10224SOL     OW31226   6.513   4.333   1.822 -0.0538  0.2096 -0.1248
10224SOL    HW131227   6.585   4.279   1.854  0.0422 -0.3738 -1.2767
10224SOL    HW231228   6.452   4.337   1.896  0.2181 -0.9948  0.1884
10225SOL     OW31229   3.584   2.038   7.505  1.1541 -0.2302 -0.3863
10225SOL    HW131230   3.529   1.988   7.445  1.0058 -0.5243 -0.0086
10225SOL    HW231231   3.599   1.979   7.579 -0.5353  0.8934  0.9388
10226SOL     OW31232   3.711   7.134   1.158 -0.2965  0.1255  0.4832
10226SOL    HW131233   3.742   7.089   1.079 -1.3668  1.6883 -0.9215
10226SOL    HW231234   3.755   7.219   1.156 -0.5075  0.2644  1.4504
10227SOL     OW31235   4.874   7.381   7.011  0.8992  0.1942 -0.4977
10227SOL    HW131236   4.835   7.385   7.098 -0.1781 -1.9181 -0.8035
10227SOL    HW231237   4.902   7.470   6.992 -2.3903  1.5520  0.4067
10228SOL     OW31238   3.746   2.581   0.609 -0.4472 -0.2628 -0.0085
10228SOL    HW131239   3.789   2.541   0.685  0.0640  0.6921  0.2255
10228SOL    HW231240   3.702   2.658   0.646  0.0970  0.4046 -0.7347
10229SOL     OW31241   5.512   7.501   4.984  0.0015 -0.9904  0.5287
10229SOL    HW131242   5.535   7.460   5.067  0.6907 -2.3802 -0.3037
10229SOL    HW231243   5.560   7.450   4.918 -1.9307 -1.0636 -0.8951
10230SOL     OW31244   2.463   7.547   0.311  0.0391 -0.1454  0.6384
10230SOL    HW131245   2.428   7.469   0.353 -0.0179 -0.0446  0.7820
10230SOL    HW231246   2.557   7.532   0.305 -0.1262 -0.8030 -0.5636
10231SOL     OW31247   3.764   7.292   0.390  0.3978 -0.2962  0.1725
10231SOL    HW131248   3.678   7.272   0.352 -0.1886  1.8892  0.2203
10231SOL    HW231249   3.821   7.223   0.356 -1.3670 -1.8778  0.2147
10232SOL     OW31250   5.985   2.952   1.814 -0.4528 -0.1243 -0.0341
10232SOL    HW131251   5.991   3.046   1.831  0.7594 -0.3339  0.8916
10232SOL    HW231252   5.913   2.943   1.752 -0.7189  1.3916  0.0143
10233SOL     OW31253   4.111   2.500   5.193 -0.0250 -0.0892 -0.5058
10233SOL    HW131254   4.200   2.470   5.181 -0.4077 -0.8985 -1.4494
10233SOL    HW231255   4.105   2.581   5.142 -0.0280 -0.4328 -1.0588
10234SOL     OW31256   3.420   3.277   5.128 -0.0525 -0.6139  0.0166
10234SOL    HW131257   3.416   3.246   5.038  0.8261 -0.6581 -0.0221
10234SOL    HW231258   3.514   3.288   5.145 -0.2402 -0.0693  0.7406
10235SOL     OW31259   6.355   3.275   1.028  0.1237 -0.5838 -0.0878
10235SOL    HW131260   6.449   3.262   1.018 -0.0750 -0.8173 -2.2547
10235SOL    HW231261   6.331   3.333   0.955 -1.3012  0.0807  0.8646
10236SOL     OW31262   7.682   4.801   0.849 -0.5146 -0.4462 -0.2172
10236SOL    HW131263   7.607   4.745   0.866 -0.3819 -0.6684 -0.3556
10236SOL    HW231264   7.644   4.883   0.817 -0.6831 -0.7333 -0.7700
10237SOL     OW31265   7.735   5.669   5.609 -0.4137  0.0078 -0.1939
10237SOL    HW131266   7.659   5.671   5.551  0.6140 -1.6046 -1.6614
10237SOL    HW231267   7.710   5.609   5.679 -1.1516  0.9361  0.3762
10238SOL     OW31268   2.180   6.408   6.574  0.2748  0.2914  0.4709
10238SOL    HW131269   2.198   6.367   6.490 -0.9899  1.5591 -0.4635
10238SOL    HW231270   2.260   6.456   6.596 -0.2330  2.0972 -1.3443
10239SOL     OW31271   4.424   6.128   6.308  0.2628  0.2647  0.3102
10239SOL    HW131272   4.498   6.183   6.282 -1.4530  1.0557 -3.7333
10239SOL    HW231273   4.442   6.043   6.266 -0.1018 -0.2803  1.2189
10240SOL     OW31274   2.568   3.274   3.260 -0.4493  0.4121 -0.2199
10240SOL    HW131275   2.527   3.270   3.174 -0.4375  1.4696 -0.2947
10240SOL    HW231276   2.608   3.361   3.264  1.8924 -0.5642 -0.2056
10241SOL     OW31277   7.092   0.040   4.464 -0.3570 -0.3486  0.0744
10241SOL    HW131278   7.124   0.101   4.529 -1.4440 -1.4315  1.7030
10241SOL    HW231279   7.081   0.093   4.385  2.2984  0.7081  0.3069
10242SOL     OW31280   4.758   5.186   1.771  0.1605  0.3560  0.2193
10242SOL    HW131281   4.749   5.099   1.811  1.7914  0.1062  0.0931
10242SOL    HW231282   4.677   5.197   1.721 -0.2982 -0.8715  0.6392
10243SOL     OW31283   6.399   1.924   5.371  0.5154  0.2213 -0.1672
10243SOL    HW131284   6.337   1.996   5.380 -1.9491 -1.6258 -1.2256
10243SOL    HW231285   6.406   1.888   5.460  1.9127  1.7668  0.4095
10244SOL     OW31286   5.591   2.318   3.152  0.1198  0.3651 -0.6116
10244SOL    HW131287   5.498   2.334   3.166 -0.3854 -0.7165 -2.3599
10244SOL    HW231288   5.604   2.226   3.175  0.8579  0.6102 -0.0006
10245SOL     OW31289   5.215   3.335   5.771 -0.2807 -0.1078  0.5816
10245SOL    HW131290   5.195   3.424   5.800 -0.6756 -0.1328  0.3979
10245SOL    HW231291   5.135   3.286   5.788  0.2415 -0.6446  1.5251
10246SOL     OW31292   1.645   0.351   1.313  0.3960  0.1864  0.0035
10246SOL    HW131293   1.647   0.444   1.334 -0.2583 -0.0690  1.3254
10246SOL    HW231294   1.644   0.348   1.217 -1.1174  1.5959 -0.0801
10247SOL     OW31295   5.766   0.020   4.204 -0.6534  0.0626 -0.2255
10247SOL    HW131296   5.697   0.083   4.224 -1.4438 -0.7067 -0.4699
10247SOL    HW231297   5.751  -0.053   4.265 -0.4621 -0.4044 -0.7235
10248SOL     OW31298   0.550   2.874   4.883 -0.3315  0.2097  0.0347
10248SOL    HW131299   0.603   2.798   4.859 -0.9460 -0.4730  0.7961
10248SOL    HW231300   0.598   2.915   4.955  0.0023  0.5609 -0.3792
10249SOL     OW31301   1.676   0.897   2.594  0.4239  0.0633  0.5863
10249SOL    HW131302   1.618   0.823   2.612  0.3790 -0.5020 -1.5960
10249SOL    HW231303   1.763   0.866   2.617  0.2647 -0.2753  0.7364
10250SOL     OW31304   7.148   3.714   4.228 -0.0319 -0.2264 -0.2320
10250SOL    HW131305   7.091   3.715   4.151 -0.9868  0.2467  0.4606
10250SOL    HW231306   7.237   3.707   4.193 -0.4816 -0.4244 -1.3542
10251SOL     OW31307   4.914   0.586   5.277 -0.1875  0.1378 -0.1270
10251SOL    HW131308   4.965   0.647   5.223  0.8853  0.2871  1.0164
10251SOL    HW231309   4.980   0.539   5.328 -1.0166 -1.7091 -0.6729
10252SOL     OW31310   3.537   2.631   1.506 -0.1025  0.1290 -0.0607
10252SOL    HW131311   3.455   2.678   1.488  0.6084  0.2359 -3.8091
10252SOL    HW231312   3.602   2.699   1.517  0.0150  0.0260 -0.1155
10253SOL     OW31313   2.097   6.814   4.226 -0.2450 -0.7037 -0.2791
10253SOL    HW131314   2.081   6.905   4.203 -0.6580 -0.5466  0.5786
10253SOL    HW231315   2.044   6.764   4.163 -0.1177 -0.3544 -0.6702
10254SOL     OW31316   1.347   3.538   7.677  0.1166 -0.1642  0.8998
10254SOL    HW131317   1.406   3.596   7.628 -0.5974  0.7850  1.1304
10254SOL    HW231318   1.363   3.560   7.769 -0.5189  0.0250  0.9668
10255SOL     OW31319   5.611   4.963   6.965 -0.0401 -0.3816  0.2254
10255SOL    HW131320   5.652   4.969   7.052 -1.3592 -1.7204  0.9786
10255SOL    HW231321   5.532   5.017   6.971 -0.7494 -1.3958  0.2531
10256SOL     OW31322   1.413   2.400   1.641  0.7025  0.1280  0.1555
10256SOL    HW131323   1.343   2.451   1.600  1.5054  1.4956  0.4240
10256SOL    HW231324   1.469   2.372   1.569  0.7310  0.3638  0.0870
10257SOL     OW31325   3.276   4.144   2.100 -0.1430 -0.4770  0.0894
10257SOL    HW131326   3.365   4.114   2.081 -0.4467 -1.9142  0.7766
10257SOL    HW231327   3.278   4.167   2.193  0.0036  1.4588 -0.3507
10258SOL     OW31328   5.994   0.834   5.695 -0.8670 -0.2268 -0.3602
10258SOL    HW131329   6.014   0.800   5.783 -1.1619  0.2364 -0.1133
10258SOL    HW231330   6.079   0.835   5.651 -0.1502  2.2933  0.8720
10259SOL     OW31331   7.552   1.517   6.128 -0.4714  0.0473  0.4285
10259SOL    HW131332   7.640   1.532   6.164 -0.7141 -1.5345  1.7917
10259SOL    HW231333   7.511   1.604   6.129  1.1857  0.8914 -0.6354
10260SOL     OW31334   7.563   6.257   1.908  0.1019  0.6357  0.2325
10260SOL    HW131335   7.651   6.224   1.926  0.8859  2.3464 -0.3323
10260SOL    HW231336   7.558   6.341   1.954 -0.5314  1.4685 -1.2904
10261SOL     OW31337   0.964   6.962   2.662 -0.3557 -0.2762 -0.1760
10261SOL    HW131338   1.001   6.953   2.574  1.8228 -1.8033  0.7937
10261SOL    HW231339   0.975   6.876   2.702  0.9993  0.9553  2.3746
10262SOL     OW31340   5.590   0.847   1.998  0.3219 -0.0190  0.8618
10262SOL    HW131341   5.576   0.865   1.905  0.5027  0.5928  0.9499
10262SOL    HW231342   5.506   0.812   2.028 -0.5514  2.0345  1.0089
10263SOL     OW31343   1.146   2.050   5.392 -0.1867  0.0282 -0.3200
10263SOL    HW131344   1.185   2.052   5.305  0.6258  0.7264  0.0368
10263SOL    HW231345   1.096   2.131   5.398  1.5818  1.1293  0.6206
10264SOL     OW31346   2.188   7.547   7.044 -0.3424 -0.0161  0.6404
10264SOL    HW131347   2.141   7.468   7.070  0.6166 -0.7140  0.3036
10264SOL    HW231348   2.279   7.519   7.034 -0.2478  0.7434 -1.0814
10265SOL     OW31349   7.399   1.776   0.160 -0.4272 -0.7542 -0.4135
10265SOL    HW131350   7.432   1.866   0.166 -0.5576 -0.5230 -2.4600
10265SOL    HW231351   7.321   1.776   0.216 -0.8744  0.6523 -0.9790
10266SOL     OW31352   3.735   6.603   0.623 -0.0619  0.0978 -0.2869
10266SOL    HW131353   3.694   6.516   0.625 -0.2313  0.0427 -2.7512
10266SOL    HW231354   3.702   6.647   0.701 -0.6633 -1.7540  0.5542
10267SOL     OW31355   3.134   3.673   3.677  0.2453 -0.0087 -0.9343
10267SOL    HW131356   3.072   3.631   3.617  0.0362  0.6201 -1.1701
10267SOL    HW231357   3.140   3.613   3.751  0.4547 -0.7651 -1.5457
10268SOL     OW31358   2.473   4.013   0.252 -0.3349 -0.2186  0.3789
10268SOL    HW131359   2.382   3.992   0.234 -0.4058 -2.1812  2.5796
10268SOL    HW231360   2.515   4.015   0.166 -2.4470  0.9867 -0.6981
10269SOL     OW31361   3.931   4.357   7.008 -0.7817 -0.0628  0.5088
10269SOL    HW131362   3.858   4.348   6.946 -0.1271  0.7760 -0.4168
10269SOL    HW231363   3.958   4.267   7.027 -1.5669 -0.3566  0.2697
10270SOL     OW31364   4.359   1.733   1.467  0.2699 -0.1993 -0.0179
10270SOL    HW131365   4.323   1.814   1.503  0.1835  0.4722 -1.5369
10270SOL    HW231366   4.431   1.762   1.411 -0.2933 -1.0903 -1.2355
10271SOL     OW31367   7.315   5.989   5.456  0.1127 -0.1293 -0.6899
10271SOL    HW131368   7.245   6.044   5.420 -0.6155 -0.1673  0.6076
10271SOL    HW231369   7.286   5.899   5.441  0.6543 -0.1692 -1.5755
10272SOL     OW31370   2.425   3.054   1.524 -0.2694 -0.4935  0.0189
10272SOL    HW131371   2.437   3.003   1.443  0.3918  0.8240 -0.7502
10272SOL    HW231372   2.496   3.118   1.523  0.7189 -1.4369  2.4758
10273SOL     OW31373   0.632   2.417   1.553  0.5404 -0.0796  0.2982
10273SOL    HW131374   0.580   2.428   1.632 -0.6845  1.0507 -0.6215
10273SOL    HW231375   0.597   2.338   1.511  0.5052 -0.1090  0.3833
10274SOL     OW31376   5.859   3.554   4.143 -0.1298  0.2193  0.9436
10274SOL    HW131377   5.873   3.474   4.093 -0.4827  1.5964 -1.4959
10274SOL    HW231378   5.771   3.543   4.181  0.2860 -0.9865  1.6510
10275SOL     OW31379   4.490   1.105   7.697 -0.7451 -0.1915  0.0583
10275SOL    HW131380   4.541   1.146   7.766 -0.4722  0.5418 -0.5563
10275SOL    HW231381   4.540   1.123   7.617 -1.1013 -0.9318 -0.3423
10276SOL     OW31382   3.676   3.708   4.088 -0.0764 -0.2857 -0.8701
10276SOL    HW131383   3.593   3.713   4.041 -0.2740 -1.6895 -0.7171
10276SOL    HW231384   3.728   3.780   4.052 -0.7426 -0.4321 -2.1902
10277SOL     OW31385   4.079   4.615   1.323 -0.3011  0.0148 -0.0698
10277SOL    HW131386   4.139   4.576   1.387 -0.9899 -0.0275  0.5617
10277SOL    HW231387   4.116   4.591   1.238  1.5351  1.4268  0.2617
10278SOL     OW31388   7.562   6.885   3.092  0.6204  0.0421 -0.4319
10278SOL    HW131389   7.494   6.953   3.086  0.3347 -0.3496 -1.8295
10278SOL    HW231390   7.513   6.804   3.106  0.8684 -0.1179 -0.4925
10279SOL     OW31391   6.410   6.211   3.557  0.1196 -0.3260 -0.0510
10279SOL    HW131392   6.362   6.129   3.558  0.6620 -0.6474 -0.1195
10279SOL    HW231393   6.452   6.217   3.642  1.1222 -0.7535 -0.4969
10280SOL     OW31394   6.422   4.407   4.603  0.1113 -0.0369 -0.6020
10280SOL    HW131395   6.489   4.475   4.603 -1.5512  1.6978 -0.5516
10280SOL    HW231396   6.410   4.384   4.511  1.0003 -0.6106 -0.5806
10281SOL     OW31397   5.242   6.730   3.511  0.4286 -0.0674  0.0555
10281SOL    HW131398   5.209   6.647   3.546  0.6911 -0.9159 -1.6385
10281SOL    HW231399   5.164   6.779   3.488  0.2759 -0.7969 -1.0519
10282SOL     OW31400   0.168   1.201   1.819  0.2961  0.5689 -0.3664
10282SOL    HW131401   0.111   1.170   1.889  1.1507  0.9008  0.5029
10282SOL    HW231402   0.219   1.125   1.793  1.2109  0.8313  0.6034
10283SOL     OW31403   2.831   5.085   1.442 -0.2911 -0.2281 -0.7130
10283SOL    HW131404   2.761   5.053   1.499 -0.6782 -0.4926 -1.3188
10283SOL    HW231405   2.822   5.032   1.363  1.1353 -0.8467 -0.4827
10284SOL     OW31406   0.257   3.898   2.460  0.2692 -0.6364 -0.4445
10284SOL    HW131407   0.210   3.817   2.484  0.2764 -0.4944  0.0700
10284SOL    HW231408   0.272   3.942   2.544  0.4648 -0.2082 -0.7026
10285SOL     OW31409   4.567   2.958   6.737  0.2186 -0.6373  0.3064
10285SOL    HW131410   4.501   2.977   6.804 -0.0241  0.5594 -0.2381
10285SOL    HW231411   4.540   2.875   6.700 -0.6524 -0.4502  0.5009
10286SOL     OW31412   2.628   0.958   6.368  0.2508  0.2149 -0.1917
10286SOL    HW131413   2.677   0.920   6.295 -0.3776 -0.2894 -0.3609
10286SOL    HW231414   2.695   0.984   6.431  0.7247 -1.0243 -0.1529
10287SOL     OW31415   1.271   5.704   7.340  0.4740 -0.5603 -0.0145
10287SOL    HW131416   1.230   5.705   7.254  1.5270  1.2157 -0.5425
10287SOL    HW231417   1.334   5.776   7.338  0.0268  0.0125  2.4794
10288SOL     OW31418   4.470   1.082   2.612  0.0654 -0.1519 -0.1595
10288SOL    HW131419   4.503   0.995   2.637 -1.1585 -1.3636 -2.5129
10288SOL    HW231420   4.550   1.135   2.601  1.0078 -1.7080 -1.1923
10289SOL     OW31421   3.447   3.691   3.971  0.1891 -0.1758  0.6154
10289SOL    HW131422   3.355   3.677   3.992  0.2535  0.3407  1.2644
10289SOL    HW231423   3.447   3.709   3.877 -0.6772  2.1797  1.0044
10290SOL     OW31424   1.521   5.001   5.062  0.2976 -0.1907  0.1816
10290SOL    HW131425   1.452   5.063   5.087  0.3013  0.1923 -0.7006
10290SOL    HW231426   1.536   5.020   4.969  1.2661 -0.5836  0.2540
10291SOL     OW31427   1.515   1.086   2.488 -0.1459 -0.1287 -0.2879
10291SOL    HW131428   1.565   1.166   2.475 -0.6354  0.2371  0.0416
10291SOL    HW231429   1.578   1.024   2.526 -0.2934  0.8126  1.6266
10292SOL     OW31430   3.914   3.512   2.176 -0.7291 -0.4596 -0.3809
10292SOL    HW131431   3.823   3.487   2.193 -0.3854 -0.4470  1.8193
10292SOL    HW231432   3.960   3.429   2.163 -0.2847 -0.9497  3.1821
10293SOL     OW31433   4.874   3.337   6.641 -0.5990  0.1325 -0.0370
10293SOL    HW131434   4.904   3.310   6.727 -0.9703  0.1058  0.0884
10293SOL    HW231435   4.829   3.259   6.606 -3.1833  1.0183  1.0159
10294SOL     OW31436   1.586   5.943   3.331  0.0501 -0.0401 -0.1396
10294SOL    HW131437   1.634   5.922   3.251 -0.3216 -0.2750 -0.3040
10294SOL    HW231438   1.505   5.892   3.324  0.1043 -0.2212  0.4775
10295SOL     OW31439   5.632   0.157   3.925  0.4277  0.1861 -0.0175
10295SOL    HW131440   5.722   0.145   3.954  0.4972 -0.2446 -0.4182
10295SOL    HW231441   5.629   0.247   3.891  1.3200 -0.5753 -2.2533
10296SOL     OW31442   0.430   5.983   0.695  0.3535  0.2407 -0.1895
10296SOL    HW131443   0.400   5.896   0.719 -0.9575  0.5859 -0.5049
10296SOL    HW231444   0.438   5.981   0.600  0.9305  0.2892 -0.1494
10297SOL     OW31445   4.017   3.621   7.726 -0.1637 -0.3140  0.1751
10297SOL    HW131446   4.057   3.575   7.652  0.3792  0.8144 -0.2650
10297SOL    HW231447   3.936   3.657   7.690 -0.0375 -0.0010  0.1988
10298SOL     OW31448   4.190   6.840   2.831  0.2195 -0.0410 -0.5731
10298SOL    HW131449   4.280   6.836   2.861  0.2431 -0.6205 -0.7146
10298SOL    HW231450   4.195   6.890   2.749  0.4464 -0.2891 -0.7116
10299SOL     OW31451   0.284   4.042   6.328 -0.3425  0.1776 -0.0450
10299SOL    HW131452   0.312   3.969   6.273  0.0848  1.0387 -0.9807
10299SOL    HW231453   0.220   4.089   6.275  0.2500  1.1562  0.0974
10300SOL     OW31454   2.554   2.955   3.020  0.0097  0.4858  0.2908
10300SOL    HW131455   2.504   3.036   3.014  0.2257  0.5720 -0.4520
10300SOL    HW231456   2.540   2.912   2.935 -0.9393 -0.7495  1.0346
10301SOL     OW31457   3.372   2.144   5.818  0.1384  0.2129 -0.0358
10301SOL    HW131458   3.338   2.099   5.741  0.4653  1.1952 -0.7819
10301SOL    HW231459   3.296   2.153   5.875 -0.2770  0.1021 -0.5557
10302SOL     OW31460   4.136   3.145   7.651  0.2957 -0.3621 -0.1129
10302SOL    HW131461   4.085   3.213   7.694  0.3022 -0.3559 -0.1152
10302SOL    HW231462   4.071   3.091   7.606  0.2352 -0.6768  0.3364
10303SOL     OW31463   1.563   5.990   6.357 -0.4230 -0.3991  0.0051
10303SOL    HW131464   1.552   6.020   6.267 -1.6044 -0.6509  0.0443
10303SOL    HW231465   1.483   6.017   6.401 -0.8377 -2.1906  0.4297
10304SOL     OW31466   0.810   2.774   1.708 -0.2833 -0.3438 -0.8777
10304SOL    HW131467   0.894   2.819   1.718 -0.5896  0.1327 -0.3530
10304SOL    HW231468   0.782   2.756   1.798 -0.7809 -0.4248 -1.0443
10305SOL     OW31469   4.057   4.599   4.337  0.8994 -0.3827 -0.8678
10305SOL    HW131470   4.118   4.664   4.369 -0.0040 -0.5389  1.3703
10305SOL    HW231471   3.973   4.645   4.329  0.8169 -0.6636 -1.8797
10306SOL     OW31472   2.686   7.594   5.800  0.3042  0.0601 -0.6006
10306SOL    HW131473   2.674   7.642   5.718  1.2850 -0.4200 -1.0533
10306SOL    HW231474   2.700   7.662   5.866  3.2693  0.4597 -1.4930
10307SOL     OW31475   0.978   0.017   2.882 -0.0135 -0.3735  0.2972
10307SOL    HW131476   1.066   0.011   2.844 -0.4810 -2.4568 -0.6033
10307SOL    HW231477   0.994   0.035   2.975  1.4237 -1.3333  0.2803
10308SOL     OW31478   1.950   1.110   1.454 -0.0706 -0.1383 -0.2540
10308SOL    HW131479   2.040   1.136   1.432  0.3232 -0.0372  1.3682
10308SOL    HW231480   1.899   1.190   1.445 -0.2643 -0.4387 -2.3243
10309SOL     OW31481   4.592   3.161   2.248  0.1859  0.1836 -0.7878
10309SOL    HW131482   4.559   3.071   2.246  0.6743  0.0094 -1.1879
10309SOL    HW231483   4.635   3.173   2.164 -0.6679  1.1059 -1.1065
10310SOL     OW31484   4.417   5.037   2.601  0.2383  0.0247 -0.5981
10310SOL    HW131485   4.399   5.130   2.605  0.6933  0.2350 -2.4080
10310SOL    HW231486   4.388   5.002   2.685 -2.6105  1.3320 -0.9367
10311SOL     OW31487   5.136   6.784   2.770 -0.3060 -0.2447  0.1283
10311SOL    HW131488   5.209   6.813   2.824  0.3376 -1.6301  0.0313
10311SOL    HW231489   5.058   6.817   2.816  0.3332  0.9452  0.4104
10312SOL     OW31490   2.166   4.894   7.202 -0.2763 -0.3884  0.6977
10312SOL    HW131491   2.219   4.840   7.260 -0.1762 -0.7023  0.3165
10312SOL    HW231492   2.127   4.832   7.140  1.1505  0.1399 -0.7848
10313SOL     OW31493   0.804   2.641   0.476  0.1758 -0.1299  0.5962
10313SOL    HW131494   0.827   2.559   0.433 -0.1426 -0.4081  0.9507
10313SOL    HW231495   0.801   2.619   0.569  2.3712  0.8103  0.9409
10314SOL     OW31496   4.128   4.220   2.751 -0.3676 -0.3108 -0.0488
10314SOL    HW131497   4.077   4.277   2.808 -1.6703  0.2410 -1.6759
10314SOL    HW231498   4.068   4.197   2.680  0.5689 -2.5978 -0.1770
10315SOL     OW31499   2.789   0.148   0.752  0.0576 -0.0317 -0.1816
10315SOL    HW131500   2.716   0.124   0.695 -0.7770  0.0549  0.8261
10315SOL    HW231501   2.750   0.207   0.817  1.5469  2.2184 -1.1749
10316SOL     OW31502   4.755   3.833   6.492 -0.5491 -0.3753 -0.2858
10316SOL    HW131503   4.681   3.892   6.476  0.6596  1.1520 -0.4923
10316SOL    HW231504   4.814   3.846   6.418 -0.5019 -2.3200 -0.6372
10317SOL     OW31505   2.752   3.651   0.047  0.2810  0.2519 -0.1321
10317SOL    HW131506   2.791   3.664  -0.040  0.8148  1.4103  0.2632
10317SOL    HW231507   2.775   3.730   0.096 -0.4685 -0.1476  0.9047
10318SOL     OW31508   7.202   3.460   3.127 -0.2101  0.0912 -0.3839
10318SOL    HW131509   7.114   3.499   3.126 -0.2099  0.0850 -0.8115
10318SOL    HW231510   7.191   3.375   3.083  0.1728  0.4538 -1.1981
10319SOL     OW31511   3.750   3.551   5.562 -0.1261  0.3525 -0.0928
10319SOL    HW131512   3.783   3.534   5.650 -2.1822  2.3834  1.1889
10319SOL    HW231513   3.792   3.632   5.536 -2.6948  2.1381  0.9339
10320SOL     OW31514   4.888   6.340   3.800 -0.1252 -0.3151  0.0502
10320SOL    HW131515   4.922   6.407   3.860 -0.2333  0.8686 -1.1524
10320SOL    HW231516   4.795   6.332   3.822 -0.2229  0.3011 -0.1401
10321SOL     OW31517   7.507   4.824   7.325 -0.0560  0.3282 -0.1078
10321SOL    HW131518   7.481   4.733   7.340  1.7782 -0.1970  0.0751
10321SOL    HW231519   7.443   4.876   7.374 -0.6137 -0.8942  0.4965
10322SOL     OW31520   3.675   1.581   7.653  0.2327  0.3501 -0.2755
10322SOL    HW131521   3.749   1.639   7.637  0.1789  0.6687  0.5491
10322SOL    HW231522   3.601   1.640   7.666 -0.2771  0.0242 -1.5573
10323SOL     OW31523   5.674   1.357   5.346  0.2873  0.3747 -0.4040
10323SOL    HW131524   5.728   1.427   5.309 -1.0671  0.0699 -3.2864
10323SOL    HW231525   5.684   1.285   5.284 -1.1577 -0.7056  0.5631
10324SOL     OW31526   7.184   4.841   0.049  0.0232  0.3955 -0.0991
10324SOL    HW131527   7.094   4.834   0.082  0.7216  0.0741  1.8273
10324SOL    HW231528   7.181   4.914  -0.013 -0.8589  2.8136  2.5796
10325SOL     OW31529   1.850   5.101   6.014 -0.5041  0.2856  0.0109
10325SOL    HW131530   1.929   5.150   5.993 -0.1093  0.2053  1.2149
10325SOL    HW231531   1.831   5.050   5.935  0.7462  0.1746 -0.2378
10326SOL     OW31532   6.356   1.440   5.495 -0.0390  0.3747  0.5008
10326SOL    HW131533   6.344   1.353   5.534  3.2788 -0.8616 -0.7818
10326SOL    HW231534   6.383   1.495   5.568  0.0918 -0.3030  0.9823
10327SOL     OW31535   2.508   2.339   3.470  0.2431  0.1423 -0.4232
10327SOL    HW131536   2.528   2.428   3.498  2.1637  0.3115 -2.1338
10327SOL    HW231537   2.560   2.283   3.527  0.5450  0.2263 -0.6165
10328SOL     OW31538   5.017   5.855   5.876 -0.3284  0.4377  0.0129
10328SOL    HW131539   5.095   5.817   5.917 -0.4098 -1.0335 -1.1321
10328SOL    HW231540   5.034   5.849   5.782 -1.6222  0.5495 -0.2394
10329SOL     OW31541   3.075   7.014   7.376  0.8055  0.1029 -0.1644
10329SOL    HW131542   3.080   6.970   7.460 -0.6639  0.4160  0.1166
10329SOL    HW231543   3.161   7.054   7.364  1.3224 -0.6888  0.7504
10330SOL     OW31544   0.763   4.660   1.084  0.1853  0.0026  0.0648
10330SOL    HW131545   0.681   4.623   1.051  0.6864 -1.6560  0.5671
10330SOL    HW231546   0.754   4.657   1.179  1.6220 -2.2518  0.2007
10331SOL     OW31547   2.026   3.218   0.873  0.2501 -0.1773  0.0669
10331SOL    HW131548   2.031   3.179   0.786 -0.2286 -0.0365 -0.0259
10331SOL    HW231549   1.937   3.199   0.903  0.4699 -0.3863  0.6014
10332SOL     OW31550   4.943   6.569   5.097 -0.2837  0.7823 -0.4592
10332SOL    HW131551   4.919   6.480   5.071 -0.5437  0.4873  0.7438
10332SOL    HW231552   4.999   6.600   5.026  1.0866 -0.9179 -0.1887
10333SOL     OW31553   7.340   3.834   2.298 -0.0789 -0.2419 -0.1809
10333SOL    HW131554   7.357   3.748   2.336 -1.5431 -0.6789 -0.4582
10333SOL    HW231555   7.376   3.829   2.209 -1.5389 -1.1303 -0.7507
10334SOL     OW31556   5.646   4.173   4.451 -0.2592  0.1657 -0.5659
10334SOL    HW131557   5.719   4.212   4.500 -1.0692 -0.0838  0.8968
10334SOL    HW231558   5.672   4.082   4.439 -0.7558 -0.1999  0.9022
10335SOL     OW31559   5.693   4.271   2.180  0.7098 -0.2706  0.3977
10335SOL    HW131560   5.787   4.263   2.164  0.7586  2.4202 -1.1712
10335SOL    HW231561   5.652   4.220   2.110  0.9941  0.2482 -0.1503
10336SOL     OW31562   1.940   1.337   5.858 -0.3092 -0.2544  0.0854
10336SOL    HW131563   1.897   1.415   5.894  1.0270  0.8968 -0.7041
10336SOL    HW231564   1.879   1.306   5.791 -0.0099  1.3296 -0.9951
10337SOL     OW31565   5.993   2.933   4.016  0.5345 -0.0528 -0.2434
10337SOL    HW131566   5.967   2.944   3.925  1.5036 -0.2082 -0.5535
10337SOL    HW231567   5.926   2.979   4.067 -1.5063 -2.1458 -0.8472
10338SOL     OW31568   1.646   6.583   0.974  0.2793  0.3078 -0.0997
10338SOL    HW131569   1.664   6.492   0.949 -2.0232  0.1854 -1.5732
10338SOL    HW231570   1.594   6.576   1.054 -0.2728  0.3015 -0.4570
10339SOL     OW31571   5.532   4.745   2.965  0.4573  0.0627  0.1876
10339SOL    HW131572   5.505   4.813   2.902 -1.3544  0.4966  1.3759
10339SOL    HW231573   5.624   4.766   2.984  0.1493  1.7528 -0.0291
10340SOL     OW31574   6.629   0.837   7.675  0.2701  0.4527 -0.7583
10340SOL    HW131575   6.642   0.870   7.764  0.5641  0.3251 -0.7539
10340SOL    HW231576   6.554   0.777   7.683  0.9133 -0.3336 -0.3929
10341SOL     OW31577   2.138   6.772   2.112  0.9838  0.4429  0.3627
10341SOL    HW131578   2.140   6.762   2.016 -1.8733  0.5048  0.1963
10341SOL    HW231579   2.077   6.844   2.127  0.9062  0.0365  2.2491
10342SOL     OW31580   7.750   0.310   0.547 -0.3248  0.6086 -0.1814
10342SOL    HW131581   7.655   0.317   0.562 -0.6326  0.8827 -2.0946
10342SOL    HW231582   7.766   0.361   0.468  1.3321  0.0458 -0.2396
10343SOL     OW31583   3.730   6.350   2.526  0.1048 -0.3123 -0.0412
10343SOL    HW131584   3.825   6.340   2.525  0.1614  0.0369  1.1767
10343SOL    HW231585   3.715   6.441   2.550 -0.5287  0.5599 -3.2458
10344SOL     OW31586   1.749   0.487   3.681  0.0572  0.7533 -0.4777
10344SOL    HW131587   1.719   0.543   3.609 -2.1684 -0.9627 -1.0029
10344SOL    HW231588   1.781   0.408   3.638 -2.4287 -0.8166  0.3146
10345SOL     OW31589   5.375   0.955   6.381  0.9578  0.9246 -0.8105
10345SOL    HW131590   5.343   0.890   6.443  1.7863  2.2615  1.1422
10345SOL    HW231591   5.468   0.964   6.402  0.9509  2.3981 -1.3070
10346SOL     OW31592   5.800   7.557   5.469  0.5479  0.4279  0.6452
10346SOL    HW131593   5.765   7.588   5.553  0.8361  1.1546  0.5043
10346SOL    HW231594   5.837   7.635   5.428  0.2983  0.1057 -0.2213
10347SOL     OW31595   5.963   5.658   0.340 -0.2725  0.3192 -0.2887
10347SOL    HW131596   6.005   5.715   0.275  0.4709 -0.8084 -0.8315
10347SOL    HW231597   5.941   5.579   0.292 -1.8747  0.3740  0.3066
10348SOL     OW31598   2.247   5.344   0.523 -0.0987  0.1114  0.0576
10348SOL    HW131599   2.174   5.301   0.478  1.4683 -3.6030  0.6926
10348SOL    HW231600   2.241   5.312   0.614  1.2323  1.2452  0.5774
10349SOL     OW31601   6.891   1.147   5.209 -0.0352  0.1285  0.3349
10349SOL    HW131602   6.946   1.180   5.280  0.1213 -1.2531  0.8972
10349SOL    HW231603   6.945   1.081   5.166 -0.5830  0.0721 -0.2823
10350SOL     OW31604   7.486   5.819   2.190 -0.4303  0.0238  0.5906
10350SOL    HW131605   7.537   5.738   2.189 -0.4938 -0.0233  0.8752
10350SOL    HW231606   7.427   5.809   2.266 -1.0715 -0.0576  0.0917
10351SOL     OW31607   0.827   4.522   7.573 -0.7672  0.0169 -0.1707
10351SOL    HW131608   0.769   4.465   7.624  0.2586 -0.1866  0.8134
10351SOL    HW231609   0.904   4.468   7.556 -0.5748  0.5013 -0.8795
10352SOL     OW31610   5.223   3.465   3.786 -0.0994  0.3038  0.3647
10352SOL    HW131611   5.179   3.536   3.740  0.8965  1.4088  1.0632
10352SOL    HW231612   5.187   3.468   3.875 -1.1960 -1.0944 -0.0019
10353SOL     OW31613   4.450   2.932   3.516 -0.0321 -0.3006  0.2007
10353SOL    HW131614   4.474   2.932   3.608 -0.9436 -0.6864  0.4482
10353SOL    HW231615   4.517   2.879   3.474  1.4095  1.3363  0.3391
10354SOL     OW31616   4.699   5.296   4.712  0.0673  0.3210  0.0953
10354SOL    HW131617   4.715   5.237   4.785  0.0267 -2.1060 -1.7538
10354SOL    HW231618   4.780   5.347   4.703  0.4463 -0.0906  1.1594
10355SOL     OW31619   0.889   1.983   6.778 -0.0021  0.1151  0.3557
10355SOL    HW131620   0.846   1.990   6.693 -0.3587 -2.4381  0.2296
10355SOL    HW231621   0.978   2.017   6.763  0.4612 -1.6977 -1.5224
10356SOL     OW31622   1.805   2.219   3.333 -0.1916  0.1667  0.3833
10356SOL    HW131623   1.817   2.126   3.353  0.0879  0.1615  0.2046
10356SOL    HW231624   1.893   2.257   3.342 -0.5226  0.6598  1.6942
10357SOL     OW31625   6.422   1.670   6.845 -0.4139 -0.1267  0.0666
10357SOL    HW131626   6.379   1.599   6.796  0.2411 -0.2704 -0.3158
10357SOL    HW231627   6.454   1.729   6.777  0.2296 -0.1652  0.3263
10358SOL     OW31628   2.957   2.015   4.591  0.5730 -0.1895  0.0048
10358SOL    HW131629   2.953   1.925   4.560 -0.6424 -0.0534 -0.2893
10358SOL    HW231630   2.904   2.065   4.529  2.1382  0.9496 -0.4972
10359SOL     OW31631   3.253   2.190   3.895 -0.6249  0.5076  0.6230
10359SOL    HW131632   3.180   2.237   3.855  1.4187  3.6790  0.1685
10359SOL    HW231633   3.228   2.181   3.987 -3.2112 -2.2627 -0.1985
10360SOL     OW31634   2.579   2.131   3.873 -0.1369 -0.0341  0.0416
10360SOL    HW131635   2.632   2.174   3.940  1.2482  0.5782 -1.3758
10360SOL    HW231636   2.489   2.158   3.891  0.4463  1.6583  0.5187
10361SOL     OW31637   4.107   5.643   4.506  0.1753  0.7446  0.3896
10361SOL    HW131638   4.017   5.643   4.538  0.2961  1.7043  0.7994
10361SOL    HW231639   4.157   5.603   4.577  0.0147 -0.2100 -0.0332
10362SOL     OW31640   1.948   3.415   7.368  0.1914 -0.6505  0.2104
10362SOL    HW131641   1.878   3.477   7.350  1.2424  0.3803 -0.5518
10362SOL    HW231642   1.938   3.392   7.460 -0.5052  0.2927  0.3843
10363SOL     OW31643   3.008   6.886   3.947  0.0104 -0.1277 -0.0079
10363SOL    HW131644   3.061   6.824   3.998 -1.0740 -0.7075  0.4449
10363SOL    HW231645   2.975   6.947   4.013  1.1287  1.0036 -0.4618
10364SOL     OW31646   3.620   6.280   7.343  0.1472  0.6282  0.2346
10364SOL    HW131647   3.585   6.197   7.311 -0.0883  0.9448 -0.3454
10364SOL    HW231648   3.655   6.259   7.429 -0.7540  0.1308  0.4879
10365SOL     OW31649   6.823   2.225   5.550  0.3953 -0.1682 -0.1592
10365SOL    HW131650   6.758   2.178   5.498  0.3364 -0.0390 -0.2040
10365SOL    HW231651   6.772   2.273   5.615  0.5295 -1.1953  0.7403
10366SOL     OW31652   6.384   7.490   4.955  0.3915 -0.0354  0.2054
10366SOL    HW131653   6.437   7.527   5.026 -0.7938 -0.3323  1.2938
10366SOL    HW231654   6.427   7.520   4.875  3.5528 -2.1680  0.9403
10367SOL     OW31655   6.403   4.295   4.992 -0.4092 -0.2973  0.2486
10367SOL    HW131656   6.334   4.360   4.984  0.5002  0.7618  0.7818
10367SOL    HW231657   6.485   4.344   4.983  0.3009 -1.4158  0.3083
10368SOL     OW31658   7.468   1.595   1.445 -0.1477  0.3345 -0.0684
10368SOL    HW131659   7.403   1.650   1.400  1.1571  1.7938 -0.2460
10368SOL    HW231660   7.501   1.651   1.516  2.6569  0.6166 -1.4635
10369SOL     OW31661   1.688   4.824   6.524  0.1483  0.5370 -0.7105
10369SOL    HW131662   1.632   4.897   6.551  0.3506  0.6161 -0.4928
10369SOL    HW231663   1.644   4.786   6.448 -0.8244 -0.1387  0.1642
10370SOL     OW31664   2.060   4.580   3.350  0.5718 -0.3660  0.7177
10370SOL    HW131665   1.973   4.540   3.348  0.4167 -0.0778  1.3812
10370SOL    HW231666   2.048   4.664   3.307  0.1638  0.3226  2.1098
10371SOL     OW31667   3.823   1.110   3.650  0.0891  0.0452  0.6721
10371SOL    HW131668   3.802   1.141   3.562 -3.1194 -0.0725  1.2572
10371SOL    HW231669   3.864   1.185   3.693 -0.9190  1.0840 -0.1109
10372SOL     OW31670   3.806   6.626   4.520  0.0721  0.3004  0.2601
10372SOL    HW131671   3.796   6.623   4.425 -0.1776  1.1575  0.2560
10372SOL    HW231672   3.786   6.536   4.548  0.2459  0.0160 -0.4987
10373SOL     OW31673   2.372   6.786   4.915  0.3669  0.0340 -0.1341
10373SOL    HW131674   2.453   6.809   4.868 -0.7491 -0.8659 -2.6496
10373SOL    HW231675   2.358   6.694   4.895 -0.1233 -0.4338  2.1624
10374SOL     OW31676   4.723   7.334   1.352  0.1434  0.4431 -0.2217
10374SOL    HW131677   4.771   7.410   1.382  0.6992  0.0177 -0.0099
10374SOL    HW231678   4.644   7.369   1.311  1.9809  1.3530 -3.3083
10375SOL     OW31679   4.515   0.903   3.481 -0.1464  0.4451  0.3895
10375SOL    HW131680   4.464   0.929   3.403  0.6059  1.1072  0.1065
10375SOL    HW231681   4.497   0.810   3.491 -1.2471  0.6176  0.1666
10376SOL     OW31682   6.612   3.454   4.721  0.3327 -0.1176  0.0599
10376SOL    HW131683   6.535   3.454   4.778  0.1251 -0.9981 -0.2120
10376SOL    HW231684   6.617   3.544   4.688 -0.7409 -0.1177 -0.1307
10377SOL     OW31685   0.255   7.181   2.651 -0.8599 -0.0582  0.2988
10377SOL    HW131686   0.280   7.099   2.607  0.9315  1.1426 -1.0270
10377SOL    HW231687   0.237   7.242   2.579 -0.6089  1.1732  1.2679
10378SOL     OW31688   7.522   1.921   4.390 -0.1262 -0.2650 -0.0267
10378SOL    HW131689   7.501   2.001   4.438  1.6668 -0.3988  1.0889
10378SOL    HW231690   7.523   1.852   4.456 -0.8942 -1.1039 -0.8462
10379SOL     OW31691   0.363   3.401   1.194 -0.1421  0.3110 -0.3956
10379SOL    HW131692   0.343   3.310   1.213  0.2543  0.3947  0.4712
10379SOL    HW231693   0.295   3.428   1.132  0.0948 -0.7388 -1.1545
10380SOL     OW31694   0.569   6.805   0.210 -0.0945 -0.1191  0.1224
10380SOL    HW131695   0.567   6.877   0.272  0.1684  0.2184 -0.2570
10380SOL    HW231696   0.627   6.834   0.140  1.1577 -1.2627  0.6335
10381SOL     OW31697   0.143   2.958   2.614  0.4310 -0.1387 -0.8617
10381SOL    HW131698   0.208   3.025   2.592  0.2332  0.1775 -0.5029
10381SOL    HW231699   0.076   2.965   2.546  0.0261  0.5589 -0.4100
10382SOL     OW31700   1.476   0.751   0.872  0.7013  0.2676 -0.7791
10382SOL    HW131701   1.457   0.781   0.783 -0.7992  1.0299 -0.2390
10382SOL    HW231702   1.498   0.830   0.920 -1.8939  0.4248  0.3205
10383SOL     OW31703   1.936   2.922   4.890  0.7121 -0.0431 -0.0873
10383SOL    HW131704   1.855   2.967   4.912  1.2881 -0.1302  2.5689
10383SOL    HW231705   1.921   2.886   4.803 -0.2355  4.1340 -1.8744
10384SOL     OW31706   4.504   4.647   4.767  0.0852 -0.3479  0.4954
10384SOL    HW131707   4.440   4.594   4.720 -0.3077  0.0612  0.5679
10384SOL    HW231708   4.535   4.590   4.838  0.2126 -0.7396  0.1276
10385SOL     OW31709   4.678   3.642   5.564 -0.3121  0.0214 -0.7068
10385SOL    HW131710   4.673   3.643   5.469 -0.2084 -0.5852 -0.7260
10385SOL    HW231711   4.602   3.693   5.593 -0.1389  0.5171 -1.1158
10386SOL     OW31712   0.018   6.344   5.850  0.3600 -0.3558  0.1260
10386SOL    HW131713   0.067   6.280   5.902  2.1713  0.0240 -1.0125
10386SOL    HW231714   0.025   6.311   5.760 -3.1675 -1.3026  0.0489
10387SOL     OW31715   4.914   1.216   3.470  0.2498  0.3875 -0.2853
10387SOL    HW131716   4.944   1.273   3.399  0.8721  0.3521 -0.0571
10387SOL    HW231717   4.932   1.266   3.550  0.4361  0.0319 -0.1042
10388SOL     OW31718   1.652   6.242   4.273  0.2353  0.2123 -0.1680
10388SOL    HW131719   1.618   6.315   4.324 -0.0050  0.2608 -0.3972
10388SOL    HW231720   1.677   6.280   4.189 -0.9708 -0.1579 -0.7242
10389SOL     OW31721   4.345   2.819   0.515 -0.2179  0.2385  0.5081
10389SOL    HW131722   4.412   2.764   0.475 -0.4430 -0.0373  0.5069
10389SOL    HW231723   4.377   2.836   0.604 -0.3540 -0.2590  0.6560
10390SOL     OW31724   1.003   0.766   2.999  0.0537 -0.1808 -0.5174
10390SOL    HW131725   1.048   0.815   2.931  0.2905  0.2299 -0.0768
10390SOL    HW231726   0.980   0.683   2.958  0.4764 -0.0671 -0.9986
10391SOL     OW31727   5.537   5.355   6.511 -0.1888  0.2411  0.1378
10391SOL    HW131728   5.547   5.419   6.581 -0.5075  1.3600 -0.7998
10391SOL    HW231729   5.572   5.399   6.433 -0.6092 -0.6477 -0.5758
10392SOL     OW31730   2.166   2.060   2.218 -0.3287 -0.9051 -0.2230
10392SOL    HW131731   2.101   1.993   2.195 -1.7216 -0.0787  1.1131
10392SOL    HW231732   2.148   2.081   2.309 -0.0287  1.3356 -0.6072
10393SOL     OW31733   6.232   7.311   1.044 -0.1780  0.3125  0.3700
10393SOL    HW131734   6.277   7.290   0.962 -0.2534 -0.8138  0.5913
10393SOL    HW231735   6.264   7.245   1.106 -1.8127 -0.2734  0.6410
10394SOL     OW31736   4.574   1.052   0.230 -0.1654 -0.1097  0.6256
10394SOL    HW131737   4.653   1.072   0.179 -0.1263 -0.1360  0.6760
10394SOL    HW231738   4.605   0.996   0.301 -0.4868 -1.6466 -0.3826
10395SOL     OW31739   4.680   0.605   0.590 -0.2625  0.3803  0.8030
10395SOL    HW131740   4.772   0.586   0.576 -0.6099 -0.3449 -0.5882
10395SOL    HW231741   4.669   0.695   0.559 -0.4627 -0.3006 -1.2566
10396SOL     OW31742   7.430   3.849   5.525 -1.2152 -0.2865 -0.3853
10396SOL    HW131743   7.486   3.925   5.541 -1.7457 -0.1200  0.7520
10396SOL    HW231744   7.352   3.886   5.483 -1.7961 -0.0694  0.8329
10397SOL     OW31745   0.216   2.676   4.021  0.4063 -0.1703  0.2601
10397SOL    HW131746   0.136   2.727   4.009 -0.3414 -1.0648  1.2054
10397SOL    HW231747   0.284   2.740   4.038 -0.4929  0.5226  1.3691
10398SOL     OW31748   2.580   0.014   6.950 -0.5234 -0.2901 -0.6221
10398SOL    HW131749   2.569  -0.050   7.021 -1.6333  1.3289  0.7612
10398SOL    HW231750   2.556  -0.034   6.871 -1.0244 -1.6649  0.3144
10399SOL     OW31751   2.440   1.788   3.277  0.5116  0.0966 -0.0162
10399SOL    HW131752   2.352   1.784   3.313  0.8885  2.2308  1.3411
10399SOL    HW231753   2.483   1.710   3.312 -0.2850  0.0806  0.9909
10400SOL     OW31754   1.819   5.362   7.522  0.1793  0.0559 -0.5063
10400SOL    HW131755   1.791   5.287   7.469 -1.3969  0.9063 -0.9574
10400SOL    HW231756   1.865   5.324   7.596 -1.3766 -1.4287 -0.2421
10401SOL     OW31757   4.771   4.979   2.540  0.1511 -0.8791 -0.8489
10401SOL    HW131758   4.842   4.917   2.520  0.0439 -0.7030 -1.8255
10401SOL    HW231759   4.704   4.960   2.474  0.5026  0.8947 -1.7640
10402SOL     OW31760   6.858   3.726   0.337  0.6130 -0.0770  0.4515
10402SOL    HW131761   6.872   3.632   0.324 -0.1843 -0.1855  0.3660
10402SOL    HW231762   6.858   3.737   0.432  1.4640 -0.0372  0.4596
10403SOL     OW31763   6.381   7.473   2.007  1.0424 -0.1952  0.0236
10403SOL    HW131764   6.295   7.487   2.045 -0.5966 -0.3977 -3.2717
10403SOL    HW231765   6.404   7.558   1.968  1.9129 -0.3854  0.0923
10404SOL     OW31766   3.760   7.700   2.178  1.0334 -0.3868  0.0103
10404SOL    HW131767   3.672   7.710   2.141  0.9159  1.7697  0.7166
10404SOL    HW231768   3.818   7.733   2.109  1.4350 -2.6204 -0.8076
10405SOL     OW31769   5.074   4.660   6.709 -0.4402  0.4666 -0.0631
10405SOL    HW131770   5.038   4.625   6.791 -1.4066 -0.5755 -0.8864
10405SOL    HW231771   5.001   4.707   6.670 -0.6673 -0.8297 -1.2891
10406SOL     OW31772   1.527   4.566   6.476  0.3057  0.2613 -0.5912
10406SOL    HW131773   1.555   4.617   6.400  1.7242 -1.1588 -1.0800
10406SOL    HW231774   1.538   4.475   6.448 -2.3270 -0.3671  0.1646
10407SOL     OW31775   0.878   3.063   1.155 -0.2158 -0.4114  0.0600
10407SOL    HW131776   0.970   3.039   1.142 -0.6280 -1.2544 -1.4766
10407SOL    HW231777   0.831   3.019   1.085 -1.9093 -0.5520  1.2266
10408SOL     OW31778   0.560   5.827   3.543  0.5680  0.0345  0.3554
10408SOL    HW131779   0.505   5.905   3.552  0.8025 -0.0014  3.2135
10408SOL    HW231780   0.512   5.759   3.590  0.6689 -1.4466 -1.5631
10409SOL     OW31781   6.238   1.703   1.388  0.5741 -0.0438 -0.5477
10409SOL    HW131782   6.330   1.709   1.361  0.9714  1.2193  0.9381
10409SOL    HW231783   6.236   1.747   1.473 -1.3295 -0.4722 -0.3466
10410SOL     OW31784   4.232   3.487   5.679 -0.2049  0.0548  0.1710
10410SOL    HW131785   4.162   3.483   5.615 -2.0625 -4.0600  2.0994
10410SOL    HW231786   4.302   3.434   5.642  0.3263  0.9173 -0.0801
10411SOL     OW31787   2.277   1.358   3.779 -0.4529  0.1900  0.0102
10411SOL    HW131788   2.238   1.320   3.857 -0.2799  0.9762  0.4997
10411SOL    HW231789   2.323   1.436   3.811  1.1696 -0.4691 -0.6010
10412SOL     OW31790   7.322   4.498   1.093  0.8802  0.1863 -0.1918
10412SOL    HW131791   7.348   4.551   1.169  2.6138 -2.6141  1.3633
10412SOL    HW231792   7.315   4.409   1.128  1.4792 -1.1845 -3.2805
10413SOL     OW31793   2.013   5.839   5.504  0.2405  0.5537  0.0148
10413SOL    HW131794   2.080   5.785   5.546  1.0942  0.0534 -1.8512
10413SOL    HW231795   2.031   5.830   5.410 -0.5687  2.8475 -0.4245
10414SOL     OW31796   1.672   6.132   5.783 -0.0800  0.0551  0.6403
10414SOL    HW131797   1.622   6.174   5.854  0.6944  0.3041  1.0524
10414SOL    HW231798   1.749   6.095   5.827 -0.4840 -1.3496  0.1934
10415SOL     OW31799   6.536   3.548   5.775  0.0445  0.0614 -0.5372
10415SOL    HW131800   6.604   3.612   5.753 -2.4233  2.3619 -2.0849
10415SOL    HW231801   6.536   3.543   5.870 -0.1548  3.0215 -0.3184
10416SOL     OW31802   0.253   1.721   6.171  0.3177 -0.5834  0.0412
10416SOL    HW131803   0.260   1.804   6.218  0.0570 -1.3489  1.4772
10416SOL    HW231804   0.225   1.746   6.082 -1.5805  0.7641  0.9435
10417SOL     OW31805   2.779   3.888   5.518 -0.1851 -0.4665 -0.0882
10417SOL    HW131806   2.767   3.840   5.600 -1.3038  1.1964  0.7815
10417SOL    HW231807   2.858   3.941   5.533 -0.6773  0.2144  0.1169
10418SOL     OW31808   1.182   5.635   5.691  0.2626 -0.1033  0.5962
10418SOL    HW131809   1.150   5.555   5.733  1.3231 -0.1035  1.4603
10418SOL    HW231810   1.277   5.635   5.709  0.5637  0.4808 -0.8529
10419SOL     OW31811   0.890   6.153   6.833  0.1747 -0.3188  0.1230
10419SOL    HW131812   0.826   6.204   6.884  1.2113  1.6190 -0.4245
10419SOL    HW231813   0.871   6.176   6.742  2.6834  1.6941  0.0101
10420SOL     OW31814   7.588   1.178   0.593  0.1355  0.2889 -0.0488
10420SOL    HW131815   7.642   1.256   0.585 -1.1929  1.1510 -0.9906
10420SOL    HW231816   7.638   1.110   0.547  1.7732  0.2815  1.6495
10421SOL     OW31817   2.363   7.467   5.865 -0.2309  0.6438  0.2835
10421SOL    HW131818   2.451   7.437   5.844 -0.0469  1.7333 -0.5857
10421SOL    HW231819   2.354   7.551   5.819 -0.8764  1.6993  2.2137
10422SOL     OW31820   6.056   1.655   1.732  0.3117  0.3743  0.7889
10422SOL    HW131821   6.044   1.746   1.705 -0.7578  0.0345  0.0787
10422SOL    HW231822   5.967   1.623   1.748  0.5067 -1.1074 -0.8624
10423SOL     OW31823   0.295   4.275   3.611 -0.3202 -0.1126  0.6712
10423SOL    HW131824   0.207   4.308   3.597  0.2962  1.2504 -0.2677
10423SOL    HW231825   0.339   4.286   3.526  1.4855  1.7206  1.7390
10424SOL     OW31826   0.600   5.790   5.428 -0.2595 -0.0109 -0.2397
10424SOL    HW131827   0.528   5.853   5.431  0.7025  1.4356 -3.2449
10424SOL    HW231828   0.663   5.822   5.492 -0.6124  0.9925 -0.3707
10425SOL     OW31829   6.348   5.271   2.152 -0.7035 -0.2412 -0.4833
10425SOL    HW131830   6.426   5.234   2.111 -0.0705 -0.4958  0.8974
10425SOL    HW231831   6.279   5.259   2.087  0.4513  0.2386 -1.8410
10426SOL     OW31832   6.524   2.535   0.304 -0.1122 -0.0070 -0.4379
10426SOL    HW131833   6.528   2.491   0.219 -1.3528 -0.9250 -0.0585
10426SOL    HW231834   6.458   2.603   0.292 -1.3954 -1.0845  0.1474
10427SOL     OW31835   5.136   0.692   7.095  0.0179  0.2582  0.1759
10427SOL    HW131836   5.144   0.615   7.152 -2.0578  0.2021  0.4766
10427SOL    HW231837   5.178   0.763   7.143 -0.2092 -0.1630  1.0117
10428SOL     OW31838   6.025   5.048   2.573 -0.3362 -0.0033  0.1392
10428SOL    HW131839   6.024   4.971   2.517  0.0402 -0.2552  0.4659
10428SOL    HW231840   5.960   5.107   2.535  0.4095  0.1309 -0.9678
10429SOL     OW31841   2.431   6.317   3.936  0.2616 -0.0986  0.2710
10429SOL    HW131842   2.390   6.270   3.863 -0.4464  0.3813  0.3498
10429SOL    HW231843   2.458   6.248   3.997 -0.9904 -0.4101  0.4993
10430SOL     OW31844   3.070   3.104   1.753 -0.5859 -0.1157  0.2172
10430SOL    HW131845   3.023   3.033   1.709 -1.7702 -0.8407  2.4675
10430SOL    HW231846   3.149   3.063   1.787 -0.0984  0.2296 -0.4913
10431SOL     OW31847   1.635   6.377   1.610 -0.1417 -0.0278 -0.6024
10431SOL    HW131848   1.584   6.447   1.569 -0.6221 -0.7983 -1.3409
10431SOL    HW231849   1.716   6.420   1.636 -1.3776  1.3657  1.1526
10432SOL     OW31850   3.680   7.740   4.489  0.4395 -0.0595 -0.3966
10432SOL    HW131851   3.616   7.803   4.454  0.3323  0.5446  0.8209
10432SOL    HW231852   3.627   7.675   4.535  0.7032  0.9206  1.3650
10433SOL     OW31853   4.765   0.916   7.344 -0.1223  0.4247  0.0294
10433SOL    HW131854   4.733   0.877   7.426  1.9692 -0.0958  0.6489
10433SOL    HW231855   4.856   0.939   7.362  1.6888 -3.0838 -3.1395
10434SOL     OW31856   4.193   6.928   4.411 -0.5524  0.2066 -0.0278
10434SOL    HW131857   4.187   6.834   4.422 -0.6361  0.0237 -1.5105
10434SOL    HW231858   4.103   6.958   4.401 -0.6955  0.7258  2.3005
10435SOL     OW31859   3.601   1.527   3.324  0.5150 -0.2398  0.5598
10435SOL    HW131860   3.540   1.532   3.398  1.0113  1.1378  0.9020
10435SOL    HW231861   3.572   1.450   3.275 -1.6632  0.4983  0.5582
10436SOL     OW31862   2.720   5.225   0.825 -0.1206 -0.3382  0.7442
10436SOL    HW131863   2.749   5.188   0.908  0.5248  0.1475  0.7438
10436SOL    HW231864   2.726   5.153   0.762 -2.4100 -1.2563  1.4675
10437SOL     OW31865   0.051   3.331   1.704  0.1190 -0.4053  0.8617
10437SOL    HW131866  -0.009   3.366   1.770  0.2402 -1.5963  1.6226
10437SOL    HW231867   0.134   3.322   1.750  0.4164 -0.4925  0.3136
10438SOL     OW31868   4.501   1.481   2.644  0.5400 -0.6123 -0.1845
10438SOL    HW131869   4.532   1.414   2.583 -1.1083 -2.1138  0.5428
10438SOL    HW231870   4.415   1.450   2.672  0.4457  0.9796  1.4629
10439SOL     OW31871   0.771   5.742   0.785  0.2939 -0.3283  0.0032
10439SOL    HW131872   0.797   5.688   0.710 -1.5489  2.5884 -2.9717
10439SOL    HW231873   0.718   5.683   0.839  0.3164 -2.1234 -1.7933
10440SOL     OW31874   3.468   2.723   0.480  0.5523 -0.4068 -0.1555
10440SOL    HW131875   3.507   2.754   0.562  0.1228  0.0106 -0.1078
10440SOL    HW231876   3.402   2.659   0.508 -0.2531  0.4219 -0.1114
10441SOL     OW31877   4.704   4.178   1.823  0.2252 -0.4398 -0.0857
10441SOL    HW131878   4.798   4.164   1.833  0.5808  0.5072 -1.7741
10441SOL    HW231879   4.694   4.214   1.735 -1.6460  0.1681  0.3245
10442SOL     OW31880   4.598   1.497   0.604  0.3289 -0.0142 -0.3340
10442SOL    HW131881   4.608   1.443   0.682  0.5436  1.2704  0.5545
10442SOL    HW231882   4.624   1.440   0.531 -0.5347 -1.4423  0.4506
10443SOL     OW31883   4.985   5.489   6.107  0.0675  0.6398  0.4006
10443SOL    HW131884   5.038   5.564   6.133  0.8265  0.3417 -0.2515
10443SOL    HW231885   4.906   5.528   6.068  0.8678  1.1314 -0.7894
10444SOL     OW31886   4.970   0.538   7.736  0.0475 -0.3842 -0.5608
10444SOL    HW131887   4.998   0.503   7.821  0.8227  0.1673 -0.5821
10444SOL    HW231888   4.874   0.540   7.742  0.0252 -1.5824 -0.1999
10445SOL     OW31889   2.924   7.303   2.426 -0.3892  0.3057 -0.1122
10445SOL    HW131890   2.915   7.334   2.516 -0.1273  1.4193 -0.4556
10445SOL    HW231891   2.972   7.220   2.434 -0.8736  0.1039  0.8085
10446SOL     OW31892   0.334   0.167   4.875 -0.9761  0.0744  0.7095
10446SOL    HW131893   0.291   0.103   4.818  0.7173  0.6072 -1.2867
10446SOL    HW231894   0.404   0.118   4.917  0.1058  0.4862 -0.5585
10447SOL     OW31895   1.866   0.236   3.561 -0.2494  0.1671 -0.2692
10447SOL    HW131896   1.860   0.212   3.654  1.5065 -1.5588 -0.5199
10447SOL    HW231897   1.850   0.154   3.514  1.0742  0.5011 -1.3902
10448SOL     OW31898   1.638   7.081   1.586 -0.0854 -0.0349 -0.1136
10448SOL    HW131899   1.603   6.993   1.604 -0.5091  0.4840  1.8920
10448SOL    HW231900   1.573   7.140   1.624  1.5479  1.0395  1.0873
10449SOL     OW31901   0.689   2.965   7.159 -0.7695  0.8263 -0.1254
10449SOL    HW131902   0.754   2.934   7.095 -1.5634  0.2853 -0.6911
10449SOL    HW231903   0.675   2.890   7.217 -0.4526  1.1395  0.3639
10450SOL     OW31904   7.212   2.864   1.423  0.0313 -0.7031  0.5011
10450SOL    HW131905   7.289   2.834   1.472  1.3124  0.4786 -0.6750
10450SOL    HW231906   7.229   2.957   1.407 -2.1153 -0.1593  0.9925
10451SOL     OW31907   0.080   6.038   4.379 -0.7727 -0.1513  0.1529
10451SOL    HW131908   0.080   6.016   4.472 -0.5153 -0.6233  0.0456
10451SOL    HW231909   0.149   5.983   4.341 -2.1106 -1.3584 -0.6400
10452SOL     OW31910   1.770   6.908   4.962 -0.2346 -0.2961 -0.0373
10452SOL    HW131911   1.723   6.824   4.965  0.7870 -0.8981 -0.2716
10452SOL    HW231912   1.859   6.884   4.936  0.0397  0.8883 -0.2281
10453SOL     OW31913   0.380   7.196   1.174  0.2568  0.1242  0.2940
10453SOL    HW131914   0.286   7.207   1.192 -0.2387  0.2180 -2.0320
10453SOL    HW231915   0.403   7.115   1.219 -1.7070 -1.5346 -1.4606
10454SOL     OW31916   4.113   6.890   6.363 -0.1732 -0.1782 -0.4215
10454SOL    HW131917   4.079   6.826   6.426  0.4147 -0.8413 -0.7674
10454SOL    HW231918   4.189   6.847   6.324  1.4541  1.4493  0.7346
10455SOL     OW31919   4.474   3.626   6.782  0.1230  0.1931 -0.4634
10455SOL    HW131920   4.453   3.579   6.862 -2.4064  0.3796 -0.9323
10455SOL    HW231921   4.566   3.651   6.792  0.6847 -2.1727  1.1146
10456SOL     OW31922   4.201   1.154   2.839  0.2288 -0.1397 -0.1456
10456SOL    HW131923   4.226   1.076   2.888  0.8420 -1.5347 -2.5062
10456SOL    HW231924   4.105   1.153   2.841  0.0866  1.8188  3.7892
10457SOL     OW31925   6.869   2.982   5.379 -0.0709 -0.5679 -0.1460
10457SOL    HW131926   6.909   3.068   5.375 -0.0056 -0.5797  0.2139
10457SOL    HW231927   6.776   2.999   5.394  0.2814 -0.5756  2.4760
10458SOL     OW31928   1.439   7.391   4.527 -0.1988  0.0534  0.5957
10458SOL    HW131929   1.456   7.462   4.465 -0.1637  0.7063  1.3397
10458SOL    HW231930   1.353   7.411   4.563 -0.1975 -0.2892  0.7946
10459SOL     OW31931   2.470   6.003   7.052 -0.6395 -0.4163  0.0744
10459SOL    HW131932   2.530   5.942   7.010 -1.1611 -0.5097 -0.5580
10459SOL    HW231933   2.443   6.062   6.981 -0.3072  0.4157  0.6261
10460SOL     OW31934   7.280   5.176   1.517 -0.1189 -0.3919  0.0049
10460SOL    HW131935   7.321   5.241   1.458  0.8964 -1.9518 -1.0949
10460SOL    HW231936   7.342   5.168   1.589  0.5010 -1.2010 -0.6026
10461SOL     OW31937   5.829   1.454   4.035 -0.5095 -0.4481  0.0269
10461SOL    HW131938   5.911   1.404   4.035  0.2530  0.6205 -2.5015
10461SOL    HW231939   5.794   1.442   4.123  1.2907 -2.6641  0.5522
10462SOL     OW31940   0.933   5.243   2.124  0.1604 -0.1951 -0.3607
10462SOL    HW131941   0.869   5.175   2.104 -0.6911  0.5599 -0.2451
10462SOL    HW231942   0.881   5.319   2.149  1.1123 -0.0070  1.2036
10463SOL     OW31943   5.517   5.624   5.058  0.4549 -0.4935 -0.1190
10463SOL    HW131944   5.425   5.652   5.062  0.1680 -1.4931  0.5816
10463SOL    HW231945   5.565   5.695   5.100 -0.0544 -0.2068 -0.0132
10464SOL     OW31946   1.494   6.713   0.377  0.4298  0.3920 -0.1368
10464SOL    HW131947   1.493   6.622   0.350  0.7498  0.4145 -0.2193
10464SOL    HW231948   1.461   6.712   0.468  0.0218  0.2453 -0.2845
10465SOL     OW31949   5.756   6.221   7.552 -0.2219 -0.0729  0.0334
10465SOL    HW131950   5.682   6.273   7.520  0.2699  0.5562 -0.0947
10465SOL    HW231951   5.738   6.132   7.522 -0.2156  0.3344 -1.2261
10466SOL     OW31952   4.942   0.201   0.784  0.2459  0.3980  0.4290
10466SOL    HW131953   4.873   0.185   0.718  1.1751 -3.7099  0.1506
10466SOL    HW231954   4.955   0.295   0.782  0.2329  0.6831 -5.4150
10467SOL     OW31955   6.490   1.971   3.574  0.3003 -0.1576 -0.0656
10467SOL    HW131956   6.402   1.946   3.546 -0.3199  1.1344  0.6361
10467SOL    HW231957   6.549   1.912   3.526 -0.9040 -0.5503 -1.0971
10468SOL     OW31958   1.559   7.441   0.210 -0.0205  0.1769  0.1138
10468SOL    HW131959   1.493   7.404   0.269 -0.8814  0.2980 -0.7350
10468SOL    HW231960   1.618   7.490   0.267  0.3362 -1.3395  1.1002
10469SOL     OW31961   2.550   1.837   4.811  0.4114  0.4867 -0.5006
10469SOL    HW131962   2.462   1.835   4.849 -0.5412 -0.1291 -2.6013
10469SOL    HW231963   2.588   1.919   4.842  0.0577 -0.3146  2.3731
10470SOL     OW31964   1.990   4.420   4.528 -0.4387  0.3302  0.1829
10470SOL    HW131965   1.900   4.392   4.516 -0.0901  0.2291 -2.8781
10470SOL    HW231966   2.010   4.397   4.619 -3.0132 -0.9839  0.5028
10471SOL     OW31967   6.455   0.826   2.500  0.0844  0.4368 -0.6475
10471SOL    HW131968   6.529   0.840   2.559  1.4224 -1.7631 -1.6680
10471SOL    HW231969   6.382   0.803   2.557  0.9669 -0.2046  0.2394
10472SOL     OW31970   0.897   4.599   2.268  0.2593 -0.5807  0.4728
10472SOL    HW131971   0.862   4.655   2.338  1.7587 -0.3118  1.0455
10472SOL    HW231972   0.975   4.645   2.237 -1.0646 -0.0459 -2.3337
10473SOL     OW31973   4.067   2.876   5.956  0.1522  0.3880  0.0012
10473SOL    HW131974   4.087   2.832   5.873  0.9892  0.3952  0.1923
10473SOL    HW231975   3.989   2.831   5.988  0.0028  0.1731 -0.6333
10474SOL     OW31976   4.575   6.848   3.109  0.3593 -0.1225  0.1384
10474SOL    HW131977   4.522   6.880   3.181  2.4309  1.5307  1.0244
10474SOL    HW231978   4.609   6.764   3.140 -0.5179 -0.4852  0.1490
10475SOL     OW31979   0.400   1.240   3.873 -0.1530 -0.1524  0.5036
10475SOL    HW131980   0.465   1.281   3.930  0.5031  0.8523 -0.9101
10475SOL    HW231981   0.335   1.205   3.934  2.4734 -2.7142  2.0787
10476SOL     OW31982   0.479   0.675   6.382 -0.0335  0.1306  0.2179
10476SOL    HW131983   0.414   0.620   6.339  0.0969 -0.9699  1.3684
10476SOL    HW231984   0.519   0.726   6.311 -0.0665 -1.3470 -0.9063
10477SOL     OW31985   1.967   0.596   2.122 -0.1005  0.2171  0.2514
10477SOL    HW131986   2.002   0.685   2.128 -1.1997  0.8898 -1.9978
10477SOL    HW231987   2.030   0.549   2.068  0.9524 -0.6949  2.1923
10478SOL     OW31988   5.071   7.165   1.889  0.4619  0.4904  0.1067
10478SOL    HW131989   5.033   7.091   1.937  1.2982 -1.4861 -2.1256
10478SOL    HW231990   5.000   7.195   1.832  0.2198  1.2452  0.7903
10479SOL     OW31991   0.889   3.326   1.293  0.1812  0.1130 -0.3351
10479SOL    HW131992   0.802   3.348   1.326  0.5166  0.9216  0.0306
10479SOL    HW231993   0.878   3.241   1.252 -0.8909  0.4216 -0.7154
10480SOL     OW31994   5.680   5.844   4.132  0.5564 -0.4388 -0.1524
10480SOL    HW131995   5.608   5.892   4.091  1.8315 -0.9408 -3.2687
10480SOL    HW231996   5.753   5.906   4.133  0.3741 -0.1584  2.3397
10481SOL     OW31997   3.549   0.344   6.093  0.0224 -0.6219 -0.3163
10481SOL    HW131998   3.625   0.347   6.151 -0.8916 -0.7425  0.9253
10481SOL    HW231999   3.524   0.251   6.091 -0.7125 -0.4492  0.1537
10482SOL     OW32000   5.403   0.660   2.687 -0.1624 -0.1861  0.1345
10482SOL    HW132001   5.374   0.568   2.685 -0.8539  0.0318 -1.6250
10482SOL    HW232002   5.401   0.688   2.596 -0.2691  1.6872  0.6676
10483SOL     OW32003   2.024   2.265   0.955  0.3366 -0.6450 -0.5620
10483SOL    HW132004   2.025   2.179   0.997  1.0741 -0.7612 -0.8019
10483SOL    HW232005   2.002   2.247   0.864  1.8786 -0.7436 -0.9332
10484SOL     OW32006   4.887   5.569   0.984 -0.0902  0.1934 -0.1200
10484SOL    HW132007   4.872   5.505   0.915 -2.2534  1.8542 -1.3250
10484SOL    HW232008   4.828   5.542   1.055 -1.9642  1.4148 -1.1154
10485SOL     OW32009   1.868   5.053   0.061 -0.2259  0.1237  0.2755
10485SOL    HW132010   1.860   4.978   0.002  0.2811  0.3994 -0.1497
10485SOL    HW232011   1.797   5.041   0.124  0.6104 -1.4101  0.9891
10486SOL     OW32012   1.584   5.873   1.457 -0.0334  0.1133  0.6579
10486SOL    HW132013   1.589   5.966   1.434  1.7602 -0.3217 -1.0293
10486SOL    HW232014   1.528   5.835   1.389  0.1713 -0.1969  0.6591
10487SOL     OW32015   5.888   0.048   7.066  0.3729  0.4867  0.5722
10487SOL    HW132016   5.814   0.079   7.014  2.3727  0.3974 -2.6373
10487SOL    HW232017   5.854  -0.029   7.112 -1.8419  1.2249  0.2963
10488SOL     OW32018   0.731   0.231   1.516 -0.2282 -0.3015 -0.2249
10488SOL    HW132019   0.679   0.170   1.463 -0.7277  0.5948 -0.8000
10488SOL    HW232020   0.813   0.241   1.468  0.7783 -2.1544  0.9680
10489SOL     OW32021   0.803   2.218   0.055  0.3153  0.0522 -0.2648
10489SOL    HW132022   0.774   2.259  -0.026 -0.7086  0.1863  0.1459
10489SOL    HW232023   0.889   2.257   0.073 -0.4675  1.7742 -0.0732
10490SOL     OW32024   5.514   2.952   5.682 -0.0980  0.2642 -0.2019
10490SOL    HW132025   5.459   2.898   5.738  1.4020 -1.9785 -0.7756
10490SOL    HW232026   5.561   3.010   5.742 -0.3639 -0.3564  0.6182
10491SOL     OW32027   3.624   6.286   3.576 -0.5589 -0.1019 -0.5031
10491SOL    HW132028   3.576   6.209   3.546 -0.9158  0.0917 -0.4449
10491SOL    HW232029   3.639   6.270   3.669  0.0609 -0.4529 -0.6596
10492SOL     OW32030   2.873   1.356   4.571  0.6064 -0.1370  0.0785
10492SOL    HW132031   2.906   1.298   4.639  2.8692  0.0520 -0.7819
10492SOL    HW232032   2.890   1.310   4.489 -0.0641  0.5732 -0.4734
10493SOL     OW32033   0.358   6.352   6.718  0.0232 -0.3169 -1.0522
10493SOL    HW132034   0.421   6.410   6.676 -1.1702  1.1047 -0.9711
10493SOL    HW232035   0.325   6.402   6.792  1.3362 -2.3825  1.0592
10494SOL     OW32036   3.849   5.941   4.586 -0.0079 -0.2285 -0.5506
10494SOL    HW132037   3.793   5.868   4.558 -0.2912 -0.2504  0.0406
10494SOL    HW232038   3.930   5.930   4.537  0.3334 -1.5281  0.2554
10495SOL     OW32039   4.643   2.532   4.593  0.2216  0.3958  0.3919
10495SOL    HW132040   4.641   2.478   4.672 -0.1945  0.3913  0.3792
10495SOL    HW232041   4.736   2.539   4.571  0.2172 -2.0275 -0.7713
10496SOL     OW32042   4.129   2.489   3.080 -0.6374  0.0050  0.3023
10496SOL    HW132043   4.211   2.508   3.127 -1.0170  2.3583  0.1324
10496SOL    HW232044   4.157   2.454   2.996  0.1684 -0.0803  0.5972
10497SOL     OW32045   7.568   0.051   6.695 -0.7012  0.2434  0.0857
10497SOL    HW132046   7.574   0.144   6.672  2.2448 -0.1050 -1.0551
10497SOL    HW232047   7.531   0.051   6.783 -0.2826  2.5619  0.3465
10498SOL     OW32048   3.736   1.489   3.930  0.4752  0.2398 -0.2473
10498SOL    HW132049   3.688   1.529   4.003 -0.0872  0.2646 -0.6280
10498SOL    HW232050   3.710   1.539   3.853 -0.2372 -0.8301 -0.7359
10499SOL     OW32051   7.173   3.935   6.701 -0.7397  0.3950 -0.1811
10499SOL    HW132052   7.143   4.021   6.674  1.4685  1.2245 -0.2065
10499SOL    HW232053   7.154   3.878   6.627 -2.3281  0.8163 -0.1173
10500SOL     OW32054   5.060   7.167   5.302 -0.7190  0.7231  0.2935
10500SOL    HW132055   5.017   7.253   5.300  0.4089  1.2987 -2.0866
10500SOL    HW232056   5.106   7.165   5.386 -0.0810  2.8283  0.0502
10501SOL     OW32057   2.303   4.887   0.748 -0.1656  0.3696 -0.1154
10501SOL    HW132058   2.361   4.942   0.801  0.4742  0.5146 -0.9422
10501SOL    HW232059   2.311   4.923   0.659  1.7871 -2.2288 -1.1124
10502SOL     OW32060   3.224   7.699   0.770  0.1580  0.2055  0.4589
10502SOL    HW132061   3.313   7.711   0.804 -0.3180 -1.0086  2.2476
10502SOL    HW232062   3.186   7.630   0.825 -2.6231  2.1540  1.2000
10503SOL     OW32063   7.530   1.957   2.551  0.1836 -0.0717 -0.1194
10503SOL    HW132064   7.481   1.885   2.592 -0.7184  0.0100 -0.9830
10503SOL    HW232065   7.543   2.021   2.621 -0.1650 -0.5034  0.3490
10504SOL     OW32066   6.237   0.520   6.040  0.3948 -0.5769  0.0971
10504SOL    HW132067   6.276   0.551   6.121  0.4228  0.4114 -0.2878
10504SOL    HW232068   6.307   0.471   5.997  1.6747  2.1552 -1.1445
10505SOL     OW32069   4.289   1.265   5.039 -0.0871  0.3076 -0.0071
10505SOL    HW132070   4.270   1.359   5.036 -0.5043  0.2103 -0.6221
10505SOL    HW232071   4.244   1.235   5.119 -1.7544  0.2651 -0.9120
10506SOL     OW32072   2.822   7.220   6.931 -0.3496 -0.0983 -0.0195
10506SOL    HW132073   2.780   7.135   6.935 -0.5222 -0.0213 -0.2075
10506SOL    HW232074   2.896   7.213   6.992 -0.9994 -0.0313  0.7968
10507SOL     OW32075   7.663   5.196   7.369 -0.0649  0.7949  0.7629
10507SOL    HW132076   7.602   5.185   7.296  0.0342 -0.0602  0.7975
10507SOL    HW232077   7.716   5.272   7.344 -1.6231  2.0463  1.0908
10508SOL     OW32078   5.351   7.254   0.821  0.2561 -0.0711 -0.1252
10508SOL    HW132079   5.425   7.242   0.880 -1.1360  0.0802  1.7731
10508SOL    HW232080   5.279   7.206   0.863 -1.4285  2.0359 -0.3964
10509SOL     OW32081   7.213   5.609   0.781 -0.2258 -0.3921  0.5844
10509SOL    HW132082   7.208   5.679   0.846  0.1308  1.6220 -1.4143
10509SOL    HW232083   7.147   5.633   0.715  0.4566 -1.5118 -0.5456
10510SOL     OW32084   7.320   5.078   3.172  0.0032 -0.2412 -0.2897
10510SOL    HW132085   7.259   5.112   3.237 -2.4428 -3.1031 -0.8667
10510SOL    HW232086   7.346   4.993   3.206  2.9470  0.4237 -0.6140
10511SOL     OW32087   2.517   2.260   0.684 -0.1860  0.5070  0.6493
10511SOL    HW132088   2.474   2.226   0.762  0.4393 -2.7973 -0.2862
10511SOL    HW232089   2.610   2.255   0.704 -0.0523  0.6521  0.0893
10512SOL     OW32090   3.606   4.048   0.216  0.0198 -0.7054 -0.0300
10512SOL    HW132091   3.547   4.123   0.216  0.3998 -0.3617 -1.7037
10512SOL    HW232092   3.549   3.973   0.196  0.1892 -0.2732 -2.3898
10513SOL     OW32093   5.906   7.738   6.332  0.5924 -0.0099 -0.0462
10513SOL    HW132094   5.957   7.678   6.386 -0.4204 -1.1838 -0.3492
10513SOL    HW232095   5.904   7.698   6.245  0.1627  0.6149 -0.3364
10514SOL     OW32096   3.411   3.433   1.566  0.3991 -0.4939 -0.0482
10514SOL    HW132097   3.323   3.412   1.537  0.2540 -1.6035  1.1098
10514SOL    HW232098   3.401   3.457   1.658  1.1103  0.8866 -0.3014
10515SOL     OW32099   6.956   2.649   7.748 -0.4697 -0.4770 -0.5679
10515SOL    HW132100   7.021   2.605   7.692 -0.3817  0.5376 -1.2954
10515SOL    HW232101   6.874   2.605   7.727 -0.4915  0.0944 -1.7575
10516SOL     OW32102   2.726   5.020   0.624 -0.0640  0.1150 -0.2344
10516SOL    HW132103   2.675   4.939   0.636 -0.5537  0.5491  0.6845
10516SOL    HW232104   2.662   5.084   0.593 -0.1716  0.7444  1.2090
10517SOL     OW32105   6.672   7.687   6.142 -0.2334  0.4842 -0.4179
10517SOL    HW132106   6.716   7.632   6.077  0.4597  1.4979 -0.8316
10517SOL    HW232107   6.732   7.687   6.217  0.3412  1.6089 -0.8616
10518SOL     OW32108   0.846   3.448   5.930 -0.1266  0.1188 -0.2967
10518SOL    HW132109   0.779   3.430   5.864 -0.3655  1.5519 -0.4660
10518SOL    HW232110   0.836   3.540   5.951  0.7183 -0.0317  0.9046
10519SOL     OW32111   0.531   2.919   2.785 -0.5363  0.9506  0.0039
10519SOL    HW132112   0.460   2.859   2.762 -0.8604  1.3457 -0.0380
10519SOL    HW232113   0.570   2.881   2.864  1.4315 -1.1577 -1.8349
10520SOL     OW32114   4.274   4.182   2.355  0.0501 -0.4843 -0.0040
10520SOL    HW132115   4.279   4.200   2.261  0.2267 -1.0795 -0.1123
10520SOL    HW232116   4.364   4.183   2.385 -0.0224 -0.0823  0.2005
10521SOL     OW32117   5.484   2.030   0.499  0.1146  0.4935  0.3229
10521SOL    HW132118   5.458   2.099   0.438  0.2607  1.3242  1.1742
10521SOL    HW232119   5.570   2.058   0.531  1.3202 -1.3291 -1.1420
10522SOL     OW32120   4.715   0.192   6.494 -0.0763  0.5450 -0.0176
10522SOL    HW132121   4.697   0.147   6.411 -0.5875  0.0095  0.3675
10522SOL    HW232122   4.629   0.221   6.523  0.0781  0.5662  0.4125
10523SOL     OW32123   3.916   4.065   4.233 -0.0273 -0.0754  0.0073
10523SOL    HW132124   3.866   4.107   4.303  0.4862 -1.1644  1.0560
10523SOL    HW232125   3.852   4.048   4.164 -1.0576 -1.0928  1.1701
10524SOL     OW32126   2.857   6.857   2.789  0.8339 -0.3507 -0.0326
10524SOL    HW132127   2.878   6.940   2.831 -0.9526 -0.1145  0.4617
10524SOL    HW232128   2.842   6.796   2.861 -0.7256 -0.3358 -0.3086
10525SOL     OW32129   3.125   7.271   1.779 -0.5520  0.2878 -0.2969
10525SOL    HW132130   3.045   7.265   1.726 -0.3290  3.6582 -1.2285
10525SOL    HW232131   3.172   7.190   1.761 -3.1878 -1.2589 -0.6345
10526SOL     OW32132   1.921   5.409   5.007 -0.5658 -0.3940  0.1761
10526SOL    HW132133   1.888   5.394   5.095  0.2212  0.4106  0.6215
10526SOL    HW232134   1.925   5.321   4.968  1.3370 -1.0874  1.7597
10527SOL     OW32135   0.795   7.209   0.352  0.9685  0.0218  0.1318
10527SOL    HW132136   0.716   7.228   0.301  1.0981  2.6634  0.7666
10527SOL    HW232137   0.816   7.118   0.330 -2.0133 -0.6801 -0.3350
10528SOL     OW32138   4.300   6.690   6.875 -0.2782  0.2978 -0.0786
10528SOL    HW132139   4.257   6.695   6.960 -1.9394 -0.9178 -0.7940
10528SOL    HW232140   4.303   6.781   6.845  0.5604  0.7686  1.3535
10529SOL     OW32141   3.949   7.478   3.060 -0.1825 -0.2071 -0.2630
10529SOL    HW132142   4.009   7.448   3.129 -0.4362  0.6214  0.3325
10529SOL    HW232143   3.904   7.399   3.032  0.7500 -0.7491 -0.2931
10530SOL     OW32144   7.455   4.703   1.795  0.5003 -0.2323  0.0254
10530SOL    HW132145   7.492   4.780   1.751  2.4071 -0.5937  0.9150
10530SOL    HW232146   7.364   4.700   1.765  1.1089  0.8188 -2.1224
10531SOL     OW32147   3.407   6.900   1.061 -0.2129  0.4033 -0.6548
10531SOL    HW132148   3.430   6.842   0.989 -1.2391 -1.1751  0.2277
10531SOL    HW232149   3.486   6.906   1.114  0.3563  1.0739 -1.5543
10532SOL     OW32150   6.446   2.811   4.695  0.2104 -0.3144  0.1356
10532SOL    HW132151   6.468   2.771   4.779 -0.5200 -0.6663  0.1677
10532SOL    HW232152   6.383   2.880   4.717 -0.6881 -1.0074 -0.2058
10533SOL     OW32153   2.069   7.511   1.310  0.0569  0.1800 -0.3883
10533SOL    HW132154   1.999   7.455   1.344 -1.1502  1.6218 -0.3942
10533SOL    HW232155   2.034   7.547   1.228  0.5233  1.4473 -0.0625
10534SOL     OW32156   0.969   6.921   0.979 -0.4768  0.2455  0.0473
10534SOL    HW132157   1.047   6.871   0.954 -0.2064 -0.5425  2.2623
10534SOL    HW232158   1.003   7.005   1.009 -0.4396 -0.1492  1.1457
10535SOL     OW32159   2.148   3.203   1.378  0.2956 -0.3600  0.1188
10535SOL    HW132160   2.055   3.216   1.398  0.1813 -0.3977 -0.3694
10535SOL    HW232161   2.162   3.252   1.297  0.3115 -1.6983 -0.7185
10536SOL     OW32162   6.430   0.570   7.428  0.1089 -0.1775  0.3525
10536SOL    HW132163   6.434   0.566   7.524  0.1923 -0.4642  0.3359
10536SOL    HW232164   6.485   0.498   7.398  0.3237  0.0950  0.0839
10537SOL     OW32165   6.577   6.701   1.840  0.3497 -0.7475  0.1662
10537SOL    HW132166   6.595   6.710   1.746 -0.3736 -1.9292 -0.1050
10537SOL    HW232167   6.498   6.647   1.844 -0.0206 -0.1516  1.4498
10538SOL     OW32168   6.885   0.237   0.572 -0.2598  0.3382  0.2246
10538SOL    HW132169   6.915   0.155   0.611  0.8136 -0.1275 -1.4481
10538SOL    HW232170   6.815   0.211   0.512  1.6028  0.2311 -2.0494
10539SOL     OW32171   0.669   5.944   6.552 -0.3187 -0.3188 -0.1554
10539SOL    HW132172   0.583   5.940   6.510 -0.0208  1.7741 -1.0791
10539SOL    HW232173   0.716   6.012   6.504  2.2779 -2.1137 -0.3917
10540SOL     OW32174   2.226   4.190   3.347  0.1225  0.1510  0.2115
10540SOL    HW132175   2.231   4.101   3.382  2.5976 -1.0304 -2.6979
10540SOL    HW232176   2.137   4.198   3.314 -0.3932 -0.8970  1.2720
10541SOL     OW32177   2.817   2.517   0.454 -0.0437 -0.3726  0.4070
10541SOL    HW132178   2.847   2.433   0.421  1.2397  0.2652 -0.1051
10541SOL    HW232179   2.869   2.582   0.406  0.5037  0.6416  2.2872
10542SOL     OW32180   0.862   2.894   6.947  0.2536  0.3956 -0.0928
10542SOL    HW132181   0.803   2.939   6.886  0.1724 -1.0748 -1.1480
10542SOL    HW232182   0.885   2.812   6.903  3.2545  0.9644  0.1972
10543SOL     OW32183   3.197   6.446   4.034 -0.0631 -0.0851 -0.1141
10543SOL    HW132184   3.146   6.452   4.115  0.0471 -0.0541 -0.0466
10543SOL    HW232185   3.185   6.532   3.992  1.8315  0.8225  1.0431
10544SOL     OW32186   0.481   5.035   5.711  0.3411 -0.1443 -0.0333
10544SOL    HW132187   0.441   5.051   5.625 -0.5573  0.2945  0.4539
10544SOL    HW232188   0.493   4.940   5.714  0.1265 -0.1916 -0.5360
10545SOL     OW32189   0.066   5.974   4.632 -0.5739  0.2038  0.1692
10545SOL    HW132190   0.079   5.880   4.639 -2.9660 -0.1354  1.0568
10545SOL    HW232191   0.139   6.012   4.680  0.0725 -1.2195  0.3594
10546SOL     OW32192   5.032   5.979   6.657 -0.4171 -0.1078  0.3651
10546SOL    HW132193   4.965   6.039   6.624  0.5662  0.6678 -0.2880
10546SOL    HW232194   5.006   5.962   6.748 -0.6648  1.4308  0.6209
10547SOL     OW32195   6.755   1.952   0.021  0.2700 -0.0012  0.0516
10547SOL    HW132196   6.793   2.013  -0.042  0.6142 -0.8975 -0.6300
10547SOL    HW232197   6.830   1.908   0.061 -0.0038 -1.1520 -0.6644
10548SOL     OW32198   7.336   2.354   3.420  0.0625  0.2221  0.2331
10548SOL    HW132199   7.296   2.274   3.386 -0.7851  1.3148 -1.5012
10548SOL    HW232200   7.430   2.335   3.420 -0.1853 -1.0819  0.7366
10549SOL     OW32201   2.219   3.673   1.373 -0.2333 -0.8621  0.3824
10549SOL    HW132202   2.283   3.619   1.419 -0.8086 -1.3450  0.6313
10549SOL    HW232203   2.268   3.715   1.303  0.2461 -1.6155  0.2590
10550SOL     OW32204   0.484   4.848   6.512  0.3687  0.2364 -0.2942
10550SOL    HW132205   0.480   4.818   6.603  2.0553  1.5267  0.2550
10550SOL    HW232206   0.404   4.900   6.501  0.1590  0.0905  0.4564
10551SOL     OW32207   6.754   7.738   2.495  0.3111  0.1414  0.3134
10551SOL    HW132208   6.677   7.729   2.440 -0.2025 -0.4327  1.0949
10551SOL    HW232209   6.780   7.830   2.486 -1.1013  0.6239  0.8438
10552SOL     OW32210   5.715   5.851   6.004 -0.4993  0.1588  0.0405
10552SOL    HW132211   5.808   5.856   5.978 -0.0978 -0.2966  1.3063
10552SOL    HW232212   5.712   5.898   6.088 -0.9428 -1.7657  1.1517
10553SOL     OW32213   2.467   5.217   5.133  0.5452  0.2081 -0.1633
10553SOL    HW132214   2.404   5.145   5.121 -0.1263  1.0119 -1.7426
10553SOL    HW232215   2.429   5.271   5.202  1.1465 -1.0157  1.1697
10554SOL     OW32216   4.110   2.559   1.456 -0.1052  0.0995  0.3993
10554SOL    HW132217   4.189   2.527   1.413 -0.3789 -0.8526  0.5662
10554SOL    HW232218   4.137   2.639   1.501  1.0853 -0.8811  1.4868
10555SOL     OW32219   2.596   4.918   5.591 -0.0317 -0.1667  0.1576
10555SOL    HW132220   2.602   4.844   5.531  0.1421  1.1372 -1.4988
10555SOL    HW232221   2.686   4.952   5.596 -0.3306  0.6989 -0.1305
10556SOL     OW32222   2.488   3.150   1.207 -0.0428 -0.4625  0.0391
10556SOL    HW132223   2.495   3.061   1.172 -1.6137 -0.1333 -1.2360
10556SOL    HW232224   2.399   3.178   1.184  0.0412  1.0476  1.3765
10557SOL     OW32225   1.497   1.738   7.434  0.4708 -0.4114  0.6010
10557SOL    HW132226   1.428   1.672   7.431 -0.3237  0.4140 -1.0066
10557SOL    HW232227   1.558   1.712   7.365  0.2382  0.4011  0.0665
10558SOL     OW32228   7.716   0.939   0.393  0.4170  0.7873  0.4162
10558SOL    HW132229   7.747   0.933   0.484 -0.3862 -0.6101  0.6333
10558SOL    HW232230   7.793   0.916   0.340  0.7105  0.9441  0.7696
10559SOL     OW32231   5.768   7.205   4.864  0.4414 -0.4553  0.1883
10559SOL    HW132232   5.771   7.168   4.775  2.1036  0.1821 -0.0503
10559SOL    HW232233   5.858   7.204   4.893  0.0597  0.3909  1.4565
10560SOL     OW32234   4.067   2.495   3.478 -0.5428  0.8426 -0.3312
10560SOL    HW132235   4.094   2.404   3.491 -3.1895 -0.2445 -1.7173
10560SOL    HW232236   4.145   2.538   3.444 -0.0242 -1.7133 -2.7866
10561SOL     OW32237   0.824   7.161   7.301 -0.3060  0.1939 -0.3721
10561SOL    HW132238   0.776   7.113   7.233 -0.1136 -0.6310  0.0606
10561SOL    HW232239   0.789   7.250   7.296 -2.0038 -0.4015  0.0138
10562SOL     OW32240   5.135   7.543   3.629 -0.1184  0.0587  0.1954
10562SOL    HW132241   5.071   7.591   3.577 -0.7800  1.2451  2.0307
10562SOL    HW232242   5.086   7.513   3.706  0.7656 -1.8770  0.0681
10563SOL     OW32243   7.159   4.710   1.019 -0.4754  0.6704 -0.3983
10563SOL    HW132244   7.218   4.644   1.054  0.4692  1.9872  0.5975
10563SOL    HW232245   7.085   4.661   0.984  0.3713 -0.9128 -0.0244
10564SOL     OW32246   6.372   3.436   4.845 -0.6165 -0.4238 -0.2835
10564SOL    HW132247   6.372   3.451   4.940  0.9239 -1.2455 -0.1190
10564SOL    HW232248   6.289   3.473   4.815 -0.0272  2.1539  0.9942
10565SOL     OW32249   4.916   5.742   5.059  0.1476  0.5976  0.5530
10565SOL    HW132250   4.872   5.686   5.123  1.0560  1.5898  2.1390
10565SOL    HW232251   4.859   5.818   5.051  0.2892  0.7075  0.5840
10566SOL     OW32252   3.682   2.600   2.222  0.0391 -0.4253 -0.5002
10566SOL    HW132253   3.618   2.571   2.286  0.0997 -1.7172 -0.9919
10566SOL    HW232254   3.761   2.549   2.242  0.5673  0.3344 -0.5939
10567SOL     OW32255   5.546   6.514   4.923 -0.0539 -0.3081  0.3096
10567SOL    HW132256   5.562   6.519   4.829  0.7843 -0.5841  0.4324
10567SOL    HW232257   5.604   6.579   4.961 -0.5777 -0.0162  0.6191
10568SOL     OW32258   7.224   0.187   3.306 -0.2012 -0.4989 -0.6272
10568SOL    HW132259   7.205   0.249   3.376  1.4297 -0.5074 -0.1393
10568SOL    HW232260   7.229   0.102   3.349  0.8698 -0.4975 -0.7211
10569SOL     OW32261   1.001   3.261   3.220  0.0040 -0.1065 -0.5495
10569SOL    HW132262   0.908   3.279   3.234  0.1348 -0.5641  1.1447
10569SOL    HW232263   1.002   3.172   3.186 -0.1351 -0.9184  1.3990
10570SOL     OW32264   6.036   3.165   0.591  0.4421  0.3245 -0.6618
10570SOL    HW132265   6.026   3.260   0.598 -2.0973  0.0013  2.8371
10570SOL    HW232266   5.958   3.137   0.544  0.3721 -0.1174 -0.2877
10571SOL     OW32267   1.551   1.571   0.328  0.0843  0.5444 -0.4859
10571SOL    HW132268   1.537   1.489   0.281 -2.2525 -0.3737  1.6084
10571SOL    HW232269   1.647   1.581   0.329  0.4025 -1.6527 -1.5906
10572SOL     OW32270   4.175   5.498   6.440 -0.0369  0.0246 -0.0070
10572SOL    HW132271   4.233   5.437   6.484 -1.4632 -1.3713  0.0454
10572SOL    HW232272   4.154   5.455   6.357  0.7098  1.5139 -1.0074
10573SOL     OW32273   4.330   4.415   6.077 -0.6504  0.3019 -0.4567
10573SOL    HW132274   4.352   4.327   6.108 -0.8068  0.6450  0.6745
10573SOL    HW232275   4.414   4.460   6.070 -0.5758  0.0965 -0.9760
10574SOL     OW32276   2.317   1.569   4.491 -0.4708  0.4442  0.4705
10574SOL    HW132277   2.267   1.608   4.419 -0.3792  1.0126  0.7120
10574SOL    HW232278   2.403   1.550   4.453  0.8977  4.0640  1.2545
10575SOL     OW32279   0.508   1.093   3.608  0.3968 -0.0415  0.2781
10575SOL    HW132280   0.453   1.124   3.680 -0.0067 -0.4143  0.1335
10575SOL    HW232281   0.452   1.034   3.558  0.7854 -0.0661 -0.1403
10576SOL     OW32282   6.123   4.944   1.769  0.0066 -0.1401 -0.1325
10576SOL    HW132283   6.094   4.858   1.740  1.8373 -0.7710 -0.2416
10576SOL    HW232284   6.210   4.929   1.806 -0.6495  1.2529  2.2395
10577SOL     OW32285   4.649   6.982   2.037 -0.1112  0.5175  0.4444
10577SOL    HW132286   4.615   7.059   2.083 -1.7751  0.7402 -1.0397
10577SOL    HW232287   4.580   6.917   2.044 -0.6432  0.7216 -2.0569
10578SOL     OW32288   6.624   5.844   0.617 -0.0207 -0.7017 -0.3708
10578SOL    HW132289   6.658   5.819   0.703  0.7024  0.6505 -0.2256
10578SOL    HW232290   6.536   5.878   0.635 -0.5489 -1.9857 -0.4195
10579SOL     OW32291   4.161   5.062   6.407  0.0957  0.0021  0.0497
10579SOL    HW132292   4.251   5.061   6.440  0.4874  0.9059 -0.9509
10579SOL    HW232293   4.110   5.094   6.481  0.7024  0.2484  0.3708
10580SOL     OW32294   0.154   5.978   1.164  0.4120  0.1862  0.1926
10580SOL    HW132295   0.228   6.034   1.187  0.3090  0.3976  0.0196
10580SOL    HW232296   0.149   5.983   1.069  1.3626 -1.3558  0.0263
10581SOL     OW32297   4.304   7.163   0.917  0.4108 -0.2421 -0.4650
10581SOL    HW132298   4.291   7.166   0.823  0.3143  0.3503 -0.4389
10581SOL    HW232299   4.221   7.195   0.954 -0.1476 -1.9558 -0.1240
10582SOL     OW32300   5.016   2.675   3.342  0.1962 -0.0555 -0.3425
10582SOL    HW132301   5.029   2.760   3.300  0.1126 -0.2784 -0.8233
10582SOL    HW232302   4.987   2.697   3.431  0.3877  0.4190 -0.3927
10583SOL     OW32303   7.583   0.713   0.108  0.0601 -0.2353 -0.0981
10583SOL    HW132304   7.674   0.690   0.122  0.1579  0.5013  0.5490
10583SOL    HW232305   7.536   0.668   0.179 -0.1202 -0.8504 -0.6025
10584SOL     OW32306   4.457   1.608   6.726 -0.0919 -0.0247 -0.4086
10584SOL    HW132307   4.386   1.627   6.664 -0.2119  2.2833  0.3537
10584SOL    HW232308   4.450   1.676   6.793  2.2471 -0.3164  0.2311
10585SOL     OW32309   0.781   5.977   0.974  0.2111 -0.3207  0.2228
10585SOL    HW132310   0.708   5.985   1.035 -0.0626 -0.8543 -0.0264
10585SOL    HW232311   0.755   5.905   0.915  0.1400  0.6480 -0.9613
10586SOL     OW32312   5.190   4.537   3.979  0.4348 -0.1723 -0.1889
10586SOL    HW132313   5.212   4.449   4.010 -3.3943 -0.9887  0.6702
10586SOL    HW232314   5.256   4.594   4.018  0.0451 -2.0576  3.6496
10587SOL     OW32315   7.654   2.817   6.014 -0.1205 -0.1393  0.1280
10587SOL    HW132316   7.642   2.871   6.092  1.0700  0.4442 -0.0790
10587SOL    HW232317   7.666   2.879   5.943 -1.9383 -0.6490 -0.6935
10588SOL     OW32318   0.770   4.882   6.511  0.0395  0.0931  0.2024
10588SOL    HW132319   0.717   4.962   6.513  2.5639  1.9289 -0.5779
10588SOL    HW232320   0.707   4.812   6.494 -2.2575  1.9144  0.6025
10589SOL     OW32321   4.853   4.324   1.095  0.1332  0.1779 -0.2169
10589SOL    HW132322   4.793   4.395   1.074  0.0498  0.7531  1.7668
10589SOL    HW232323   4.938   4.367   1.107  0.0845 -0.0480  0.9946
10590SOL     OW32324   6.181   0.553   5.662 -0.4723  0.0588 -0.7185
10590SOL    HW132325   6.253   0.525   5.605 -0.9661 -0.1593 -1.2441
10590SOL    HW232326   6.102   0.532   5.612 -0.9134 -0.1505  0.0598
10591SOL     OW32327   2.130   7.408   6.026 -0.0705  0.1628 -0.0461
10591SOL    HW132328   2.191   7.403   5.952  0.4089  1.0829  0.2583
10591SOL    HW232329   2.080   7.327   6.022  0.2068  0.0286 -1.1532
10592SOL     OW32330   1.715   5.406   3.259 -0.6166 -0.2347  0.7861
10592SOL    HW132331   1.654   5.477   3.237  0.2558  0.0455 -0.9397
10592SOL    HW232332   1.692   5.336   3.198 -2.5847 -2.2240  3.5409
10593SOL     OW32333   4.879   2.816   4.003 -0.2784 -0.2034 -0.0120
10593SOL    HW132334   4.959   2.821   3.951 -0.3725 -0.1835 -0.1545
10593SOL    HW232335   4.826   2.749   3.960 -1.2458  1.2266 -1.1814
10594SOL     OW32336   4.723   7.230   0.518 -0.4812  0.2354  0.1846
10594SOL    HW132337   4.698   7.284   0.443 -0.5234  0.2636  0.2189
10594SOL    HW232338   4.664   7.258   0.588 -0.2455  0.4128  0.3110
10595SOL     OW32339   2.880   4.341   0.177 -0.4411  0.3061 -0.1056
10595SOL    HW132340   2.810   4.354   0.113 -0.4768  2.1904  0.2468
10595SOL    HW232341   2.952   4.396   0.146  0.3874 -0.5242  0.2838
10596SOL     OW32342   5.718   6.918   5.656 -0.1911  0.6618  0.1574
10596SOL    HW132343   5.801   6.964   5.648  0.8907 -0.5927  2.8171
10596SOL    HW232344   5.726   6.843   5.597  0.9863  0.0497  1.0602
10597SOL     OW32345   6.542   4.250   1.071 -0.6248 -0.3344 -0.0290
10597SOL    HW132346   6.583   4.314   1.013  2.2996 -2.5791 -0.7031
10597SOL    HW232347   6.579   4.269   1.157 -0.5398 -0.4630 -0.0359
10598SOL     OW32348   3.685   1.201   1.952 -0.3097 -0.0735 -0.0336
10598SOL    HW132349   3.734   1.280   1.931 -1.0134  0.2567 -0.4910
10598SOL    HW232350   3.731   1.162   2.026 -0.7903  1.5331  1.1553
10599SOL     OW32351   0.712   6.926   6.518 -0.6770 -0.5525  0.2733
10599SOL    HW132352   0.652   6.892   6.585 -1.1265 -0.8946 -0.3001
10599SOL    HW232353   0.662   6.923   6.437 -0.2654  0.2280 -0.0219
10600SOL     OW32354   6.035   3.725   2.888  0.2986  0.0591  0.0600
10600SOL    HW132355   5.976   3.653   2.913 -0.6322  0.5717 -0.6034
10600SOL    HW232356   5.978   3.788   2.843  1.3992  0.4685 -0.7945
10601SOL     OW32357   5.699   4.124   5.125 -0.0510 -0.0758 -0.0923
10601SOL    HW132358   5.744   4.198   5.165 -0.2986 -0.7238  1.4594
10601SOL    HW232359   5.679   4.066   5.199  0.1359 -1.6852 -1.2615
10602SOL     OW32360   4.514   1.907   4.439  0.0093  0.3083  0.1060
10602SOL    HW132361   4.476   1.878   4.356  0.9996 -0.5424 -0.0733
10602SOL    HW232362   4.470   1.853   4.505 -1.2921  1.4778  0.2331
10603SOL     OW32363   6.943   2.519   6.275  0.2293 -0.1814 -0.4097
10603SOL    HW132364   6.978   2.430   6.279  1.2147  0.1068 -1.8737
10603SOL    HW232365   6.862   2.510   6.223 -1.2569 -0.6321  1.8479
10604SOL     OW32366   2.576   4.704   5.338  0.3747  0.3107  0.2958
10604SOL    HW132367   2.535   4.718   5.253  0.5862  2.0338  0.4435
10604SOL    HW232368   2.503   4.695   5.399  0.2182 -1.2588 -0.0820
10605SOL     OW32369   2.062   0.943   6.197  0.2060 -0.0264  0.3109
10605SOL    HW132370   2.038   0.924   6.106 -0.7338 -1.2589  0.7897
10605SOL    HW232371   2.156   0.926   6.201  0.3381  0.4106 -0.5022
10606SOL     OW32372   6.158   4.167   6.062 -0.2225 -0.6671  0.5630
10606SOL    HW132373   6.243   4.161   6.019 -0.5220 -0.7185 -0.0288
10606SOL    HW232374   6.111   4.233   6.012 -0.5839 -0.7476  0.7957
10607SOL     OW32375   6.032   6.294   6.188 -0.3337 -0.0385 -0.2060
10607SOL    HW132376   6.044   6.200   6.201 -1.0117  0.0080  0.7519
10607SOL    HW232377   6.114   6.333   6.219 -0.3450 -0.2531  0.0947
10608SOL     OW32378   7.299   0.245   2.308  0.0770  0.2397 -0.0607
10608SOL    HW132379   7.394   0.247   2.316 -0.0082  0.5155  1.0721
10608SOL    HW232380   7.271   0.333   2.334 -0.5270 -0.0896  0.4457
10609SOL     OW32381   5.276   5.725   5.100  0.3551 -0.1904  0.3277
10609SOL    HW132382   5.288   5.817   5.078 -1.2888  0.0694  0.4528
10609SOL    HW232383   5.233   5.726   5.185 -0.6338 -1.0467 -0.1468
10610SOL     OW32384   7.340   3.192   5.391 -0.5610 -0.4169  0.1311
10610SOL    HW132385   7.288   3.236   5.459  1.0188  0.5196  0.7979
10610SOL    HW232386   7.378   3.264   5.341  0.6036 -1.0638  0.0721
10611SOL     OW32387   7.100   3.094   4.715  0.0578 -0.4094 -0.0450
10611SOL    HW132388   7.061   3.134   4.793  0.5969 -1.8149  0.9880
10611SOL    HW232389   7.083   3.000   4.725  1.1734 -0.7369 -1.0133
10612SOL     OW32390   1.252   3.320   5.293 -0.5094 -0.1551 -0.6668
10612SOL    HW132391   1.167   3.288   5.325 -0.0029 -0.5907  0.3023
10612SOL    HW232392   1.237   3.341   5.201 -1.6688 -0.2236 -0.5093
10613SOL     OW32393   2.358   4.621   4.622 -0.4357 -0.0312 -0.5565
10613SOL    HW132394   2.359   4.525   4.630 -0.4646 -0.2128 -2.3201
10613SOL    HW232395   2.279   4.639   4.572 -1.1928  1.0623  0.9595
10614SOL     OW32396   6.801   1.630   4.158  0.1610 -0.2781  0.0799
10614SOL    HW132397   6.790   1.674   4.074 -0.3471 -0.9038 -0.1899
10614SOL    HW232398   6.878   1.575   4.147  0.5208  0.1877  0.2628
10615SOL     OW32399   1.113   2.933   1.371 -0.1055  0.1619  0.1747
10615SOL    HW132400   1.088   2.965   1.284 -0.2701 -0.7078 -0.1107
10615SOL    HW232401   1.052   2.975   1.431  0.9514  1.9494  0.0624
10616SOL     OW32402   7.733   7.150   4.882  0.1627  0.0799 -0.0553
10616SOL    HW132403   7.770   7.204   4.952 -1.4032 -0.7760  1.4951
10616SOL    HW232404   7.717   7.212   4.810  3.1896  0.7240 -0.3113
10617SOL     OW32405   3.410   4.712   7.047  0.0245  0.5645  0.0662
10617SOL    HW132406   3.369   4.682   6.966 -0.7706 -1.6420  1.1984
10617SOL    HW232407   3.474   4.777   7.019 -0.5979  0.2603 -2.2681
10618SOL     OW32408   1.436   5.042   2.181  0.1767  0.2964  0.3962
10618SOL    HW132409   1.413   4.967   2.235 -1.0182 -0.5854 -1.2427
10618SOL    HW232410   1.356   5.095   2.177  1.1113  1.9327  1.8499
10619SOL     OW32411   5.414   1.248   0.956 -0.3666 -0.4571 -0.2190
10619SOL    HW132412   5.477   1.179   0.977 -1.5345 -1.8389 -1.0863
10619SOL    HW232413   5.333   1.202   0.934 -1.9616  1.2620  1.6002
10620SOL     OW32414   7.215   7.102   4.156  0.6358  0.0406 -0.2119
10620SOL    HW132415   7.296   7.070   4.114  1.1073  1.3392 -0.3540
10620SOL    HW232416   7.152   7.031   4.143  1.4046 -0.4993 -1.1866
10621SOL     OW32417   5.554   5.301   0.137  0.1131 -0.3031  0.4714
10621SOL    HW132418   5.581   5.345   0.217 -1.0192  1.8875 -0.2804
10621SOL    HW232419   5.632   5.300   0.082  0.2222  0.5298  0.6116
10622SOL     OW32420   6.727   5.605   5.856  0.1487 -0.2761 -0.0716
10622SOL    HW132421   6.730   5.647   5.942  0.7793  0.1583 -0.2961
10622SOL    HW232422   6.772   5.521   5.869 -0.1763 -0.4241  0.1267
10623SOL     OW32423   6.682   5.340   0.586 -0.7129 -0.1084  0.0772
10623SOL    HW132424   6.646   5.269   0.534  0.8659 -0.2233 -0.9039
10623SOL    HW232425   6.761   5.304   0.626 -0.4909  0.7614  0.4556
10624SOL     OW32426   2.956   5.849   4.069  0.0567  0.3381  0.3838
10624SOL    HW132427   3.028   5.818   4.014 -0.4805 -0.6095  0.1799
10624SOL    HW232428   2.877   5.819   4.023 -0.4550  1.0902  0.7623
10625SOL     OW32429   5.976   2.597   0.586 -0.2474  0.2330  0.5573
10625SOL    HW132430   5.934   2.545   0.518 -1.4950  0.0207  1.4660
10625SOL    HW232431   6.068   2.571   0.582 -0.5689 -0.8677 -0.0656
10626SOL     OW32432   5.114   0.265   0.437 -0.4354 -0.1661 -0.2376
10626SOL    HW132433   5.169   0.292   0.363  0.6435 -0.0265  0.5989
10626SOL    HW232434   5.039   0.220   0.396 -0.7001  1.3353 -1.4932
10627SOL     OW32435   0.888   2.626   2.903  0.3588 -0.0608  0.1521
10627SOL    HW132436   0.956   2.673   2.951  0.0137  0.6006 -0.0016
10627SOL    HW232437   0.850   2.691   2.845  0.3830 -0.7127 -0.6121
10628SOL     OW32438   0.251   5.645   0.827 -0.7990  0.3762  0.0086
10628SOL    HW132439   0.326   5.607   0.782  0.3866  1.0475  1.3530
10628SOL    HW232440   0.203   5.570   0.862  0.4981  0.0128  1.0600
10629SOL     OW32441   1.908   5.515   6.894  0.1814 -0.6671  0.1336
10629SOL    HW132442   1.919   5.585   6.958  1.3607  2.7253 -3.3986
10629SOL    HW232443   1.816   5.519   6.869  0.6683  1.3739 -1.6454
10630SOL     OW32444   0.950   3.194   5.875 -0.2242  0.4839 -0.5823
10630SOL    HW132445   0.889   3.267   5.882 -1.2579 -0.4602  1.0424
10630SOL    HW232446   1.008   3.218   5.803 -0.2097  3.1007  0.1979
10631SOL     OW32447   6.565   0.518   3.428  0.0335 -0.0330 -0.1941
10631SOL    HW132448   6.546   0.424   3.431  0.0535 -0.0180  1.0671
10631SOL    HW232449   6.569   0.539   3.335 -0.2113 -1.2338 -0.4923
10632SOL     OW32450   1.864   6.289   4.967 -0.4959 -0.2269  0.5903
10632SOL    HW132451   1.786   6.317   4.919  0.5065 -0.1004 -1.0353
10632SOL    HW232452   1.867   6.194   4.954 -0.5933 -0.2895  1.0046
10633SOL     OW32453   6.797   1.101   2.709  0.2725  0.6026  0.0356
10633SOL    HW132454   6.852   1.090   2.787 -0.5485  2.2940  0.9122
10633SOL    HW232455   6.858   1.094   2.635  1.4309  1.0446  0.9155
10634SOL     OW32456   2.534   2.379   1.717 -0.1499 -0.4501  0.0733
10634SOL    HW132457   2.523   2.368   1.811  0.2111 -1.5655 -0.0025
10634SOL    HW232458   2.448   2.362   1.680 -0.1878 -0.4532  0.1631
10635SOL     OW32459   2.618   5.992   2.014 -0.5110 -0.2561  0.5170
10635SOL    HW132460   2.702   5.947   2.007 -0.6608 -0.4564  0.0098
10635SOL    HW232461   2.634   6.063   2.077  0.3302  0.3760 -0.3780
10636SOL     OW32462   0.489   6.102   3.912 -0.1001 -0.7823 -0.2893
10636SOL    HW132463   0.497   6.188   3.871 -0.4281 -0.8916 -0.5869
10636SOL    HW232464   0.578   6.067   3.914 -0.2761 -1.4774 -2.4166
10637SOL     OW32465   5.715   3.638   3.806 -0.8320 -0.1343 -0.2903
10637SOL    HW132466   5.623   3.627   3.785 -1.5123  0.0990  2.1870
10637SOL    HW232467   5.721   3.728   3.839  0.1847 -0.2699 -0.0701
10638SOL     OW32468   0.204   2.940   3.308 -0.2260  0.7266  0.4074
10638SOL    HW132469   0.277   2.999   3.291  0.1782  0.0150 -0.4002
10638SOL    HW232470   0.235   2.883   3.378 -0.6233  1.4559  1.2008
10639SOL     OW32471   1.569   7.471   6.743  0.1564  0.2874 -0.1769
10639SOL    HW132472   1.562   7.483   6.648 -0.3844  0.1770 -0.1524
10639SOL    HW232473   1.570   7.377   6.756 -1.4045  0.2732  0.0290
10640SOL     OW32474   6.003   3.657   3.887  0.2140  0.6594 -0.4215
10640SOL    HW132475   5.989   3.596   3.815  1.1839 -1.3104  0.9759
10640SOL    HW232476   5.935   3.635   3.951 -0.1590  1.8759 -0.3647
10641SOL     OW32477   6.638   6.808   0.308  0.4649  0.3939 -0.0654
10641SOL    HW132478   6.662   6.899   0.290 -0.2950  1.0851  2.1151
10641SOL    HW232479   6.550   6.813   0.346 -0.4058 -1.4601 -1.7008
10642SOL     OW32480   7.021   1.842   0.072 -0.1401  0.2625 -0.1904
10642SOL    HW132481   7.037   1.748   0.064 -0.5611  0.2041 -0.3761
10642SOL    HW232482   7.045   1.864   0.162 -1.6821 -0.3519  0.3956
10643SOL     OW32483   5.739   2.438   1.345  0.2079 -0.0136 -0.7209
10643SOL    HW132484   5.751   2.526   1.381  0.0402 -0.1695 -0.2810
10643SOL    HW232485   5.819   2.422   1.294  0.5547  0.1129 -0.2228
10644SOL     OW32486   0.512   2.709   1.610 -0.0487 -0.5703  0.1961
10644SOL    HW132487   0.535   2.702   1.702 -1.8758  0.9799  0.8350
10644SOL    HW232488   0.433   2.654   1.601 -0.8587  0.5871 -0.0147
10645SOL     OW32489   2.006   5.029   3.525 -0.4060  0.8070 -0.1723
10645SOL    HW132490   1.931   5.054   3.580 -0.2645  0.1578  0.3229
10645SOL    HW232491   1.990   5.073   3.442 -2.4793 -1.0348 -0.8510
10646SOL     OW32492   3.135   6.723   2.619 -0.1644  0.3314  0.0198
10646SOL    HW132493   3.156   6.816   2.627 -0.7042  0.5795 -1.1978
10646SOL    HW232494   3.053   6.713   2.667 -0.8934  0.8183 -1.0724
10647SOL     OW32495   2.283   1.567   0.299  0.4218  0.2650  1.0663
10647SOL    HW132496   2.350   1.559   0.367  2.0697 -1.9540 -0.6745
10647SOL    HW232497   2.246   1.480   0.290 -1.1989  0.9743  0.4696
10648SOL     OW32498   6.999   6.733   5.425  0.2841  0.2854  0.2313
10648SOL    HW132499   6.975   6.818   5.460 -0.4755  0.7460 -1.3213
10648SOL    HW232500   7.086   6.747   5.387  0.3291  0.2705  0.3302
10649SOL     OW32501   5.697   2.850   2.987 -0.1555 -0.3031  0.1808
10649SOL    HW132502   5.632   2.859   2.918  1.1555 -0.6573 -1.1442
10649SOL    HW232503   5.695   2.757   3.010  0.0526 -0.3633 -0.0407
10650SOL     OW32504   4.978   2.670   5.214  0.2453 -0.1892 -0.2379
10650SOL    HW132505   4.973   2.671   5.310  0.2271  0.6477 -0.2392
10650SOL    HW232506   4.959   2.760   5.188  0.5731 -0.3338 -1.0141
10651SOL     OW32507   5.390   0.939   3.947  0.5247 -0.0742 -0.0834
10651SOL    HW132508   5.458   1.003   3.970  0.5761 -0.6892  1.5381
10651SOL    HW232509   5.433   0.854   3.953  0.0549 -0.3745 -0.7564
10652SOL     OW32510   6.530   2.352   4.626 -0.2764  0.0692  0.1515
10652SOL    HW132511   6.599   2.377   4.687 -0.6844  1.4649  0.0818
10652SOL    HW232512   6.461   2.316   4.682 -0.3639  0.6974  0.4636
10653SOL     OW32513   5.244   3.396   6.631  0.3913  0.2123  0.1586
10653SOL    HW132514   5.323   3.345   6.649  0.0510 -0.5921 -0.5162
10653SOL    HW232515   5.214   3.364   6.546 -1.6624 -0.8354  1.1877
10654SOL     OW32516   2.258   1.128   1.427 -0.3711 -0.2107 -0.0676
10654SOL    HW132517   2.307   1.062   1.378 -0.3052 -1.2308  1.3050
10654SOL    HW232518   2.324   1.173   1.480 -0.5030  0.5500 -0.5428
10655SOL     OW32519   5.571   4.457   6.119 -0.2046 -0.3125 -0.0921
10655SOL    HW132520   5.630   4.429   6.189 -2.1876 -0.3724  1.6414
10655SOL    HW232521   5.509   4.385   6.110 -1.1395  0.5302 -0.5605
10656SOL     OW32522   7.467   5.692   0.763 -0.0941  0.0629 -0.2366
10656SOL    HW132523   7.491   5.639   0.839  1.3596  0.8713 -0.0985
10656SOL    HW232524   7.377   5.667   0.744  0.1225 -1.5035  0.6183
10657SOL     OW32525   7.302   6.780   2.903  0.2949 -0.2863  0.3806
10657SOL    HW132526   7.209   6.769   2.885  0.5247 -0.6034 -0.6560
10657SOL    HW232527   7.311   6.873   2.925  0.0436  0.2310 -1.5645
10658SOL     OW32528   2.079   4.852   4.679  0.1012  0.5347  0.1279
10658SOL    HW132529   2.063   4.817   4.591  0.0657  1.9848 -0.4666
10658SOL    HW232530   2.165   4.817   4.703 -0.5385 -1.0998  0.1695
10659SOL     OW32531   1.828   3.999   1.001  0.1572 -0.1127 -0.1699
10659SOL    HW132532   1.826   4.045   1.085  1.6388  0.6673 -0.5201
10659SOL    HW232533   1.773   4.052   0.944  0.0845 -0.0037 -0.0007
10660SOL     OW32534   2.822   1.229   0.602  0.1976  0.7728 -0.1331
10660SOL    HW132535   2.821   1.152   0.659  0.4470  1.8562  1.3786
10660SOL    HW232536   2.813   1.193   0.514  1.4018 -1.0888  0.4334
10661SOL     OW32537   4.840   2.533   1.746  0.0665  0.4521  0.2377
10661SOL    HW132538   4.841   2.474   1.821  1.9629  1.4242  1.0441
10661SOL    HW232539   4.931   2.534   1.716 -0.1579  2.0460 -0.4814
10662SOL     OW32540   4.364   6.521   7.192 -0.4437  0.3661 -0.1026
10662SOL    HW132541   4.302   6.540   7.122  0.6017  1.1646 -0.8579
10662SOL    HW232542   4.446   6.504   7.147 -0.1572 -0.9005  0.8650
10663SOL     OW32543   2.124   5.977   1.361 -0.2628  0.3956 -0.4010
10663SOL    HW132544   2.065   5.953   1.290 -0.8935  1.8029 -0.4006
10663SOL    HW232545   2.163   5.895   1.390 -2.3299 -0.6081 -0.3030
10664SOL     OW32546   2.702   3.900   6.345 -0.2917  0.4760  0.0604
10664SOL    HW132547   2.790   3.901   6.306  0.1478 -0.0379  0.9842
10664SOL    HW232548   2.715   3.941   6.431 -0.8928  0.1026  0.3293
10665SOL     OW32549   5.470   3.698   2.266 -0.1715  0.3336 -0.5216
10665SOL    HW132550   5.424   3.781   2.249 -0.7411 -0.2831 -2.1951
10665SOL    HW232551   5.525   3.685   2.189  0.0409 -0.7745 -0.2000
10666SOL     OW32552   2.474   6.710   1.206 -0.2383 -0.3308  0.7359
10666SOL    HW132553   2.565   6.682   1.213 -0.3382 -0.6257  0.8963
10666SOL    HW232554   2.473   6.772   1.133  0.1165 -0.2094  0.8314
10667SOL     OW32555   4.714   5.617   5.999 -0.1602  0.4861 -0.2464
10667SOL    HW132556   4.636   5.671   5.981 -0.9330 -1.5368 -3.8557
10667SOL    HW232557   4.778   5.644   5.933  2.5528  2.2919  2.8020
10668SOL     OW32558   7.441   3.693   5.759  0.0897 -0.3208 -0.3489
10668SOL    HW132559   7.412   3.727   5.674 -0.2959 -0.4838 -0.2834
10668SOL    HW232560   7.378   3.728   5.822  0.3502 -0.2355 -0.1340
10669SOL     OW32561   5.389   3.785   3.680 -0.4849 -0.5057  0.5192
10669SOL    HW132562   5.302   3.820   3.697 -0.1623  0.1787  0.7931
10669SOL    HW232563   5.444   3.824   3.748  0.2692  0.0296 -0.3791
10670SOL     OW32564   2.174   1.807   4.300 -0.0966  0.0434  0.3350
10670SOL    HW132565   2.269   1.812   4.289 -0.1864 -2.1972 -2.7713
10670SOL    HW232566   2.139   1.868   4.236 -0.6872 -1.8082 -1.2007
10671SOL     OW32567   3.749   2.591   3.823  0.5266  0.0668  0.0503
10671SOL    HW132568   3.661   2.624   3.845  0.3943 -0.5959  0.5248
10671SOL    HW232569   3.775   2.539   3.899  0.9397 -0.5274 -0.4890
10672SOL     OW32570   4.742   7.719   7.585  0.0627  0.1365  0.1064
10672SOL    HW132571   4.784   7.646   7.539 -1.5961  0.1465 -1.5155
10672SOL    HW232572   4.782   7.798   7.547 -0.6239  0.1236 -0.6627
10673SOL     OW32573   5.509   4.206   1.602 -0.2319 -0.4094  0.0823
10673SOL    HW132574   5.563   4.206   1.523 -0.2883  1.9484 -0.0142
10673SOL    HW232575   5.433   4.261   1.580 -0.2948  0.2329  1.7299
10674SOL     OW32576   2.235   0.829   0.492 -0.0978 -0.1692 -0.3644
10674SOL    HW132577   2.298   0.758   0.477 -0.8977 -0.7753 -1.0054
10674SOL    HW232578   2.171   0.819   0.421 -1.1111  0.2085  0.4721
10675SOL     OW32579   3.348   4.718   4.920  0.4991 -0.3343  0.4856
10675SOL    HW132580   3.309   4.632   4.932 -0.3744  0.2621  2.2689
10675SOL    HW232581   3.293   4.777   4.971  3.0657  0.7312  2.2478
10676SOL     OW32582   6.766   5.507   2.912  0.2692  0.3126 -0.3235
10676SOL    HW132583   6.684   5.461   2.927  0.6344  0.0810  1.1283
10676SOL    HW232584   6.749   5.563   2.837 -1.3416  0.5931  0.2174
10677SOL     OW32585   7.675   0.115   3.156  0.3692 -0.4690  0.8481
10677SOL    HW132586   7.646   0.066   3.232  1.8006  0.3217  1.9645
10677SOL    HW232587   7.698   0.048   3.092 -2.4235 -1.1222  0.4231
10678SOL     OW32588   6.591   0.063   7.182 -0.3021  0.3817  0.4021
10678SOL    HW132589   6.588   0.150   7.222 -0.8919  0.0377  1.1235
10678SOL    HW232590   6.526   0.011   7.231 -0.4191 -0.2863 -0.4383
10679SOL     OW32591   4.107   2.740   4.038  0.0021  0.0170  0.2362
10679SOL    HW132592   4.070   2.781   4.116 -5.3748 -0.4237 -1.6618
10679SOL    HW232593   4.160   2.809   3.997 -1.1627  1.9163  1.7703
10680SOL     OW32594   3.044   5.686   1.144  0.3632 -0.9868  0.2122
10680SOL    HW132595   2.989   5.626   1.095 -3.1333  1.8358  0.2394
10680SOL    HW232596   3.000   5.695   1.229  0.7799  1.4357  0.2466
10681SOL     OW32597   0.896   3.987   3.971 -0.4981 -0.1492  0.2283
10681SOL    HW132598   0.811   3.957   4.002  0.2089 -0.2963  2.1718
10681SOL    HW232599   0.909   4.072   4.013  0.0644  0.1535 -0.5257
10682SOL     OW32600   0.048   5.970   6.402 -0.1282  0.0437  0.1288
10682SOL    HW132601   0.024   5.987   6.311 -1.7202 -1.2204  0.2795
10682SOL    HW232602   0.058   5.874   6.406 -0.7107  0.0248  1.4165
10683SOL     OW32603   5.651   0.183   0.052 -0.2561  0.1976 -0.1790
10683SOL    HW132604   5.557   0.167   0.049 -0.2160  0.0515 -0.6929
10683SOL    HW232605   5.687   0.130  -0.019  0.0895  1.0796 -0.6841
10684SOL     OW32606   0.591   0.511   2.202  0.1713  0.4307 -0.1207
10684SOL    HW132607   0.641   0.514   2.120 -0.3002  0.2048 -0.4165
10684SOL    HW232608   0.611   0.425   2.239 -1.5135 -0.4778 -1.2077
10685SOL     OW32609   0.717   3.938   2.380 -0.0866 -0.1062  0.4532
10685SOL    HW132610   0.728   3.895   2.465  1.1558 -0.2216  0.2610
10685SOL    HW232611   0.724   3.867   2.316  1.3142  0.2537  0.1659
10686SOL     OW32612   1.409   5.014   6.519 -0.4768 -0.1829  0.2585
10686SOL    HW132613   1.441   5.103   6.507  1.1789 -0.4930  1.8702
10686SOL    HW232614   1.415   4.999   6.614 -1.7462 -1.6485  0.1570
10687SOL     OW32615   3.500   5.642   6.504  0.2688 -0.2046  0.0241
10687SOL    HW132616   3.489   5.714   6.566  0.6158 -0.1269  0.0012
10687SOL    HW232617   3.467   5.676   6.421 -0.1308 -0.2845  0.1494
10688SOL     OW32618   4.285   5.580   3.311  0.2147 -0.1962  0.2082
10688SOL    HW132619   4.330   5.626   3.382 -0.9819 -0.1943  0.9863
10688SOL    HW232620   4.196   5.614   3.313 -0.4894 -1.9469  0.2622
10689SOL     OW32621   5.339   6.145   5.323  0.5921 -0.2454 -0.4912
10689SOL    HW132622   5.312   6.110   5.409  0.1443  1.5088  0.1312
10689SOL    HW232623   5.372   6.233   5.342  0.6980  0.0941 -2.0959
10690SOL     OW32624   7.154   6.918   7.420 -0.0974  0.0937  0.1668
10690SOL    HW132625   7.112   6.934   7.505 -0.8041  0.2387 -0.2047
10690SOL    HW232626   7.085   6.878   7.367  0.1731  0.5430 -0.5275
10691SOL     OW32627   6.110   2.362   7.554 -0.3760 -0.5506  0.3094
10691SOL    HW132628   6.192   2.380   7.510 -1.2895  0.4080 -1.0868
10691SOL    HW232629   6.047   2.345   7.483 -1.8065  0.6362  1.2231
10692SOL     OW32630   2.438   6.918   0.084  0.1167  0.5097 -0.1136
10692SOL    HW132631   2.395   7.002   0.097 -0.6794 -0.1366  1.7768
10692SOL    HW232632   2.411   6.890  -0.003 -0.1335  1.8847 -0.5056
10693SOL     OW32633   7.688   7.374   6.936  0.2564  0.1960 -0.6331
10693SOL    HW132634   7.751   7.344   7.001 -0.1153  0.5597 -0.0898
10693SOL    HW232635   7.606   7.382   6.984 -0.4248 -1.0955 -1.5128
10694SOL     OW32636   6.592   3.087   2.102  0.3285  0.1755 -0.3912
10694SOL    HW132637   6.531   3.118   2.169 -0.0873 -1.2969 -0.0558
10694SOL    HW232638   6.550   3.008   2.066  1.7804 -0.5622 -0.5286
10695SOL     OW32639   1.809   0.164   2.145  0.6406  0.1539  0.1322
10695SOL    HW132640   1.902   0.187   2.139  0.2644  1.5798 -0.6401
10695SOL    HW232641   1.764   0.248   2.146 -0.7237 -0.5310 -0.7952
10696SOL     OW32642   2.776   2.229   0.033 -0.1966 -0.6259 -0.0239
10696SOL    HW132643   2.802   2.238  -0.059  1.6235 -1.1423  0.3899
10696SOL    HW232644   2.681   2.223   0.031 -0.0942 -3.0229 -2.1068
10697SOL     OW32645   1.797   4.489   1.113  1.0115  0.0150  0.0417
10697SOL    HW132646   1.886   4.496   1.147  1.1805 -2.4934  0.3087
10697SOL    HW232647   1.742   4.476   1.190  0.6196 -0.0212 -0.2383
10698SOL     OW32648   5.911   4.194   4.594 -0.1674 -0.4483 -0.1528
10698SOL    HW132649   5.928   4.156   4.681  2.4539  1.3933  0.2776
10698SOL    HW232650   5.957   4.135   4.534  2.7181  1.0550  0.3767
10699SOL     OW32651   1.869   4.992   3.081  0.2605 -0.7979 -0.0723
10699SOL    HW132652   1.898   5.078   3.050  0.2312 -1.4406 -2.0396
10699SOL    HW232653   1.776   5.003   3.099  0.3871 -0.2760  0.2906
10700SOL     OW32654   5.699   2.133   2.438  0.0238 -0.6706 -0.0532
10700SOL    HW132655   5.678   2.147   2.530 -1.8010 -1.1636 -0.3383
10700SOL    HW232656   5.767   2.066   2.438  1.0868  0.3804  0.9540
10701SOL     OW32657   5.483   1.350   0.146 -0.3765  0.5645 -0.1715
10701SOL    HW132658   5.427   1.280   0.178  0.5502 -0.4816 -0.7286
10701SOL    HW232659   5.499   1.406   0.222  0.9583 -1.2819  1.0174
10702SOL     OW32660   7.100   1.544   0.135  0.8631  0.6177  0.0711
10702SOL    HW132661   7.135   1.460   0.164 -1.4954 -0.6191 -0.4232
10702SOL    HW232662   7.085   1.534   0.041  1.3589  1.9131 -0.1669
10703SOL     OW32663   3.056   7.459   0.823 -0.3932  0.6043 -0.3767
10703SOL    HW132664   3.106   7.418   0.752  0.5962  0.9837  0.0911
10703SOL    HW232665   3.100   7.430   0.903 -0.5985  1.3808  0.0199
10704SOL     OW32666   0.287   1.890   1.297  0.1123  0.3037 -0.6601
10704SOL    HW132667   0.325   1.809   1.331 -0.2614 -0.4481 -1.9616
10704SOL    HW232668   0.192   1.876   1.301 -0.3216  2.6921  3.8545
10705SOL     OW32669   3.567   7.504   4.584 -0.6742  0.0609 -0.3219
10705SOL    HW132670   3.539   7.442   4.651  0.3598  2.0772  2.1812
10705SOL    HW232671   3.661   7.490   4.575 -0.8187 -0.2805 -1.5308
10706SOL     OW32672   2.713   3.387   0.108 -0.3161 -0.0631 -0.5989
10706SOL    HW132673   2.703   3.480   0.087 -0.7101 -0.2123 -1.0884
10706SOL    HW232674   2.737   3.346   0.025 -2.2617 -0.7180 -0.8784
10707SOL     OW32675   3.361   7.479   2.751  0.1916  0.0634 -0.2596
10707SOL    HW132676   3.281   7.488   2.803 -1.7527 -0.5723 -2.9609
10707SOL    HW232677   3.360   7.554   2.691  0.8664 -0.7405 -1.3026
10708SOL     OW32678   3.963   3.275   2.448 -0.2747  0.2228  0.0359
10708SOL    HW132679   4.032   3.246   2.507  1.5794 -0.4189 -2.2952
10708SOL    HW232680   4.009   3.310   2.372 -2.4369 -1.7937 -2.4149
10709SOL     OW32681   6.603   0.864   0.933  0.2342 -0.2880  0.5845
10709SOL    HW132682   6.573   0.890   1.020 -2.3788  2.1004 -0.8754
10709SOL    HW232683   6.684   0.913   0.919  1.5863 -1.9138  2.1515
10710SOL     OW32684   1.698   7.440   4.612 -0.4151  0.2287 -0.7857
10710SOL    HW132685   1.646   7.399   4.542 -1.7722  0.1359  0.2361
10710SOL    HW232686   1.696   7.534   4.591 -2.0065  0.3669 -0.1626
10711SOL     OW32687   3.151   7.319   1.056  0.3924 -0.3822  0.5417
10711SOL    HW132688   3.147   7.253   0.987 -1.0010 -0.5843  0.7945
10711SOL    HW232689   3.097   7.284   1.127 -1.0870  1.3809  0.3535
10712SOL     OW32690   5.616   2.419   4.484  0.2430  0.1022 -0.0962
10712SOL    HW132691   5.646   2.349   4.542  0.2823  1.1577  1.1839
10712SOL    HW232692   5.696   2.461   4.453  0.1900  0.3440  0.0932
10713SOL     OW32693   4.744   0.346   2.330 -0.3241  0.2175 -0.0849
10713SOL    HW132694   4.790   0.358   2.247 -0.2208  1.1707  0.0956
10713SOL    HW232695   4.756   0.254   2.351  2.8701  0.6680  0.6875
10714SOL     OW32696   5.491   3.777   4.085 -0.0801  0.3945  0.1245
10714SOL    HW132697   5.408   3.776   4.133 -0.8844 -0.9145 -1.2465
10714SOL    HW232698   5.552   3.730   4.143 -0.7973 -0.3584  0.2900
10715SOL     OW32699   0.669   4.842   0.095  0.4052  0.0086 -0.0733
10715SOL    HW132700   0.595   4.819   0.151  0.4943 -0.2370 -0.0547
10715SOL    HW232701   0.717   4.909   0.144  0.4635 -0.1816  0.1308
10716SOL     OW32702   3.319   3.815   6.058  0.2326 -0.3078 -0.1041
10716SOL    HW132703   3.237   3.792   6.101 -1.3598  0.8262 -2.3531
10716SOL    HW232704   3.349   3.894   6.105  0.6665 -1.3270  1.4134
10717SOL     OW32705   7.142   1.177   7.129  0.0320 -0.0216  0.4249
10717SOL    HW132706   7.185   1.218   7.054  0.5982 -0.1872  0.6524
10717SOL    HW232707   7.193   1.207   7.205  0.2794 -0.9098  0.6183
10718SOL     OW32708   1.553   5.914   7.017 -0.2707 -0.5378 -0.0819
10718SOL    HW132709   1.563   5.912   6.922  0.7980 -2.5378  0.0033
10718SOL    HW232710   1.569   5.823   7.044  2.0165  0.4092  2.2015
10719SOL     OW32711   1.977   2.132   6.147  0.2493 -0.4651  0.3678
10719SOL    HW132712   2.046   2.092   6.095 -0.2622 -0.4562 -0.3280
10719SOL    HW232713   1.960   2.069   6.217 -1.2604 -1.9710 -1.2850
10720SOL     OW32714   2.591   3.994   7.260  0.1576  0.2651  0.1313
10720SOL    HW132715   2.499   3.999   7.232 -0.3933  0.4376  1.8279
10720SOL    HW232716   2.627   3.920   7.211 -0.5569  0.8914 -1.4096
10721SOL     OW32717   2.852   5.294   5.673  0.2768  0.3387 -0.0952
10721SOL    HW132718   2.817   5.210   5.702 -0.0977  0.6959  0.5079
10721SOL    HW232719   2.929   5.271   5.621 -1.9687 -0.6170 -3.3117
10722SOL     OW32720   3.595   6.238   6.587 -0.4460  0.5492 -0.7006
10722SOL    HW132721   3.659   6.169   6.569 -2.2793 -1.4394 -0.0080
10722SOL    HW232722   3.613   6.304   6.520  0.4618 -1.2692 -2.3824
10723SOL     OW32723   5.901   0.362   4.519 -0.1763 -0.5718  0.2929
10723SOL    HW132724   5.957   0.314   4.579 -0.4188  0.5612  1.4605
10723SOL    HW232725   5.955   0.435   4.488  0.0511 -1.3138 -1.1280
10724SOL     OW32726   4.554   7.507   2.732 -0.7446 -0.2480  0.2246
10724SOL    HW132727   4.490   7.541   2.669 -1.4258  0.6879  1.3913
10724SOL    HW232728   4.501   7.460   2.797 -0.2797  0.5026  1.1770
10725SOL     OW32729   2.886   3.326   1.397  0.6913  0.2237 -0.2724
10725SOL    HW132730   2.906   3.408   1.352 -0.6979  0.5264 -0.3791
10725SOL    HW232731   2.897   3.347   1.490 -4.3748  2.1155  0.1965
10726SOL     OW32732   2.399   4.842   1.104  0.5826  0.0414  0.8092
10726SOL    HW132733   2.324   4.878   1.057 -0.1342 -1.1826  0.9729
10726SOL    HW232734   2.425   4.911   1.165  0.1582  0.8158  0.1228
10727SOL     OW32735   0.533   7.459   6.521  0.4336  0.3517  0.2783
10727SOL    HW132736   0.505   7.374   6.486  1.5230  0.5212 -1.1431
10727SOL    HW232737   0.619   7.473   6.480  0.2472  2.1534  0.4564
10728SOL     OW32738   1.540   1.541   1.032  0.4445  0.0323  0.1193
10728SOL    HW132739   1.540   1.581   0.945 -0.9070 -1.4393 -0.6188
10728SOL    HW232740   1.582   1.605   1.088  0.0339  1.6628 -1.3506
10729SOL     OW32741   5.289   5.514   7.031 -0.5962  0.1670  0.2551
10729SOL    HW132742   5.299   5.527   7.125 -0.1988 -0.6227  0.3287
10729SOL    HW232743   5.316   5.597   6.992  2.1115 -0.4176  0.6913
10730SOL     OW32744   1.104   3.002   7.007  0.5820 -0.5554 -0.3098
10730SOL    HW132745   1.027   2.961   6.967 -0.5277  0.2083  0.9434
10730SOL    HW232746   1.098   2.978   7.099  0.6613  1.2254  0.1912
10731SOL     OW32747   1.349   4.957   1.863  0.1651 -0.4377  0.8505
10731SOL    HW132748   1.403   4.884   1.894 -0.4747 -1.0310  0.5717
10731SOL    HW232749   1.349   5.019   1.936  1.6093 -0.2052  0.6907
10732SOL     OW32750   6.075   2.213   0.763  0.1874 -0.5200  0.1472
10732SOL    HW132751   6.034   2.127   0.757 -2.1895  0.3261  2.5069
10732SOL    HW232752   6.143   2.203   0.829  0.2561 -0.6829  0.0534
10733SOL     OW32753   5.351   2.757   0.767  0.2229  0.1234  0.4176
10733SOL    HW132754   5.384   2.681   0.719 -1.6268 -0.0131 -0.7467
10733SOL    HW232755   5.332   2.724   0.854 -4.6547 -2.1431 -1.1313
10734SOL     OW32756   6.662   1.593   2.602 -0.6718 -0.4801  0.0033
10734SOL    HW132757   6.629   1.514   2.560  0.6205 -0.7292 -0.5965
10734SOL    HW232758   6.689   1.649   2.529 -3.5420  1.4848  0.2783
10735SOL     OW32759   1.119   2.059   6.633 -0.1726  0.7764  0.1063
10735SOL    HW132760   1.190   2.080   6.693 -0.3850  0.1342  0.5933
10735SOL    HW232761   1.137   2.112   6.555  0.3405  1.2899  0.5654
10736SOL     OW32762   1.425   7.142   5.206  0.5798  0.5834 -0.0258
10736SOL    HW132763   1.344   7.168   5.163  0.6542  1.0181  0.0904
10736SOL    HW232764   1.438   7.207   5.275 -1.0065 -1.6172  2.5385
10737SOL     OW32765   5.097   6.869   4.680  0.2813  0.4362  0.0989
10737SOL    HW132766   5.181   6.911   4.659  1.1170 -0.7496  0.9635
10737SOL    HW232767   5.064   6.837   4.596  0.3873  1.4132 -0.3335
10738SOL     OW32768   3.014   6.380   1.791  0.3666 -0.4879  0.2374
10738SOL    HW132769   3.034   6.399   1.882 -2.6642 -0.7838  1.0693
10738SOL    HW232770   3.063   6.445   1.741 -0.6768  2.0593  2.3175
10739SOL     OW32771   1.638   4.353   6.759  0.1972 -0.4649 -0.2024
10739SOL    HW132772   1.612   4.445   6.750 -1.2713 -0.9210 -0.8513
10739SOL    HW232773   1.610   4.311   6.678 -0.9610 -1.8864  0.8772
10740SOL     OW32774   6.572   0.363   4.768 -0.2753  0.1385  0.2165
10740SOL    HW132775   6.542   0.301   4.702  0.0612 -0.6173  0.7550
10740SOL    HW232776   6.662   0.336   4.788 -0.1710  0.7131  0.5562
10741SOL     OW32777   5.288   1.794   3.786 -0.5585  0.4274  0.0588
10741SOL    HW132778   5.211   1.779   3.841 -0.4730  0.5667  0.2178
10741SOL    HW232779   5.253   1.799   3.697 -0.8255  1.1862  0.1948
10742SOL     OW32780   6.054   0.425   5.211  0.0149  0.1998 -0.0879
10742SOL    HW132781   6.108   0.350   5.234  0.0368 -0.2656 -1.5403
10742SOL    HW232782   6.074   0.442   5.119  0.0913  2.0673  0.2211
10743SOL     OW32783   3.648   7.572   0.455 -0.9852  0.0661 -0.1540
10743SOL    HW132784   3.685   7.489   0.423  0.1374  0.3677  0.3221
10743SOL    HW232785   3.575   7.545   0.511 -1.5780 -0.5373 -1.1873
10744SOL     OW32786   5.556   6.348   7.421 -0.1750  0.2566 -0.0979
10744SOL    HW132787   5.484   6.382   7.474 -0.9069 -1.0351 -0.2342
10744SOL    HW232788   5.515   6.288   7.359  1.0210 -0.5062 -0.1912
10745SOL     OW32789   4.417   6.716   7.703 -0.6351 -0.0240  0.0932
10745SOL    HW132790   4.443   6.744   7.791 -0.6853  0.4225 -0.0297
10745SOL    HW232791   4.357   6.643   7.718  1.3077 -1.6279  0.3517
10746SOL     OW32792   5.602   1.196   3.558 -0.3983 -0.6073 -0.3705
10746SOL    HW132793   5.596   1.106   3.589 -0.9479 -0.3808  0.1788
10746SOL    HW232794   5.581   1.250   3.634  0.2784  0.0007 -0.5969
10747SOL     OW32795   5.144   0.558   3.710  0.0849 -0.1994  0.0160
10747SOL    HW132796   5.127   0.585   3.620 -0.9537 -1.7819 -0.2957
10747SOL    HW232797   5.147   0.640   3.760 -0.8296  0.6111 -1.2158
10748SOL     OW32798   0.132   6.118   3.913 -0.6673  0.3617 -0.2765
10748SOL    HW132799   0.066   6.135   3.980 -0.7354  1.6328 -0.6488
10748SOL    HW232800   0.191   6.192   3.918  0.3774 -0.4376 -0.3977
10749SOL     OW32801   2.675   0.008   3.626 -0.1667  0.1836  0.6271
10749SOL    HW132802   2.766  -0.006   3.602  0.0709  0.5017  1.3222
10749SOL    HW232803   2.650   0.088   3.580  0.2874  0.7900  1.4152
10750SOL     OW32804   5.307   0.678   4.399 -0.1827 -0.4600  0.5010
10750SOL    HW132805   5.220   0.713   4.381  0.1890  0.3242  0.1826
10750SOL    HW232806   5.320   0.610   4.332  0.3937  1.0691 -1.0077
10751SOL     OW32807   3.453   7.438   3.835  0.3682 -0.5349 -0.0558
10751SOL    HW132808   3.528   7.492   3.813  1.0703 -0.5342  2.0947
10751SOL    HW232809   3.478   7.350   3.806  0.6999 -0.3276 -0.4100
10752SOL     OW32810   4.106   1.856   4.329 -0.2976  0.2606 -0.1291
10752SOL    HW132811   4.011   1.841   4.327 -0.3196  0.0131  1.4053
10752SOL    HW232812   4.116   1.942   4.371  0.1702  0.0682  0.1596
10753SOL     OW32813   2.126   0.282   6.349  0.3064  0.2003  0.0398
10753SOL    HW132814   2.172   0.349   6.399  0.7951  0.6225 -0.9281
10753SOL    HW232815   2.037   0.315   6.340  0.3820  0.4250  0.1020
10754SOL     OW32816   1.162   3.192   3.432  0.2062  0.0286 -0.0671
10754SOL    HW132817   1.090   3.211   3.372  0.5212 -1.5557 -1.0006
10754SOL    HW232818   1.119   3.178   3.517 -0.3316  1.2904 -0.0999
10755SOL     OW32819   3.429   5.243   3.379  0.6326 -0.0972 -0.2139
10755SOL    HW132820   3.399   5.166   3.427  0.1708  0.0957 -0.1911
10755SOL    HW232821   3.354   5.302   3.377  1.3150  0.8591  0.7823
10756SOL     OW32822   4.465   5.687   4.756 -0.2648  0.5748 -0.1893
10756SOL    HW132823   4.514   5.722   4.682 -0.3636  2.6149  0.6410
10756SOL    HW232824   4.532   5.652   4.815  0.0699  1.6106  0.0683
10757SOL     OW32825   7.302   7.493   3.122 -0.1525 -0.1644 -0.0657
10757SOL    HW132826   7.385   7.538   3.138 -0.8272  0.6152  1.4384
10757SOL    HW232827   7.265   7.478   3.209 -2.0472  0.4082 -0.7186
10758SOL     OW32828   6.337   7.434   5.295 -0.2649 -1.0029  0.0937
10758SOL    HW132829   6.266   7.460   5.236 -0.2545  0.6696  0.7415
10758SOL    HW232830   6.365   7.348   5.263  0.7755  0.4054 -3.3544
10759SOL     OW32831   5.421   1.027   7.002  0.3179  0.4712  0.2878
10759SOL    HW132832   5.400   1.009   6.910  0.0191  0.2056  0.4072
10759SOL    HW232833   5.514   1.050   7.001  0.3307  0.4080 -0.0745
10760SOL     OW32834   2.257   6.504   5.242  0.3129 -0.0661  0.3002
10760SOL    HW132835   2.283   6.567   5.309  0.5748  1.2357 -0.9854
10760SOL    HW232836   2.336   6.489   5.191 -0.3889  0.6837 -1.0680
10761SOL     OW32837   2.262   2.459   7.299 -0.4406 -0.9213  0.4117
10761SOL    HW132838   2.280   2.521   7.228  0.2240 -0.4873  0.9491
10761SOL    HW232839   2.337   2.466   7.358 -1.4945 -0.4165  1.7672
10762SOL     OW32840   2.635   0.019   6.668  1.0917 -0.0764  0.3487
10762SOL    HW132841   2.638  -0.050   6.602 -0.6759  0.2451 -0.1256
10762SOL    HW232842   2.584   0.089   6.628  0.6804  0.4644  1.7421
10763SOL     OW32843   5.802   5.440   0.683  0.2013  0.4123  0.2668
10763SOL    HW132844   5.827   5.386   0.608 -0.7586  0.9618 -0.4914
10763SOL    HW232845   5.861   5.515   0.679 -0.4452  0.9102 -0.5452
10764SOL     OW32846   2.480   2.767   2.244  0.5198  0.4116  0.1176
10764SOL    HW132847   2.539   2.772   2.319  1.6704  1.0345 -0.7839
10764SOL    HW232848   2.529   2.719   2.177 -1.2615 -1.9663  0.4003
10765SOL     OW32849   1.372   4.731   5.784 -0.5271 -0.2218 -0.0742
10765SOL    HW132850   1.403   4.747   5.695  0.5499  0.3574  0.3814
10765SOL    HW232851   1.292   4.680   5.773 -0.1850 -0.5187 -1.3540
10766SOL     OW32852   2.894   1.936   3.102  0.4902 -0.1891 -0.6956
10766SOL    HW132853   2.967   1.887   3.140  0.1421 -0.4079 -0.2942
10766SOL    HW232854   2.930   2.023   3.083  0.7757 -0.2061 -0.2409
10767SOL     OW32855   6.498   5.554   3.878 -0.0167  0.5128 -0.3105
10767SOL    HW132856   6.573   5.504   3.911 -2.6859 -1.7106  3.1614
10767SOL    HW232857   6.462   5.499   3.809  0.3001  0.4703 -0.4418
10768SOL     OW32858   5.929   2.312   1.148 -0.2089 -0.2489  0.4398
10768SOL    HW132859   5.840   2.278   1.136 -0.0272 -0.5784  0.0030
10768SOL    HW232860   5.986   2.238   1.126  0.2370  0.7059 -1.9943
10769SOL     OW32861   1.882   6.012   3.649  0.5717  0.6158  0.0226
10769SOL    HW132862   1.833   6.064   3.586 -0.8166 -0.2110  0.3898
10769SOL    HW232863   1.821   5.945   3.678  1.9323 -0.4861  0.4741
10770SOL     OW32864   3.466   4.645   1.528 -0.2465 -0.2670  0.8417
10770SOL    HW132865   3.555   4.624   1.502 -0.0416  1.6347 -0.1551
10770SOL    HW232866   3.473   4.673   1.619 -0.1054 -1.6224  1.2708
10771SOL     OW32867   5.773   6.668   0.820 -0.4008 -0.2204 -0.3733
10771SOL    HW132868   5.732   6.590   0.858 -1.8583 -0.8905 -3.0582
10771SOL    HW232869   5.705   6.735   0.825  0.6484  0.7685  1.3973
10772SOL     OW32870   1.781   3.943   7.294  0.3638 -0.1332  0.5961
10772SOL    HW132871   1.847   4.013   7.294 -0.5721  0.7737  0.0316
10772SOL    HW232872   1.829   3.866   7.325  1.7034  0.4834  0.1634
10773SOL     OW32873   6.583   5.156   6.920 -0.3808 -0.3843  0.0629
10773SOL    HW132874   6.493   5.181   6.901 -0.3125  0.0170  0.2772
10773SOL    HW232875   6.589   5.065   6.889 -0.4026  0.0907 -1.4505
10774SOL     OW32876   5.352   2.662   7.038 -0.0795  0.0120 -0.5854
10774SOL    HW132877   5.314   2.584   6.997 -0.0220 -0.8877  0.9770
10774SOL    HW232878   5.276   2.714   7.065 -0.2461 -1.2365  1.5162
10775SOL     OW32879   1.601   3.221   1.692 -0.2204 -0.5051 -0.1934
10775SOL    HW132880   1.540   3.271   1.637 -1.6902 -0.5991  1.2703
10775SOL    HW232881   1.665   3.185   1.630 -2.4700 -1.5944 -2.0511
10776SOL     OW32882   5.653   4.660   0.827  0.0807  0.4546  0.0436
10776SOL    HW132883   5.590   4.729   0.847 -0.0437  0.3451  0.0287
10776SOL    HW232884   5.724   4.674   0.890  0.3399  0.9669 -0.3545
10777SOL     OW32885   5.093   4.250   3.211  0.0810  0.5075 -0.3820
10777SOL    HW132886   5.141   4.304   3.274  0.4198  0.2081 -0.3829
10777SOL    HW232887   5.007   4.291   3.207  0.0066  0.4473  0.3840
10778SOL     OW32888   0.133   0.210   0.981  0.8236  0.7309 -0.1085
10778SOL    HW132889   0.182   0.278   1.028  1.2112  1.4417 -1.4863
10778SOL    HW232890   0.111   0.145   1.048  1.6523  1.5353  0.9719
10779SOL     OW32891   6.246   7.188   3.982 -0.0697 -0.2612 -0.2912
10779SOL    HW132892   6.238   7.101   3.943  0.3636 -0.5440  0.2288
10779SOL    HW232893   6.204   7.247   3.919 -0.6993 -0.8888 -0.4802
10780SOL     OW32894   7.286   4.214   3.062 -0.5438 -0.0559 -0.2307
10780SOL    HW132895   7.338   4.293   3.077  1.1139 -0.7464 -2.0300
10780SOL    HW232896   7.214   4.244   3.006 -2.0200  0.8310  1.9911
10781SOL     OW32897   6.411   7.599   6.132 -0.3345  0.5807 -0.2840
10781SOL    HW132898   6.504   7.620   6.136  0.0599 -1.1047 -0.1388
10781SOL    HW232899   6.405   7.525   6.072 -1.6128  0.7533 -0.4054
10782SOL     OW32900   3.988   2.295   4.227 -0.6594 -0.4932 -0.2282
10782SOL    HW132901   3.906   2.245   4.228 -1.0336 -0.0847  3.0460
10782SOL    HW232902   4.046   2.246   4.169 -2.0993 -2.8329  0.1626
10783SOL     OW32903   6.193   0.838   3.536  0.3098 -0.8038 -0.3453
10783SOL    HW132904   6.129   0.785   3.583  0.7718 -1.9479 -0.9492
10783SOL    HW232905   6.278   0.801   3.562  0.7033  0.3167  0.0085
10784SOL     OW32906   1.891   6.749   6.722 -0.2271 -0.4656 -0.0219
10784SOL    HW132907   1.916   6.720   6.810 -1.8466 -0.3648  0.5097
10784SOL    HW232908   1.903   6.844   6.724  2.8050 -0.7169 -1.0015
10785SOL     OW32909   5.895   0.118   1.395 -0.3635  0.2745  0.0719
10785SOL    HW132910   5.987   0.097   1.375  0.0871  1.2373  1.0113
10785SOL    HW232911   5.844   0.056   1.343  0.7712  0.9856 -2.0348
10786SOL     OW32912   7.092   1.811   3.202  0.3395  0.2196 -0.2101
10786SOL    HW132913   7.124   1.775   3.285  0.3972  1.2699  0.2421
10786SOL    HW232914   7.067   1.734   3.151  2.1632 -0.5644  0.0023
10787SOL     OW32915   6.191   7.282   4.253 -0.3548  0.7183  0.5285
10787SOL    HW132916   6.170   7.247   4.166  0.3139 -0.0576  0.6707
10787SOL    HW232917   6.266   7.231   4.282 -1.8250 -0.4897  2.4443
10788SOL     OW32918   5.272   2.755   1.031  0.3005  0.5271 -0.0796
10788SOL    HW132919   5.197   2.765   1.088 -0.4965 -1.6610 -0.6205
10788SOL    HW232920   5.321   2.681   1.068 -0.3309 -1.0729 -2.1712
10789SOL     OW32921   7.450   0.049   1.235  0.2082  0.5822  0.8096
10789SOL    HW132922   7.363   0.068   1.271 -0.1480 -0.9220  0.7958
10789SOL    HW232923   7.477  -0.031   1.279  0.3122 -0.6274 -1.3415
10790SOL     OW32924   0.065   2.515   3.398  0.0470 -0.0940  0.3648
10790SOL    HW132925   0.002   2.583   3.419 -1.4835 -1.2275 -0.3897
10790SOL    HW232926   0.106   2.544   3.317 -1.2184 -0.4339 -0.4275
10791SOL     OW32927   1.773   3.335   1.883  0.2948 -0.2948 -0.1506
10791SOL    HW132928   1.717   3.280   1.828  0.3919  0.8205 -1.3948
10791SOL    HW232929   1.730   3.420   1.885  1.9788  0.6315 -1.2422
10792SOL     OW32930   5.806   1.240   3.366  0.1506  0.6710 -0.1863
10792SOL    HW132931   5.742   1.214   3.433 -0.4091  1.0465 -0.5615
10792SOL    HW232932   5.814   1.162   3.310 -1.1212  1.0824 -1.0001
10793SOL     OW32933   1.200   7.323   5.999 -0.0139  0.4257 -0.2685
10793SOL    HW132934   1.145   7.274   6.060  0.7599 -1.0149 -0.6761
10793SOL    HW232935   1.176   7.291   5.913 -0.7154  2.0583 -0.7264
10794SOL     OW32936   0.057   3.110   6.659 -1.0024 -0.5113 -0.1669
10794SOL    HW132937   0.122   3.040   6.667 -1.1138 -0.4618  1.3360
10794SOL    HW232938   0.066   3.139   6.568  0.3358 -1.2165 -0.2975
10795SOL     OW32939   5.579   0.891   4.250 -0.0360  0.6312  0.1750
10795SOL    HW132940   5.597   0.978   4.215 -0.7210  1.1062  0.9710
10795SOL    HW232941   5.666   0.856   4.272  0.1621  1.6518  1.0960
10796SOL     OW32942   7.543   1.211   6.203 -0.2100 -0.3928  0.4276
10796SOL    HW132943   7.460   1.175   6.172  0.8739 -1.2235 -1.7376
10796SOL    HW232944   7.526   1.304   6.215 -1.3164 -0.4441 -0.5863
10797SOL     OW32945   6.247   2.764   6.968 -0.1307 -0.4071 -0.1788
10797SOL    HW132946   6.289   2.848   6.950  2.2251 -1.3348  0.5238
10797SOL    HW232947   6.320   2.702   6.972 -1.7452 -2.4006 -0.1340
10798SOL     OW32948   2.736   4.902   6.011 -0.0239  0.3783  1.0688
10798SOL    HW132949   2.678   4.874   6.082  0.5153  0.9136  1.7411
10798SOL    HW232950   2.711   4.993   5.994 -1.5607 -0.3501 -0.8910
10799SOL     OW32951   3.554   6.292   4.821 -0.2083  0.6157  0.7586
10799SOL    HW132952   3.591   6.380   4.825 -0.3314  0.6223  2.2787
10799SOL    HW232953   3.598   6.250   4.747  0.2256  1.7705  0.3437
10800SOL     OW32954   7.168   7.006   3.463 -0.2311  0.5276  0.2826
10800SOL    HW132955   7.216   6.949   3.523 -1.5317  0.4927  1.3148
10800SOL    HW232956   7.236   7.061   3.424  0.5831  1.2235  2.5136
10801SOL     OW32957   1.552   5.775   0.247  0.1035  0.0878  0.1388
10801SOL    HW132958   1.507   5.859   0.252  0.1104  0.1642 -0.9215
10801SOL    HW232959   1.645   5.798   0.238 -0.0474  0.0386 -2.0202
10802SOL     OW32960   5.296   1.838   0.186 -0.0545  0.3757  0.3466
10802SOL    HW132961   5.320   1.836   0.093  0.7768 -0.5364  0.5660
10802SOL    HW232962   5.214   1.789   0.190 -0.9545  1.7987 -0.1246
10803SOL     OW32963   6.145   4.264   1.070  0.0916  0.4864 -0.2279
10803SOL    HW132964   6.217   4.240   1.012  0.7074  2.8611 -0.5688
10803SOL    HW232965   6.182   4.255   1.159  0.1352 -0.2610 -0.3192
10804SOL     OW32966   6.910   2.441   1.056 -0.9460 -0.8871  0.1019
10804SOL    HW132967   6.898   2.536   1.058 -0.4654 -0.7897 -0.8966
10804SOL    HW232968   6.921   2.416   1.148 -0.1179  0.1508  0.2996
10805SOL     OW32969   5.224   2.411   0.292 -0.1727  0.3667 -0.0205
10805SOL    HW132970   5.280   2.354   0.345 -1.9877 -1.0006  0.5348
10805SOL    HW232971   5.201   2.483   0.351 -0.0966  0.2155  0.1953
10806SOL     OW32972   0.435   6.155   5.640  0.0252 -0.0644 -0.2731
10806SOL    HW132973   0.357   6.204   5.665  0.0487 -1.0662  2.0629
10806SOL    HW232974   0.405   6.096   5.570 -0.3082  2.2003 -2.1629
10807SOL     OW32975   4.244   0.927   3.009  0.4104  0.1793  0.4833
10807SOL    HW132976   4.259   0.848   2.957  1.2961 -0.5193  1.7434
10807SOL    HW232977   4.158   0.913   3.049  0.4095  0.0160  0.4286
10808SOL     OW32978   2.675   5.656   1.273  0.6423 -0.0305  0.0415
10808SOL    HW132979   2.761   5.638   1.312  0.1270 -0.2970  1.0930
10808SOL    HW232980   2.621   5.685   1.347 -0.2484 -0.1296 -0.5599
10809SOL     OW32981   4.525   1.461   2.305 -0.5965 -0.4838 -0.3470
10809SOL    HW132982   4.492   1.386   2.355  0.9432 -0.4746  0.7620
10809SOL    HW232983   4.447   1.508   2.278 -1.5456 -0.2352  2.4984
10810SOL     OW32984   5.352   2.108   2.838 -0.0967 -0.1280 -0.1581
10810SOL    HW132985   5.399   2.191   2.850 -1.6054  0.4888  2.4045
10810SOL    HW232986   5.280   2.130   2.779 -1.1416  0.7793  1.3600
10811SOL     OW32987   1.752   6.416   7.513 -0.2676  0.2924 -0.6102
10811SOL    HW132988   1.706   6.494   7.544  0.3259  1.1878 -1.9104
10811SOL    HW232989   1.794   6.381   7.592 -0.8537  1.0640  0.0667
10812SOL     OW32990   5.652   3.724   2.056 -0.0778 -0.0368 -0.4636
10812SOL    HW132991   5.675   3.644   2.008 -0.7489 -0.5088 -0.0124
10812SOL    HW232992   5.703   3.793   2.013  2.8251 -1.1285  1.0090
10813SOL     OW32993   3.292   1.349   4.990 -0.0986 -0.2594 -0.2063
10813SOL    HW132994   3.351   1.283   5.025  0.5571 -0.6224 -1.9050
10813SOL    HW232995   3.325   1.432   5.026  0.0028 -0.6969  0.7219
10814SOL     OW32996   5.342   7.705   1.243  0.0030 -0.0931 -0.0366
10814SOL    HW132997   5.409   7.647   1.206 -0.2807 -0.0523 -0.6179
10814SOL    HW232998   5.391   7.766   1.297  0.1188 -2.4141  2.7188
10815SOL     OW32999   6.424   2.996   6.306 -0.1188  0.4776  0.2471
10815SOL    HW133000   6.446   3.037   6.223  0.2292 -0.3442 -0.0857
10815SOL    HW233001   6.331   2.974   6.298  0.5952 -2.5815 -1.3271
10816SOL     OW33002   3.477   5.017   2.741 -0.4515  0.2817 -0.4482
10816SOL    HW133003   3.465   4.923   2.756 -3.1773  0.6513  0.1780
10816SOL    HW233004   3.476   5.026   2.645 -0.9290 -0.2404 -0.4943
10817SOL     OW33005   1.465   2.769   7.573 -0.0614 -0.2881 -0.1842
10817SOL    HW133006   1.488   2.708   7.504  1.8708  0.2378 -0.0658
10817SOL    HW233007   1.425   2.715   7.641  0.6712 -1.2644 -0.5166
10818SOL     OW33008   3.832   7.462   5.975 -0.1779 -0.2535 -0.1250
10818SOL    HW133009   3.781   7.485   6.052  2.3600  1.2926  1.2049
10818SOL    HW233010   3.921   7.448   6.008  0.6268 -1.3635 -2.5284
10819SOL     OW33011   0.275   0.584   1.279 -0.5277  0.2587 -0.8323
10819SOL    HW133012   0.222   0.536   1.342  0.8999 -1.5556 -0.9277
10819SOL    HW233013   0.357   0.602   1.325 -0.4950  1.3498 -1.2888
10820SOL     OW33014   6.070   4.900   3.167 -0.0003  0.0931  0.1631
10820SOL    HW133015   6.142   4.940   3.118 -0.9404  2.4086  0.5593
10820SOL    HW233016   6.055   4.816   3.124  3.7614 -1.1163  0.8697
10821SOL     OW33017   4.320   6.031   4.415 -0.0074 -0.0519  0.3212
10821SOL    HW133018   4.249   6.095   4.417  0.4191  0.4324  0.2532
10821SOL    HW233019   4.389   6.074   4.366  0.1937 -0.6684  0.0585
10822SOL     OW33020   4.533   4.878   3.999 -0.4100  0.5455  0.3187
10822SOL    HW133021   4.485   4.917   4.072 -0.8773 -0.4133  0.5387
10822SOL    HW233022   4.588   4.810   4.039  1.8749  2.1955  0.2030
10823SOL     OW33023   4.999   3.672   7.187 -0.0149 -0.6463  0.2175
10823SOL    HW133024   5.022   3.743   7.126  0.0384  0.0879  1.0735
10823SOL    HW233025   4.944   3.613   7.135  1.0081 -0.6719 -0.8923
10824SOL     OW33026   1.050   5.218   5.545 -0.3616  0.1674  0.0682
10824SOL    HW133027   1.071   5.177   5.462 -1.3332  1.2207 -0.7353
10824SOL    HW233028   1.127   5.202   5.600  1.3090  1.3835 -1.7738
10825SOL     OW33029   5.340   5.915   7.186 -0.2279  0.1658  0.5077
10825SOL    HW133030   5.395   5.840   7.161 -0.0600  0.6970 -0.8142
10825SOL    HW233031   5.338   5.912   7.282 -0.0393 -1.3896  0.4966
10826SOL     OW33032   4.203   3.244   5.479 -0.0833 -0.1449  0.2650
10826SOL    HW133033   4.137   3.310   5.456 -1.6901 -1.9043 -0.3509
10826SOL    HW233034   4.256   3.234   5.400  0.4443  0.6849  0.4996
10827SOL     OW33035   4.672   1.055   4.621 -0.0630 -0.6036  0.4931
10827SOL    HW133036   4.701   1.036   4.710 -1.6236 -3.1876  0.5528
10827SOL    HW233037   4.593   1.002   4.610  0.9352 -1.6294 -2.9546
10828SOL     OW33038   5.872   1.898   2.165 -0.0301  0.3633  0.4725
10828SOL    HW133039   5.871   1.950   2.084 -1.2496  2.2959  1.6414
10828SOL    HW233040   5.912   1.815   2.140 -0.4195  0.8771 -2.1255
10829SOL     OW33041   7.063   4.717   7.407 -0.2522 -0.0119  0.1876
10829SOL    HW133042   6.995   4.708   7.340 -0.2499  0.2756  0.1464
10829SOL    HW233043   7.061   4.810   7.431  1.3153  0.3705 -1.0471
10830SOL     OW33044   0.719   7.469   7.353  0.2679 -0.0266  0.3358
10830SOL    HW133045   0.673   7.417   7.420 -0.0599 -0.1586  0.0067
10830SOL    HW233046   0.781   7.523   7.404  1.4784 -1.5915  0.6153
10831SOL     OW33047   4.533   3.571   5.286 -0.3372  0.2305 -0.1476
10831SOL    HW133048   4.563   3.488   5.322 -0.4536  0.5406  0.6887
10831SOL    HW233049   4.444   3.581   5.320 -0.6901  0.2290 -1.0451
10832SOL     OW33050   6.942   3.389   2.083  0.0917 -0.2011  0.5577
10832SOL    HW133051   6.918   3.330   2.013  1.1343  0.4965 -0.4315
10832SOL    HW233052   6.966   3.332   2.156 -1.7700 -0.9232  0.6585
10833SOL     OW33053   2.122   0.700   5.614 -0.3872 -0.8250 -0.0166
10833SOL    HW133054   2.121   0.624   5.555  0.1854 -0.3038 -0.7087
10833SOL    HW233055   2.214   0.708   5.642 -0.8037 -1.6870  1.7923
10834SOL     OW33056   4.164   2.538   6.032 -0.6265 -0.4281  0.3026
10834SOL    HW133057   4.223   2.516   6.104 -0.9169 -1.0479  0.3560
10834SOL    HW233058   4.219   2.533   5.954 -0.1591  0.8578  0.5282
10835SOL     OW33059   5.374   5.537   3.530  0.7762 -0.3294  0.5320
10835SOL    HW133060   5.420   5.456   3.510 -1.4285 -2.0739  2.1385
10835SOL    HW233061   5.317   5.552   3.454 -0.9393 -1.9709  1.4153
10836SOL     OW33062   1.737   6.178   0.255 -0.1120  0.5703  0.3316
10836SOL    HW133063   1.806   6.160   0.319 -0.1434  0.2894  0.2856
10836SOL    HW233064   1.660   6.132   0.288  0.3722 -1.2581 -0.9173
10837SOL     OW33065   6.297   0.102   0.686  0.2952  0.2084 -0.6914
10837SOL    HW133066   6.375   0.130   0.733 -0.6770 -0.3564  1.3499
10837SOL    HW233067   6.253   0.184   0.663  0.5571  0.4794 -0.2400
10838SOL     OW33068   1.779   4.227   4.146 -0.3216 -0.0170  0.4382
10838SOL    HW133069   1.702   4.279   4.169 -1.9197 -1.6735 -0.8470
10838SOL    HW233070   1.853   4.288   4.153 -2.0289  2.3204 -0.6772
10839SOL     OW33071   3.478   3.542   2.882 -0.2950 -0.6868  0.5028
10839SOL    HW133072   3.488   3.619   2.939  1.7080 -1.5202  1.4034
10839SOL    HW233073   3.539   3.558   2.810 -1.8426 -0.2506 -0.7352
10840SOL     OW33074   1.499   0.371   1.926 -0.6654  0.3220 -0.0004
10840SOL    HW133075   1.419   0.411   1.892 -2.8374 -1.5129  2.5466
10840SOL    HW233076   1.542   0.441   1.973 -0.1091  1.6152 -2.2644
10841SOL     OW33077   5.881   1.572   6.158 -0.1859  0.3031  0.3401
10841SOL    HW133078   5.946   1.566   6.228 -0.5129 -0.8095  0.5532
10841SOL    HW233079   5.809   1.622   6.197 -0.4024 -0.3794  0.8305
10842SOL     OW33080   5.588   6.536   2.396 -0.1014 -0.4418  0.4800
10842SOL    HW133081   5.678   6.567   2.407 -0.7699  1.3590  1.3061
10842SOL    HW233082   5.590   6.446   2.430  0.9875  0.2235  2.3844
10843SOL     OW33083   5.556   3.715   2.969  0.0834  0.0811  0.0492
10843SOL    HW133084   5.501   3.690   2.894 -2.0469  2.0894  0.8319
10843SOL    HW233085   5.587   3.803   2.947 -0.1263  0.4685  1.2426
10844SOL     OW33086   0.822   0.398   0.169 -0.5440  0.2812 -0.6771
10844SOL    HW133087   0.841   0.387   0.076  1.0784  2.0114 -0.6126
10844SOL    HW233088   0.908   0.412   0.209 -1.2943  0.3906  0.9661
10845SOL     OW33089   5.692   2.498   2.587  0.4971 -0.1126 -0.3654
10845SOL    HW133090   5.652   2.418   2.621  1.7328  0.3566  2.4537
10845SOL    HW233091   5.750   2.527   2.656  1.2311  2.4439 -1.9231
10846SOL     OW33092   3.859   3.932   5.782  0.1447  0.0474  0.3717
10846SOL    HW133093   3.938   3.883   5.757 -0.0693  0.0251 -0.2750
10846SOL    HW233094   3.833   3.893   5.866  1.2971  0.6231  1.0363
10847SOL     OW33095   5.820   5.596   2.375  0.0801 -0.2399 -0.0002
10847SOL    HW133096   5.813   5.679   2.328 -0.5313 -1.3186 -1.9134
10847SOL    HW233097   5.738   5.550   2.357  0.4856 -1.3668  0.8546
10848SOL     OW33098   6.274   6.767   0.624 -0.1491 -0.6179  0.4396
10848SOL    HW133099   6.182   6.741   0.636 -0.2975 -0.8023 -0.9001
10848SOL    HW233100   6.324   6.688   0.645 -0.5427 -1.8037 -2.5492
10849SOL     OW33101   2.250   3.888   7.680  0.2970  0.4749  0.4606
10849SOL    HW133102   2.252   3.797   7.709  1.0271 -0.1128 -1.2918
10849SOL    HW233103   2.340   3.918   7.687  0.2343  0.7517  0.1407
10850SOL     OW33104   2.054   5.584   5.829 -0.4366  0.3375  0.0015
10850SOL    HW133105   1.976   5.639   5.824  0.2633  1.4855  0.9628
10850SOL    HW233106   2.085   5.595   5.919  1.4527  0.8309 -0.6600
10851SOL     OW33107   1.894   7.459   7.325 -0.2204  0.6642  0.4917
10851SOL    HW133108   1.844   7.446   7.405 -2.0919  1.8853 -0.3933
10851SOL    HW233109   1.828   7.459   7.255  1.0166  2.1555 -0.7790
10852SOL     OW33110   3.489   5.844   3.860 -0.4405  0.0760 -0.5580
10852SOL    HW133111   3.501   5.776   3.926 -0.5994  0.3163 -0.2851
10852SOL    HW233112   3.478   5.925   3.909  2.5179  0.7960 -0.8766
10853SOL     OW33113   1.398   0.078   1.971  0.2192  0.0418 -0.0332
10853SOL    HW133114   1.433   0.167   1.970  0.7753 -0.1486 -1.9891
10853SOL    HW233115   1.377   0.059   1.879  0.2040 -1.8814  0.3110
10854SOL     OW33116   5.653   7.389   0.414 -0.1012 -0.2233 -0.4046
10854SOL    HW133117   5.613   7.440   0.484  1.5271  0.1478  0.3072
10854SOL    HW233118   5.645   7.298   0.443  0.6381 -0.0647  0.3220
10855SOL     OW33119   0.664   4.167   0.014  0.4093  0.1171 -0.1660
10855SOL    HW133120   0.687   4.086   0.060  0.0619 -0.4431 -0.9643
10855SOL    HW233121   0.575   4.186   0.041  0.4341  0.1440 -0.1034
10856SOL     OW33122   4.265   4.233   2.091  0.1936 -0.5182 -0.0243
10856SOL    HW133123   4.209   4.199   2.022 -0.4530 -1.5656  0.9746
10856SOL    HW233124   4.344   4.263   2.046 -0.4827 -0.5673 -1.2690
10857SOL     OW33125   5.913   3.373   5.233 -0.0873  0.0153  0.6350
10857SOL    HW133126   5.933   3.283   5.261 -1.9400 -0.3904  0.7397
10857SOL    HW233127   5.962   3.383   5.151  1.2862 -0.5748  1.3489
10858SOL     OW33128   2.743   4.495   3.266 -0.2372  0.4787 -0.0437
10858SOL    HW133129   2.731   4.401   3.254  1.1616  0.3144 -0.2999
10858SOL    HW233130   2.700   4.515   3.349  1.3477 -0.8083  1.1364
10859SOL     OW33131   5.254   4.037   7.286  0.0141  0.3141  0.3375
10859SOL    HW133132   5.271   3.943   7.297  1.2681  0.2742 -1.4476
10859SOL    HW233133   5.328   4.080   7.329 -0.7134  0.5150  1.4150
10860SOL     OW33134   3.212   1.760   7.047  0.3354  0.6364  0.0479
10860SOL    HW133135   3.270   1.696   7.005  2.1917  2.0887  0.2506
10860SOL    HW233136   3.234   1.844   7.005 -0.8624  1.4188  0.9148
10861SOL     OW33137   4.018   2.199   1.161  0.3393 -0.4516 -0.9678
10861SOL    HW133138   3.981   2.211   1.249  1.4620  0.0369 -0.5353
10861SOL    HW233139   4.031   2.104   1.153  0.0842 -0.5128 -0.6665
10862SOL     OW33140   2.247   3.332   1.618  0.0946  0.4939 -0.7650
10862SOL    HW133141   2.176   3.323   1.682  1.6793 -1.2714  0.8550
10862SOL    HW233142   2.231   3.263   1.554 -0.1188  0.6618 -0.8946
10863SOL     OW33143   0.618   1.316   4.745 -0.9346  0.7926  0.2634
10863SOL    HW133144   0.538   1.264   4.753 -1.0794  0.8037 -1.0084
10863SOL    HW233145   0.672   1.268   4.682 -0.4065  1.3634  0.2747
10864SOL     OW33146   5.601   5.763   5.465 -0.2729  0.3384 -0.0086
10864SOL    HW133147   5.597   5.827   5.536  0.9043 -0.8258  1.1787
10864SOL    HW233148   5.523   5.709   5.476  0.2022 -0.2026  0.7907
10865SOL     OW33149   2.664   0.782   1.183  0.4076  0.0831 -0.0308
10865SOL    HW133150   2.601   0.721   1.145 -0.1351 -1.5283  3.1071
10865SOL    HW233151   2.749   0.739   1.169  0.1646 -0.7477  0.8892
10866SOL     OW33152   5.271   3.166   6.868 -0.2187 -0.5833 -0.1466
10866SOL    HW133153   5.314   3.226   6.929  1.3339 -2.4547  0.7092
10866SOL    HW233154   5.178   3.186   6.876  0.2657  2.3110 -0.6247
10867SOL     OW33155   6.717   4.885   7.405 -0.1933  0.2388  0.3889
10867SOL    HW133156   6.646   4.934   7.363  0.4561  1.1719  0.3519
10867SOL    HW233157   6.728   4.808   7.349 -0.6358  0.4925 -0.0647
10868SOL     OW33158   6.183   0.927   2.133  0.3269 -0.1068  0.7976
10868SOL    HW133159   6.136   0.854   2.173 -2.2365  1.2393  0.4381
10868SOL    HW233160   6.205   0.896   2.045 -2.1003  0.0043  0.0945
10869SOL     OW33161   7.629   4.035   5.639  0.1082 -0.0464 -0.4824
10869SOL    HW133162   7.571   4.054   5.712  0.2343 -0.0996 -0.3685
10869SOL    HW233163   7.690   4.109   5.636 -0.8775  0.7570 -1.5267
10870SOL     OW33164   6.227   6.426   1.359  0.6249 -0.0678 -0.2430
10870SOL    HW133165   6.165   6.404   1.289 -1.6164 -0.1084  1.6431
10870SOL    HW233166   6.211   6.519   1.376 -0.2766 -0.4915  1.4568
10871SOL     OW33167   5.429   1.493   1.881 -0.3816 -0.7422  0.2557
10871SOL    HW133168   5.351   1.436   1.877  0.7414 -2.2824 -1.2470
10871SOL    HW233169   5.490   1.445   1.936  0.6146 -1.0799 -1.0947
10872SOL     OW33170   5.716   1.700   0.844  0.5968 -0.3074 -0.7102
10872SOL    HW133171   5.660   1.773   0.871  1.8738  0.7576 -0.8343
10872SOL    HW233172   5.662   1.622   0.859 -1.2985  0.7196 -1.8180
10873SOL     OW33173   0.287   1.321   3.360  1.1055  0.0567  0.0452
10873SOL    HW133174   0.288   1.323   3.455  2.3974  2.3253  0.0544
10873SOL    HW233175   0.371   1.283   3.335  0.4656 -1.2511 -0.2474
10874SOL     OW33176   4.428   5.322   4.626 -0.3562  0.1023 -0.3616
10874SOL    HW133177   4.515   5.312   4.666  0.0323 -0.2673 -1.2706
10874SOL    HW233178   4.446   5.331   4.533 -1.2421  1.1315 -0.4450
10875SOL     OW33179   4.071   0.174   5.123  0.2173 -0.2510 -0.4384
10875SOL    HW133180   4.118   0.255   5.102 -2.2045  1.2034 -0.5063
10875SOL    HW233181   4.061   0.130   5.038 -1.1445  0.9137 -0.9022
10876SOL     OW33182   5.464   6.202   5.011  0.5666 -0.2780 -0.1247
10876SOL    HW133183   5.528   6.272   5.023 -1.0650  1.1786  0.5194
10876SOL    HW233184   5.410   6.207   5.090 -2.0490  0.4054 -1.8700
10877SOL     OW33185   5.218   5.556   6.640 -0.1392  0.0363 -0.2472
10877SOL    HW133186   5.235   5.494   6.568  1.0827  0.3270 -0.2249
10877SOL    HW233187   5.175   5.503   6.707 -0.3422 -0.4760 -0.7709
10878SOL     OW33188   6.899   1.523   5.898 -0.6023  0.3533 -0.2662
10878SOL    HW133189   6.873   1.566   5.816 -1.5900 -0.5594 -0.4637
10878SOL    HW233190   6.994   1.527   5.898 -0.4160 -1.3585 -2.4884
10879SOL     OW33191   4.618   2.203   3.048  0.0392  0.3838  0.2540
10879SOL    HW133192   4.647   2.114   3.031 -0.4822  0.4943 -1.3347
10879SOL    HW233193   4.559   2.195   3.123  1.5021 -0.2985  1.3807
10880SOL     OW33194   1.579   5.281   2.209 -0.2308  0.2359 -0.2703
10880SOL    HW133195   1.547   5.228   2.136 -1.8243  0.5914  0.1465
10880SOL    HW233196   1.596   5.219   2.279  1.0758 -0.0788 -0.8293
10881SOL     OW33197   4.158   5.036   0.508 -0.2148 -0.1774  0.0817
10881SOL    HW133198   4.214   5.109   0.534 -0.4373 -0.2423  0.7431
10881SOL    HW233199   4.114   5.009   0.588  0.1561 -1.2965 -0.0746
10882SOL     OW33200   4.182   0.621   1.977 -0.1322  0.0135  0.3098
10882SOL    HW133201   4.163   0.620   1.883 -1.1761 -2.2874  0.4680
10882SOL    HW233202   4.162   0.531   2.006  0.5052  0.5692  2.6638
10883SOL     OW33203   2.300   1.285   6.288 -0.0416  0.4303 -0.0962
10883SOL    HW133204   2.353   1.365   6.288 -0.2805  0.6525 -2.7297
10883SOL    HW233205   2.363   1.214   6.303  0.5798  0.8935 -0.4818
10884SOL     OW33206   2.353   3.348   7.147  0.0387  0.0492  0.6164
10884SOL    HW133207   2.275   3.293   7.158  1.0811 -1.8127 -0.7634
10884SOL    HW233208   2.377   3.337   7.055  3.5977 -1.8381  1.5976
10885SOL     OW33209   5.408   4.421   4.299 -0.5417  0.0637  0.9375
10885SOL    HW133210   5.406   4.496   4.239 -3.0192 -0.4376  0.2568
10885SOL    HW233211   5.468   4.447   4.368  1.7384  1.0562 -1.2448
10886SOL     OW33212   2.618   7.096   5.812 -0.0170  0.6463 -0.0360
10886SOL    HW133213   2.538   7.106   5.761 -0.0745 -2.2735 -0.7342
10886SOL    HW233214   2.689   7.117   5.751 -0.0757 -2.9321 -1.6050
10887SOL     OW33215   3.625   6.355   5.516  0.5233  0.0941 -0.4249
10887SOL    HW133216   3.612   6.391   5.428 -0.0998 -1.5588 -1.0582
10887SOL    HW233217   3.683   6.280   5.502 -0.9485 -1.2270  0.2760
10888SOL     OW33218   4.900   0.328   6.003  0.0381 -0.1429 -0.1494
10888SOL    HW133219   4.989   0.349   5.974  0.0894 -1.1503 -0.7547
10888SOL    HW233220   4.911   0.256   6.065 -0.1762  1.2485  1.5854
10889SOL     OW33221   6.480   3.932   0.533 -0.3533 -0.1864  0.3220
10889SOL    HW133222   6.553   3.928   0.472 -2.5681  1.5160 -2.7186
10889SOL    HW233223   6.453   3.841   0.544  0.0267 -0.5498 -1.4356
10890SOL     OW33224   6.533   2.870   7.282 -0.5858 -0.8564 -0.7244
10890SOL    HW133225   6.548   2.874   7.188 -0.9442 -1.1770 -0.8022
10890SOL    HW233226   6.463   2.805   7.292 -0.8901 -0.4642 -0.2745
10891SOL     OW33227   6.810   4.093   6.620  0.2068  0.3195 -0.6325
10891SOL    HW133228   6.799   4.004   6.653 -0.0208  0.5943  0.0530
10891SOL    HW233229   6.852   4.139   6.692  0.4038  0.7471 -1.0191
10892SOL     OW33230   0.174   4.014   7.635 -0.5026  0.2589  0.1071
10892SOL    HW133231   0.090   4.018   7.679 -0.5090  1.7397 -0.0008
10892SOL    HW233232   0.188   4.102   7.601  1.1146  0.0542  0.1625
10893SOL     OW33233   0.031   5.156   1.630 -0.0593 -0.3927  0.2396
10893SOL    HW133234  -0.019   5.222   1.678  0.3985 -0.2629  0.5452
10893SOL    HW233235   0.086   5.114   1.696  2.7386  1.7352 -0.5398
10894SOL     OW33236   1.298   7.443   4.923 -0.3400 -0.7552  0.4555
10894SOL    HW133237   1.360   7.497   4.973  0.3774 -1.3792  0.2521
10894SOL    HW233238   1.353   7.383   4.873 -0.9871  0.6037 -2.0046
10895SOL     OW33239   2.975   7.542   6.582  0.3395 -0.5083 -0.3336
10895SOL    HW133240   2.974   7.457   6.538 -0.5718  0.0033 -1.3642
10895SOL    HW233241   2.906   7.536   6.648  1.5718 -1.2080  0.9350
10896SOL     OW33242   7.381   6.935   4.333 -0.2872  0.2205  0.2456
10896SOL    HW133243   7.450   6.884   4.293 -0.4372 -1.7005  2.2307
10896SOL    HW233244   7.307   6.928   4.273 -0.1212 -1.4790  0.1898
10897SOL     OW33245   3.715   4.714   2.493 -0.4201  0.3248 -0.2004
10897SOL    HW133246   3.673   4.688   2.575 -0.2412  0.7982  0.0433
10897SOL    HW233247   3.693   4.806   2.483  0.0399  0.4157 -0.3856
10898SOL     OW33248   6.569   2.880   7.009 -0.1818  0.3223 -0.4487
10898SOL    HW133249   6.527   2.895   6.924 -0.2587 -2.2655 -0.9488
10898SOL    HW233250   6.663   2.889   6.990 -0.2082 -0.0620 -0.7961
10899SOL     OW33251   1.939   0.287   1.679  0.2538  0.2631  0.3101
10899SOL    HW133252   1.947   0.328   1.766  2.1081 -1.1553  0.8825
10899SOL    HW233253   1.863   0.230   1.686 -0.0718  0.7367  0.7437
10900SOL     OW33254   6.530   6.986   6.313 -0.5262 -0.1181 -0.2334
10900SOL    HW133255   6.531   6.894   6.342  1.0762 -0.2810 -0.7255
10900SOL    HW233256   6.439   7.013   6.323 -0.9101 -1.5755  0.5108
10901SOL     OW33257   2.988   0.962   6.234 -0.5262  0.5466  1.0511
10901SOL    HW133258   2.995   0.917   6.318 -1.7602 -0.1993  0.7765
10901SOL    HW233259   2.946   0.899   6.176  0.6617  0.8993 -0.2595
10902SOL     OW33260   0.515   4.754   0.487 -0.0814 -0.6396 -0.2087
10902SOL    HW133261   0.604   4.789   0.495 -0.8844  1.3788  0.6999
10902SOL    HW233262   0.516   4.673   0.537  0.9453  0.0051  0.8746
10903SOL     OW33263   1.274   6.244   2.198  0.0359  0.0055  0.3471
10903SOL    HW133264   1.284   6.165   2.250 -0.1329  0.5317  1.1899
10903SOL    HW233265   1.184   6.273   2.214 -0.0114  0.1913 -0.2130
10904SOL     OW33266   4.047   0.057   1.482 -0.1761 -0.6424 -0.3806
10904SOL    HW133267   4.104  -0.005   1.437  0.7214  0.1901 -0.4054
10904SOL    HW233268   3.975   0.003   1.515  0.4001 -1.6390 -0.7136
10905SOL     OW33269   2.924   3.862   5.983  0.2126 -0.2897 -0.3569
10905SOL    HW133270   2.896   3.931   6.042 -1.8974  0.4437 -2.0842
10905SOL    HW233271   3.009   3.890   5.950  0.2196  0.5474  0.3625
10906SOL     OW33272   4.732   7.362   4.072 -0.0530  0.1776 -0.2527
10906SOL    HW133273   4.638   7.354   4.052  0.0493 -1.6161 -0.1629
10906SOL    HW233274   4.747   7.456   4.077 -2.2880  0.5324  1.8203
10907SOL     OW33275   2.896   6.308   2.844 -0.2670 -0.4210 -0.4153
10907SOL    HW133276   2.895   6.328   2.751  0.5216  0.6353 -0.2272
10907SOL    HW233277   2.903   6.213   2.849 -1.9762 -0.6245 -1.4019
10908SOL     OW33278   3.122   1.862   7.296  0.1720  0.3698 -0.4002
10908SOL    HW133279   3.043   1.904   7.261 -0.6548 -0.3012  0.5835
10908SOL    HW233280   3.148   1.800   7.229 -0.4371  0.2397 -0.5186
10909SOL     OW33281   2.234   0.557   4.532  0.2333 -0.3427  0.4777
10909SOL    HW133282   2.302   0.505   4.490 -0.8558 -0.3173 -1.4547
10909SOL    HW233283   2.160   0.497   4.541  0.4578 -0.3826  2.5735
10910SOL     OW33284   2.323   1.173   4.348 -0.5818  0.0997 -0.1792
10910SOL    HW133285   2.239   1.131   4.367 -0.2873 -0.1843  0.4961
10910SOL    HW233286   2.382   1.141   4.415  0.5807 -1.2080 -1.7411
10911SOL     OW33287   1.876   3.837   6.972 -0.3919 -0.2345  0.4143
10911SOL    HW133288   1.881   3.933   6.981  0.5218  0.0209 -2.1283
10911SOL    HW233289   1.966   3.809   6.962 -0.6826 -1.3660  0.8374
10912SOL     OW33290   5.756   1.221   2.677  0.0044 -0.2267  0.1140
10912SOL    HW133291   5.765   1.272   2.757  1.1331  1.4541 -1.0140
10912SOL    HW233292   5.832   1.163   2.677 -1.2471 -1.9477  1.3676
10913SOL     OW33293   0.363   4.998   6.033  0.3788  0.0717 -0.3097
10913SOL    HW133294   0.425   5.064   6.001 -0.5193  1.0427 -0.1012
10913SOL    HW233295   0.419   4.928   6.069  1.3672  1.4690  0.9950
10914SOL     OW33296   3.710   4.050   3.710  0.0823  0.3752 -0.3992
10914SOL    HW133297   3.694   4.022   3.620 -0.9093 -0.2902 -0.0319
10914SOL    HW233298   3.805   4.050   3.719  0.1673 -2.5208 -0.5448
10915SOL     OW33299   0.754   2.372   1.975  0.4452 -0.2122  0.1042
10915SOL    HW133300   0.823   2.357   2.040  0.8413  2.2903  0.3831
10915SOL    HW233301   0.681   2.318   2.005  0.9153  0.2065  2.1989
10916SOL     OW33302   7.617   0.426   5.564 -0.1035  0.2821 -0.5157
10916SOL    HW133303   7.637   0.335   5.542 -1.9332 -0.3081  0.0960
10916SOL    HW233304   7.673   0.477   5.506  2.7217 -1.1639  0.6841
10917SOL     OW33305   1.502   1.570   6.442  0.2530  0.3981  0.3424
10917SOL    HW133306   1.559   1.497   6.468 -0.1688  0.0558  0.3148
10917SOL    HW233307   1.438   1.576   6.513 -0.1722  0.2472 -0.0255
10918SOL     OW33308   5.217   1.576   6.711 -1.2754  0.0553 -0.0228
10918SOL    HW133309   5.136   1.620   6.735 -0.8034 -0.1654  2.1888
10918SOL    HW233310   5.282   1.646   6.707 -1.2351  0.0151 -0.0798
10919SOL     OW33311   1.876   0.194   6.164 -0.8360  0.1641 -0.0482
10919SOL    HW133312   1.835   0.221   6.082  0.2618 -0.7654 -0.9370
10919SOL    HW233313   1.877   0.098   6.160 -1.8264  0.0498  1.6000
10920SOL     OW33314   6.581   0.992   2.031 -0.3105  0.2181 -0.2690
10920SOL    HW133315   6.582   0.908   1.984  0.8187  0.7377 -1.2143
10920SOL    HW233316   6.507   0.984   2.091 -1.4869 -0.7036 -1.7444
10921SOL     OW33317   4.382   3.981   2.139 -0.1020 -0.5408  0.5851
10921SOL    HW133318   4.311   3.927   2.175  0.1052 -0.5842  0.9402
10921SOL    HW233319   4.340   4.063   2.114 -0.4563 -0.9349 -0.1379
10922SOL     OW33320   0.158   6.335   1.763 -0.0698  0.7390 -0.3261
10922SOL    HW133321   0.185   6.388   1.837  1.7934 -0.8745  0.2212
10922SOL    HW233322   0.182   6.246   1.786 -1.9667 -0.2265 -1.7310
10923SOL     OW33323   5.631   2.513   0.610  0.4914 -0.2717  0.2122
10923SOL    HW133324   5.695   2.484   0.676  1.2471 -0.8187 -0.7362
10923SOL    HW233325   5.578   2.435   0.593 -1.1218  0.4192  1.6985
10924SOL     OW33326   6.301   4.175   0.209  0.0618 -0.3871  0.1555
10924SOL    HW133327   6.215   4.207   0.183  0.2574  1.8401  1.9333
10924SOL    HW233328   6.285   4.130   0.293  0.7413  1.0528  1.0882
10925SOL     OW33329   0.811   0.393   3.074 -0.1985 -0.6905  0.1923
10925SOL    HW133330   0.862   0.393   3.154 -0.7317 -0.3257  0.5339
10925SOL    HW233331   0.773   0.305   3.070  0.5007 -0.9868 -0.1005
10926SOL     OW33332   0.529   7.054   4.769  0.2775 -0.0257  0.0396
10926SOL    HW133333   0.485   7.004   4.700 -0.8406  0.7803  0.1404
10926SOL    HW233334   0.462   7.116   4.800  0.8320 -0.1905  1.6562
10927SOL     OW33335   0.201   4.341   0.238 -0.0864 -0.2599  0.3047
10927SOL    HW133336   0.186   4.421   0.187  2.9218 -0.5808 -1.2542
10927SOL    HW233337   0.220   4.373   0.326  0.0030  0.6873 -0.0443
10928SOL     OW33338   1.948   3.170   5.926 -0.5813 -0.2801 -0.0256
10928SOL    HW133339   1.888   3.124   5.867 -0.0725 -1.4539  0.3338
10928SOL    HW233340   2.035   3.140   5.900 -0.2837 -0.0167  0.6540
10929SOL     OW33341   2.826   4.180   1.882 -0.1041  0.1647 -0.0238
10929SOL    HW133342   2.917   4.199   1.901 -0.6722  1.5203  1.5280
10929SOL    HW233343   2.805   4.234   1.806  0.1622  0.4417  0.1013
10930SOL     OW33344   4.053   2.189   2.661  0.6497  0.0321  0.0593
10930SOL    HW133345   4.025   2.261   2.717  1.4459 -0.2404  0.8231
10930SOL    HW233346   4.078   2.119   2.721  2.2280 -0.0061 -0.5776
10931SOL     OW33347   2.705   7.360   3.112 -0.1854 -0.4787  0.8050
10931SOL    HW133348   2.763   7.436   3.105 -0.6176 -0.2920 -2.9004
10931SOL    HW233349   2.618   7.398   3.124 -0.7121 -0.0149 -3.0637
10932SOL     OW33350   5.798   3.707   3.359  0.3357  0.7195 -0.7109
10932SOL    HW133351   5.744   3.718   3.437  3.4080  0.1759  1.6566
10932SOL    HW233352   5.796   3.792   3.316 -2.1147  0.7826 -0.5871
10933SOL     OW33353   6.454   3.065   5.846 -0.3420  0.4696 -0.3250
10933SOL    HW133354   6.536   3.054   5.893  1.0063 -0.3319 -2.6809
10933SOL    HW233355   6.447   3.159   5.832 -0.0361  0.5785  0.2102
10934SOL     OW33356   5.113   7.159   0.316 -0.0651  0.4371 -0.0034
10934SOL    HW133357   5.141   7.224   0.381  1.0064 -1.5190  1.6022
10934SOL    HW233358   5.186   7.154   0.254  0.0911  0.3971  0.1818
10935SOL     OW33359   3.767   4.602   5.703  0.0437  0.7049  0.0384
10935SOL    HW133360   3.690   4.636   5.657 -0.9581  0.8986  1.7735
10935SOL    HW233361   3.794   4.674   5.760  0.1658 -0.1322  1.0522
10936SOL     OW33362   2.612   6.096   7.418 -0.4110  0.2567 -0.3897
10936SOL    HW133363   2.608   6.031   7.348 -0.5223  0.0611 -0.2023
10936SOL    HW233364   2.576   6.051   7.494 -0.5322  0.5527 -0.2712
10937SOL     OW33365   2.011   0.939   5.487  0.4048  0.3468  0.6545
10937SOL    HW133366   2.055   0.896   5.414 -1.5208 -1.8087  0.6356
10937SOL    HW233367   2.012   0.874   5.557 -1.3852  0.7593  1.1252
10938SOL     OW33368   2.512   5.790   3.219  0.1899  0.4726 -0.3723
10938SOL    HW133369   2.439   5.814   3.162 -0.0368  1.3165  0.2572
10938SOL    HW233370   2.588   5.835   3.180  0.4716 -0.7288 -1.2584
10939SOL     OW33371   4.542   4.719   6.950 -0.5352 -0.0174 -0.1677
10939SOL    HW133372   4.609   4.755   7.009 -0.4206 -1.3236  0.5172
10939SOL    HW233373   4.533   4.786   6.882  2.5899 -0.4283 -1.1688
10940SOL     OW33374   0.093   4.630   1.546 -0.5331 -0.5507 -0.0419
10940SOL    HW133375   0.155   4.563   1.515  0.7018 -0.1320  1.3841
10940SOL    HW233376   0.036   4.583   1.607  0.4732 -0.3101  1.1290
10941SOL     OW33377   4.418   3.323   5.035  0.2489  0.0302 -0.8018
10941SOL    HW133378   4.382   3.277   5.110  0.5011  0.6954 -0.2569
10941SOL    HW233379   4.388   3.274   4.959 -2.1798  0.7849 -0.4117
10942SOL     OW33380   1.237   7.435   0.816 -0.0406 -0.0777  0.1853
10942SOL    HW133381   1.326   7.437   0.781 -0.5248 -0.8119 -1.1677
10942SOL    HW233382   1.188   7.495   0.759 -1.0570 -2.0282 -1.1158
10943SOL     OW33383   4.760   7.465   7.274 -0.0846 -0.1951 -0.3016
10943SOL    HW133384   4.796   7.379   7.296 -0.1741 -0.8779 -2.5725
10943SOL    HW233385   4.792   7.523   7.343  0.2786 -1.9663  1.0815
10944SOL     OW33386   4.470   5.384   0.048 -0.1300 -0.1394 -0.1684
10944SOL    HW133387   4.520   5.304   0.030  1.3724  0.3236  1.6128
10944SOL    HW233388   4.386   5.352   0.081  0.9560 -1.0787  1.8841
10945SOL     OW33389   5.098   5.449   2.530  0.5874 -0.1111 -0.3866
10945SOL    HW133390   5.124   5.407   2.448 -0.5148  0.3638 -1.0035
10945SOL    HW233391   5.024   5.397   2.561  0.4047  0.2686 -0.1809
10946SOL     OW33392   5.993   3.598   5.400  0.1292  0.3470 -0.1754
10946SOL    HW133393   6.038   3.672   5.360  0.3002 -0.2331 -1.0997
10946SOL    HW233394   6.034   3.521   5.360 -0.9263 -0.2133 -0.2063
10947SOL     OW33395   2.400   3.925   5.229 -0.3994  0.2280 -0.5684
10947SOL    HW133396   2.332   3.894   5.169 -0.1762 -2.2607  0.3797
10947SOL    HW233397   2.440   3.846   5.264  0.7934  1.6105  1.4076
10948SOL     OW33398   2.865   7.460   0.022  0.0260  0.0448  0.1652
10948SOL    HW133399   2.806   7.535   0.014 -0.0263  0.1043  0.9681
10948SOL    HW233400   2.866   7.420  -0.065 -0.2417  0.7542 -0.1680
10949SOL     OW33401   0.600   0.769   3.094  0.0116 -0.2974  0.3077
10949SOL    HW133402   0.651   0.781   3.174 -0.0204  0.5329  0.2058
10949SOL    HW233403   0.644   0.823   3.028 -2.1583  2.1922  0.7219
10950SOL     OW33404   0.265   3.845   1.586 -0.2037  0.5732  0.2055
10950SOL    HW133405   0.265   3.772   1.647  0.4141  0.4730  0.0929
10950SOL    HW233406   0.329   3.907   1.623 -0.5844  0.9742  0.2032
10951SOL     OW33407   5.042   3.443   0.079  0.1172  0.0975  0.1156
10951SOL    HW133408   4.955   3.470   0.048  0.3186 -0.7397 -1.2665
10951SOL    HW233409   5.038   3.455   0.174 -1.1649  1.0299 -0.0243
10952SOL     OW33410   0.004   2.127   7.577  0.0553  0.3826  0.0712
10952SOL    HW133411   0.100   2.122   7.570  0.1183  1.0513  0.3905
10952SOL    HW233412  -0.013   2.125   7.671 -0.3771 -1.7267 -0.0144
10953SOL     OW33413   2.578   4.715   6.876  0.0371  0.3703  0.2375
10953SOL    HW133414   2.605   4.691   6.965 -1.3840 -0.2257  0.5401
10953SOL    HW233415   2.533   4.799   6.886  0.1334  0.4475  0.0306
10954SOL     OW33416   7.073   3.032   1.923  0.3865 -0.0577 -0.8552
10954SOL    HW133417   7.141   3.090   1.956  1.2016 -0.7241 -1.3258
10954SOL    HW233418   6.991   3.069   1.958  1.0613  0.1658  0.5632
10955SOL     OW33419   6.058   3.183   4.602 -0.2751  0.3784 -0.5133
10955SOL    HW133420   6.151   3.196   4.580  0.1637  0.1538  1.0582
10955SOL    HW233421   6.015   3.265   4.579  0.5234  0.8687 -0.2967
10956SOL     OW33422   4.606   7.249   6.916 -0.3988 -0.3446 -0.5175
10956SOL    HW133423   4.692   7.238   6.958 -0.9698 -0.4467  0.6747
10956SOL    HW233424   4.550   7.284   6.985 -1.7326 -1.7891 -0.7947
10957SOL     OW33425   1.840   7.718   6.549  0.3502 -0.0168 -0.2398
10957SOL    HW133426   1.897   7.788   6.580 -0.5484  0.3392  0.6861
10957SOL    HW233427   1.752   7.756   6.551 -0.5640 -1.8737  2.8901
10958SOL     OW33428   0.938   7.075   4.422  0.2885  0.2925 -0.0610
10958SOL    HW133429   0.944   7.002   4.361  1.1341  0.4292 -0.1494
10958SOL    HW233430   0.924   7.033   4.507  0.1135  0.0571 -0.2030
10959SOL     OW33431   3.962   3.010   4.935  0.2369 -0.2379 -0.5755
10959SOL    HW133432   3.997   2.980   5.019  0.5775  0.4589 -0.4637
10959SOL    HW233433   3.869   2.987   4.939  0.1722  0.1221  0.1494
10960SOL     OW33434   2.610   5.268   6.816  0.5722  0.1094  0.1315
10960SOL    HW133435   2.609   5.197   6.881 -0.4304  1.2634  1.4506
10960SOL    HW233436   2.535   5.249   6.759  2.4678 -1.8745 -1.8948
10961SOL     OW33437   0.885   0.149   3.401  0.3207 -0.1504  0.0032
10961SOL    HW133438   0.895   0.053   3.398 -0.8251 -0.2955  0.4341
10961SOL    HW233439   0.827   0.165   3.475  0.7976  0.9183  0.1636
10962SOL     OW33440   7.468   5.298   5.971  0.2823 -0.0964 -0.3789
10962SOL    HW133441   7.397   5.282   6.033  0.5229 -0.6541 -0.2497
10962SOL    HW233442   7.500   5.211   5.946  2.1874  0.1350  1.0249
10963SOL     OW33443   7.243   0.521   5.218  0.2566 -0.2687  0.0487
10963SOL    HW133444   7.275   0.438   5.184  0.0023 -0.5774  0.5539
10963SOL    HW233445   7.301   0.587   5.179  0.4144 -0.6722 -0.4094
10964SOL     OW33446   3.096   7.100   2.437 -0.0797 -0.0194 -0.2489
10964SOL    HW133447   3.139   7.049   2.506  0.6073 -1.2469 -1.5408
10964SOL    HW233448   3.158   7.101   2.365 -0.5997  1.6295 -0.7343
10965SOL     OW33449   5.117   4.257   7.181  0.7063  0.2901 -0.1553
10965SOL    HW133450   5.150   4.333   7.229 -0.3767  0.2550  0.6845
10965SOL    HW233451   5.162   4.182   7.219  0.7959  0.3819 -0.0815
10966SOL     OW33452   4.344   0.819   2.051 -0.6285  0.4893 -0.2767
10966SOL    HW133453   4.277   0.750   2.049 -0.4795  0.3528 -2.2161
10966SOL    HW233454   4.306   0.890   2.000  0.4486  0.6706 -0.8342
10967SOL     OW33455   1.553   2.376   3.979  0.2197 -0.2778  0.3110
10967SOL    HW133456   1.637   2.393   4.021 -0.2825  1.5511  0.6618
10967SOL    HW233457   1.573   2.371   3.885  0.7335  0.0815  0.3999
10968SOL     OW33458   4.645   2.065   5.439 -0.0000 -0.2506  0.7298
10968SOL    HW133459   4.597   2.009   5.378 -0.4033  1.8708 -1.0238
10968SOL    HW233460   4.726   2.017   5.457 -0.4643 -1.5462 -0.4056
10969SOL     OW33461   1.694   4.755   3.990 -0.0125  0.1862 -0.0885
10969SOL    HW133462   1.786   4.744   4.014  0.3235  2.2822 -0.2959
10969SOL    HW233463   1.679   4.688   3.922  0.8407 -1.3365  1.1707
10970SOL     OW33464   2.919   5.841   6.363 -0.6601  0.0885 -0.1303
10970SOL    HW133465   2.904   5.924   6.409 -1.9779 -1.0425  1.5603
10970SOL    HW233466   2.868   5.776   6.411  1.7420 -2.0917 -0.3271
10971SOL     OW33467   4.914   5.921   1.712 -0.0453  0.6917  0.2143
10971SOL    HW133468   4.886   6.011   1.729 -0.0557  0.7952 -0.3346
10971SOL    HW233469   4.993   5.930   1.659  1.9837  0.4503  2.9365
10972SOL     OW33470   1.497   2.276   0.857  1.1553 -0.2741  0.1999
10972SOL    HW133471   1.590   2.290   0.875  1.9701 -2.7215 -1.5885
10972SOL    HW233472   1.483   2.183   0.872 -0.1737 -0.6378 -2.6461
10973SOL     OW33473   2.558   7.197   1.762  0.0887  0.7587  0.1695
10973SOL    HW133474   2.578   7.254   1.836  1.7614  1.3688 -0.6948
10973SOL    HW233475   2.626   7.217   1.698 -1.8758  1.0243 -1.9646
10974SOL     OW33476   6.102   1.607   2.358 -0.0415  0.1439  0.1498
10974SOL    HW133477   6.133   1.545   2.293 -0.0952  0.3073 -0.0341
10974SOL    HW233478   6.181   1.655   2.385  0.2513 -0.9460  1.3295
10975SOL     OW33479   3.890   5.340   5.927 -0.0117  0.1023 -0.0611
10975SOL    HW133480   3.823   5.395   5.967  0.7424 -1.2663  3.3908
10975SOL    HW233481   3.970   5.392   5.933  0.2894 -0.4636  1.2588
10976SOL     OW33482   6.215   5.369   4.259  0.1024  0.4792 -0.2299
10976SOL    HW133483   6.222   5.343   4.168  1.1107  0.8094 -0.2625
10976SOL    HW233484   6.122   5.390   4.271  0.0929  1.1926 -1.3956
10977SOL     OW33485   0.892   2.125   3.550  0.0404  0.2375 -0.2004
10977SOL    HW133486   0.885   2.132   3.455 -0.1987  0.6723 -0.1490
10977SOL    HW233487   0.855   2.206   3.583  2.4335  1.2446  0.1834
10978SOL     OW33488   1.339   3.299   6.985 -0.0412 -0.1783 -0.2145
10978SOL    HW133489   1.395   3.243   7.038  0.3221 -1.9910 -2.3296
10978SOL    HW233490   1.250   3.282   7.016  0.2249 -0.5965  0.3205
10979SOL     OW33491   2.564   4.192   0.756 -0.4198  0.7103 -0.5480
10979SOL    HW133492   2.585   4.285   0.753 -0.8730  0.8091 -0.6198
10979SOL    HW233493   2.585   4.159   0.669 -1.0905  0.9237 -0.7940
10980SOL     OW33494   0.500   4.442   0.311  0.2259  0.6075 -0.5116
10980SOL    HW133495   0.525   4.488   0.231  1.2073  0.9774 -0.0000
10980SOL    HW233496   0.509   4.507   0.380  0.7960 -0.1100  0.0984
10981SOL     OW33497   3.131   7.079   5.907 -0.2214 -1.2483  0.2486
10981SOL    HW133498   3.157   7.021   5.978  0.9206 -2.3779 -1.0268
10981SOL    HW233499   3.085   7.151   5.950  1.8187 -1.0363  2.3123
10982SOL     OW33500   3.277   7.439   1.628 -0.6873  0.2346  0.4736
10982SOL    HW133501   3.216   7.394   1.687  2.0238 -1.1895  2.4300
10982SOL    HW233502   3.287   7.379   1.555  0.4084 -0.8881  1.4942
10983SOL     OW33503   4.444   5.870   1.788  0.2888  0.2188  0.9993
10983SOL    HW133504   4.389   5.942   1.756 -0.4933 -1.1562 -0.9240
10983SOL    HW233505   4.460   5.891   1.880 -1.2671  2.0042  0.9246
10984SOL     OW33506   0.136   5.747   1.688  0.5553 -0.1623  0.1705
10984SOL    HW133507   0.100   5.832   1.714  0.8669 -0.3962  1.4322
10984SOL    HW233508   0.089   5.684   1.741  1.8444 -0.5868  0.8436
10985SOL     OW33509   6.256   6.318   7.449  0.2188 -0.2483  0.2954
10985SOL    HW133510   6.177   6.318   7.503  0.9479  0.3592  1.3979
10985SOL    HW233511   6.224   6.340   7.361 -0.8100  0.2369  0.7697
10986SOL     OW33512   1.030   2.389   2.430  0.4536 -0.5853 -0.2950
10986SOL    HW133513   1.097   2.370   2.496  1.1492  0.8179 -0.5794
10986SOL    HW233514   1.015   2.483   2.437 -0.1841 -0.5842 -1.4645
10987SOL     OW33515   4.234   6.704   0.445 -0.2374 -0.4143 -0.6732
10987SOL    HW133516   4.184   6.672   0.521 -2.7876  3.3577 -0.4962
10987SOL    HW233517   4.318   6.732   0.481 -0.5578 -0.7074  0.3257
10988SOL     OW33518   3.781   6.225   4.476  0.8086  0.4772  0.6397
10988SOL    HW133519   3.688   6.241   4.458  0.4319 -0.7442  1.4150
10988SOL    HW233520   3.785   6.214   4.571  1.8305  0.9498  0.6626
10989SOL     OW33521   6.963   0.636   7.413 -0.1244  0.1975 -0.0729
10989SOL    HW133522   6.923   0.663   7.496 -0.8766  1.3443 -0.7868
10989SOL    HW233523   6.953   0.541   7.412 -2.6294  0.3976 -0.0660
10990SOL     OW33524   3.149   5.707   6.248  0.1628  0.0427 -0.2929
10990SOL    HW133525   3.094   5.761   6.305 -0.7752 -1.7268  0.5465
10990SOL    HW233526   3.113   5.719   6.161 -1.5130 -0.9679  0.2218
10991SOL     OW33527   7.266   4.968   2.025  0.4046 -0.1082 -0.1082
10991SOL    HW133528   7.253   4.937   1.935  0.2031 -1.6942  0.4377
10991SOL    HW233529   7.329   4.907   2.062 -1.7330 -1.3795  1.7090
10992SOL     OW33530   5.227   3.251   0.385 -0.1844  0.1920  0.1392
10992SOL    HW133531   5.195   3.232   0.297 -0.1635  0.0703  0.1572
10992SOL    HW233532   5.267   3.338   0.378 -0.5138  0.3408  0.1155
10993SOL     OW33533   6.313   6.969   0.806  0.0678  0.4149 -0.1016
10993SOL    HW133534   6.272   6.942   0.888  1.1340 -0.4446  0.1778
10993SOL    HW233535   6.273   6.914   0.739  0.2047  0.1230  0.0550
10994SOL     OW33536   7.490   0.180   2.809  0.3810  0.5626 -0.6552
10994SOL    HW133537   7.413   0.190   2.865  1.1154 -0.2668  0.5530
10994SOL    HW233538   7.461   0.118   2.741  0.3846 -0.9778  0.6744
10995SOL     OW33539   1.624   4.031   2.557 -0.0372  0.5334 -0.1302
10995SOL    HW133540   1.706   3.984   2.546 -0.3223 -0.1570  0.5887
10995SOL    HW233541   1.600   4.059   2.469 -1.1630 -2.9065 -1.0401
10996SOL     OW33542   6.151   6.117   2.824 -0.3034  0.1548  0.0307
10996SOL    HW133543   6.240   6.090   2.802 -0.7276 -0.2453 -1.2551
10996SOL    HW233544   6.152   6.212   2.820  0.0296  0.1446 -0.1356
10997SOL     OW33545   7.217   2.059   2.424  0.0927 -0.0815  0.5583
10997SOL    HW133546   7.255   2.044   2.337  0.2885 -0.4377  0.7073
10997SOL    HW233547   7.228   2.153   2.438  2.6826 -0.4455  1.4129
10998SOL     OW33548   0.559   3.359   5.373  0.5199 -0.1991  0.1441
10998SOL    HW133549   0.592   3.350   5.462  1.7477  0.5418 -0.2234
10998SOL    HW233550   0.464   3.351   5.383  0.6854 -1.0819  1.3831
10999SOL     OW33551   6.224   3.012   1.007 -0.1980  0.4565  0.3201
10999SOL    HW133552   6.148   3.017   0.950  1.6570 -0.7739 -2.4882
10999SOL    HW233553   6.270   3.095   0.992 -0.0869  0.4515  0.6258
11000SOL     OW33554   2.566   6.634   7.709  0.4379 -0.5010  0.0300
11000SOL    HW133555   2.613   6.675   7.782  0.7871 -2.2415  0.8338
11000SOL    HW233556   2.626   6.568   7.676  0.8640  1.1534 -2.8291
11001SOL     OW33557   0.622   3.380   1.060  0.0336 -0.6461  0.0262
11001SOL    HW133558   0.533   3.397   1.089 -0.7011 -1.7674 -1.4883
11001SOL    HW233559   0.662   3.331   1.132 -1.4751 -2.6061 -0.4060
11002SOL     OW33560   4.489   4.035   5.219 -0.2478  0.7987 -0.1906
11002SOL    HW133561   4.500   4.122   5.258 -1.2193  0.2284  1.4620
11002SOL    HW233562   4.446   3.984   5.288 -2.1747 -0.2542 -2.0586
11003SOL     OW33563   5.334   4.301   6.050  0.0055  0.3294 -0.1626
11003SOL    HW133564   5.372   4.215   6.066  0.7121  0.7357  0.4258
11003SOL    HW233565   5.241   4.291   6.073 -0.0354 -0.4050 -0.6215
11004SOL     OW33566   7.468   4.541   2.027  0.0959 -0.2244  0.3255
11004SOL    HW133567   7.430   4.455   2.044 -0.8604  0.3535  1.2320
11004SOL    HW233568   7.463   4.550   1.932  0.1389 -1.1373  0.2225
11005SOL     OW33569   5.627   2.644   3.673  0.2364 -0.6632  0.7967
11005SOL    HW133570   5.628   2.559   3.630  1.5058 -0.3407  0.1185
11005SOL    HW233571   5.646   2.706   3.602 -1.4734  0.2795  1.1156
11006SOL     OW33572   2.000   6.373   0.478 -0.2978 -0.0798 -0.6136
11006SOL    HW133573   2.026   6.405   0.391 -0.4823  1.7484 -0.0351
11006SOL    HW233574   2.070   6.314   0.503  1.8419  2.3632 -0.4043
11007SOL     OW33575   6.485   0.220   2.603  0.7439  0.4128 -0.4520
11007SOL    HW133576   6.480   0.299   2.656  1.5399  0.5898 -0.6399
11007SOL    HW233577   6.538   0.245   2.528 -1.1615  0.4621 -1.8699
11008SOL     OW33578   6.350   0.160   1.822  0.6087  0.2797  0.6232
11008SOL    HW133579   6.348   0.225   1.752 -1.2069  0.1236  0.4909
11008SOL    HW233580   6.258   0.149   1.848  0.9552 -1.5980  1.2342
11009SOL     OW33581   7.718   3.780   2.280  0.1778  0.1485 -1.0259
11009SOL    HW133582   7.669   3.814   2.356  0.4222  0.6274 -1.0787
11009SOL    HW233583   7.756   3.858   2.240  0.8254 -0.2026 -1.0997
11010SOL     OW33584   3.624   7.325   6.770  0.1122 -0.5727 -0.1789
11010SOL    HW133585   3.549   7.328   6.830  0.1566  0.3789 -0.1559
11010SOL    HW233586   3.628   7.234   6.741 -1.3479 -0.5423 -0.5522
11011SOL     OW33587   5.360   2.429   1.573 -0.0063 -0.5569  0.1788
11011SOL    HW133588   5.377   2.508   1.522 -0.6398  1.0734  2.3081
11011SOL    HW233589   5.414   2.362   1.532  2.0559  1.4260 -0.6124
11012SOL     OW33590   5.519   7.601   6.162  0.5159  0.3173  0.1038
11012SOL    HW133591   5.574   7.558   6.096 -0.2903 -0.2729 -0.2075
11012SOL    HW233592   5.430   7.594   6.126  0.2613  1.4385  0.4912
11013SOL     OW33593   1.290   4.422   3.334 -0.5707 -0.0909  0.4598
11013SOL    HW133594   1.359   4.449   3.395  0.8892 -0.1343 -1.0918
11013SOL    HW233595   1.211   4.420   3.387  0.2292  1.9659  1.8554
11014SOL     OW33596   7.684   1.105   6.419 -0.1319  0.6039 -0.1792
11014SOL    HW133597   7.629   1.165   6.370 -2.0098 -0.1273  0.8933
11014SOL    HW233598   7.679   1.136   6.510 -0.8808 -0.9099  0.3443
11015SOL     OW33599   1.296   0.664   7.233 -0.1542 -0.2120  0.6128
11015SOL    HW133600   1.207   0.692   7.211 -0.4279 -1.5131 -0.0586
11015SOL    HW233601   1.350   0.698   7.162 -0.3158 -0.4975  0.3534
11016SOL     OW33602   7.016   3.617   1.934 -0.2828 -0.1529  0.3374
11016SOL    HW133603   6.938   3.647   1.888 -0.5121 -2.5936 -1.0276
11016SOL    HW233604   6.991   3.532   1.972  2.2178 -2.1395 -2.0379
11017SOL     OW33605   1.516   3.596   2.921  0.4054  0.1216 -0.0302
11017SOL    HW133606   1.449   3.601   2.853  0.4068  0.1003 -0.0335
11017SOL    HW233607   1.578   3.530   2.888  0.9504  0.8534 -0.4841
11018SOL     OW33608   2.657   3.230   0.319 -0.2958 -0.4723  0.4032
11018SOL    HW133609   2.706   3.279   0.253 -0.9635 -1.2288 -0.6756
11018SOL    HW233610   2.628   3.297   0.381  0.3233  0.2545 -0.0722
11019SOL     OW33611   0.460   1.133   2.438  0.2857  0.0274  0.9322
11019SOL    HW133612   0.433   1.041   2.447 -0.5623  0.1690  0.0153
11019SOL    HW233613   0.536   1.141   2.496  0.3056 -1.2222  1.1189
11020SOL     OW33614   5.462   6.779   6.804 -0.5477  0.0278 -0.2553
11020SOL    HW133615   5.490   6.792   6.713  2.2974  0.5108  0.5828
11020SOL    HW233616   5.526   6.718   6.840 -1.2843  0.2829  1.5907
11021SOL     OW33617   5.981   0.934   7.158  0.1154 -0.1078  0.5387
11021SOL    HW133618   5.947   0.969   7.076  0.4189  0.2077  0.5452
11021SOL    HW233619   5.907   0.940   7.219 -0.4459 -1.3568  0.0078
11022SOL     OW33620   2.708   0.910   7.586  0.0123  0.3185  0.5129
11022SOL    HW133621   2.674   0.856   7.514 -0.1911  1.3871 -0.2197
11022SOL    HW233622   2.755   0.848   7.642 -0.1106 -0.5968 -0.3575
11023SOL     OW33623   6.498   5.630   4.820 -0.3890  0.1305  0.1807
11023SOL    HW133624   6.416   5.633   4.771 -0.3380  0.2721  0.1055
11023SOL    HW233625   6.514   5.536   4.833 -1.0892  0.1292  1.0814
11024SOL     OW33626   4.798   2.984   3.537  0.5081 -0.1291 -0.2352
11024SOL    HW133627   4.849   3.053   3.494 -0.1735  0.1685 -0.5899
11024SOL    HW233628   4.749   3.030   3.605 -0.5937 -0.1062 -1.0262
11025SOL     OW33629   7.025   4.578   2.137 -0.0515 -0.1496 -0.1023
11025SOL    HW133630   7.014   4.607   2.047 -1.6798 -0.2389  0.0385
11025SOL    HW233631   7.054   4.656   2.184 -1.2197  0.4400 -0.3285
11026SOL     OW33632   5.515   4.629   5.416  0.1295  0.2837 -0.3314
11026SOL    HW133633   5.575   4.558   5.440 -0.9376 -0.0300  1.6418
11026SOL    HW233634   5.440   4.585   5.377 -0.2140  0.3720  0.2172
11027SOL     OW33635   0.079   0.702   3.385 -0.2126 -0.0137  0.1387
11027SOL    HW133636   0.033   0.742   3.312  0.9745 -1.9660 -1.7682
11027SOL    HW233637   0.073   0.608   3.370  0.0284 -0.4984  2.6071
11028SOL     OW33638   4.366   1.738   2.252 -0.3256 -0.4671 -0.4248
11028SOL    HW133639   4.376   1.829   2.280  1.7308 -0.2432 -1.6564
11028SOL    HW233640   4.272   1.723   2.251 -0.6623  1.2186  1.0581
11029SOL     OW33641   0.517   5.556   2.815 -0.0439 -0.1684  0.4227
11029SOL    HW133642   0.506   5.635   2.868 -0.5878 -0.1929  0.3508
11029SOL    HW233643   0.598   5.572   2.765 -0.3992  0.5461  0.0577
11030SOL     OW33644   4.858   4.802   1.629 -0.5863 -0.3969 -0.7255
11030SOL    HW133645   4.834   4.842   1.712  0.8917  2.4845 -1.5440
11030SOL    HW233646   4.947   4.768   1.644  0.5083  1.8954 -1.5474
11031SOL     OW33647   5.248   1.908   3.493  0.3871  0.2960 -0.8732
11031SOL    HW133648   5.258   1.997   3.528 -0.4763  0.1210 -0.1362
11031SOL    HW233649   5.334   1.886   3.458  0.4963  1.5922 -1.4600
11032SOL     OW33650   1.747   7.567   2.293  0.2837 -0.3074 -0.2022
11032SOL    HW133651   1.774   7.623   2.221  0.0243  0.1247  0.0313
11032SOL    HW233652   1.667   7.608   2.326 -1.9229 -2.6590 -2.1933
11033SOL     OW33653   4.889   5.796   3.375 -0.0028  0.5406  0.6967
11033SOL    HW133654   4.797   5.813   3.358 -0.5027 -1.2429  1.3817
11033SOL    HW233655   4.936   5.853   3.313 -1.5802  0.5164 -0.5887
11034SOL     OW33656   4.109   3.760   7.354 -0.5756  0.4294 -0.2591
11034SOL    HW133657   4.198   3.754   7.318 -0.5379 -0.2305 -0.0791
11034SOL    HW233658   4.109   3.696   7.426 -1.5916 -0.5377 -1.0853
11035SOL     OW33659   5.356   4.314   4.983 -0.9687  0.1877 -0.1394
11035SOL    HW133660   5.427   4.370   4.953  0.6219 -1.1318  0.9836
11035SOL    HW233661   5.328   4.266   4.905  0.9374 -0.8997 -0.2196
11036SOL     OW33662   3.007   1.872   4.855 -0.2618  0.0100 -0.5859
11036SOL    HW133663   2.987   1.905   4.767  1.4029 -0.6721 -1.2735
11036SOL    HW233664   3.078   1.809   4.841  0.0423 -0.1180  1.2624
11037SOL     OW33665   2.647   4.118   2.594 -0.6077 -0.1683  0.1173
11037SOL    HW133666   2.713   4.053   2.615 -0.4588 -0.1400 -0.2498
11037SOL    HW233667   2.576   4.102   2.656  0.6487  1.2419  2.0290
11038SOL     OW33668   3.878   5.203   1.037  0.2292 -0.1249  0.0419
11038SOL    HW133669   3.924   5.210   0.954  1.9257  1.2050  1.0420
11038SOL    HW233670   3.943   5.170   1.098 -1.5522 -3.2396  0.4784
11039SOL     OW33671   5.153   0.144   3.666  0.1748 -0.3293 -0.2024
11039SOL    HW133672   5.108   0.229   3.662  1.1017  0.1388 -0.8137
11039SOL    HW233673   5.094   0.084   3.620  0.5225  0.4434 -1.7196
11040SOL     OW33674   7.323   6.403   5.651 -0.5174  0.1604 -0.0572
11040SOL    HW133675   7.249   6.447   5.692 -0.5020  0.3241 -0.2047
11040SOL    HW233676   7.392   6.469   5.647 -0.0171 -0.2735  0.9983
11041SOL     OW33677   6.624   4.433   4.977 -0.0999 -0.1092  0.1440
11041SOL    HW133678   6.673   4.501   5.023  0.0489  0.6242 -1.0697
11041SOL    HW233679   6.690   4.369   4.952  0.0931  0.3739 -0.5980
11042SOL     OW33680   6.111   3.595   1.836  0.3996 -0.0803 -0.0795
11042SOL    HW133681   6.102   3.578   1.929 -0.7476  0.2183 -0.1225
11042SOL    HW233682   6.115   3.507   1.796  1.2010 -0.2070  0.2664
11043SOL     OW33683   7.210   6.547   6.591 -0.0359  0.1428  0.9921
11043SOL    HW133684   7.281   6.524   6.651 -0.0170 -0.8257  0.6221
11043SOL    HW233685   7.252   6.598   6.522  0.8550 -2.4257 -0.5308
11044SOL     OW33686   5.498   6.022   6.293  0.4975 -0.4056  0.0513
11044SOL    HW133687   5.445   6.047   6.368 -0.3854 -1.5134 -0.1830
11044SOL    HW233688   5.515   5.929   6.305  0.4564 -0.5697 -1.0565
11045SOL     OW33689   1.225   1.672   7.738 -0.1866 -0.1043 -0.3690
11045SOL    HW133690   1.143   1.675   7.688  0.2681  1.2073 -1.0948
11045SOL    HW233691   1.253   1.764   7.742  0.8239 -0.4400  0.5900
11046SOL     OW33692   1.432   6.268   7.233 -0.3902 -0.2390  0.1474
11046SOL    HW133693   1.369   6.202   7.205 -0.3146 -1.0695  1.8359
11046SOL    HW233694   1.385   6.320   7.298  0.7889 -1.2373  1.8762
11047SOL     OW33695   1.845   1.144   0.484  0.3511  0.0887 -0.1274
11047SOL    HW133696   1.876   1.176   0.568 -0.3165  1.2190 -0.2863
11047SOL    HW233697   1.915   1.087   0.452  0.8858  0.1575  0.8975
11048SOL     OW33698   4.399   0.346   6.013  0.3268 -0.4878 -0.4507
11048SOL    HW133699   4.469   0.403   6.046 -0.5034  1.0709 -1.2930
11048SOL    HW233700   4.337   0.340   6.085 -0.2433  0.8224 -0.8099
11049SOL     OW33701   6.468   1.918   7.031 -0.4628  0.7646 -0.0145
11049SOL    HW133702   6.438   1.850   6.971  0.0698  1.1119 -0.6999
11049SOL    HW233703   6.412   1.910   7.107 -0.2856 -0.5673  0.0045
11050SOL     OW33704   0.086   6.096   0.445  0.1374  0.0711  0.8682
11050SOL    HW133705   0.137   6.099   0.364 -4.1886 -0.4237 -2.1884
11050SOL    HW233706   0.041   6.180   0.448 -0.6055 -0.3453  2.1876
11051SOL     OW33707   2.125   0.321   6.699 -0.0453 -0.3920  0.2827
11051SOL    HW133708   2.130   0.226   6.708 -1.0082 -0.3320  1.7439
11051SOL    HW233709   2.073   0.335   6.620  0.4776 -1.0573 -0.1905
11052SOL     OW33710   0.192   5.200   3.213  0.2188  0.5439  0.1299
11052SOL    HW133711   0.260   5.263   3.191 -1.4810  1.3998 -3.4190
11052SOL    HW233712   0.184   5.205   3.308  3.7235  1.7301  0.5152
11053SOL     OW33713   3.550   1.927   0.948 -0.3603  0.0333  0.7145
11053SOL    HW133714   3.559   1.993   1.017  1.7299  1.4367 -0.7796
11053SOL    HW233715   3.489   1.967   0.886 -0.3572 -0.1681  0.5832
11054SOL     OW33716   6.144   4.148   3.893 -0.0182 -0.4876  0.7919
11054SOL    HW133717   6.078   4.162   3.961  1.4915  0.2387  2.1737
11054SOL    HW233718   6.144   4.230   3.843  1.2079  0.3707  2.0915
11055SOL     OW33719   6.345   2.984   3.000  0.1628  0.0452 -0.4574
11055SOL    HW133720   6.417   2.987   2.938  0.4030  1.2129 -0.1516
11055SOL    HW233721   6.282   3.048   2.967 -1.1579 -1.5435 -1.1823
11056SOL     OW33722   1.261   6.826   5.178  0.0505 -0.1830  0.1623
11056SOL    HW133723   1.312   6.751   5.208 -2.1752 -2.7750 -2.0321
11056SOL    HW233724   1.309   6.858   5.102  0.8902  0.5299  0.9732
11057SOL     OW33725   0.346   5.207   3.711  0.1032  0.4297 -0.3897
11057SOL    HW133726   0.308   5.274   3.768 -1.2269  0.6122 -1.4418
11057SOL    HW233727   0.424   5.178   3.758  0.9024  2.9170 -0.0095
11058SOL     OW33728   6.523   3.454   4.099  0.0147 -0.0683  0.7003
11058SOL    HW133729   6.514   3.454   4.194  0.4202 -0.4775  0.7406
11058SOL    HW233730   6.561   3.369   4.078  0.0148  0.0546  0.1794
11059SOL     OW33731   1.230   3.349   3.083 -0.7964  0.1153 -0.0286
11059SOL    HW133732   1.143   3.320   3.112 -1.7101  1.7055 -1.0028
11059SOL    HW233733   1.291   3.308   3.144 -2.0956 -2.2240 -0.1650
11060SOL     OW33734   2.495   7.019   7.044  0.3479 -0.3869 -0.1656
11060SOL    HW133735   2.477   7.056   6.958  1.0600 -1.7756 -0.9561
11060SOL    HW233736   2.454   7.079   7.106  0.1135  0.8211 -1.4539
11061SOL     OW33737   4.775   1.351   5.793  0.4991  0.7880  0.4564
11061SOL    HW133738   4.706   1.320   5.734  0.6803  0.0473  0.6304
11061SOL    HW233739   4.744   1.326   5.880  1.8173 -1.1960  0.4086
11062SOL     OW33740   5.644   3.995   3.423  0.1011 -0.2011  0.5851
11062SOL    HW133741   5.582   4.051   3.471 -3.3223 -1.0165 -2.4438
11062SOL    HW233742   5.686   4.054   3.360 -0.6064 -0.3036  0.0026
11063SOL     OW33743   2.325   1.924   4.948  0.1163 -0.7731  0.0645
11063SOL    HW133744   2.238   1.885   4.955  0.3808 -1.3811  0.0747
11063SOL    HW233745   2.310   2.018   4.959 -0.9289 -0.4822 -2.8532
11064SOL     OW33746   4.824   5.107   2.775  0.2688  0.7750  0.2854
11064SOL    HW133747   4.740   5.113   2.821  1.0689 -3.0183  2.6669
11064SOL    HW233748   4.806   5.047   2.702  0.8640 -0.2091  0.9215
11065SOL     OW33749   6.569   5.096   6.234  0.6933 -0.0236 -0.1204
11065SOL    HW133750   6.595   5.028   6.296 -1.7599  0.2597  1.3487
11065SOL    HW233751   6.505   5.053   6.176 -2.1633  1.2337  1.8429
11066SOL     OW33752   0.085   1.987   3.821  0.8550 -0.3017 -0.9790
11066SOL    HW133753   0.078   1.983   3.726  0.0691 -0.1708 -0.9310
11066SOL    HW233754   0.043   1.907   3.852  1.1407 -0.3632 -0.7406
11067SOL     OW33755   2.473   4.779   4.310  0.0825 -0.0739 -0.5727
11067SOL    HW133756   2.392   4.727   4.310 -0.7266  1.1172 -2.0239
11067SOL    HW233757   2.477   4.816   4.398 -0.3849 -0.9819 -0.1506
11068SOL     OW33758   2.052   7.333   5.003  0.0267  0.1825  0.4249
11068SOL    HW133759   2.010   7.287   4.930  2.0904 -0.7016 -0.2698
11068SOL    HW233760   2.145   7.330   4.983  0.5087  1.5972  2.1738
11069SOL     OW33761   5.432   7.709   4.007  0.1393  0.3399 -0.2718
11069SOL    HW133762   5.498   7.768   3.972  1.0116 -0.7070 -0.4385
11069SOL    HW233763   5.456   7.623   3.972 -0.4099 -0.3195  0.9210
11070SOL     OW33764   4.494   3.791   3.288  0.3328  0.2715  0.5311
11070SOL    HW133765   4.510   3.726   3.220  0.5512 -0.4883  1.2917
11070SOL    HW233766   4.498   3.742   3.370 -0.9858  0.9569  1.0440
11071SOL     OW33767   3.449   0.999   7.016  0.6314  0.4257 -0.5850
11071SOL    HW133768   3.427   0.920   7.066  1.4481  1.4047  1.4104
11071SOL    HW233769   3.404   0.987   6.932 -0.9958 -1.1829  0.4420
11072SOL     OW33770   6.071   7.667   3.140 -0.3013 -0.2861  0.4780
11072SOL    HW133771   6.147   7.706   3.097 -0.4880  0.2281  0.6099
11072SOL    HW233772   5.996   7.696   3.088 -0.4547 -0.3369  0.6694
11073SOL     OW33773   3.431   0.140   7.364 -0.5179 -0.1045  0.2738
11073SOL    HW133774   3.366   0.088   7.411 -1.0742  1.7350  1.6979
11073SOL    HW233775   3.427   0.226   7.407 -0.1567  1.3312 -2.3880
11074SOL     OW33776   0.640   1.383   7.751  0.5079 -0.0203  0.1125
11074SOL    HW133777   0.631   1.321   7.823 -2.7107 -1.0171 -1.0012
11074SOL    HW233778   0.597   1.341   7.677 -0.3040  2.8261 -1.1636
11075SOL     OW33779   1.541   4.863   1.196  0.4395 -1.1544  0.4196
11075SOL    HW133780   1.480   4.882   1.125  1.6324 -1.4511 -0.7115
11075SOL    HW233781   1.529   4.936   1.258 -0.1497 -0.5512 -0.3834
11076SOL     OW33782   6.468   5.506   6.070 -0.5088 -0.0190 -0.0300
11076SOL    HW133783   6.530   5.495   6.142 -0.7370  0.9238  0.3298
11076SOL    HW233784   6.472   5.600   6.049  1.5465 -0.6606 -3.0899
11077SOL     OW33785   1.124   1.231   4.780  0.2986 -0.4444  0.1955
11077SOL    HW133786   1.101   1.172   4.851 -0.9541  1.2669  1.3073
11077SOL    HW233787   1.193   1.286   4.815 -0.1038  0.2043 -0.0009
11078SOL     OW33788   5.454   7.228   6.505 -0.1365  0.5499 -0.1025
11078SOL    HW133789   5.477   7.136   6.515 -3.9030 -0.6064 -0.3275
11078SOL    HW233790   5.416   7.252   6.590 -0.9675  1.2603 -0.6538
11079SOL     OW33791   3.290   3.140   1.373  0.6700  0.2799 -0.1477
11079SOL    HW133792   3.263   3.232   1.378 -0.5803 -0.0528 -0.3954
11079SOL    HW233793   3.308   3.116   1.464 -0.8479  0.2687  0.1859
11080SOL     OW33794   1.628   0.904   1.604 -0.0769  0.0917 -0.1555
11080SOL    HW133795   1.588   0.866   1.526 -0.0904  1.2163 -0.7243
11080SOL    HW233796   1.719   0.874   1.602  0.2861  1.2019 -1.3670
11081SOL     OW33797   6.641   2.279   3.913 -0.7199 -0.6130  0.1690
11081SOL    HW133798   6.700   2.354   3.919 -0.2055 -1.0777  1.2262
11081SOL    HW233799   6.557   2.317   3.889 -0.5359  0.3447  0.9433
11082SOL     OW33800   6.907   1.506   0.473  0.6393  0.2800 -0.2431
11082SOL    HW133801   6.897   1.598   0.499 -1.3581  0.2327 -0.6914
11082SOL    HW233802   6.980   1.474   0.525 -0.0010  1.5554  1.5368
11083SOL     OW33803   4.210   2.437   3.753 -0.0633 -0.0793 -0.1140
11083SOL    HW133804   4.257   2.383   3.690 -0.7470  1.1181 -1.7096
11083SOL    HW233805   4.138   2.382   3.783 -0.3100 -0.3245 -1.1356
11084SOL     OW33806   2.652   4.971   2.473  0.2045 -0.0650  1.1113
11084SOL    HW133807   2.561   4.978   2.501 -0.9542  2.1897 -2.5470
11084SOL    HW233808   2.650   4.912   2.398  1.7660  0.0741  0.9298
11085SOL     OW33809   1.381   0.934   3.834 -0.2360  0.3858  0.2220
11085SOL    HW133810   1.326   0.869   3.791  0.2753  0.5135 -0.6486
11085SOL    HW233811   1.367   1.014   3.783  0.1307  0.6273  0.4963
11086SOL     OW33812   5.689   4.987   4.585 -0.6656 -0.3341 -0.4530
11086SOL    HW133813   5.622   5.052   4.566  0.2762  0.7774 -0.1103
11086SOL    HW233814   5.723   4.962   4.499 -1.4689 -0.8746 -0.6248
11087SOL     OW33815   4.104   6.788   3.598 -0.2954 -0.4650  0.4411
11087SOL    HW133816   4.189   6.826   3.617 -1.5569  2.3393  1.0215
11087SOL    HW233817   4.082   6.819   3.510 -1.6643  0.8995  1.2052
11088SOL     OW33818   0.837   7.572   1.440 -0.0911  0.5189 -0.4458
11088SOL    HW133819   0.866   7.518   1.367 -0.5533  1.2144 -1.1655
11088SOL    HW233820   0.754   7.609   1.411 -0.1966  0.9475  0.3665
11089SOL     OW33821   1.916   5.501   0.147 -0.6432  0.3263 -0.2923
11089SOL    HW133822   1.924   5.582   0.096  0.8025  1.0648  1.0525
11089SOL    HW233823   1.934   5.527   0.237 -1.8486 -1.2059  0.4397
11090SOL     OW33824   3.858   6.410   3.524  0.0616 -0.5058  0.3408
11090SOL    HW133825   3.878   6.387   3.433 -1.1189 -0.6186  0.0998
11090SOL    HW233826   3.774   6.368   3.541 -0.1012  0.1712  1.2367
11091SOL     OW33827   7.126   4.723   3.951  0.0904  0.5392  0.2990
11091SOL    HW133828   7.188   4.670   4.002  0.7078  1.5708  0.6519
11091SOL    HW233829   7.169   4.808   3.944 -0.9718  1.0485 -0.0950
11092SOL     OW33830   2.544   7.461   1.556  0.2272 -0.5306  0.2416
11092SOL    HW133831   2.601   7.537   1.570 -1.5198  1.0065 -0.5333
11092SOL    HW233832   2.598   7.399   1.507  1.6552  0.2658  0.7622
11093SOL     OW33833   5.833   3.572   2.986 -0.7355  0.2341 -0.2478
11093SOL    HW133834   5.752   3.621   3.002 -1.6761 -1.3043 -0.0769
11093SOL    HW233835   5.808   3.480   2.999  1.3787 -0.2002  1.2184
11094SOL     OW33836   2.936   6.968   0.772 -0.4163 -0.3422 -0.1354
11094SOL    HW133837   2.929   6.957   0.677 -4.3697  2.7751 -0.4897
11094SOL    HW233838   2.881   6.898   0.808  0.3327 -0.9543 -0.1524
11095SOL     OW33839   4.055   3.771   5.691 -0.3726  0.1714 -0.9482
11095SOL    HW133840   3.975   3.725   5.717  1.3832 -2.0555  0.9006
11095SOL    HW233841   4.065   3.753   5.598  0.5983 -4.0912 -0.2230
11096SOL     OW33842   0.556   5.003   0.946 -0.3772  0.2476  0.0832
11096SOL    HW133843   0.648   5.025   0.930 -0.6206  0.0856 -1.6922
11096SOL    HW233844   0.516   5.087   0.969 -0.2850  0.8273 -1.7193
11097SOL     OW33845   3.182   5.012   4.409  0.0435 -0.0492  0.8381
11097SOL    HW133846   3.251   4.956   4.373 -0.4260 -0.2026  0.1551
11097SOL    HW233847   3.152   4.966   4.487 -0.7540 -1.0802 -0.0417
11098SOL     OW33848   7.145   7.193   7.596  0.0303 -0.3355 -0.4200
11098SOL    HW133849   7.233   7.155   7.588  0.4724  0.6140 -0.2554
11098SOL    HW233850   7.148   7.241   7.679  0.0680  1.4637 -1.4160
11099SOL     OW33851   1.922   1.390   2.430  0.1169  0.0046 -0.9000
11099SOL    HW133852   2.011   1.397   2.396  0.7964 -1.0159  0.5733
11099SOL    HW233853   1.932   1.394   2.525 -1.2740 -1.2927 -0.6555
11100SOL     OW33854   2.938   0.531   0.772 -0.3770 -0.0153  0.0288
11100SOL    HW133855   2.937   0.484   0.856 -0.4060  2.3720  1.4512
11100SOL    HW233856   3.031   0.538   0.750 -0.3334 -0.0819  0.1889
11101SOL     OW33857   5.823   5.165   6.237 -0.1062 -0.1017 -0.6785
11101SOL    HW133858   5.834   5.258   6.218 -1.1408  0.3332  0.6701
11101SOL    HW233859   5.810   5.125   6.151  1.2317  0.8485 -1.3528
11102SOL     OW33860   6.120   3.861   1.181 -0.4013 -0.0799 -0.1680
11102SOL    HW133861   6.088   3.794   1.120 -0.7277  0.8723 -1.0649
11102SOL    HW233862   6.042   3.890   1.228 -0.1102 -1.0204  0.9660
11103SOL     OW33863   6.097   1.341   3.938 -0.0168  0.5720  0.4898
11103SOL    HW133864   6.136   1.354   3.852 -0.6322  1.8832  0.3812
11103SOL    HW233865   6.070   1.249   3.939 -0.8251  0.7607 -1.0599
11104SOL     OW33866   1.663   5.722   6.400  1.0615  0.5914 -0.2758
11104SOL    HW133867   1.615   5.804   6.390  1.2323  0.8153  0.6211
11104SOL    HW233868   1.701   5.727   6.487  0.0512 -0.9925  0.3024
11105SOL     OW33869   7.641   4.001   4.345 -0.1862 -0.0062  0.1664
11105SOL    HW133870   7.622   3.907   4.345  0.5981 -0.2133 -1.6378
11105SOL    HW233871   7.712   4.011   4.408  0.6402 -0.8647 -0.5952
11106SOL     OW33872   0.263   7.314   3.873 -0.5095  0.0148  0.0462
11106SOL    HW133873   0.176   7.350   3.889 -0.3095  0.9103 -0.8231
11106SOL    HW233874   0.294   7.358   3.794  0.7734 -0.2153  0.3911
11107SOL     OW33875   0.900   4.492   5.592 -0.2933  0.8490  0.1380
11107SOL    HW133876   0.910   4.472   5.499  1.4350  4.7948 -0.7542
11107SOL    HW233877   0.806   4.489   5.608 -0.4910 -2.8487 -0.8113
11108SOL     OW33878   3.943   4.055   0.883  0.2516 -0.2214 -0.5947
11108SOL    HW133879   3.887   4.027   0.955 -2.4674  0.7988 -2.1512
11108SOL    HW233880   3.941   3.981   0.821 -0.1741  0.1972 -1.0851
11109SOL     OW33881   4.266   1.082   6.027  0.5953 -0.1472 -0.0114
11109SOL    HW133882   4.339   1.034   5.988 -0.0132 -1.8891  0.8449
11109SOL    HW233883   4.188   1.036   5.996 -0.0928  0.9599  0.0197
11110SOL     OW33884   3.794   6.191   7.583  0.2239 -0.5163 -0.1520
11110SOL    HW133885   3.876   6.235   7.561  0.0687 -0.0336  0.2285
11110SOL    HW233886   3.801   6.172   7.677 -0.2335 -0.1901 -0.0512
11111SOL     OW33887   5.318   5.983   6.529 -0.0800 -0.5522 -0.5825
11111SOL    HW133888   5.335   5.907   6.584  0.6721 -0.2355 -0.3618
11111SOL    HW233889   5.259   5.951   6.461 -0.6647 -1.0573  0.1525
11112SOL     OW33890   4.219   7.394   7.687  0.1953  0.1201 -0.7395
11112SOL    HW133891   4.258   7.334   7.750  1.7378  1.1102 -0.7188
11112SOL    HW233892   4.182   7.337   7.619  0.3676 -0.8779 -0.0156
11113SOL     OW33893   6.594   0.554   3.145  0.3061 -0.0764 -0.4132
11113SOL    HW133894   6.611   0.644   3.116  0.5786  0.7561  2.1377
11113SOL    HW233895   6.677   0.508   3.132  0.9543  0.7581  0.6659
11114SOL     OW33896   0.740   4.435   6.216 -0.3770  0.1663  0.0102
11114SOL    HW133897   0.817   4.490   6.231  0.1771  0.2781 -2.6748
11114SOL    HW233898   0.762   4.351   6.255  1.3691  0.0441 -1.1425
11115SOL     OW33899   4.961   5.630   6.537  0.0723  0.1209 -0.2278
11115SOL    HW133900   4.930   5.539   6.535  0.6343 -0.0624 -1.1604
11115SOL    HW233901   5.055   5.623   6.552  0.1392  0.5379 -0.4344
11116SOL     OW33902   4.234   7.644   1.353 -0.2611 -0.4013  0.1657
11116SOL    HW133903   4.190   7.623   1.270 -2.4436  1.8403  0.6297
11116SOL    HW233904   4.252   7.559   1.393 -3.2511 -1.5077 -0.5956
11117SOL     OW33905   5.360   3.759   7.182 -0.2061 -0.2465 -0.3483
11117SOL    HW133906   5.316   3.786   7.101 -2.3526 -0.0775  0.8039
11117SOL    HW233907   5.452   3.781   7.168 -0.5375 -0.0884 -2.6703
11118SOL     OW33908   3.625   4.960   6.209  0.3270  0.3852  0.0707
11118SOL    HW133909   3.696   5.009   6.251  1.4509 -1.6180  0.6300
11118SOL    HW233910   3.586   4.909   6.281 -2.6784  2.4610  0.0768
11119SOL     OW33911   7.185   7.345   4.035  0.6242  0.3256  0.5820
11119SOL    HW133912   7.176   7.259   4.075 -2.7499  0.4561  0.4207
11119SOL    HW233913   7.164   7.406   4.106  0.2953  0.8368  0.0519
11120SOL     OW33914   7.145   1.049   7.579 -0.2579  0.4551 -0.3036
11120SOL    HW133915   7.170   0.963   7.612 -0.4664 -0.0921 -1.5464
11120SOL    HW233916   7.217   1.107   7.606 -0.7167  0.1946  1.6661
11121SOL     OW33917   5.741   5.026   1.452 -0.1122  0.3031  0.6605
11121SOL    HW133918   5.695   4.965   1.510 -1.2180  1.3318  0.8977
11121SOL    HW233919   5.827   5.038   1.493 -0.1663 -0.4777  1.0277
11122SOL     OW33920   2.817   2.683   4.917 -0.1157 -0.1276  0.8946
11122SOL    HW133921   2.849   2.627   4.845 -0.0576  0.4365  0.4722
11122SOL    HW233922   2.733   2.716   4.885 -0.2072 -0.0718  1.1956
11123SOL     OW33923   0.898   7.335   1.640 -0.3644 -0.1414  0.6732
11123SOL    HW133924   0.823   7.365   1.692 -1.8142  1.6018 -2.1699
11123SOL    HW233925   0.922   7.410   1.586  1.5180 -1.5738 -0.6195
11124SOL     OW33926   1.032   6.408   0.675 -0.4519 -0.2116 -0.2943
11124SOL    HW133927   1.069   6.372   0.594 -0.1193 -1.8233  0.5374
11124SOL    HW233928   0.976   6.338   0.709 -0.1754  0.2309  1.1433
11125SOL     OW33929   7.273   4.982   6.767  0.2126 -0.0585  0.1366
11125SOL    HW133930   7.298   5.032   6.689  0.5760 -1.4054 -0.6605
11125SOL    HW233931   7.199   4.928   6.738  0.7075 -0.9857  0.5441
11126SOL     OW33932   5.776   7.560   7.197 -0.3934 -0.1326  0.0640
11126SOL    HW133933   5.866   7.546   7.225  0.4332  0.4503 -2.1285
11126SOL    HW233934   5.730   7.586   7.277  1.6607  0.8881  0.9805
11127SOL     OW33935   7.478   6.118   5.256 -0.2633 -0.0687 -0.1222
11127SOL    HW133936   7.551   6.119   5.318 -0.9429  0.1131  0.7119
11127SOL    HW233937   7.402   6.093   5.310 -0.9783  0.6777 -0.7506
11128SOL     OW33938   0.993   3.668   6.343 -0.1589 -0.5333  0.1117
11128SOL    HW133939   1.069   3.631   6.299 -1.9314 -3.1887 -0.9560
11128SOL    HW233940   0.981   3.613   6.421 -1.0249 -0.2434  0.1968
11129SOL     OW33941   2.542   6.195   4.963  0.8894 -0.5493  0.2299
11129SOL    HW133942   2.481   6.269   4.961 -0.6854 -1.6638  2.6044
11129SOL    HW233943   2.494   6.123   4.922  1.2570 -0.9993  0.5742
11130SOL     OW33944   6.354   3.309   5.803 -0.1231  0.1876 -0.6272
11130SOL    HW133945   6.413   3.383   5.791 -0.4484  0.3946 -0.9563
11130SOL    HW233946   6.271   3.337   5.766 -0.0969 -0.5357 -1.2733
11131SOL     OW33947   0.791   7.144   1.426 -0.6050 -0.3297  0.3022
11131SOL    HW133948   0.728   7.194   1.374  0.2601  0.4709  0.0070
11131SOL    HW233949   0.832   7.208   1.484  0.0731 -0.7987  0.3528
11132SOL     OW33950   1.370   1.124   5.728  0.1055 -0.3840 -0.2416
11132SOL    HW133951   1.372   1.205   5.677  0.7823  0.0942  0.5218
11132SOL    HW233952   1.440   1.071   5.690 -1.5255 -1.4280 -1.9845
11133SOL     OW33953   1.570   7.719   4.670  0.7796 -0.0522  0.1680
11133SOL    HW133954   1.482   7.719   4.708  0.7383  0.9443  0.0914
11133SOL    HW233955   1.564   7.776   4.594  1.4101 -0.2675 -0.0528
11134SOL     OW33956   2.128   3.055   5.010  0.6749  0.1752  0.0492
11134SOL    HW133957   2.051   3.000   4.998  0.2649  0.8536 -0.4699
11134SOL    HW233958   2.122   3.086   5.101  0.2327  0.3850 -0.0516
11135SOL     OW33959   0.022   5.420   2.701  0.0781  0.2847  0.2580
11135SOL    HW133960  -0.033   5.490   2.669 -0.3609  0.0048  0.3954
11135SOL    HW233961   0.014   5.351   2.635 -1.9254 -0.8521  1.5818
11136SOL     OW33962   3.421   7.050   5.512 -0.3720 -0.8462  0.8934
11136SOL    HW133963   3.352   7.109   5.483 -0.3582 -0.6780  1.1965
11136SOL    HW233964   3.485   7.107   5.554 -0.5019 -1.1117  1.4562
11137SOL     OW33965   5.059   6.163   2.514 -0.4215 -0.4577 -0.0317
11137SOL    HW133966   5.034   6.160   2.607 -1.3985  3.3336 -0.0175
11137SOL    HW233967   5.140   6.113   2.510 -0.5420 -1.0681  2.7675
11138SOL     OW33968   0.621   7.441   0.576 -0.2062 -0.5414 -0.6995
11138SOL    HW133969   0.606   7.494   0.653  1.2429  0.3075 -0.9661
11138SOL    HW233970   0.620   7.351   0.608  0.1970 -0.2101  0.2824
11139SOL     OW33971   6.236   4.457   7.076  0.0814  0.2423 -0.3791
11139SOL    HW133972   6.162   4.405   7.108 -0.6398  1.5776  0.1816
11139SOL    HW233973   6.303   4.392   7.053 -0.8710 -0.9337  0.0973
11140SOL     OW33974   2.581   0.796   3.025 -0.3306  0.6898  0.2218
11140SOL    HW133975   2.627   0.837   3.098  1.4204 -0.5263 -0.1412
11140SOL    HW233976   2.597   0.855   2.951 -1.4634  1.5289  0.6247
11141SOL     OW33977   1.502   1.898   5.378 -0.2024  0.0169 -0.3319
11141SOL    HW133978   1.581   1.856   5.344 -0.3556 -1.3385  0.8974
11141SOL    HW233979   1.534   1.978   5.420  0.3682  0.0262 -0.7567
11142SOL     OW33980   0.055   4.343   2.025  0.6163  0.2870  0.1166
11142SOL    HW133981   0.114   4.269   2.043  0.2636  0.3916  1.8746
11142SOL    HW233982  -0.029   4.302   2.005  0.8215  0.1874 -0.5781
11143SOL     OW33983   2.041   2.397   1.562 -0.7358  0.1040  0.3254
11143SOL    HW133984   1.998   2.312   1.577 -0.5239 -0.1812 -0.5742
11143SOL    HW233985   1.984   2.441   1.499 -1.0629  0.8156  1.1005
11144SOL     OW33986   4.325   4.614   3.409  0.0635 -0.3268  0.0162
11144SOL    HW133987   4.342   4.696   3.364  0.9018 -0.0577  0.7833
11144SOL    HW233988   4.382   4.550   3.366  1.3869  0.0765  1.0798
11145SOL     OW33989   1.401   7.149   3.207 -0.1093  0.3571  0.4608
11145SOL    HW133990   1.341   7.115   3.140 -0.1395 -1.7105  1.4709
11145SOL    HW233991   1.383   7.243   3.210 -0.9260  0.3107 -1.5913
11146SOL     OW33992   0.023   4.357   5.975  0.3796  0.2777  0.2851
11146SOL    HW133993   0.050   4.332   5.887  0.5800 -0.9056  0.6596
11146SOL    HW233994  -0.072   4.360   5.971  0.4257  1.3634 -0.2501
11147SOL     OW33995   6.805   0.517   0.384 -0.4115  0.2767  0.2690
11147SOL    HW133996   6.801   0.442   0.324 -1.6325  0.4665  0.0919
11147SOL    HW233997   6.725   0.511   0.436 -0.6496  1.5912  0.0821
11148SOL     OW33998   4.951   4.129   3.598 -0.7993 -0.2283  0.4061
11148SOL    HW133999   4.911   4.216   3.599 -1.4003 -0.4628 -0.9531
11148SOL    HW234000   4.876   4.068   3.595 -0.4141 -0.8521  2.1130
11149SOL     OW34001   0.255   3.029   6.201  0.2277  0.5596 -0.1991
11149SOL    HW134002   0.266   2.973   6.124 -0.1979  0.4823 -0.2050
11149SOL    HW234003   0.333   3.085   6.201  0.1223  0.7139 -0.8148
11150SOL     OW34004   1.572   1.513   4.814 -0.0309 -0.2096  0.3956
11150SOL    HW134005   1.656   1.469   4.827  0.1563 -0.0422 -0.2068
11150SOL    HW234006   1.553   1.501   4.721 -0.4485  0.1556  0.4302
11151SOL     OW34007   7.595   5.458   6.837 -0.3112 -0.1208 -0.1199
11151SOL    HW134008   7.600   5.366   6.863  0.0042 -0.9279 -2.8138
11151SOL    HW234009   7.666   5.500   6.885  1.6914 -1.9669 -1.2855
11152SOL     OW34010   6.110   6.656   5.196  0.1278  0.5050  0.0344
11152SOL    HW134011   6.036   6.604   5.228 -1.4010  1.2921 -2.0011
11152SOL    HW234012   6.181   6.593   5.188 -0.4099 -0.3737  1.6317
11153SOL     OW34013   1.844   7.587   5.439  0.0715  0.3263 -0.2924
11153SOL    HW134014   1.861   7.536   5.360  5.0094  1.7288 -0.4795
11153SOL    HW234015   1.823   7.674   5.406 -3.6665 -0.3037  0.0730
11154SOL     OW34016   6.369   4.424   5.539  0.4260  0.2845  0.2964
11154SOL    HW134017   6.458   4.395   5.522  0.4614  0.5105  0.0897
11154SOL    HW234018   6.379   4.511   5.577  0.2716  0.6230 -0.4129
11155SOL     OW34019   0.658   1.882   6.921  0.2110 -0.1733  0.2442
11155SOL    HW134020   0.730   1.897   6.859  0.5179 -0.3579  0.5515
11155SOL    HW234021   0.698   1.891   7.007 -0.1619 -0.1589  0.4187
11156SOL     OW34022   3.770   1.880   6.495 -0.3879 -0.1101  0.0918
11156SOL    HW134023   3.804   1.888   6.406 -1.8530  0.8460 -0.4068
11156SOL    HW234024   3.714   1.956   6.507 -0.9118 -0.6839  1.5305
11157SOL     OW34025   3.252   7.435   3.349 -0.4985 -0.5979  0.1824
11157SOL    HW134026   3.253   7.407   3.441  0.6510 -3.2388 -0.5199
11157SOL    HW234027   3.308   7.512   3.347 -1.8485  0.5022  1.9149
11158SOL     OW34028   1.905   7.608   2.793 -0.3863  0.3132 -0.5128
11158SOL    HW134029   1.929   7.586   2.702  0.3074 -1.0546 -0.0341
11158SOL    HW234030   1.942   7.695   2.807 -0.3413  0.4648 -1.4903
11159SOL     OW34031   5.462   3.294   4.149  0.1174  0.5081 -0.2474
11159SOL    HW134032   5.547   3.256   4.124  0.6147  0.1779  1.7807
11159SOL    HW234033   5.474   3.322   4.240 -2.1093 -0.0365  0.2697
11160SOL     OW34034   2.935   1.580   7.484 -0.4263  0.0027  0.2200
11160SOL    HW134035   2.847   1.615   7.469 -1.0691 -0.8239  1.7816
11160SOL    HW234036   2.976   1.642   7.544  0.2433  0.6150 -0.8428
11161SOL     OW34037   7.194   0.832   0.479 -0.2137 -0.3148  0.6110
11161SOL    HW134038   7.169   0.752   0.432  0.2492 -0.3370  0.3927
11161SOL    HW234039   7.289   0.837   0.467 -0.4533  1.3804 -1.1626
11162SOL     OW34040   7.412   2.421   0.830  0.4334 -0.3084  0.0113
11162SOL    HW134041   7.325   2.411   0.867 -0.2374 -1.8526 -1.8048
11162SOL    HW234042   7.449   2.497   0.874 -2.1034  0.8382  0.3138
11163SOL     OW34043   2.789   3.959   4.761  0.2630  0.2751  0.0147
11163SOL    HW134044   2.764   3.968   4.669 -0.5924  1.2805  0.3118
11163SOL    HW234045   2.881   3.984   4.764  0.9796 -1.9982 -0.8890
11164SOL     OW34046   2.435   1.902   0.461  0.6025 -0.4938 -0.6333
11164SOL    HW134047   2.471   1.820   0.494 -2.0329 -1.6267 -0.3199
11164SOL    HW234048   2.397   1.944   0.539  0.6519  0.3111 -1.0348
11165SOL     OW34049   0.487   1.600   0.038 -0.3825 -0.0074 -0.2017
11165SOL    HW134050   0.400   1.571   0.065  0.0054 -0.3582  0.7392
11165SOL    HW234051   0.523   1.527  -0.012 -0.2963 -0.2163  0.1633
11166SOL     OW34052   3.203   5.795   3.609  0.0671 -0.3161  0.2605
11166SOL    HW134053   3.115   5.829   3.598  0.0698 -0.0566  0.9879
11166SOL    HW234054   3.261   5.865   3.579  0.1055  0.7786  2.6600
11167SOL     OW34055   6.032   0.818   1.739 -0.1112 -0.7399 -0.2181
11167SOL    HW134056   6.114   0.792   1.781  0.0390 -1.9595 -1.2190
11167SOL    HW234057   5.964   0.792   1.802  0.2041 -0.7638  0.1176
11168SOL     OW34058   5.027   2.501   0.501  0.2086  0.0625  0.4518
11168SOL    HW134059   4.980   2.418   0.510 -1.9554  1.1746  0.2755
11168SOL    HW234060   4.977   2.550   0.436  1.7919  1.2752  0.0765
11169SOL     OW34061   3.465   3.510   5.705  0.2645 -0.4556  0.1200
11169SOL    HW134062   3.402   3.560   5.756  0.8648  0.8371 -0.3565
11169SOL    HW234063   3.474   3.558   5.623 -0.8964 -2.6435 -1.4034
11170SOL     OW34064   1.825   0.597   5.252 -0.1271  0.0092 -0.0768
11170SOL    HW134065   1.828   0.666   5.186  1.0322 -0.5700 -0.6609
11170SOL    HW234066   1.751   0.621   5.309 -0.1127  1.3933 -0.6085
11171SOL     OW34067   2.620   1.230   4.172 -0.5323  0.3932  0.3383
11171SOL    HW134068   2.548   1.171   4.152  0.5816 -0.3974 -1.6373
11171SOL    HW234069   2.639   1.274   4.089 -0.5511  2.7102  1.4781
11172SOL     OW34070   5.501   2.298   0.360  0.2610 -0.1275 -0.1597
11172SOL    HW134071   5.470   2.247   0.285  1.0007 -1.4822  0.4059
11172SOL    HW234072   5.532   2.380   0.323 -0.3514 -0.3460 -1.1977
11173SOL     OW34073   5.750   5.812   1.575 -0.0652 -0.7488 -0.0804
11173SOL    HW134074   5.800   5.887   1.608 -1.3600  0.1642 -0.1356
11173SOL    HW234075   5.701   5.780   1.651  0.6567 -1.7079 -0.0013
11174SOL     OW34076   4.881   0.220   5.702  0.4029 -0.1691 -0.2829
11174SOL    HW134077   4.833   0.137   5.699 -0.8377  0.4801  0.5059
11174SOL    HW234078   4.876   0.247   5.794  0.9726  0.6721 -0.4883
11175SOL     OW34079   0.736   5.166   4.729 -0.2595 -0.4041  0.4915
11175SOL    HW134080   0.770   5.211   4.806 -0.0963 -0.0592  0.2192
11175SOL    HW234081   0.720   5.236   4.666  1.1398 -0.8344 -0.3795
11176SOL     OW34082   3.596   3.042   5.458 -0.0592 -0.3908 -0.1467
11176SOL    HW134083   3.663   2.990   5.504  0.8063  0.5647 -0.2990
11176SOL    HW234084   3.622   3.133   5.472  0.1378 -0.0498 -2.3632
11177SOL     OW34085   2.187   3.456   0.838 -0.0417 -0.2592  0.4999
11177SOL    HW134086   2.205   3.531   0.894 -1.8989 -0.5624  1.5917
11177SOL    HW234087   2.093   3.442   0.846  0.0837 -2.0271 -0.5370
11178SOL     OW34088   1.671   2.903   2.263  0.0494 -0.0419  0.2982
11178SOL    HW134089   1.714   2.970   2.210 -0.4858  0.1107  0.0528
11178SOL    HW234090   1.739   2.875   2.325  0.6214 -0.0832 -0.3318
11179SOL     OW34091   5.388   0.733   5.001 -0.2301 -0.4792  0.1133
11179SOL    HW134092   5.419   0.643   5.003 -0.8353 -0.7090 -0.6709
11179SOL    HW234093   5.397   0.763   5.092  1.7607 -0.6930  0.0229
11180SOL     OW34094   4.444   0.224   6.336  0.4180  0.3750 -0.1899
11180SOL    HW134095   4.473   0.150   6.284  1.0134  0.4298  0.0604
11180SOL    HW234096   4.359   0.248   6.298  0.7196  0.2513 -0.9570
11181SOL     OW34097   1.936   3.325   5.096  0.5645 -0.4564  0.5797
11181SOL    HW134098   1.986   3.362   5.169  0.9958  0.0863  0.0222
11181SOL    HW234099   1.885   3.254   5.135  1.4385 -0.7341  1.2440
11182SOL     OW34100   1.477   3.857   6.673 -0.0773  0.3812 -0.1229
11182SOL    HW134101   1.477   3.791   6.742  0.0289  1.2882  0.7602
11182SOL    HW234102   1.570   3.875   6.657 -0.1112  0.4967 -0.1887
11183SOL     OW34103   6.578   3.057   4.600  0.2735  0.1548  0.8207
11183SOL    HW134104   6.514   3.128   4.595  0.6768  0.4871  0.1264
11183SOL    HW234105   6.530   2.984   4.637 -1.1243 -0.2397 -1.5845
11184SOL     OW34106   1.572   0.965   5.603  0.3492  0.0857  0.0772
11184SOL    HW134107   1.575   0.872   5.582  0.8604 -0.0878  0.9153
11184SOL    HW234108   1.647   1.003   5.557 -0.5202  0.3097 -1.2409
11185SOL     OW34109   5.235   0.838   2.547 -0.5795 -0.6290  0.4637
11185SOL    HW134110   5.227   0.802   2.458  0.0026 -1.4825  0.7354
11185SOL    HW234111   5.225   0.932   2.536 -1.0492 -0.7729 -0.4393
11186SOL     OW34112   6.649   2.818   2.816  0.2198  0.0689 -0.4606
11186SOL    HW134113   6.638   2.728   2.846 -1.2655  0.9388  1.9233
11186SOL    HW234114   6.576   2.832   2.755  0.5733 -0.3805 -0.9963
11187SOL     OW34115   0.152   3.071   5.549  0.9168  0.1051 -0.7079
11187SOL    HW134116   0.178   3.003   5.611  0.7375 -0.5808 -1.3549
11187SOL    HW234117   0.095   3.025   5.487  1.1000  0.7635 -1.3780
11188SOL     OW34118   3.399   4.892   4.327  0.0421  0.4696  0.3919
11188SOL    HW134119   3.419   4.967   4.272 -0.2347  1.7452  1.9466
11188SOL    HW234120   3.481   4.843   4.332 -0.1904 -0.2766 -1.9310
11189SOL     OW34121   5.930   4.381   4.307 -0.3963 -0.1594 -0.1818
11189SOL    HW134122   5.945   4.468   4.270 -0.0694 -0.3970 -0.6118
11189SOL    HW234123   5.989   4.377   4.382  0.4047 -0.4206 -0.8147
11190SOL     OW34124   2.331   1.637   4.770  0.3663 -0.0353 -0.7143
11190SOL    HW134125   2.371   1.718   4.739  1.9226 -0.7185 -0.5608
11190SOL    HW234126   2.297   1.596   4.691 -1.3176  1.1959 -0.6798
11191SOL     OW34127   4.269   0.611   6.793 -0.0076 -0.0251  0.1601
11191SOL    HW134128   4.209   0.673   6.751 -0.4033  0.1359  0.9320
11191SOL    HW234129   4.218   0.576   6.867  1.4770  1.5498  2.0234
11192SOL     OW34130   0.847   2.635   6.833 -0.2254  0.0721 -0.3268
11192SOL    HW134131   0.918   2.592   6.880 -0.6529 -0.2488  0.0278
11192SOL    HW234132   0.862   2.612   6.741 -0.3184 -0.6492 -0.1676
11193SOL     OW34133   3.857   4.106   0.187  0.0530 -0.0035  0.5154
11193SOL    HW134134   3.769   4.073   0.205  0.0317 -0.0239  0.3737
11193SOL    HW234135   3.912   4.028   0.183 -0.6264 -0.5431 -3.8166
11194SOL     OW34136   3.013   3.510   0.705  0.1364  0.2790  0.0925
11194SOL    HW134137   3.062   3.432   0.730  0.1381 -0.0769 -0.9576
11194SOL    HW234138   3.067   3.550   0.637 -0.6597  0.2910 -0.5471
11195SOL     OW34139   0.432   5.399   3.276 -0.9573  0.1052 -0.7197
11195SOL    HW134140   0.496   5.373   3.342 -0.4975  1.0376 -0.7818
11195SOL    HW234141   0.372   5.457   3.322 -1.0140  0.2407 -0.9589
11196SOL     OW34142   6.832   6.961   5.497  0.2683  0.0109  0.0399
11196SOL    HW134143   6.877   6.954   5.582 -0.7806 -1.5397  0.5334
11196SOL    HW234144   6.742   6.983   5.520  0.2017  0.6206 -0.7645
11197SOL     OW34145   7.296   5.774   1.891  0.5822  0.1807  0.2916
11197SOL    HW134146   7.361   5.834   1.926  2.0954 -0.4790 -1.2453
11197SOL    HW234147   7.221   5.783   1.950  1.5520  1.9428  1.3521
11198SOL     OW34148   4.501   2.655   5.884  0.4754 -0.6315  0.7402
11198SOL    HW134149   4.414   2.627   5.855  0.8013 -0.7321 -0.1698
11198SOL    HW234150   4.519   2.600   5.961  0.4103 -1.7868 -0.0424
11199SOL     OW34151   4.149   6.457   6.806  0.8714 -0.0977 -0.1587
11199SOL    HW134152   4.207   6.523   6.768 -0.6974  0.4628 -1.7509
11199SOL    HW234153   4.155   6.471   6.901  3.6680 -0.4397 -0.2061
11200SOL     OW34154   5.416   4.901   0.391 -0.0662 -0.2001  0.0914
11200SOL    HW134155   5.472   4.979   0.399  0.0595 -0.0536 -1.8915
11200SOL    HW234156   5.329   4.937   0.374  0.3264 -0.4127 -2.9046
11201SOL     OW34157   0.910   2.844   0.269 -0.1495 -0.7455  0.4687
11201SOL    HW134158   0.826   2.814   0.303 -0.5430  1.1006  1.2730
11201SOL    HW234159   0.960   2.870   0.346 -0.1040  1.1721 -0.1345
11202SOL     OW34160   4.505   0.677   5.937  0.1808 -0.0649  0.4950
11202SOL    HW134161   4.520   0.627   6.017 -1.0769 -0.9721  0.1946
11202SOL    HW234162   4.576   0.651   5.879 -0.2813 -1.3110  0.4495
11203SOL     OW34163   2.957   4.022   2.398 -0.4285  0.1140  0.1372
11203SOL    HW134164   2.961   4.116   2.413  0.5437  0.1342 -0.1646
11203SOL    HW234165   3.048   3.993   2.407 -0.3406 -0.4322 -2.0095
11204SOL     OW34166   2.852   6.462   3.594  0.3828 -0.2713 -0.1126
11204SOL    HW134167   2.840   6.527   3.524 -0.1689 -0.3722 -0.1132
11204SOL    HW234168   2.857   6.514   3.674 -0.4429 -0.2498 -0.0717
11205SOL     OW34169   6.034   3.940   7.133 -0.2107 -0.2689 -0.1966
11205SOL    HW134170   6.003   3.934   7.223  0.2456 -1.8979 -0.1190
11205SOL    HW234171   5.961   3.906   7.081 -0.6401  1.0678 -0.5003
11206SOL     OW34172   6.426   6.419   1.034  0.8476  0.0389 -0.3488
11206SOL    HW134173   6.515   6.454   1.036  1.5634 -1.6978 -0.4095
11206SOL    HW234174   6.420   6.362   1.111 -0.2788  0.2781 -0.2396
11207SOL     OW34175   6.859   7.164   7.506 -0.3631  0.0540  0.1716
11207SOL    HW134176   6.856   7.190   7.413 -0.7133  2.6706  0.8365
11207SOL    HW234177   6.953   7.156   7.525 -0.2783 -0.1800 -0.3251
11208SOL     OW34178   3.813   6.115   2.102 -0.0808  0.0429 -0.0402
11208SOL    HW134179   3.810   6.209   2.121 -0.5159 -0.0499  0.3607
11208SOL    HW234180   3.732   6.098   2.055  0.6810  0.1463 -1.4406
11209SOL     OW34181   2.313   7.173   4.437  0.2959 -0.0324  0.5189
11209SOL    HW134182   2.345   7.147   4.350 -0.3648 -0.0825  0.2898
11209SOL    HW234183   2.218   7.159   4.433  0.5070 -2.8931  2.1702
11210SOL     OW34184   0.410   1.318   2.820 -0.9916  0.1149  0.2941
11210SOL    HW134185   0.436   1.230   2.795 -0.1878  0.1681  0.9246
11210SOL    HW234186   0.484   1.373   2.797 -1.7249  0.7326 -0.6597
11211SOL     OW34187   6.753   4.912   2.567  0.0721 -0.1995  0.6539
11211SOL    HW134188   6.788   4.985   2.516  0.3374 -0.4489  0.4776
11211SOL    HW234189   6.813   4.840   2.551  1.1384  0.1752  2.6720
11212SOL     OW34190   2.785   5.544   0.275  0.4380  0.0124 -0.2167
11212SOL    HW134191   2.797   5.477   0.207  0.2697  0.3569 -0.5935
11212SOL    HW234192   2.773   5.626   0.225  0.9161  0.3675  0.2360
11213SOL     OW34193   4.813   5.798   3.915  0.7384 -0.2825  0.1908
11213SOL    HW134194   4.886   5.802   3.977  0.4994 -0.7983  0.5114
11213SOL    HW234195   4.740   5.838   3.963  0.5729 -0.6137  0.2118
11214SOL     OW34196   0.341   4.436   2.697  0.3290 -0.0340  0.5625
11214SOL    HW134197   0.340   4.515   2.642  4.7115 -0.0759  0.0569
11214SOL    HW234198   0.348   4.364   2.635  2.7798 -0.2647  1.0255
11215SOL     OW34199   3.195   3.670   5.497  0.2440  0.0685 -0.3109
11215SOL    HW134200   3.217   3.594   5.443 -0.2798  1.5352 -2.7838
11215SOL    HW234201   3.256   3.738   5.468 -0.6888  1.1880  0.2601
11216SOL     OW34202   1.009   2.520   5.320  0.3559 -0.4817 -0.3163
11216SOL    HW134203   1.046   2.548   5.236 -1.1231 -0.2556 -0.9249
11216SOL    HW234204   1.079   2.535   5.383  2.0982 -2.1635 -1.7262
11217SOL     OW34205   3.249   5.443   1.932  0.0291 -0.6948  0.3593
11217SOL    HW134206   3.157   5.467   1.926  0.1083 -0.7295 -1.6451
11217SOL    HW234207   3.261   5.374   1.868  1.5306 -0.4220  0.2939
11218SOL     OW34208   7.517   0.453   5.833 -0.4776  0.1371  0.5250
11218SOL    HW134209   7.435   0.404   5.829 -0.5867  0.3120  0.6050
11218SOL    HW234210   7.556   0.442   5.747 -0.8340  0.4807  0.3175
11219SOL     OW34211   4.732   2.681   5.756 -0.4396 -0.0404  0.3981
11219SOL    HW134212   4.655   2.682   5.813 -0.0075 -0.3612  0.9932
11219SOL    HW234213   4.709   2.740   5.684 -1.3500 -0.3378  0.4269
11220SOL     OW34214   2.154   3.856   5.100 -0.2499 -0.2265 -0.2347
11220SOL    HW134215   2.195   3.783   5.054  0.1133  0.2723 -0.7067
11220SOL    HW234216   2.066   3.824   5.121  0.5647 -1.5276  1.3488
11221SOL     OW34217   2.348   6.088   3.748 -0.2931  0.2790  0.2987
11221SOL    HW134218   2.336   5.996   3.728 -0.0731  0.0214  1.2836
11221SOL    HW234219   2.366   6.130   3.664 -1.6954 -0.3557 -0.3480
11222SOL     OW34220   5.120   2.324   3.064  0.4008  0.2730  0.0201
11222SOL    HW134221   5.096   2.232   3.064  2.3912 -0.3212  1.4636
11222SOL    HW234222   5.038   2.371   3.080 -0.3784 -1.3475  0.9698
11223SOL     OW34223   5.223   5.301   5.376 -0.0132 -0.6031 -0.0388
11223SOL    HW134224   5.242   5.220   5.329 -0.0840 -0.6171 -0.0431
11223SOL    HW234225   5.308   5.341   5.390 -0.0872  0.0644 -1.3391
11224SOL     OW34226   3.183   5.367   5.850 -0.4758 -0.0646  0.4466
11224SOL    HW134227   3.158   5.431   5.784  0.2555  0.4832  0.6892
11224SOL    HW234228   3.176   5.414   5.933 -2.3932 -1.0404  0.8912
11225SOL     OW34229   6.475   3.958   3.020  0.2055  0.7544 -0.1240
11225SOL    HW134230   6.537   4.006   2.965 -0.1959 -0.1660 -1.4238
11225SOL    HW234231   6.509   3.967   3.109  2.3719  0.0128 -0.8342
11226SOL     OW34232   0.533   1.258   5.298 -0.0193  0.1650 -0.1609
11226SOL    HW134233   0.441   1.275   5.278 -0.0784  0.3843  0.2898
11226SOL    HW234234   0.531   1.208   5.379  0.3292  1.8243  0.8963
11227SOL     OW34235   3.010   2.435   6.181 -0.1380  0.1664 -0.1600
11227SOL    HW134236   2.975   2.362   6.232  1.8378  0.4799  1.8057
11227SOL    HW234237   2.947   2.506   6.195 -0.5711 -0.3058  0.3343
11228SOL     OW34238   7.047   5.354   0.236 -0.0066  0.5121  0.1731
11228SOL    HW134239   6.962   5.315   0.215  0.1089  0.3430  0.0181
11228SOL    HW234240   7.101   5.336   0.159  0.6740 -0.8318  0.9345
11229SOL     OW34241   5.355   7.624   6.379 -0.1695  0.3266 -0.5527
11229SOL    HW134242   5.294   7.551   6.365  0.7929 -1.0237  1.7179
11229SOL    HW234243   5.440   7.589   6.353  0.4293  0.3093  1.2820
11230SOL     OW34244   3.392   6.843   7.396 -0.7724  0.0727  0.2275
11230SOL    HW134245   3.344   6.763   7.375 -1.1397  0.2830  0.2513
11230SOL    HW234246   3.473   6.813   7.435 -1.7304 -0.2863  2.0605
11231SOL     OW34247   3.242   4.560   2.495 -0.2573  0.2292 -0.1429
11231SOL    HW134248   3.216   4.608   2.574 -0.4918  0.4262 -0.3400
11231SOL    HW234249   3.310   4.500   2.526 -2.9049 -2.3926  1.0117
11232SOL     OW34250   6.540   4.953   4.426  0.2349  0.2468  0.2425
11232SOL    HW134251   6.449   4.927   4.439  0.7302 -1.1702  1.0701
11232SOL    HW234252   6.560   4.926   4.336 -0.2225  0.7586 -0.0140
11233SOL     OW34253   2.765   6.959   7.019 -0.0428 -0.1921  0.1640
11233SOL    HW134254   2.674   6.975   7.044 -0.3464 -1.7561  0.2035
11233SOL    HW234255   2.798   6.898   7.086  0.7631 -0.3074 -0.3193
11234SOL     OW34256   1.960   4.344   0.511 -0.1982 -0.6617  0.0722
11234SOL    HW134257   2.051   4.339   0.541  0.3950  2.2301 -0.9182
11234SOL    HW234258   1.913   4.388   0.582 -0.6292 -1.2848  0.1797
11235SOL     OW34259   0.625   0.278   5.201  0.0353  0.0223 -0.0873
11235SOL    HW134260   0.687   0.238   5.262  1.0182 -1.2625 -1.8006
11235SOL    HW234261   0.648   0.371   5.200  0.5741 -0.0924  0.8231
11236SOL     OW34262   1.428   3.202   2.322  0.1732  0.4222 -0.1666
11236SOL    HW134263   1.519   3.201   2.350  0.2167 -1.4672 -0.3012
11236SOL    HW234264   1.413   3.293   2.295  1.2911  1.3837  2.1078
11237SOL     OW34265   6.797   7.637   3.517  0.1754 -0.1745  0.1015
11237SOL    HW134266   6.745   7.598   3.446  0.7697 -0.2513 -0.3020
11237SOL    HW234267   6.873   7.674   3.472  1.3501 -1.5821  0.8526
11238SOL     OW34268   2.355   5.139   0.036 -0.5932 -0.3351  0.2175
11238SOL    HW134269   2.411   5.064   0.056 -0.2153 -0.2044 -0.3398
11238SOL    HW234270   2.372   5.201   0.108 -0.2643 -0.4290  0.2211
11239SOL     OW34271   0.360   3.908   5.128 -0.4094  0.0308  0.0591
11239SOL    HW134272   0.389   3.996   5.104  0.7430 -0.6741 -1.2941
11239SOL    HW234273   0.322   3.873   5.047 -0.4524 -0.8770  0.4616
11240SOL     OW34274   5.005   5.338   6.752 -0.7645 -0.4770 -0.1481
11240SOL    HW134275   5.005   5.313   6.660 -1.2495  0.8181 -0.5164
11240SOL    HW234276   4.922   5.306   6.787 -1.1576  0.1558 -0.4906
11241SOL     OW34277   2.489   4.628   2.941 -0.9807  0.2965 -0.2268
11241SOL    HW134278   2.476   4.571   3.017 -1.3458  1.2162  0.4235
11241SOL    HW234279   2.547   4.579   2.884 -0.7129 -0.4283  0.6451
11242SOL     OW34280   4.185   2.053   3.032 -0.4367  0.0538  0.1422
11242SOL    HW134281   4.227   1.968   3.039 -1.4119 -0.5054 -0.5213
11242SOL    HW234282   4.142   2.052   2.946 -3.9413 -0.4548  1.7553
11243SOL     OW34283   3.914   7.111   2.116 -0.4740 -0.0336 -0.6883
11243SOL    HW134284   3.860   7.184   2.086 -0.5332 -0.0810 -0.6992
11243SOL    HW234285   3.995   7.151   2.146 -0.2336 -0.0281 -1.3339
11244SOL     OW34286   0.619   3.927   4.008  0.7235 -0.3221  0.7526
11244SOL    HW134287   0.569   3.937   4.089  3.0071 -1.2799  2.4030
11244SOL    HW234288   0.570   3.978   3.943 -0.7869  1.1527  2.8987
11245SOL     OW34289   1.705   6.732   3.136  0.1752 -0.1783  0.2926
11245SOL    HW134290   1.669   6.676   3.068 -2.6755  1.7336  0.0926
11245SOL    HW234291   1.678   6.820   3.112  1.9034  0.9614  2.2064
11246SOL     OW34292   7.384   6.569   1.430 -0.0270  0.6499 -0.0972
11246SOL    HW134293   7.409   6.660   1.412  1.4555  0.3934  0.5268
11246SOL    HW234294   7.397   6.558   1.524  0.0598 -0.2806 -0.2090
11247SOL     OW34295   4.617   6.924   6.845  0.2187  0.6656 -0.4440
11247SOL    HW134296   4.637   7.000   6.790 -0.0515 -0.0778 -1.6111
11247SOL    HW234297   4.604   6.852   6.783 -1.6259  0.1244  0.5051
11248SOL     OW34298   0.867   7.713   1.676 -0.3178  0.3085  0.6264
11248SOL    HW134299   0.857   7.674   1.589 -0.2623  2.5089 -0.4465
11248SOL    HW234300   0.796   7.675   1.728  0.0782 -1.5933 -0.1288
11249SOL     OW34301   0.285   6.557   3.433  0.6279  0.1373 -0.7575
11249SOL    HW134302   0.223   6.566   3.361  1.6606  0.7461 -1.6035
11249SOL    HW234303   0.244   6.494   3.492 -0.8007  0.5646 -1.2622
11250SOL     OW34304   3.505   3.144   6.490 -0.3464 -0.4866  0.1538
11250SOL    HW134305   3.544   3.062   6.460  0.3650  0.9453 -3.3756
11250SOL    HW234306   3.426   3.118   6.536 -0.3604 -3.1476 -1.1686
11251SOL     OW34307   7.271   2.725   4.041 -0.3173  0.8066 -0.9154
11251SOL    HW134308   7.354   2.691   4.073 -0.5827 -1.2025 -2.1856
11251SOL    HW234309   7.259   2.684   3.955 -2.5779  1.0643 -0.8010
11252SOL     OW34310   1.859   5.837   0.333  0.4256 -0.2621 -0.3598
11252SOL    HW134311   1.871   5.917   0.385 -0.7041  0.6683 -1.4859
11252SOL    HW234312   1.875   5.766   0.396  1.5049  0.8173  0.6570
11253SOL     OW34313   3.926   1.246   2.133  0.4097  0.1092  0.5077
11253SOL    HW134314   3.934   1.151   2.141  1.0524  0.2125  1.1764
11253SOL    HW234315   4.016   1.278   2.135  0.2028  0.7238  0.1065
11254SOL     OW34316   6.871   5.406   3.342  0.6315  0.2071  0.0968
11254SOL    HW134317   6.840   5.322   3.375  0.9827  0.2070  0.4336
11254SOL    HW234318   6.844   5.469   3.409 -2.0835  0.7999 -1.4177
11255SOL     OW34319   3.533   3.326   3.616 -0.0179 -0.1671 -0.5765
11255SOL    HW134320   3.565   3.360   3.532 -1.0213  0.5054 -0.6999
11255SOL    HW234321   3.570   3.386   3.682  1.5257 -1.2307 -0.4369
11256SOL     OW34322   1.028   6.515   4.770 -0.0110  0.0553  0.0072
11256SOL    HW134323   0.985   6.472   4.845  0.7235 -1.0080 -0.1606
11256SOL    HW234324   0.990   6.472   4.693 -0.2895  0.6977 -0.2216
11257SOL     OW34325   0.286   3.143   5.845  0.8428  0.0011 -0.0711
11257SOL    HW134326   0.304   3.236   5.860  0.6850  0.0780 -0.3454
11257SOL    HW234327   0.202   3.142   5.801  0.6007 -0.3063  0.3905
11258SOL     OW34328   6.144   2.181   5.117  0.5773  0.3229  0.2597
11258SOL    HW134329   6.133   2.263   5.069 -0.4237  0.0306 -0.0323
11258SOL    HW234330   6.237   2.161   5.108  0.4157  0.2264 -1.6376
11259SOL     OW34331   1.506   7.312   5.726 -0.1296 -0.2048 -0.4351
11259SOL    HW134332   1.537   7.372   5.793  2.3904 -2.0869  0.2205
11259SOL    HW234333   1.506   7.226   5.768 -2.5162 -0.9041 -1.6796
11260SOL     OW34334   1.245   7.058   3.410  0.4126  0.4189 -0.4422
11260SOL    HW134335   1.289   7.061   3.495  1.0471  0.2698 -0.7556
11260SOL    HW234336   1.316   7.067   3.346 -0.0027  0.0789 -0.9628
11261SOL     OW34337   4.168   4.912   3.073  0.2918  0.5437 -0.0252
11261SOL    HW134338   4.109   4.883   3.142  1.0246 -0.9493  0.0290
11261SOL    HW234339   4.114   4.963   3.014 -1.4355 -1.9759 -0.7615
11262SOL     OW34340   1.250   5.557   3.058  0.3205 -0.3521 -0.1158
11262SOL    HW134341   1.188   5.620   3.022  0.2293 -0.7698 -0.6870
11262SOL    HW234342   1.209   5.526   3.139 -0.3110 -0.7790 -0.5955
11263SOL     OW34343   6.686   1.617   1.629 -0.3075 -0.1071  0.4822
11263SOL    HW134344   6.776   1.637   1.603 -0.6796 -0.9900 -1.6053
11263SOL    HW234345   6.631   1.663   1.566 -1.3284 -0.2709  1.2191
11264SOL     OW34346   6.988   5.012   7.426  0.3155 -0.6592 -0.1246
11264SOL    HW134347   6.954   5.096   7.396 -0.3448 -0.5445  0.9229
11264SOL    HW234348   6.930   4.947   7.386  0.7213 -0.6280 -0.7913
11265SOL     OW34349   5.676   4.564   4.131  0.4189 -0.0347 -0.3480
11265SOL    HW134350   5.629   4.509   4.194  1.8301 -0.6168  0.2303
11265SOL    HW234351   5.751   4.598   4.180 -0.1522  2.0440 -0.8352
11266SOL     OW34352   1.266   5.989   3.011  0.1506  0.5361  0.6008
11266SOL    HW134353   1.270   5.998   2.916 -0.6148  0.0921  0.5153
11266SOL    HW234354   1.329   6.052   3.044 -0.0647  1.1785 -0.1857
11267SOL     OW34355   0.547   4.887   2.002  0.6259 -0.1797 -0.1281
11267SOL    HW134356   0.617   4.921   1.947  0.4781  1.0340  0.3867
11267SOL    HW234357   0.471   4.880   1.944  0.7893 -0.0582 -0.3550
11268SOL     OW34358   5.467   4.368   7.021 -0.2843 -0.4822  0.5300
11268SOL    HW134359   5.430   4.456   7.012 -1.3076 -0.8330  1.1537
11268SOL    HW234360   5.528   4.360   6.948 -0.1259  0.7687  0.5008
11269SOL     OW34361   3.878   4.789   6.624  0.4802 -0.5445  0.2934
11269SOL    HW134362   3.837   4.834   6.698 -1.0112  0.9222 -1.3170
11269SOL    HW234363   3.809   4.732   6.589 -0.0624  1.3062 -1.9254
11270SOL     OW34364   7.138   2.579   0.553 -0.5780  0.2420 -0.3906
11270SOL    HW134365   7.176   2.603   0.637 -3.0187  1.7471  0.4078
11270SOL    HW234366   7.047   2.557   0.573 -0.9442 -0.4009 -2.4973
11271SOL     OW34367   6.463   0.292   0.180 -0.2537 -0.8406  0.6492
11271SOL    HW134368   6.370   0.270   0.186 -0.0460 -1.9386  0.0568
11271SOL    HW234369   6.467   0.385   0.203 -1.2861 -1.1718  2.3365
11272SOL     OW34370   6.514   1.251   6.262  0.5587 -0.2441  0.3539
11272SOL    HW134371   6.525   1.341   6.293  0.6953 -0.4366  0.8855
11272SOL    HW234372   6.603   1.215   6.264  0.7196  0.0115 -1.1630
11273SOL     OW34373   0.665   1.053   7.021  0.0526 -0.4917  0.0021
11273SOL    HW134374   0.753   1.064   6.985 -0.1942  1.3761 -0.1335
11273SOL    HW234375   0.673   1.084   7.112 -0.5179 -0.0059 -0.1072
11274SOL     OW34376   2.663   7.636   3.892 -0.1102  0.5153 -0.3511
11274SOL    HW134377   2.671   7.665   3.801  0.1683  0.4157 -0.3574
11274SOL    HW234378   2.618   7.709   3.936  0.5646  0.9578 -0.3746
11275SOL     OW34379   1.717   1.422   7.691 -0.6826  0.1111  0.4885
11275SOL    HW134380   1.757   1.507   7.706 -0.4354  0.1693 -0.4447
11275SOL    HW234381   1.623   1.438   7.696 -0.6341  0.4193  0.4062
11276SOL     OW34382   6.330   1.103   0.385  0.1074  0.0691 -0.6104
11276SOL    HW134383   6.369   1.189   0.366 -0.6625  0.5602 -0.0506
11276SOL    HW234384   6.236   1.121   0.392  0.2158 -0.0136  3.5084
11277SOL     OW34385   4.275   4.730   4.446 -0.5478  0.0489  0.7760
11277SOL    HW134386   4.269   4.825   4.445 -0.5006  0.0499  0.2438
11277SOL    HW234387   4.350   4.710   4.390 -1.1235 -0.3341  0.1204
11278SOL     OW34388   3.044   3.803   2.792 -0.0035 -0.0097 -0.2181
11278SOL    HW134389   3.079   3.753   2.866 -2.0160 -0.1427  0.7069
11278SOL    HW234390   3.057   3.745   2.716  0.3005 -0.7184  0.3623
11279SOL     OW34391   4.912   6.724   0.424  0.3456 -0.0125  0.3425
11279SOL    HW134392   4.897   6.691   0.335  1.1450 -0.7530  0.4726
11279SOL    HW234393   4.990   6.778   0.417  0.6290 -0.3728  0.6609
11280SOL     OW34394   3.309   1.940   3.116  0.0914  0.3467 -0.0578
11280SOL    HW134395   3.344   1.914   3.202  1.1564  0.4344 -0.4477
11280SOL    HW234396   3.232   1.885   3.104  0.0072  0.2293  0.8932
11281SOL     OW34397   5.392   6.731   6.075  0.2244  0.4514  0.2347
11281SOL    HW134398   5.338   6.669   6.123 -1.1687  0.9565 -0.6323
11281SOL    HW234399   5.424   6.681   6.000  1.1230  0.1078  0.8311
11282SOL     OW34400   6.232   2.467   0.646 -0.6137 -0.4622  0.5924
11282SOL    HW134401   6.199   2.395   0.593  2.1465 -1.8734  0.5815
11282SOL    HW234402   6.229   2.435   0.736 -1.0193  0.1209  0.7933
11283SOL     OW34403   1.628   5.011   6.181 -0.0686 -0.2646  0.0205
11283SOL    HW134404   1.629   5.103   6.207  0.1395 -0.1036 -0.5476
11283SOL    HW234405   1.669   5.010   6.094 -0.7324 -0.7891 -0.2954
11284SOL     OW34406   2.448   5.419   2.352  0.8109  0.1910  0.2881
11284SOL    HW134407   2.379   5.485   2.347  0.5578 -0.1843 -2.4284
11284SOL    HW234408   2.523   5.459   2.309  1.0050 -0.8628 -0.3910
11285SOL     OW34409   0.008   5.812   4.866  0.3835 -0.4778 -0.1257
11285SOL    HW134410  -0.072   5.834   4.819  0.6749 -1.5026 -1.1270
11285SOL    HW234411   0.017   5.718   4.857  1.9381 -0.3319 -0.4094
11286SOL     OW34412   5.701   3.171   6.144 -0.1358 -0.1598  0.0685
11286SOL    HW134413   5.609   3.143   6.152 -0.3396  0.4539 -0.0963
11286SOL    HW234414   5.702   3.260   6.179  0.2456  0.1139 -0.6119
11287SOL     OW34415   2.849   3.916   3.612  0.1567 -0.0752  0.5060
11287SOL    HW134416   2.774   3.877   3.658 -0.3205 -0.6993 -0.7512
11287SOL    HW234417   2.911   3.844   3.602  1.5461  0.7218  2.6639
11288SOL     OW34418   6.827   2.101   3.839  0.1122 -0.0746 -0.0023
11288SOL    HW134419   6.881   2.164   3.791  1.1105 -0.4825  0.5502
11288SOL    HW234420   6.760   2.154   3.882  1.3631  0.7167  1.0390
11289SOL     OW34421   4.655   2.536   7.116 -0.2277  0.8780  0.4239
11289SOL    HW134422   4.741   2.572   7.134  0.6154 -1.3558  1.2115
11289SOL    HW234423   4.636   2.562   7.025  1.0595  1.7579  0.3878
11290SOL     OW34424   4.837   2.187   5.070 -0.2684 -0.2534 -0.0963
11290SOL    HW134425   4.769   2.149   5.014 -0.0236 -0.7347 -0.0757
11290SOL    HW234426   4.810   2.278   5.082 -0.4339 -0.1993 -0.8209
11291SOL     OW34427   5.318   7.060   6.268  0.2186 -0.1750 -0.3155
11291SOL    HW134428   5.307   7.149   6.298  1.3443  0.6866 -2.2177
11291SOL    HW234429   5.291   7.062   6.176  2.2917 -1.2310 -1.0216
11292SOL     OW34430   3.066   5.130   5.933 -0.1673 -0.2423  0.5439
11292SOL    HW134431   3.032   5.188   6.001  0.5213  1.2227 -0.3110
11292SOL    HW234432   3.121   5.187   5.878 -0.5804 -1.3951 -1.1434
11293SOL     OW34433   2.959   5.775   7.282  0.1807  0.3128  0.1157
11293SOL    HW134434   2.961   5.723   7.362 -0.5172 -1.1050 -0.7546
11293SOL    HW234435   3.045   5.762   7.242  0.6503  1.2883  0.7750
11294SOL     OW34436   5.926   2.129   3.116  0.0735  1.0932  0.0173
11294SOL    HW134437   5.986   2.204   3.119  1.6113 -0.1208  1.2552
11294SOL    HW234438   5.983   2.052   3.112 -1.3931 -0.1108  1.0502
11295SOL     OW34439   0.261   3.608   6.483  0.2197  0.5083 -0.3052
11295SOL    HW134440   0.216   3.531   6.517  0.6047  0.0741 -0.7859
11295SOL    HW234441   0.306   3.644   6.560  0.0501  0.2577 -0.0842
11296SOL     OW34442   5.785   0.764   5.522 -0.4482  0.2229 -0.1056
11296SOL    HW134443   5.839   0.839   5.499 -0.5072 -0.1336 -1.4727
11296SOL    HW234444   5.752   0.785   5.610  0.4718  1.2448  0.0220
11297SOL     OW34445   0.398   1.153   4.686  0.5224 -0.0030  0.1734
11297SOL    HW134446   0.387   1.108   4.602  1.1698  3.0017 -1.6880
11297SOL    HW234447   0.311   1.189   4.705  0.6681  0.3730  0.1301
11298SOL     OW34448   1.600   2.464   5.446  0.5848 -0.1987  0.4792
11298SOL    HW134449   1.662   2.524   5.404 -0.6744  0.3866 -0.6299
11298SOL    HW234450   1.587   2.395   5.382 -0.5876  0.1682  0.2982
11299SOL     OW34451   5.705   5.642   4.331  0.2665 -0.8493 -0.2949
11299SOL    HW134452   5.769   5.695   4.379  1.1406 -1.9579 -0.1907
11299SOL    HW234453   5.666   5.702   4.268  1.0905 -0.0385 -0.0497
11300SOL     OW34454   0.803   1.512   3.970  0.3898 -0.4268 -0.2926
11300SOL    HW134455   0.873   1.534   4.032  0.1402 -1.0070  0.2028
11300SOL    HW234456   0.765   1.597   3.946  0.6925 -0.1726  0.1059
11301SOL     OW34457   1.746   2.481   5.047  0.2362 -0.3891 -0.0393
11301SOL    HW134458   1.746   2.483   4.951  2.4583  0.5168 -0.0835
11301SOL    HW234459   1.803   2.407   5.069 -1.8555 -1.8853  0.6694
11302SOL     OW34460   5.215   0.088   3.107  0.2417  0.1495  0.6250
11302SOL    HW134461   5.271   0.103   3.031 -1.5806  2.0332 -0.4417
11302SOL    HW234462   5.165   0.009   3.084 -1.5066  1.6185 -1.0130
11303SOL     OW34463   0.888   2.083   2.361  0.1319  0.2609 -1.0052
11303SOL    HW134464   0.827   2.118   2.425  0.2376  0.3559 -0.9558
11303SOL    HW234465   0.973   2.083   2.406 -0.1731 -1.9250 -0.2867
11304SOL     OW34466   0.348   6.080   0.285  0.2446 -0.0233 -0.2541
11304SOL    HW134467   0.412   6.060   0.216  0.0809 -2.5118  0.2375
11304SOL    HW234468   0.394   6.141   0.343  1.7180 -0.7424 -0.6112
11305SOL     OW34469   3.820   7.739   5.234 -0.5388 -0.2897  0.4753
11305SOL    HW134470   3.898   7.773   5.277  0.1174 -0.5638 -0.4659
11305SOL    HW234471   3.818   7.782   5.149 -1.9248  0.3949  0.8235
11306SOL     OW34472   7.023   5.080   4.977 -0.4891  0.5278 -0.7085
11306SOL    HW134473   7.098   5.032   5.012 -0.1103  0.7720 -1.1701
11306SOL    HW234474   6.948   5.046   5.026  0.0257  0.8822  0.3447
11307SOL     OW34475   2.656   7.125   4.553 -0.5720 -0.0992 -0.4643
11307SOL    HW134476   2.564   7.148   4.541 -1.0017 -0.1441  2.2272
11307SOL    HW234477   2.667   7.042   4.507 -1.9056 -0.1834 -0.6448
11308SOL     OW34478   6.174   3.405   6.515  0.0840 -0.2306  0.0403
11308SOL    HW134479   6.140   3.492   6.534  0.0182 -0.0054 -1.0530
11308SOL    HW234480   6.152   3.353   6.592  0.7727  0.8915  1.0147
11309SOL     OW34481   4.207   6.055   5.035 -0.9546  0.1793  0.2714
11309SOL    HW134482   4.184   6.021   5.121 -1.6335 -0.7143 -0.2496
11309SOL    HW234483   4.221   5.977   4.981 -1.3202  0.7188 -0.6285
11310SOL     OW34484   2.505   2.394   6.942 -0.0137 -0.2163  0.3730
11310SOL    HW134485   2.538   2.344   6.867 -0.4135  0.6366 -0.3925
11310SOL    HW234486   2.584   2.424   6.987  0.2299 -0.9678  0.4597
11311SOL     OW34487   2.885   1.762   6.206  0.3728 -0.0735  0.0122
11311SOL    HW134488   2.858   1.850   6.233 -1.3085 -0.7474  0.6528
11311SOL    HW234489   2.908   1.772   6.114 -1.3204  0.7536 -0.3609
11312SOL     OW34490   5.839   1.784   2.772 -0.0476  0.3805 -0.0065
11312SOL    HW134491   5.876   1.733   2.843  0.0742  0.1785 -0.2134
11312SOL    HW234492   5.771   1.727   2.735 -0.8499  0.8948  0.6212
11313SOL     OW34493   2.077   3.289   4.273 -0.4866 -0.2621 -0.5469
11313SOL    HW134494   2.087   3.374   4.231 -1.6807  0.5779  0.7857
11313SOL    HW234495   2.108   3.304   4.363 -0.8468 -1.1921 -0.2606
11314SOL     OW34496   4.187   3.209   3.490 -0.1539 -0.2224 -0.2099
11314SOL    HW134497   4.091   3.208   3.493 -0.1820 -0.4591 -1.0728
11314SOL    HW234498   4.209   3.166   3.408  0.6687  1.1453 -0.7379
11315SOL     OW34499   7.340   2.605   0.100  0.1132  0.0546  0.2150
11315SOL    HW134500   7.291   2.588   0.019  0.7584  1.3675 -0.4882
11315SOL    HW234501   7.279   2.582   0.170 -0.4796 -1.0580 -0.6400
11316SOL     OW34502   2.507   5.561   0.612 -0.2399 -0.2021 -0.2835
11316SOL    HW134503   2.581   5.524   0.564 -0.8680 -1.6661 -0.1821
11316SOL    HW234504   2.440   5.575   0.546 -0.3402 -0.1546 -0.1726
11317SOL     OW34505   3.426   5.729   6.270 -0.1638  0.0653 -0.0738
11317SOL    HW134506   3.334   5.709   6.287  0.6890 -4.9642 -0.1222
11317SOL    HW234507   3.435   5.724   6.175  0.1744  0.6601 -0.0789
11318SOL     OW34508   2.332   4.933   5.909 -0.3879 -0.1670  0.2585
11318SOL    HW134509   2.240   4.914   5.893 -0.9980  2.8568 -0.4740
11318SOL    HW234510   2.341   4.930   6.004 -1.4157  0.0947  0.3773
11319SOL     OW34511   2.110   3.112   2.195  1.1964 -0.0776 -0.0071
11319SOL    HW134512   2.192   3.078   2.159  0.4234 -0.2489 -1.6819
11319SOL    HW234513   2.041   3.070   2.144  0.0458  0.1497  1.2895
11320SOL     OW34514   6.592   3.110   3.800 -0.0957  0.4386  0.1996
11320SOL    HW134515   6.557   3.183   3.749  0.6951 -0.6361 -2.0514
11320SOL    HW234516   6.523   3.044   3.797 -0.1052  0.4194  0.7031
11321SOL     OW34517   2.512   6.843   0.952  0.1100 -0.5336 -0.1866
11321SOL    HW134518   2.571   6.795   0.895  1.3378  0.0238  0.5681
11321SOL    HW234519   2.541   6.934   0.946 -0.6356 -0.2529  0.2406
11322SOL     OW34520   6.567   2.770   4.073 -0.3130  0.0388  0.2425
11322SOL    HW134521   6.601   2.814   4.151 -0.1723  0.9565 -0.3219
11322SOL    HW234522   6.472   2.785   4.076 -0.2523  0.4881 -0.0078
11323SOL     OW34523   2.590   4.729   5.834  0.7276  0.0445 -0.2775
11323SOL    HW134524   2.621   4.772   5.914  0.6400  0.9746 -0.7215
11323SOL    HW234525   2.551   4.800   5.783  0.0428 -0.6827 -0.7879
11324SOL     OW34526   2.457   4.229   6.406  0.0253 -0.3406 -0.2967
11324SOL    HW134527   2.364   4.244   6.393  0.1146  0.0038 -0.5836
11324SOL    HW234528   2.492   4.218   6.318  0.0019 -2.1036 -0.1042
11325SOL     OW34529   3.608   4.416   5.332 -0.0985 -0.4234  0.5417
11325SOL    HW134530   3.628   4.366   5.253 -0.2481  0.4675 -0.0836
11325SOL    HW234531   3.689   4.416   5.382 -0.4203 -2.2634  1.1273
11326SOL     OW34532   7.415   3.256   3.267 -0.6219 -0.0613 -0.4412
11326SOL    HW134533   7.379   3.342   3.245 -0.4683  0.6737  1.9171
11326SOL    HW234534   7.358   3.223   3.336  1.8315  0.2040  1.9060
11327SOL     OW34535   0.907   0.736   7.638  0.6711  0.0693 -0.2835
11327SOL    HW134536   0.957   0.744   7.557  1.3604 -1.4497 -0.0224
11327SOL    HW234537   0.947   0.801   7.696  1.0277  0.2577 -0.7255
11328SOL     OW34538   6.812   4.808   7.651 -0.0186  0.5641 -0.6383
11328SOL    HW134539   6.774   4.821   7.564 -1.8954 -1.6988 -0.2360
11328SOL    HW234540   6.863   4.728   7.643 -1.8434 -0.8251  0.7490
11329SOL     OW34541   2.016   7.744   7.109  0.3764  0.4114  0.5024
11329SOL    HW134542   2.095   7.693   7.091  0.6014  0.4785  1.2541
11329SOL    HW234543   1.955   7.719   7.040  0.4914 -0.8536  0.8469
11330SOL     OW34544   2.844   0.437   1.323  0.3037 -0.4796  0.1023
11330SOL    HW134545   2.842   0.501   1.394 -1.0039 -0.6140  0.2119
11330SOL    HW234546   2.768   0.380   1.339  0.9879 -1.5847 -0.4292
11331SOL     OW34547   3.671   0.903   1.502  0.0789  0.1103 -0.3502
11331SOL    HW134548   3.706   0.925   1.588 -0.3168 -0.7521  0.0499
11331SOL    HW234549   3.747   0.904   1.443  0.3047  0.9877 -0.0582
11332SOL     OW34550   6.363   3.765   4.735 -0.2302 -0.5982 -0.3877
11332SOL    HW134551   6.373   3.751   4.641  0.4898 -1.8267 -0.1573
11332SOL    HW234552   6.438   3.819   4.760 -1.6386  1.6688 -0.8626
11333SOL     OW34553   4.748   6.351   0.614  0.2383 -0.1731 -0.1123
11333SOL    HW134554   4.766   6.442   0.636  0.6217 -0.2749  0.0091
11333SOL    HW234555   4.707   6.355   0.528 -3.6853  0.4406  1.5759
11334SOL     OW34556   6.346   5.541   2.274  0.2155  0.0053  0.5823
11334SOL    HW134557   6.347   5.466   2.215 -1.2289 -0.5575  1.2268
11334SOL    HW234558   6.259   5.579   2.263  0.4728  0.8283  1.2182
11335SOL     OW34559   5.541   4.418   0.960  0.3903  0.4389 -0.0788
11335SOL    HW134560   5.617   4.363   0.978  1.7043  1.2132 -2.6569
11335SOL    HW234561   5.577   4.494   0.914 -1.7708  1.6607  0.1156
11336SOL     OW34562   3.036   7.003   4.647  0.6374 -0.6607 -0.4609
11336SOL    HW134563   3.055   6.952   4.569  0.2666 -0.9389 -0.3702
11336SOL    HW234564   2.997   6.941   4.709  0.0870 -0.2570 -0.3882
11337SOL     OW34565   4.631   7.288   3.561 -0.0469  0.0616  0.3392
11337SOL    HW134566   4.689   7.292   3.485 -0.6933  1.0052 -0.1211
11337SOL    HW234567   4.672   7.346   3.625  1.8049 -2.5470  1.7000
11338SOL     OW34568   3.205   5.089   7.520 -0.2805  0.2336  0.3236
11338SOL    HW134569   3.211   5.184   7.510 -0.0733  0.4373  2.0511
11338SOL    HW234570   3.166   5.077   7.606  0.6121 -1.2565  0.5470
11339SOL     OW34571   5.166   5.963   4.632 -0.2820 -0.5059  0.7612
11339SOL    HW134572   5.110   5.897   4.592  0.0713 -0.9853  1.0471
11339SOL    HW234573   5.225   5.913   4.688 -0.7699  0.1533  1.8850
11340SOL     OW34574   6.467   6.860   2.711 -0.2130 -0.4291  0.4179
11340SOL    HW134575   6.378   6.832   2.732  0.3759  0.0446  4.2787
11340SOL    HW234576   6.521   6.784   2.733  0.5349 -0.0356 -0.0137
11341SOL     OW34577   2.835   6.187   0.804 -0.2443 -0.7819  0.6123
11341SOL    HW134578   2.818   6.094   0.814 -0.5621 -0.8337 -0.3130
11341SOL    HW234579   2.771   6.229   0.862 -1.3564 -1.0902 -0.3465
11342SOL     OW34580   3.441   6.973   0.554  0.1978 -0.3435  0.2805
11342SOL    HW134581   3.426   6.881   0.577 -0.6680 -0.2643  0.0577
11342SOL    HW234582   3.360   7.002   0.513  0.3828  0.5842  0.5318
11343SOL     OW34583   4.901   1.383   0.241  0.0210  0.5163  0.0339
11343SOL    HW134584   4.818   1.430   0.252  0.2790  0.6178  1.7249
11343SOL    HW234585   4.913   1.336   0.323  0.5927 -1.2413 -0.9971
11344SOL     OW34586   2.309   4.885   0.283  0.5330  0.6112 -0.0363
11344SOL    HW134587   2.270   4.824   0.345  0.0939 -1.9427 -2.5724
11344SOL    HW234588   2.236   4.939   0.252  0.7003  1.6785  1.3424
11345SOL     OW34589   0.091   4.145   2.524  0.6339 -0.4387 -0.2079
11345SOL    HW134590   0.078   4.061   2.569 -0.8652 -1.0830 -1.7272
11345SOL    HW234591   0.024   4.146   2.456  0.1893  2.3167  0.1786
11346SOL     OW34592   5.963   3.587   0.372  0.0929  0.5616 -0.5669
11346SOL    HW134593   6.013   3.506   0.359  0.5092  0.8035 -0.5034
11346SOL    HW234594   5.873   3.557   0.387  0.5290  0.0036  1.1827
11347SOL     OW34595   5.455   4.103   0.296  0.6156  0.5462 -0.1015
11347SOL    HW134596   5.361   4.100   0.280  0.4142  4.2773 -0.5558
11347SOL    HW234597   5.462   4.117   0.391  0.6482  1.3142 -0.2150
11348SOL     OW34598   4.765   2.124   1.640 -0.4836  0.5358 -0.3915
11348SOL    HW134599   4.743   2.194   1.702  0.1649 -0.9193  1.5601
11348SOL    HW234600   4.687   2.069   1.636 -0.0568 -0.1265  0.2148
11349SOL     OW34601   6.455   5.781   6.004  0.4051 -0.3372 -0.0539
11349SOL    HW134602   6.435   5.826   6.086 -0.4814 -0.8007 -0.0073
11349SOL    HW234603   6.520   5.837   5.961 -0.8635  1.1403 -0.1272
11350SOL     OW34604   5.850   2.113   5.264 -0.3976  0.2147  0.0791
11350SOL    HW134605   5.777   2.117   5.202 -0.3180 -1.2380 -0.1381
11350SOL    HW234606   5.811   2.134   5.349 -1.4678 -2.1833  0.2537
11351SOL     OW34607   0.418   1.684   1.409 -0.8254  0.1888 -0.7044
11351SOL    HW134608   0.417   1.590   1.428  0.0191  0.1506 -0.8073
11351SOL    HW234609   0.495   1.717   1.456 -0.1299  0.5263 -2.0323
11352SOL     OW34610   4.195   3.161   1.065 -0.3362 -0.0298 -0.0143
11352SOL    HW134611   4.280   3.168   1.023 -0.1499 -1.6869  0.0197
11352SOL    HW234612   4.208   3.198   1.152  0.2683  0.0101 -0.1188
11353SOL     OW34613   5.146   3.828   2.246 -0.1285 -0.4213 -0.4165
11353SOL    HW134614   5.129   3.735   2.256 -0.2429 -0.4422 -0.7872
11353SOL    HW234615   5.113   3.868   2.327 -0.4412 -0.6542 -0.4289
11354SOL     OW34616   2.169   5.653   2.602 -0.3834  0.2721  0.3227
11354SOL    HW134617   2.189   5.696   2.519  2.8923  0.8652  1.2707
11354SOL    HW234618   2.073   5.653   2.607 -0.6343  2.3877 -2.3136
11355SOL     OW34619   1.780   5.821   3.160 -0.7443 -0.0016 -0.4724
11355SOL    HW134620   1.836   5.815   3.238 -1.3550  0.5494  0.0252
11355SOL    HW234621   1.798   5.741   3.111 -0.3067 -0.3325  0.2075
11356SOL     OW34622   6.254   2.378   5.400  0.0794  0.2750 -0.6368
11356SOL    HW134623   6.334   2.428   5.409  0.6342 -0.2574 -2.3044
11356SOL    HW234624   6.223   2.366   5.490  0.0380  3.3412 -0.1569
11357SOL     OW34625   6.066   6.598   6.356 -0.3024  0.6426  0.0842
11357SOL    HW134626   5.979   6.625   6.386 -0.8141 -0.5725 -0.2566
11357SOL    HW234627   6.060   6.598   6.260 -1.1390 -2.9552 -0.0065
11358SOL     OW34628   0.432   1.214   1.286 -0.2499 -0.2341 -0.3770
11358SOL    HW134629   0.471   1.142   1.236 -1.1248 -0.3207 -0.9581
11358SOL    HW234630   0.454   1.194   1.377  1.2800 -0.1265 -0.6890
11359SOL     OW34631   7.094   1.756   5.525 -0.2331  0.5864  0.3466
11359SOL    HW134632   7.065   1.751   5.434  1.3281  0.9753 -0.1913
11359SOL    HW234633   7.171   1.699   5.529 -0.0034  0.9510  1.3120
11360SOL     OW34634   3.818   2.071   7.387 -0.1148  0.0421  0.0043
11360SOL    HW134635   3.889   2.087   7.449 -0.5114 -0.0279  0.4811
11360SOL    HW234636   3.739   2.081   7.438 -0.4388 -0.4874 -0.3861
11361SOL     OW34637   2.465   5.124   3.171  0.2453 -0.0618  0.0300
11361SOL    HW134638   2.405   5.072   3.225  1.3279 -0.8622  0.5017
11361SOL    HW234639   2.519   5.171   3.235 -1.2857  2.4109 -0.3733
11362SOL     OW34640   3.754   5.194   0.627 -0.2661  0.2466 -0.1022
11362SOL    HW134641   3.763   5.165   0.536  0.8890  2.5756 -0.8102
11362SOL    HW234642   3.662   5.216   0.636 -0.2318  0.8333 -1.0149
11363SOL     OW34643   1.069   7.740   5.227 -0.4237 -0.6168  0.4526
11363SOL    HW134644   1.112   7.825   5.223  1.3796 -1.3809  1.9042
11363SOL    HW234645   1.053   7.717   5.136 -0.7789  1.1558  0.0264
11364SOL     OW34646   4.656   0.461   6.035  0.3658  0.2749  0.4719
11364SOL    HW134647   4.654   0.430   6.126  0.3601  1.7327  0.9869
11364SOL    HW234648   4.733   0.418   5.998 -0.3872 -1.4089  0.7445
11365SOL     OW34649   3.751   4.693   7.175  0.1943  0.0209 -0.1289
11365SOL    HW134650   3.814   4.643   7.228  0.3455  1.1372  0.7828
11365SOL    HW234651   3.682   4.630   7.154  0.5776 -0.6815  0.6631
11366SOL     OW34652   3.639   0.737   4.196 -0.0057  0.1811  0.1202
11366SOL    HW134653   3.661   0.673   4.128 -1.0544 -0.8720  0.7168
11366SOL    HW234654   3.623   0.819   4.149  0.1553 -0.3133 -0.8078
11367SOL     OW34655   0.633   0.124   5.729 -0.6455 -0.6113  0.3519
11367SOL    HW134656   0.580   0.202   5.743  0.1932 -0.1557  1.0594
11367SOL    HW234657   0.652   0.091   5.816  1.1755 -0.1045  0.1904
11368SOL     OW34658   5.007   0.753   6.418  0.7240 -0.2890 -0.1741
11368SOL    HW134659   5.089   0.771   6.464  0.4187 -0.4231  0.4297
11368SOL    HW234660   5.013   0.805   6.337  1.2615 -0.0482  0.0148
11369SOL     OW34661   2.809   0.074   1.898  1.3882 -0.4444 -0.2246
11369SOL    HW134662   2.763   0.025   1.965 -0.8710 -1.6322 -2.5020
11369SOL    HW234663   2.889   0.024   1.883  1.2823 -0.8941  0.6255
11370SOL     OW34664   4.379   5.710   2.567 -0.6705  0.1057  0.5786
11370SOL    HW134665   4.368   5.653   2.643 -1.4963 -0.7088 -0.1241
11370SOL    HW234666   4.465   5.751   2.580  0.5548 -2.2547  0.5266
11371SOL     OW34667   0.516   6.995   5.159  0.3682  0.2084  0.1169
11371SOL    HW134668   0.593   6.997   5.102  1.1292  1.3678  1.1212
11371SOL    HW234669   0.461   6.926   5.123 -0.1689  2.2025 -3.2083
11372SOL     OW34670   1.571   6.821   2.034 -0.2136  0.0311 -0.2220
11372SOL    HW134671   1.605   6.743   1.990  2.0634  0.5079  0.5415
11372SOL    HW234672   1.489   6.793   2.074  0.1085 -1.7075 -0.7112
11373SOL     OW34673   5.468   0.350   5.439 -0.1076 -0.0351 -0.1966
11373SOL    HW134674   5.441   0.265   5.474  0.4080 -0.1526 -0.0699
11373SOL    HW234675   5.519   0.328   5.361  1.5276  0.0541  0.7993
11374SOL     OW34676   0.544   0.416   5.737  0.1010 -0.2744 -0.0002
11374SOL    HW134677   0.551   0.426   5.832  2.6324 -0.0164 -0.1659
11374SOL    HW234678   0.493   0.492   5.709 -0.2489 -0.0845  1.0794
11375SOL     OW34679   4.453   2.490   2.515  0.1641  0.3209  0.0184
11375SOL    HW134680   4.358   2.496   2.507  0.1757  0.4569 -0.0092
11375SOL    HW234681   4.473   2.527   2.600  0.3207  1.5421 -0.5389
11376SOL     OW34682   2.526   7.317   5.591  0.5193 -0.9177  0.0179
11376SOL    HW134683   2.513   7.409   5.566  0.0232 -0.6643  1.1690
11376SOL    HW234684   2.439   7.286   5.616  0.9476 -1.2294  1.1728
11377SOL     OW34685   7.284   2.436   7.232  0.2853  0.6737 -0.1075
11377SOL    HW134686   7.240   2.369   7.285  3.9534 -1.7013  0.3368
11377SOL    HW234687   7.261   2.414   7.142 -0.4641  0.3425  0.1531
11378SOL     OW34688   6.727   3.918   3.975 -0.0403 -0.1278  0.4118
11378SOL    HW134689   6.658   3.860   3.942  1.0729 -1.8888  1.0936
11378SOL    HW234690   6.719   3.913   4.070  1.2063 -0.5671  0.4999
11379SOL     OW34691   7.353   0.920   0.151  0.4253 -0.7231  0.4631
11379SOL    HW134692   7.418   0.862   0.190  0.9440 -1.2038 -1.0362
11379SOL    HW234693   7.269   0.876   0.167  0.8989 -2.6549 -1.7748
11380SOL     OW34694   2.649   3.089   2.120 -0.0374  0.2239 -0.5526
11380SOL    HW134695   2.714   3.155   2.144 -0.0200  0.1294 -0.3421
11380SOL    HW234696   2.701   3.014   2.091  0.0295 -0.8001  1.9974
11381SOL     OW34697   2.360   4.419   5.341 -0.2456  0.5242  0.5181
11381SOL    HW134698   2.343   4.509   5.367 -0.5244  0.9476 -1.0294
11381SOL    HW234699   2.277   4.389   5.304  0.0643 -0.0949  0.3041
11382SOL     OW34700   7.281   2.187   6.476  0.4698 -0.1981 -0.0685
11382SOL    HW134701   7.281   2.113   6.537 -0.8576  0.0573  0.2708
11382SOL    HW234702   7.279   2.265   6.533  0.0962  0.0569 -0.4211
11383SOL     OW34703   1.107   4.277   0.210 -0.8803  0.0056 -0.1574
11383SOL    HW134704   1.097   4.371   0.196 -0.4509  0.1464  0.4247
11383SOL    HW234705   1.193   4.268   0.251 -0.6200 -0.7071 -0.8192
11384SOL     OW34706   2.136   1.299   5.105  0.5468  0.3786 -0.6950
11384SOL    HW134707   2.131   1.344   5.190 -0.4684  1.4850 -1.2991
11384SOL    HW234708   2.046   1.272   5.087  0.6186  0.7741 -1.7192
11385SOL     OW34709   0.278   4.846   4.173 -0.0145  0.4858  0.5301
11385SOL    HW134710   0.336   4.788   4.222  1.0345 -0.2516 -1.4506
11385SOL    HW234711   0.300   4.934   4.203  1.7496  0.1801  0.2599
11386SOL     OW34712   4.792   7.473   1.933 -0.6794  0.1726 -0.7855
11386SOL    HW134713   4.823   7.413   2.001 -1.1691 -0.2330 -0.9169
11386SOL    HW234714   4.716   7.429   1.894 -2.0517  1.5529  0.1869
11387SOL     OW34715   4.985   6.424   0.945 -0.2522 -0.0303 -0.2091
11387SOL    HW134716   4.940   6.374   1.013 -0.6343 -0.2053 -0.5938
11387SOL    HW234717   4.925   6.496   0.924 -0.0657  0.1151 -0.2511
11388SOL     OW34718   6.779   1.372   2.139  0.2099  0.5619  0.0147
11388SOL    HW134719   6.815   1.422   2.213 -0.8948 -0.1112  1.0515
11388SOL    HW234720   6.713   1.315   2.179  0.0751 -0.3298 -1.4114
11389SOL     OW34721   5.164   3.043   3.767 -0.5454 -0.0217  0.6161
11389SOL    HW134722   5.204   3.081   3.689  0.6937  0.8511  1.6206
11389SOL    HW234723   5.086   3.096   3.782 -1.3983 -0.8854 -0.6155
11390SOL     OW34724   3.798   4.486   5.976 -0.1400 -0.0525 -0.0779
11390SOL    HW134725   3.780   4.523   5.890  0.4801 -0.7101 -0.4979
11390SOL    HW234726   3.893   4.484   5.982 -0.1519 -1.6219 -0.0959
11391SOL     OW34727   1.343   6.901   7.009 -0.0320  0.3200 -0.7087
11391SOL    HW134728   1.286   6.901   7.087  1.1271  0.9756  0.1756
11391SOL    HW234729   1.338   6.812   6.976  1.6694 -0.8741  1.8550
11392SOL     OW34730   1.787   6.077   2.206  0.2473  0.4573 -0.3103
11392SOL    HW134731   1.728   6.006   2.233 -0.6081  1.2646  0.0166
11392SOL    HW234732   1.802   6.062   2.113  1.8443 -1.3853  0.1543
11393SOL     OW34733   7.585   3.069   7.241 -0.0588 -0.1911 -0.0039
11393SOL    HW134734   7.608   3.138   7.303 -1.0459  0.5202 -0.4037
11393SOL    HW234735   7.501   3.036   7.273  0.0009 -0.6331 -0.2978
11394SOL     OW34736   2.301   3.856   1.126 -0.1276 -0.1466 -0.6324
11394SOL    HW134737   2.264   3.932   1.082 -1.8530 -1.5313 -1.6824
11394SOL    HW234738   2.310   3.883   1.218 -1.7573  0.9510 -0.7684
11395SOL     OW34739   1.887   2.276   5.181 -0.2811  0.4821 -0.0755
11395SOL    HW134740   1.818   2.214   5.203  1.6106 -1.1752  1.5633
11395SOL    HW234741   1.941   2.231   5.116 -0.4044  1.5195 -0.9147
11396SOL     OW34742   3.055   4.292   6.704 -0.5674  1.2802 -0.1313
11396SOL    HW134743   3.022   4.296   6.793  0.3276  0.4869  0.2653
11396SOL    HW234744   3.112   4.369   6.696  1.1273  0.1926  0.7776
11397SOL     OW34745   5.911   2.349   7.339  0.0913  0.2213  0.0044
11397SOL    HW134746   5.818   2.368   7.345  0.3305  1.0308  1.8366
11397SOL    HW234747   5.916   2.267   7.290 -1.7246 -0.9201  1.5951
11398SOL     OW34748   7.335   4.259   6.144 -0.8451  0.6653  0.5016
11398SOL    HW134749   7.373   4.247   6.231 -0.0331 -0.3086  0.0422
11398SOL    HW234750   7.269   4.191   6.136  0.3676 -0.4908 -0.2946
11399SOL     OW34751   4.013   5.778   3.983 -0.2302 -0.0300  0.0188
11399SOL    HW134752   3.946   5.808   3.922  0.1570  1.9375  0.4889
11399SOL    HW234753   4.080   5.846   3.981  1.2404 -1.4010  0.4052
11400SOL     OW34754   5.377   6.836   0.273 -0.0765  0.8199 -0.0802
11400SOL    HW134755   5.471   6.822   0.268  0.0620  1.9296 -1.1386
11400SOL    HW234756   5.350   6.852   0.182 -1.0473  1.8469  0.3661
11401SOL     OW34757   4.400   6.084   0.932 -0.3496  0.1884 -0.0495
11401SOL    HW134758   4.357   6.093   1.017  1.2469 -0.1739  0.8557
11401SOL    HW234759   4.453   6.163   0.924 -1.7980  1.0509 -1.5431
11402SOL     OW34760   0.424   5.520   4.478  0.6803  0.1313  0.6648
11402SOL    HW134761   0.331   5.502   4.464  0.5153  1.7065 -0.5649
11402SOL    HW234762   0.463   5.510   4.391  1.6280 -0.2366  1.1184
11403SOL     OW34763   1.192   1.958   6.180  0.7857  0.7317 -0.0508
11403SOL    HW134764   1.138   2.036   6.169 -0.3549  0.0126  0.2694
11403SOL    HW234765   1.140   1.887   6.140  1.2680 -0.0619  0.7020
11404SOL     OW34766   4.731   3.446   5.752  0.0225  0.0581  0.5425
11404SOL    HW134767   4.707   3.492   5.672  0.4933 -0.5530  0.0419
11404SOL    HW234768   4.735   3.514   5.819  0.1333  0.6481 -0.0625
11405SOL     OW34769   4.001   1.730   1.596  0.0431  0.8267  0.0820
11405SOL    HW134770   4.034   1.813   1.562 -0.4760  0.5206 -1.2726
11405SOL    HW234771   3.907   1.745   1.606  0.0049  0.5177  0.1829
11406SOL     OW34772   3.266   2.350   6.644 -0.3016 -0.0501 -0.3968
11406SOL    HW134773   3.201   2.307   6.699 -0.4834  0.8809  0.1322
11406SOL    HW234774   3.272   2.439   6.678  1.5171 -0.2057 -0.2023
11407SOL     OW34775   5.885   3.716   1.673  0.5801  0.7409  0.0345
11407SOL    HW134776   5.944   3.670   1.733 -0.2445 -2.0697 -1.1411
11407SOL    HW234777   5.908   3.683   1.587 -0.5337  2.1012 -0.8333
11408SOL     OW34778   0.476   0.187   2.463 -0.3295 -0.2470  0.2600
11408SOL    HW134779   0.538   0.245   2.507 -0.8756  0.8561 -0.3921
11408SOL    HW234780   0.478   0.107   2.515 -1.7167  1.3350  2.9493
11409SOL     OW34781   4.796   2.619   1.182  0.2758  0.3813  0.4065
11409SOL    HW134782   4.738   2.558   1.229 -0.9256  2.0499  1.1809
11409SOL    HW234783   4.743   2.649   1.108  1.0427  0.1530 -0.2537
11410SOL     OW34784   0.737   4.000   6.164 -0.0517  0.3379  0.3135
11410SOL    HW134785   0.761   3.985   6.072 -0.5996 -1.4271  0.4135
11410SOL    HW234786   0.642   3.991   6.165 -0.0393  0.2397  1.0766
11411SOL     OW34787   0.347   2.728   3.033  0.1976 -0.1449 -0.1496
11411SOL    HW134788   0.401   2.793   3.077 -0.2478  1.2301 -1.5560
11411SOL    HW234789   0.397   2.706   2.953  0.2425 -1.3916  0.1956
11412SOL     OW34790   0.891   1.486   3.044  0.2986 -0.2471  0.2810
11412SOL    HW134791   0.945   1.525   2.975 -0.1261  1.3017  0.7930
11412SOL    HW234792   0.860   1.560   3.095  0.8590 -1.3802  2.3556
11413SOL     OW34793   2.297   2.705   1.363  0.2725  0.1748 -0.0251
11413SOL    HW134794   2.283   2.800   1.361 -4.1958 -0.2495  0.3856
11413SOL    HW234795   2.263   2.678   1.448  1.1740 -1.8516 -0.2613
11414SOL     OW34796   0.584   2.050   4.973  0.1879 -0.0201  0.0231
11414SOL    HW134797   0.571   1.970   5.025  0.4854  0.5251  0.9603
11414SOL    HW234798   0.515   2.109   5.004 -1.9818 -0.8594 -2.7354
11415SOL     OW34799   7.180   1.379   5.742  0.0148 -0.9885  0.3288
11415SOL    HW134800   7.196   1.291   5.776  2.0439 -1.0274 -0.5943
11415SOL    HW234801   7.102   1.369   5.687  0.6032 -2.3877 -0.3065
11416SOL     OW34802   5.999   2.024   2.393  0.2492  0.2608  0.2189
11416SOL    HW134803   6.008   1.955   2.459  1.0662 -0.5322 -0.6839
11416SOL    HW234804   5.977   1.976   2.312  0.7087  1.0701 -0.3960
11417SOL     OW34805   2.426   0.183   6.266  0.5533  0.0527 -0.4193
11417SOL    HW134806   2.451   0.096   6.236  0.3224  0.4525 -1.8424
11417SOL    HW234807   2.332   0.187   6.253  0.2466 -0.1383  1.4542
11418SOL     OW34808   0.463   3.584   1.397  0.6590 -0.2981 -0.0656
11418SOL    HW134809   0.397   3.529   1.439 -0.3032  0.7722 -0.1298
11418SOL    HW234810   0.445   3.575   1.303 -1.0930  1.9198 -0.0412
11419SOL     OW34811   1.448   5.519   6.454  0.3292 -0.0259  0.0378
11419SOL    HW134812   1.496   5.440   6.477  0.8091  0.3382  0.3080
11419SOL    HW234813   1.516   5.580   6.423  0.0552  0.5246  0.5131
11420SOL     OW34814   4.783   3.125   6.309 -0.2110 -0.3674  0.2398
11420SOL    HW134815   4.870   3.097   6.282  0.1840  0.2012  0.8910
11420SOL    HW234816   4.784   3.119   6.405 -0.9195 -0.4415  0.2519
11421SOL     OW34817   6.169   7.256   0.587  0.1457 -0.0680 -0.3104
11421SOL    HW134818   6.221   7.288   0.660 -1.2210  0.3897  0.4932
11421SOL    HW234819   6.108   7.193   0.627 -0.4648  0.0148 -1.0908
11422SOL     OW34820   0.150   3.457   7.246 -0.5870  0.4406 -0.9062
11422SOL    HW134821   0.160   3.373   7.291 -1.4610 -0.0716 -1.6267
11422SOL    HW234822   0.240   3.485   7.227 -0.2348  0.2948  0.4305
11423SOL     OW34823   0.605   2.579   2.953 -0.7033  0.8306 -0.0678
11423SOL    HW134824   0.692   2.618   2.939 -1.4479  2.1003 -1.5315
11423SOL    HW234825   0.604   2.502   2.896  0.0990 -0.3176  1.3987
11424SOL     OW34826   6.218   3.320   4.207  0.0038 -0.0966  0.0537
11424SOL    HW134827   6.240   3.343   4.116 -2.8567 -3.2466 -1.6601
11424SOL    HW234828   6.139   3.370   4.226  0.3574  0.2294  0.6914
11425SOL     OW34829   1.071   7.244   1.807 -0.2823 -0.4100  0.2209
11425SOL    HW134830   1.013   7.274   1.736 -1.1201 -0.2246  0.9706
11425SOL    HW234831   1.070   7.316   1.870  0.1879 -0.7169  0.5762
11426SOL     OW34832   1.904   0.566   4.889  0.4239  0.2801  0.7638
11426SOL    HW134833   1.919   0.525   4.804 -0.5055 -0.0809  0.7659
11426SOL    HW234834   1.894   0.493   4.950 -2.1283  0.4328  0.6171
11427SOL     OW34835   4.261   6.141   2.817  0.3949 -0.1460 -0.4416
11427SOL    HW134836   4.264   6.046   2.826  0.8611 -0.2167 -1.2635
11427SOL    HW234837   4.353   6.169   2.824  0.1767  0.3380  0.6822
11428SOL     OW34838   3.525   0.007   2.026 -0.3188 -0.3252  0.0611
11428SOL    HW134839   3.434  -0.023   2.029 -0.9731  1.6125  0.9269
11428SOL    HW234840   3.522   0.091   1.981  0.7459  0.6798  1.7698
11429SOL     OW34841   4.526   5.183   1.268 -0.6203  0.3569  0.1550
11429SOL    HW134842   4.616   5.197   1.296 -0.5669 -0.0626  0.2008
11429SOL    HW234843   4.533   5.149   1.179 -0.8173  2.6196 -0.7958
11430SOL     OW34844   6.479   3.731   0.872 -0.3222 -0.0716  0.0301
11430SOL    HW134845   6.422   3.793   0.918 -0.3209  0.9025 -1.2172
11430SOL    HW234846   6.568   3.763   0.889 -0.1947 -0.8385  0.9058
11431SOL     OW34847   3.711   6.247   1.015  0.6089  0.3569 -0.0683
11431SOL    HW134848   3.788   6.191   1.021  0.2854  0.0116  1.3348
11431SOL    HW234849   3.704   6.269   0.923 -0.3538 -3.5371 -1.1180
11432SOL     OW34850   3.404   0.855   5.977 -0.5050  0.2113  0.0123
11432SOL    HW134851   3.344   0.929   5.971  0.2737  0.9287  0.6789
11432SOL    HW234852   3.368   0.789   5.918 -1.1262  1.1910 -0.7313
11433SOL     OW34853   5.795   4.590   6.305  0.1179  0.2784 -0.1749
11433SOL    HW134854   5.872   4.555   6.351  0.7969  1.1411 -0.6385
11433SOL    HW234855   5.724   4.529   6.328  0.8577 -0.3429  0.5239
11434SOL     OW34856   4.755   7.579   2.500  0.2825  0.2299 -0.0583
11434SOL    HW134857   4.756   7.660   2.449  0.5499 -0.4295 -1.1471
11434SOL    HW234858   4.701   7.599   2.576 -1.7419  0.7237 -1.5168
11435SOL     OW34859   0.924   1.233   7.319 -0.2412 -0.4793 -0.5907
11435SOL    HW134860   0.944   1.326   7.330  2.2667 -0.9159 -0.8674
11435SOL    HW234861   0.927   1.197   7.407 -0.8795 -0.3755 -0.5214
11436SOL     OW34862   1.991   3.230   2.437 -0.3526 -0.4571  0.2387
11436SOL    HW134863   2.035   3.217   2.352 -2.2892 -0.3307 -0.8358
11436SOL    HW234864   2.041   3.299   2.479  0.2766 -0.0532 -1.0961
11437SOL     OW34865   7.653   5.134   5.285  0.2740 -0.2750 -0.3387
11437SOL    HW134866   7.662   5.157   5.192  0.3535  0.1609 -0.2240
11437SOL    HW234867   7.701   5.051   5.294 -0.8617 -1.0420 -0.9683
11438SOL     OW34868   7.010   0.733   5.890  0.0419  0.1242  0.3745
11438SOL    HW134869   6.956   0.758   5.815  0.5417  0.0763 -0.0054
11438SOL    HW234870   7.071   0.806   5.901 -1.5123  1.2456  2.2064
11439SOL     OW34871   7.100   5.889   3.980 -0.1258  0.0334 -0.3105
11439SOL    HW134872   7.092   5.837   4.060  0.3853  0.0438 -0.2468
11439SOL    HW234873   7.153   5.965   4.006  0.3463 -0.1428 -0.7337
11440SOL     OW34874   6.365   5.430   4.505 -0.2423  0.3569  0.1696
11440SOL    HW134875   6.424   5.355   4.508 -0.7263 -0.1275 -1.2417
11440SOL    HW234876   6.299   5.405   4.440 -1.4700  1.2562  1.0377
11441SOL     OW34877   4.653   1.916   3.474  0.3430 -0.1033 -0.2386
11441SOL    HW134878   4.643   1.992   3.417 -1.6553 -0.2216 -0.1156
11441SOL    HW234879   4.724   1.939   3.533  0.5278  1.1891 -0.9322
11442SOL     OW34880   1.247   5.927   3.554  0.1447 -0.2813  0.1799
11442SOL    HW134881   1.289   5.857   3.505  1.5011  0.2372  0.5530
11442SOL    HW234882   1.275   5.914   3.644 -0.3288  0.2118  0.4041
11443SOL     OW34883   0.723   5.753   6.051 -0.1128  0.2332 -0.1204
11443SOL    HW134884   0.727   5.667   6.092 -0.7846  0.8230  1.2597
11443SOL    HW234885   0.629   5.774   6.049  0.1198  1.5789  1.0706
11444SOL     OW34886   6.333   3.348   0.101 -0.6660  0.0076 -0.5289
11444SOL    HW134887   6.306   3.440   0.097  0.3044  0.3417  0.0890
11444SOL    HW234888   6.393   3.338   0.028  0.1976  0.2247  0.1273
11445SOL     OW34889   3.026   6.514   7.000  0.2260 -0.3047  0.0510
11445SOL    HW134890   2.983   6.544   6.920 -1.8488  1.3743  1.6510
11445SOL    HW234891   3.051   6.595   7.045  1.0809 -1.1995  1.2393
11446SOL     OW34892   2.669   4.914   4.200 -0.0224 -0.3490 -0.4853
11446SOL    HW134893   2.727   4.911   4.277  0.5754  3.0468 -0.6635
11446SOL    HW234894   2.587   4.873   4.231  0.7161 -0.4849  1.4671
11447SOL     OW34895   5.042   3.057   6.267  0.1387  0.3393  0.4503
11447SOL    HW134896   5.123   3.027   6.309  0.1186 -0.4374 -0.0461
11447SOL    HW234897   5.070   3.128   6.210  0.6254 -0.4599 -0.3432
11448SOL     OW34898   4.294   7.401   7.247 -0.1415  0.0616  0.6507
11448SOL    HW134899   4.383   7.392   7.214 -0.1035  3.5465 -0.5416
11448SOL    HW234900   4.279   7.321   7.298  2.9416 -1.4918 -0.6433
11449SOL     OW34901   6.738   7.455   5.945 -0.1006  0.1364  0.0357
11449SOL    HW134902   6.785   7.522   5.895 -0.8784  1.2001  0.6726
11449SOL    HW234903   6.795   7.438   6.020 -1.3060  2.5590  1.6332
11450SOL     OW34904   7.417   1.682   1.961 -0.0572  0.2105  0.1755
11450SOL    HW134905   7.348   1.708   2.023  1.0193  4.4110 -0.0513
11450SOL    HW234906   7.499   1.704   2.006  0.8133  1.7109 -1.9559
11451SOL     OW34907   4.353   2.168   2.498  0.1963 -0.0375 -0.5387
11451SOL    HW134908   4.306   2.236   2.449 -0.9542  0.1986  0.8272
11451SOL    HW234909   4.347   2.195   2.589 -0.3928 -2.0152  0.0685
11452SOL     OW34910   5.299   6.707   5.628 -0.0598 -0.3064 -0.6313
11452SOL    HW134911   5.315   6.613   5.618  0.4193 -0.4400  1.0710
11452SOL    HW234912   5.362   6.736   5.693 -0.6634  1.0716 -0.6057
11453SOL     OW34913   4.509   7.516   3.183 -0.6934 -0.3042 -0.0826
11453SOL    HW134914   4.490   7.469   3.102 -1.9406  1.0190 -0.6041
11453SOL    HW234915   4.428   7.511   3.233 -0.7418  0.9746 -0.0069
11454SOL     OW34916   6.909   5.999   2.007 -0.1354  0.3959 -0.3899
11454SOL    HW134917   6.987   5.948   2.028 -0.3841 -0.0744 -0.6156
11454SOL    HW234918   6.836   5.939   2.022 -0.5364  1.1575  0.8897
11455SOL     OW34919   0.416   5.445   6.063  0.0404  0.2502 -0.0258
11455SOL    HW134920   0.369   5.419   5.985  0.0625  3.0223 -1.0741
11455SOL    HW234921   0.350   5.447   6.132 -0.2370 -0.9375 -0.2323
11456SOL     OW34922   5.564   2.132   3.767  0.1940 -0.1248  0.3960
11456SOL    HW134923   5.493   2.161   3.825 -0.4886 -1.0925  0.0798
11456SOL    HW234924   5.642   2.177   3.800 -1.0818  3.9073 -1.3969
11457SOL     OW34925   5.719   0.880   1.726 -0.4100 -0.1355 -0.0327
11457SOL    HW134926   5.637   0.915   1.691 -0.5645 -0.9525 -0.5224
11457SOL    HW234927   5.773   0.957   1.743 -0.4444  0.3228 -1.8115
11458SOL     OW34928   3.933   6.260   5.785  0.3691 -0.1121 -0.1754
11458SOL    HW134929   3.860   6.317   5.810  0.0283 -0.4433 -0.4216
11458SOL    HW234930   3.908   6.173   5.816  0.7426 -0.1945 -0.0963
11459SOL     OW34931   7.286   3.482   0.623 -0.4592 -0.4727  0.0132
11459SOL    HW134932   7.221   3.419   0.655  2.0804 -1.8862  3.0023
11459SOL    HW234933   7.346   3.429   0.570 -1.2326  0.6578 -2.1001
11460SOL     OW34934   5.446   6.898   1.489 -0.0818  0.3963  0.3759
11460SOL    HW134935   5.449   6.864   1.578 -0.2846 -2.3536 -0.5569
11460SOL    HW234936   5.355   6.926   1.477 -0.0782  0.6834  0.9742
11461SOL     OW34937   1.710   3.436   6.915 -0.2699  0.3899 -0.6178
11461SOL    HW134938   1.768   3.455   6.841  1.4162 -1.7661  0.0677
11461SOL    HW234939   1.750   3.481   6.990 -0.6202  0.5435 -0.5175
11462SOL     OW34940   7.178   2.524   7.655 -0.0771 -0.2318 -0.5548
11462SOL    HW134941   7.249   2.502   7.594  1.3835 -0.2517  1.0770
11462SOL    HW234942   7.163   2.443   7.704 -1.2239 -0.2089 -0.8339
11463SOL     OW34943   5.140   6.478   1.296  0.2650 -0.3784 -0.3063
11463SOL    HW134944   5.052   6.475   1.333 -0.2369 -2.2605 -1.4806
11463SOL    HW234945   5.152   6.568   1.269 -0.4278  0.4153  1.8323
11464SOL     OW34946   5.428   0.783   6.090  0.1158  0.4437  0.2187
11464SOL    HW134947   5.489   0.758   6.160 -0.2826  0.5253  0.6035
11464SOL    HW234948   5.396   0.700   6.055 -0.2675  0.3992  0.6597
11465SOL     OW34949   6.319   0.278   2.122 -0.1621 -0.2685 -0.2035
11465SOL    HW134950   6.289   0.279   2.031  0.5999 -4.0784 -0.6423
11465SOL    HW234951   6.410   0.251   2.117  0.7886  2.2760  1.6326
11466SOL     OW34952   4.076   0.772   6.692 -0.2692 -0.2796 -0.0199
11466SOL    HW134953   4.032   0.759   6.607 -1.4223 -0.5390  0.5928
11466SOL    HW234954   4.044   0.857   6.722  1.4446  0.6203 -0.5807
11467SOL     OW34955   5.828   4.147   7.511  0.1817 -0.0812 -0.1345
11467SOL    HW134956   5.827   4.063   7.464  1.1093 -0.0146 -0.2869
11467SOL    HW234957   5.767   4.202   7.462  0.1616 -0.4181 -0.5009
11468SOL     OW34958   1.478   2.374   1.379  0.1260 -0.1660 -0.4016
11468SOL    HW134959   1.408   2.402   1.321  0.0083 -1.5054 -0.9369
11468SOL    HW234960   1.558   2.406   1.338  0.0417 -1.0858 -1.3008
11469SOL     OW34961   2.636   2.632   2.496  0.1237  0.2778 -0.2162
11469SOL    HW134962   2.729   2.635   2.519  0.6245  1.3402 -2.1807
11469SOL    HW234963   2.635   2.598   2.406 -1.4482 -0.2574 -0.0180
11470SOL     OW34964   2.477   3.335   6.898 -0.6695 -0.3760  0.0741
11470SOL    HW134965   2.426   3.338   6.817 -0.4532 -1.4976 -0.1162
11470SOL    HW234966   2.515   3.247   6.900  1.8867  0.6647 -0.1727
11471SOL     OW34967   6.923   5.625   5.204 -0.3022 -0.1680 -0.5053
11471SOL    HW134968   6.989   5.578   5.154  2.6179  1.7460  1.2566
11471SOL    HW234969   6.879   5.557   5.255  1.3418 -1.3754 -0.6235
11472SOL     OW34970   1.357   0.126   3.664 -0.4757 -0.2152 -0.2727
11472SOL    HW134971   1.445   0.135   3.626  0.1206 -1.8087  0.6659
11472SOL    HW234972   1.302   0.105   3.589  0.5598 -2.5669 -0.4627
11473SOL     OW34973   3.339   4.404   4.346 -0.2563 -0.0055 -0.0708
11473SOL    HW134974   3.373   4.349   4.275 -0.7248 -0.0240 -0.2838
11473SOL    HW234975   3.329   4.490   4.307 -0.6990 -0.0605 -0.0847
11474SOL     OW34976   4.549   6.063   4.749 -0.3055 -0.0390 -0.3189
11474SOL    HW134977   4.606   6.003   4.798 -1.0632  0.0711  0.7172
11474SOL    HW234978   4.609   6.108   4.690  1.1620  1.6989  2.2795
11475SOL     OW34979   7.203   0.458   2.805 -0.2291 -0.1855 -0.7082
11475SOL    HW134980   7.253   0.522   2.754 -1.2125  0.0597 -1.3914
11475SOL    HW234981   7.236   0.373   2.774  0.1853 -0.0260 -0.7125
11476SOL     OW34982   2.128   2.524   4.294 -0.0765 -0.0155 -0.0337
11476SOL    HW134983   2.147   2.443   4.341  0.9024  0.6285  0.7218
11476SOL    HW234984   2.177   2.515   4.212 -0.7466 -0.5867 -0.3830
11477SOL     OW34985   6.281   1.671   4.396  0.2137  0.3507  0.2950
11477SOL    HW134986   6.293   1.622   4.478 -0.2529 -0.0500  0.1291
11477SOL    HW234987   6.346   1.634   4.337 -0.7554 -0.7356 -0.1198
11478SOL     OW34988   4.779   3.701   6.722  0.3814  0.0267 -0.6310
11478SOL    HW134989   4.756   3.723   6.632  1.3236  1.0029 -0.6503
11478SOL    HW234990   4.866   3.660   6.715 -0.0942 -1.0942 -0.2847
11479SOL     OW34991   0.334   5.632   6.718  0.1233 -0.5298  0.3658
11479SOL    HW134992   0.315   5.626   6.812 -0.6666  1.4700  0.4063
11479SOL    HW234993   0.264   5.582   6.677  0.9486 -2.1305  0.8339
11480SOL     OW34994   4.189   3.740   4.018  0.3250  0.1429  0.1005
11480SOL    HW134995   4.232   3.659   3.989 -0.6348  0.1453 -1.4011
11480SOL    HW234996   4.099   3.713   4.040  0.6037  0.4190  1.7660
11481SOL     OW34997   4.238   6.872   1.278 -0.1310 -0.1282  0.4602
11481SOL    HW134998   4.317   6.891   1.328  0.4765  0.6375 -0.7378
11481SOL    HW234999   4.251   6.784   1.245  0.6946  0.3468 -0.5397
11482SOL     OW35000   3.242   5.947   5.749  0.4225  0.3397  0.8934
11482SOL    HW135001   3.304   6.014   5.781  1.3387  1.0686 -2.0760
11482SOL    HW235002   3.278   5.920   5.665 -1.7223 -1.5119  0.4859
11483SOL     OW35003   2.641   1.703   4.590  0.0708  0.5356  0.5533
11483SOL    HW135004   2.613   1.731   4.677  0.4676  1.5776  0.3636
11483SOL    HW235005   2.615   1.611   4.584  0.7229  0.2210  2.0673
11484SOL     OW35006   5.640   3.418   1.452  0.4077  0.2763 -0.0057
11484SOL    HW135007   5.678   3.371   1.378 -0.3648  0.0444 -0.2690
11484SOL    HW235008   5.546   3.417   1.435  0.3967  2.6676 -0.4539
11485SOL     OW35009   2.003   6.127   6.712  0.4151 -0.0729 -0.0434
11485SOL    HW135010   1.970   6.159   6.629  2.5948 -1.0621 -1.3873
11485SOL    HW235011   2.041   6.041   6.691  0.4818 -0.6230  2.0981
11486SOL     OW35012   3.818   6.651   2.265 -0.2999 -0.0547 -0.2863
11486SOL    HW135013   3.737   6.656   2.316  1.6905 -0.6458  3.1990
11486SOL    HW235014   3.859   6.737   2.276  0.9243 -0.7239  0.5301
11487SOL     OW35015   6.067   3.040   1.355 -0.0515 -0.2537 -0.7552
11487SOL    HW135016   6.062   2.978   1.428 -0.3671  1.1413  0.4525
11487SOL    HW235017   6.161   3.052   1.341  0.0131 -0.9532 -0.9784
11488SOL     OW35018   1.276   6.398   6.080 -0.3802  0.1952 -0.2859
11488SOL    HW135019   1.314   6.429   6.162 -0.4424  1.5414 -0.7521
11488SOL    HW235020   1.182   6.393   6.098 -0.2824 -0.6389  0.0641
11489SOL     OW35021   7.238   2.859   6.483  0.2269 -0.7708  0.2477
11489SOL    HW135022   7.219   2.766   6.493  3.7311 -1.5995  0.4016
11489SOL    HW235023   7.316   2.874   6.536  1.0038  1.7788 -1.4233
11490SOL     OW35024   5.182   5.842   3.668 -0.1633  0.3597 -0.8262
11490SOL    HW135025   5.165   5.807   3.580 -0.4457 -0.1891 -0.5598
11490SOL    HW235026   5.100   5.885   3.693 -0.2285  0.1438 -0.6631
11491SOL     OW35027   6.314   3.307   0.369 -0.2762  0.4600 -0.4047
11491SOL    HW135028   6.391   3.254   0.392 -0.8077 -0.2497 -0.2299
11491SOL    HW235029   6.326   3.328   0.277  0.0812  0.2674 -0.4059
11492SOL     OW35030   4.232   1.292   3.195 -0.2698 -0.8186 -0.6038
11492SOL    HW135031   4.258   1.374   3.152 -1.4178  0.6986  1.4714
11492SOL    HW235032   4.149   1.311   3.237 -1.0502 -3.3613 -0.7917
11493SOL     OW35033   2.310   5.561   7.610  0.2328 -0.6958  0.1668
11493SOL    HW135034   2.298   5.647   7.571  0.5424 -0.5004  0.4956
11493SOL    HW235035   2.330   5.504   7.536  1.3651 -0.2236  0.0879
11494SOL     OW35036   5.306   2.773   5.783 -0.1931  0.2032  0.4479
11494SOL    HW135037   5.289   2.679   5.777  0.9284 -0.0193  0.6254
11494SOL    HW235038   5.277   2.808   5.699  0.1637 -0.4298  0.0552
11495SOL     OW35039   4.673   5.504   6.904 -0.1625  0.1247 -0.3549
11495SOL    HW135040   4.726   5.430   6.877  0.1542  0.0299  0.5301
11495SOL    HW235041   4.733   5.562   6.950 -0.5323  0.6628 -0.5358
11496SOL     OW35042   4.599   4.490   6.880 -0.4541 -0.1227 -0.0277
11496SOL    HW135043   4.578   4.571   6.926  0.5783 -0.0892  0.4166
11496SOL    HW235044   4.619   4.518   6.790  2.0794  0.4549  0.6430
11497SOL     OW35045   1.810   1.295   3.807 -0.1018 -0.6836  0.0564
11497SOL    HW135046   1.746   1.261   3.744  0.0424 -1.0513  0.1031
11497SOL    HW235047   1.893   1.295   3.760 -0.1771  0.0546 -0.0927
11498SOL     OW35048   1.955   5.773   0.053 -0.2523 -0.2855 -0.0705
11498SOL    HW135049   2.050   5.785   0.049 -0.1031 -1.4451 -0.7964
11498SOL    HW235050   1.928   5.813   0.136  1.1101 -1.3801  0.9474
11499SOL     OW35051   0.709   0.787   3.577 -0.0987  0.7852  0.0193
11499SOL    HW135052   0.691   0.797   3.671  2.1140 -0.5174  0.6728
11499SOL    HW235053   0.796   0.826   3.566 -1.3942  3.4368 -2.1214
11500SOL     OW35054   5.893   6.130   0.178 -0.9026  0.4568  0.2148
11500SOL    HW135055   5.836   6.197   0.139 -1.1596 -0.0962 -0.3873
11500SOL    HW235056   5.980   6.169   0.174 -0.9672  0.5532 -0.6456
11501SOL     OW35057   1.050   7.194   6.238  0.3695 -0.4014  0.1491
11501SOL    HW135058   1.007   7.177   6.322  2.0948  0.4454  1.2791
11501SOL    HW235059   1.050   7.110   6.193  0.3531 -1.1432  1.4752
11502SOL     OW35060   1.691   4.920   5.278  0.1921 -0.0795  0.7928
11502SOL    HW135061   1.633   4.969   5.336 -0.3463 -0.5609  0.6675
11502SOL    HW235062   1.702   4.978   5.202  1.9298  1.1188  1.8840
11503SOL     OW35063   3.075   5.752   5.476  0.6042 -0.8343 -0.3229
11503SOL    HW135064   3.002   5.725   5.420  0.5241 -2.4010  0.4759
11503SOL    HW235065   3.082   5.847   5.463 -0.8482 -0.8280 -1.2587
11504SOL     OW35066   6.784   5.985   2.339  0.2688  0.1771  0.1213
11504SOL    HW135067   6.878   5.974   2.348  0.3414 -2.1696 -2.2876
11504SOL    HW235068   6.749   5.970   2.427  2.0416 -0.3743  0.7627
11505SOL     OW35069   1.725   0.302   0.168 -0.2569  0.2345  0.1899
11505SOL    HW135070   1.644   0.346   0.139 -0.5206 -0.0623  0.4651
11505SOL    HW235071   1.713   0.290   0.262  0.3627  0.7040  0.3343
11506SOL     OW35072   6.022   6.042   5.884 -0.3475 -0.4432  0.3387
11506SOL    HW135073   6.056   6.014   5.799 -1.3292 -2.3813  0.5456
11506SOL    HW235074   6.051   5.974   5.945 -0.6767  0.3014  1.3472
11507SOL     OW35075   0.037   1.887   1.698 -0.5805  0.1209 -0.6733
11507SOL    HW135076  -0.009   1.930   1.770  1.3669  1.4677 -0.1490
11507SOL    HW235077   0.086   1.817   1.740 -2.4704 -1.6734 -1.3063
11508SOL     OW35078   5.234   6.879   2.107 -0.3219  0.4850 -0.4224
11508SOL    HW135079   5.150   6.862   2.065 -0.8652  1.4670  0.2308
11508SOL    HW235080   5.255   6.798   2.153  0.1037 -0.4819 -2.2204
11509SOL     OW35081   2.615   4.317   6.609 -0.8059  0.2839 -0.0148
11509SOL    HW135082   2.662   4.386   6.562  2.2395 -1.0530  0.7862
11509SOL    HW235083   2.563   4.273   6.542 -0.2912  1.3587 -1.1618
11510SOL     OW35084   7.474   7.350   7.090  0.0361  0.3601 -0.0018
11510SOL    HW135085   7.410   7.330   7.022 -0.1765 -1.0139  0.5878
11510SOL    HW235086   7.466   7.279   7.153  2.3420 -0.0240 -0.0494
11511SOL     OW35087   4.551   4.018   6.454  0.0054  0.5352  0.0955
11511SOL    HW135088   4.514   4.099   6.417 -2.5214 -0.5472  0.0365
11511SOL    HW235089   4.511   4.010   6.540 -1.0000 -1.3612 -0.4809
11512SOL     OW35090   7.029   5.762   0.175 -0.6500  0.2135  0.5832
11512SOL    HW135091   7.120   5.787   0.161 -0.5405 -0.5019 -0.0523
11512SOL    HW235092   6.983   5.796   0.098 -0.6529 -0.7104  0.1625
11513SOL     OW35093   2.820   2.376   6.933 -0.1411  0.1832  0.0407
11513SOL    HW135094   2.905   2.339   6.909  0.2476 -0.8308  2.6809
11513SOL    HW235095   2.805   2.347   7.022 -3.6045 -0.2108 -0.5360
11514SOL     OW35096   1.742   0.998   0.816  0.3421 -0.4700 -0.2898
11514SOL    HW135097   1.661   1.002   0.867 -0.9532  0.8275 -2.2988
11514SOL    HW235098   1.777   1.087   0.819  1.3025 -0.8428 -0.0764
11515SOL     OW35099   2.952   5.117   2.545 -0.3758  0.1103 -0.1030
11515SOL    HW135100   3.031   5.130   2.597 -0.1430 -1.8606  0.0913
11515SOL    HW235101   2.881   5.114   2.609 -0.4535  0.4633 -0.1654
11516SOL     OW35102   4.362   3.080   1.510 -0.5536  0.0262 -0.3917
11516SOL    HW135103   4.432   3.017   1.499  1.7960  2.5919 -1.2086
11516SOL    HW235104   4.319   3.055   1.592  1.7313 -1.2408  0.4890
11517SOL     OW35105   7.497   7.312   2.438  0.6391 -0.4498  0.6033
11517SOL    HW135106   7.427   7.288   2.499 -0.8267  0.1595 -0.7342
11517SOL    HW235107   7.450   7.343   2.360  2.3733  2.3484  0.5280
11518SOL     OW35108   1.286   4.197   2.512  0.2659  0.7455 -0.0241
11518SOL    HW135109   1.348   4.259   2.473 -0.4774  0.9114 -0.9725
11518SOL    HW235110   1.289   4.121   2.453  0.3962  0.2991  0.5531
11519SOL     OW35111   1.964   6.581   3.294  0.0146  0.2342  0.0998
11519SOL    HW135112   1.936   6.492   3.318 -0.0874  0.2419  0.0100
11519SOL    HW235113   1.980   6.624   3.378  0.9089 -0.1376  0.1280
11520SOL     OW35114   5.527   0.486   4.692 -0.1012 -0.1773  0.6399
11520SOL    HW135115   5.534   0.443   4.607 -1.0800 -1.0310  0.9687
11520SOL    HW235116   5.608   0.536   4.700  1.2525 -2.1754  0.3583
11521SOL     OW35117   2.694   1.526   0.226  0.0487 -0.4476 -0.1690
11521SOL    HW135118   2.644   1.540   0.146  1.8135 -0.0754 -1.2702
11521SOL    HW235119   2.762   1.463   0.201 -0.6182 -1.9645  1.6199
11522SOL     OW35120   4.113   4.470   3.154  0.2988 -0.2442 -0.1758
11522SOL    HW135121   4.135   4.530   3.082  0.5655  0.0677  0.1617
11522SOL    HW235122   4.018   4.474   3.161  0.2254 -0.6488 -0.8328
11523SOL     OW35123   0.457   3.530   7.609 -0.0000 -0.6792  0.0331
11523SOL    HW135124   0.504   3.473   7.670 -1.0764  0.2257  1.8093
11523SOL    HW235125   0.403   3.586   7.665  2.1677  3.2892 -1.3894
11524SOL     OW35126   2.923   4.420   4.812  0.0547 -0.1894  0.0948
11524SOL    HW135127   2.841   4.380   4.782 -0.2861 -0.7630  1.7098
11524SOL    HW235128   2.926   4.402   4.906  1.4573  0.8614  0.2876
11525SOL     OW35129   6.552   6.433   2.688  0.8515  0.3637 -0.8182
11525SOL    HW135130   6.492   6.469   2.623  1.7481  1.4594 -1.0842
11525SOL    HW235131   6.532   6.340   2.692 -1.3741  0.8247 -0.3191
11526SOL     OW35132   0.506   2.133   2.391 -0.7600  0.0484 -0.1005
11526SOL    HW135133   0.432   2.190   2.413 -0.8616  0.4283 -1.3453
11526SOL    HW235134   0.477   2.046   2.417 -0.8867  0.4434  1.1703
11527SOL     OW35135   5.806   6.644   6.330  0.3672 -0.3496 -0.1727
11527SOL    HW135136   5.764   6.673   6.250 -0.1340 -0.0514  0.1946
11527SOL    HW235137   5.815   6.549   6.319  0.7251 -0.2528 -0.7707
11528SOL     OW35138   6.074   6.588   6.044  0.0258 -0.5832 -0.2878
11528SOL    HW135139   6.098   6.504   6.005  0.7778  0.0488 -1.2520
11528SOL    HW235140   6.076   6.650   5.971 -0.2384  0.3304  0.4530
11529SOL     OW35141   6.718   1.893   5.515 -0.2820  0.0629 -0.2822
11529SOL    HW135142   6.639   1.894   5.570 -0.6674  2.2477 -0.7616
11529SOL    HW235143   6.697   1.952   5.442  0.7593 -1.6105 -2.0173
11530SOL     OW35144   2.077   1.979   0.560 -0.0318  0.5802  0.2446
11530SOL    HW135145   2.098   1.904   0.505  2.3482  0.9897  0.4567
11530SOL    HW235146   2.155   1.990   0.615 -1.2972  1.7396  1.8946
11531SOL     OW35147   1.934   6.584   3.013  0.3529  0.4838  0.4937
11531SOL    HW135148   1.977   6.558   3.094 -0.5758 -0.4906  0.7091
11531SOL    HW235149   1.874   6.654   3.039 -0.0106  0.1094  0.6796
11532SOL     OW35150   4.524   3.477   0.951 -0.0579 -0.4039 -0.6205
11532SOL    HW135151   4.609   3.520   0.938 -0.1694  0.0078 -0.0162
11532SOL    HW235152   4.463   3.530   0.899 -0.3080  0.5756  0.6292
11533SOL     OW35153   6.886   3.730   1.209 -0.2830  0.4772 -0.1539
11533SOL    HW135154   6.924   3.666   1.149 -0.0732  0.3859  0.0764
11533SOL    HW235155   6.927   3.813   1.185 -0.4404  0.4980 -0.3512
11534SOL     OW35156   6.381   1.094   5.183 -0.5815  0.1807 -0.1081
11534SOL    HW135157   6.429   1.040   5.245 -1.2538 -1.2838 -0.8250
11534SOL    HW235158   6.295   1.106   5.223 -1.0964 -0.9637 -0.8185
11535SOL     OW35159   2.581   1.729   2.720  0.1456 -0.1364 -0.0827
11535SOL    HW135160   2.639   1.653   2.710 -0.4997 -0.6535 -0.0315
11535SOL    HW235161   2.603   1.765   2.806  1.6823  0.8151 -0.8390
11536SOL     OW35162   4.913   4.607   3.450  0.0052 -0.1312  0.4850
11536SOL    HW135163   4.939   4.623   3.359  0.7935  0.9056  0.8712
11536SOL    HW235164   4.833   4.659   3.461  0.1462  0.0823  0.5039
11537SOL     OW35165   7.540   5.906   4.446  0.0533 -0.3134  0.0614
11537SOL    HW135166   7.595   5.851   4.391  0.5890 -0.3312  0.6112
11537SOL    HW235167   7.588   5.988   4.454 -1.0371  0.5081 -1.2891
11538SOL     OW35168   5.278   4.602   1.877 -0.2372  0.1174 -0.1550
11538SOL    HW135169   5.265   4.661   1.952 -0.1273 -0.1097  0.0451
11538SOL    HW235170   5.354   4.548   1.902  1.0818  1.3726 -1.2717
11539SOL     OW35171   0.725   2.973   4.181 -0.0560  0.3252 -0.3645
11539SOL    HW135172   0.713   2.918   4.258 -2.4645  0.1346 -0.7823
11539SOL    HW235173   0.637   3.005   4.161  0.2096 -0.6307 -3.7540
11540SOL     OW35174   5.605   0.559   0.924 -0.1144 -0.3524 -0.6747
11540SOL    HW135175   5.628   0.466   0.916 -0.8783 -0.3734 -4.1529
11540SOL    HW235176   5.686   0.605   0.903 -0.1828 -0.2504 -0.7143
11541SOL     OW35177   5.010   1.442   2.995  0.6224 -0.2503  0.1757
11541SOL    HW135178   4.946   1.420   2.927 -0.9472  0.3398  1.3790
11541SOL    HW235179   5.051   1.522   2.964  0.6935 -0.5709 -0.5709
11542SOL     OW35180   2.657   0.164   4.875 -0.5629 -0.3519  0.1290
11542SOL    HW135181   2.567   0.140   4.851 -0.2741  0.3632 -1.8182
11542SOL    HW235182   2.712   0.103   4.827  0.0300 -1.0833  1.6636
11543SOL     OW35183   4.539   7.127   1.041 -0.3164 -0.3501 -0.5985
11543SOL    HW135184   4.450   7.114   1.006 -1.4954  3.7908  0.3437
11543SOL    HW235185   4.531   7.109   1.134  0.0676 -0.6827 -0.6260
11544SOL     OW35186   1.174   4.948   5.745  0.8129 -0.5329 -0.3348
11544SOL    HW135187   1.202   4.909   5.828  2.9793 -0.5735 -1.0136
11544SOL    HW235188   1.222   5.031   5.740  1.4246 -0.9464 -1.9327
11545SOL     OW35189   3.287   1.636   0.149 -0.2775 -0.2700  0.0504
11545SOL    HW135190   3.315   1.725   0.127 -1.3006  0.1585  0.4367
11545SOL    HW235191   3.214   1.648   0.210  1.7491 -1.3781  2.9141
11546SOL     OW35192   2.792   2.043   7.479  0.2313 -0.0811 -0.2063
11546SOL    HW135193   2.757   1.963   7.517 -0.5058  0.7462  0.9124
11546SOL    HW235194   2.872   2.060   7.527  1.0840 -0.8126 -1.3170
11547SOL     OW35195   2.149   1.189   5.779 -0.0616  0.3234 -0.2489
11547SOL    HW135196   2.139   1.126   5.850  0.0175 -0.7904 -1.1916
11547SOL    HW235197   2.087   1.259   5.799  0.0431  0.0824  0.9599
11548SOL     OW35198   2.329   4.282   7.330  0.4245  0.4932 -0.0800
11548SOL    HW135199   2.350   4.231   7.252  0.3037 -0.2431  0.3648
11548SOL    HW235200   2.277   4.224   7.385 -0.2610  1.3111  0.1570
11549SOL     OW35201   4.768   3.883   2.897  0.7195  0.5452  0.0239
11549SOL    HW135202   4.704   3.892   2.827  0.8976  1.4606 -0.0390
11549SOL    HW235203   4.749   3.798   2.937  1.2836 -0.4646 -1.7777
11550SOL     OW35204   6.636   3.459   0.004  0.1548 -0.3557 -0.7609
11550SOL    HW135205   6.595   3.500   0.080  1.7567 -1.2946  0.6650
11550SOL    HW235206   6.562   3.423  -0.046 -0.9216  0.2124  0.3628
11551SOL     OW35207   6.044   1.467   2.709  0.1333 -0.5786  0.1243
11551SOL    HW135208   6.055   1.494   2.617  1.9914  0.8288  0.6957
11551SOL    HW235209   6.098   1.389   2.718  2.2902  0.8729  0.6143
11552SOL     OW35210   1.760   4.833   3.363  0.0657 -0.3546  0.0439
11552SOL    HW135211   1.714   4.911   3.395  0.2815 -0.7686  1.4261
11552SOL    HW235212   1.728   4.762   3.418  0.9887 -0.9870 -0.2080
11553SOL     OW35213   1.270   0.177   4.640  0.1766  0.3199  0.0882
11553SOL    HW135214   1.274   0.092   4.684  1.4932  1.6664  2.8476
11553SOL    HW235215   1.356   0.187   4.598  0.2091  0.4817  0.1910
11554SOL     OW35216   1.438   0.970   2.242  0.0106 -0.3378  0.4390
11554SOL    HW135217   1.530   0.945   2.232  0.7467  2.1634  0.1860
11554SOL    HW235218   1.434   1.011   2.329 -0.9409 -0.6519  0.5552
11555SOL     OW35219   5.924   1.054   2.108 -0.1182 -0.3661  0.2503
11555SOL    HW135220   5.880   0.970   2.093 -0.6435  0.0345 -0.5763
11555SOL    HW235221   6.015   1.032   2.125 -0.4010 -1.1473  0.7532
11556SOL     OW35222   4.551   1.684   2.485 -0.3591 -0.3639 -0.1421
11556SOL    HW135223   4.563   1.657   2.395  1.6970  1.7692 -0.6084
11556SOL    HW235224   4.524   1.605   2.531 -0.9422 -1.6138 -2.5026
11557SOL     OW35225   3.395   3.839   1.236 -0.1641 -0.3425 -0.0573
11557SOL    HW135226   3.454   3.896   1.187 -0.3207  0.3469  0.5435
11557SOL    HW235227   3.401   3.755   1.190  1.4169 -0.3468  0.0868
11558SOL     OW35228   2.030   3.615   2.422  0.3317 -0.4618  0.3710
11558SOL    HW135229   2.031   3.677   2.349 -0.4079 -1.4015 -0.4577
11558SOL    HW235230   2.087   3.544   2.394 -0.1471 -0.9446  0.6140
11559SOL     OW35231   2.130   3.198   7.225  0.0514  0.7795  0.5240
11559SOL    HW135232   2.133   3.118   7.278 -0.5215  0.1904 -0.3024
11559SOL    HW235233   2.044   3.235   7.242 -0.8286 -0.3119 -1.2120
11560SOL     OW35234   4.597   2.991   0.179 -0.1357 -0.3971  0.2085
11560SOL    HW135235   4.578   2.898   0.172  1.1455 -0.6943  0.5348
11560SOL    HW235236   4.556   3.030   0.101  0.0204 -1.3437 -0.3580
11561SOL     OW35237   2.601   6.722   5.802 -0.5742  0.5574  0.1855
11561SOL    HW135238   2.550   6.748   5.878 -0.0859  1.1287  0.3243
11561SOL    HW235239   2.588   6.628   5.795  0.7329  0.2030  1.9949
11562SOL     OW35240   0.922   7.175   6.796  0.2979  0.5419  0.2372
11562SOL    HW135241   0.919   7.080   6.781  0.9253  0.4099  0.8774
11562SOL    HW235242   0.848   7.210   6.746  0.5464 -0.1891 -0.6601
11563SOL     OW35243   4.873   3.956   3.271 -0.0660  0.0217 -0.1125
11563SOL    HW135244   4.960   3.987   3.299  0.4859 -0.0811 -1.6189
11563SOL    HW235245   4.843   3.901   3.343  0.2631  1.5779  1.2848
11564SOL     OW35246   5.462   0.751   4.621  0.0846  0.0427 -0.3609
11564SOL    HW135247   5.495   0.669   4.658  0.2497  0.5152  0.5695
11564SOL    HW235248   5.416   0.725   4.542 -0.2415 -1.0000  0.1517
11565SOL     OW35249   1.435   3.894   2.683 -0.7658 -0.4247  0.6927
11565SOL    HW135250   1.422   3.851   2.599  0.8482  0.0256  0.1720
11565SOL    HW235251   1.489   3.970   2.663 -0.2434 -0.3716  2.1567
11566SOL     OW35252   0.110   2.418   6.728 -0.0128  0.1508  0.1926
11566SOL    HW135253   0.187   2.459   6.688  0.3309 -0.5196  0.1546
11566SOL    HW235254   0.128   2.324   6.723 -1.4880 -0.1117 -1.1971
11567SOL     OW35255   2.124   1.561   4.175  0.2885  0.0624  0.2527
11567SOL    HW135256   2.037   1.581   4.209  0.5389  0.4814  0.6693
11567SOL    HW235257   2.182   1.622   4.221  0.9068 -0.7428  0.5830
11568SOL     OW35258   6.292   3.101   0.711 -0.1946 -0.4097  0.1957
11568SOL    HW135259   6.291   3.008   0.690 -0.4738  0.0705 -2.2971
11568SOL    HW235260   6.212   3.135   0.671  0.1166  0.9706  0.6923
11569SOL     OW35261   2.521   1.801   1.591 -0.5104  0.3639  0.1488
11569SOL    HW135262   2.558   1.869   1.649 -0.7738  0.6408 -0.0055
11569SOL    HW235263   2.443   1.842   1.553  0.9518  1.0874 -2.2967
11570SOL     OW35264   1.534   4.314   0.665 -0.4830 -0.7545 -0.5410
11570SOL    HW135265   1.491   4.398   0.654  0.3670 -0.3544 -0.9496
11570SOL    HW235266   1.586   4.303   0.585  0.2058 -1.1868 -0.0498
11571SOL     OW35267   3.518   2.848   4.001  0.1545  0.1648 -0.0301
11571SOL    HW135268   3.535   2.838   3.908 -1.8452 -0.6670 -0.3500
11571SOL    HW235269   3.494   2.760   4.031  1.8456  0.1842  1.5372
11572SOL     OW35270   6.003   1.879   0.459 -0.4450 -0.0457 -0.4949
11572SOL    HW135271   6.012   1.843   0.371  1.4124  0.0809 -0.4005
11572SOL    HW235272   5.996   1.974   0.445 -0.7266 -0.0676 -0.5184
11573SOL     OW35273   1.031   4.348   7.532 -0.2683  0.2904 -0.7091
11573SOL    HW135274   1.070   4.287   7.595 -0.6209 -1.4164 -2.0666
11573SOL    HW235275   1.106   4.384   7.484 -0.1138  0.1425 -0.5785
11574SOL     OW35276   2.894   7.713   1.120 -0.4468 -0.3335  0.3807
11574SOL    HW135277   2.829   7.780   1.143 -0.5414  0.2139 -1.3894
11574SOL    HW235278   2.872   7.687   1.031  2.8387  1.2330 -1.0676
11575SOL     OW35279   7.092   5.474   5.036  0.1752  0.2351  0.2466
11575SOL    HW135280   7.182   5.503   5.053  0.2259  0.6745 -0.7025
11575SOL    HW235281   7.103   5.395   4.983  0.0017  0.0162  0.5351
11576SOL     OW35282   2.337   3.765   0.435  0.2725 -0.0986  0.8006
11576SOL    HW135283   2.348   3.682   0.388  0.0442  0.0135  0.5462
11576SOL    HW235284   2.306   3.826   0.368 -0.9669 -0.1687  1.2942
11577SOL     OW35285   6.585   4.462   7.243  0.0879  0.7651  0.0786
11577SOL    HW135286   6.500   4.455   7.288  1.1041 -1.8862  1.8023
11577SOL    HW235287   6.635   4.522   7.299  0.3904 -0.2435  0.9164
11578SOL     OW35288   2.129   7.647   7.638 -0.1503 -0.3676 -0.6771
11578SOL    HW135289   2.055   7.623   7.694  0.3144  2.0482  1.1210
11578SOL    HW235290   2.092   7.655   7.550 -1.3477 -2.1366 -0.3859
11579SOL     OW35291   7.441   5.777   6.422 -0.2676 -0.1786  0.2304
11579SOL    HW135292   7.409   5.778   6.331  2.0012 -1.5163 -0.6775
11579SOL    HW235293   7.450   5.869   6.445  0.6540  0.2142 -1.5275
11580SOL     OW35294   3.639   1.713   6.664  0.2023  0.4683  0.1420
11580SOL    HW135295   3.600   1.786   6.712 -2.7234  0.1083 -1.4167
11580SOL    HW235296   3.667   1.750   6.581 -3.3492 -0.3131 -1.6256
11581SOL     OW35297   4.286   0.826   5.543 -0.2963 -0.4387  0.2313
11581SOL    HW135298   4.285   0.758   5.610 -1.1135  0.5623  1.2918
11581SOL    HW235299   4.209   0.879   5.562 -0.6318 -0.1979 -1.6190
11582SOL     OW35300   7.139   2.038   4.658 -0.3988  0.1265  0.1262
11582SOL    HW135301   7.102   2.125   4.675  0.3288  0.1631  1.7352
11582SOL    HW235302   7.219   2.056   4.608 -0.1320  0.4182  0.6446
11583SOL     OW35303   6.166   6.789   3.188  0.0651 -0.3254 -0.0768
11583SOL    HW135304   6.212   6.798   3.104 -0.7027 -0.6809 -0.5540
11583SOL    HW235305   6.142   6.696   3.192  0.4966 -0.4062  0.7594
11584SOL     OW35306   4.204   3.054   5.687 -0.2796 -0.0593  0.4049
11584SOL    HW135307   4.171   3.108   5.615  0.9991  0.9577  0.5537
11584SOL    HW235308   4.125   3.018   5.728 -1.0817  0.3783 -0.6982
11585SOL     OW35309   1.719   1.490   0.617 -0.9021  0.1882 -0.2946
11585SOL    HW135310   1.791   1.553   0.616 -1.3878  0.7493 -0.0772
11585SOL    HW235311   1.684   1.493   0.528 -2.4658  2.0314  0.3202
11586SOL     OW35312   5.801   5.229   6.502  0.3962  0.3779 -0.5607
11586SOL    HW135313   5.707   5.250   6.507  0.4707  0.8345 -0.9979
11586SOL    HW235314   5.819   5.223   6.409  0.8310  0.4055 -0.4790
11587SOL     OW35315   0.947   3.117   4.145  0.4242 -0.4037  0.3289
11587SOL    HW135316   0.987   3.066   4.074 -0.4194  1.4655 -1.6001
11587SOL    HW235317   0.884   3.056   4.184 -2.5741 -0.2942 -3.6765
11588SOL     OW35318   7.675   4.559   2.697  0.4730  0.2647  0.3383
11588SOL    HW135319   7.748   4.530   2.752 -0.1509 -0.8947  0.5840
11588SOL    HW235320   7.680   4.503   2.619  2.0809  2.6834 -1.4446
11589SOL     OW35321   5.770   0.621   7.187 -0.1792  0.2544  0.1441
11589SOL    HW135322   5.861   0.648   7.184 -0.1504  0.1554  0.1326
11589SOL    HW235323   5.729   0.681   7.249 -0.0273  0.0655  0.4289
11590SOL     OW35324   6.329   1.321   3.450  0.3486 -0.3345 -0.7260
11590SOL    HW135325   6.329   1.408   3.410 -1.5587 -0.3288 -0.7786
11590SOL    HW235326   6.280   1.266   3.389  0.4296 -1.1472 -0.0727
11591SOL     OW35327   4.549   1.883   1.342  0.1319  0.3283  0.6375
11591SOL    HW135328   4.495   1.953   1.305  1.3272  1.2910  0.6351
11591SOL    HW235329   4.626   1.880   1.285 -0.3279 -1.7197  0.0138
11592SOL     OW35330   3.452   5.175   0.690  0.1818  0.0481  0.0477
11592SOL    HW135331   3.391   5.174   0.763 -0.0446 -0.4261 -0.1431
11592SOL    HW235332   3.483   5.085   0.683  0.1060  0.0614 -0.5163
11593SOL     OW35333   3.226   0.326   0.580  0.3561 -0.8647 -0.4140
11593SOL    HW135334   3.213   0.417   0.606  1.9292 -0.4374 -0.9718
11593SOL    HW235335   3.162   0.276   0.630 -1.1080  0.6365 -0.7367
11594SOL     OW35336   0.608   0.581   6.978 -0.6926 -0.0995  0.2041
11594SOL    HW135337   0.624   0.518   6.907 -2.3805  0.6843 -0.9371
11594SOL    HW235338   0.523   0.555   7.014 -1.3126  1.3664 -0.1545
11595SOL     OW35339   5.600   4.698   6.570 -0.2971 -0.7132 -0.1300
11595SOL    HW135340   5.609   4.765   6.502 -0.0218 -0.2728  0.3228
11595SOL    HW235341   5.508   4.702   6.596 -0.1315  0.0218  0.4020
11596SOL     OW35342   1.467   4.072   1.179  0.5862 -0.8379 -0.5543
11596SOL    HW135343   1.470   3.985   1.139  2.5136 -0.3010 -1.7026
11596SOL    HW235344   1.558   4.093   1.196  0.2075  1.2467 -0.9138
11597SOL     OW35345   3.629   0.246   3.356  0.3459  0.5009  0.1719
11597SOL    HW135346   3.652   0.301   3.281  0.5842  0.9594  0.5778
11597SOL    HW235347   3.713   0.222   3.395  0.1838  1.4210  1.1193
11598SOL     OW35348   5.984   2.192   6.877 -0.3859  0.0109  0.3566
11598SOL    HW135349   6.011   2.220   6.790 -0.0928  0.0650  0.4629
11598SOL    HW235350   6.044   2.237   6.937 -0.4180 -0.2261  0.5722
11599SOL     OW35351   0.388   2.152   4.579 -0.2394  0.4695 -0.1121
11599SOL    HW135352   0.395   2.222   4.644  2.1936  0.9610 -0.7833
11599SOL    HW235353   0.297   2.153   4.551 -0.8993  1.5012  1.8954
11600SOL     OW35354   6.121   1.212   1.527 -0.3398  0.5875 -0.8379
11600SOL    HW135355   6.164   1.256   1.599 -0.5957  0.5500 -0.6587
11600SOL    HW235356   6.038   1.258   1.517 -0.7760 -0.0797 -0.4030
11601SOL     OW35357   4.139   3.246   0.305  0.0724  0.0580  0.4025
11601SOL    HW135358   4.068   3.237   0.242 -0.0922  0.5481  0.5176
11601SOL    HW235359   4.174   3.157   0.314 -1.1267 -0.3786  1.0486
11602SOL     OW35360   0.245   7.622   5.742 -0.0770  0.6663 -0.3219
11602SOL    HW135361   0.324   7.608   5.795  0.1597  0.5748 -0.7001
11602SOL    HW235362   0.275   7.620   5.652 -0.4539  1.0102 -0.4597
11603SOL     OW35363   5.293   3.056   4.749  0.0825 -0.2393  0.0780
11603SOL    HW135364   5.343   2.989   4.703  0.7176 -1.2500  2.1348
11603SOL    HW235365   5.328   3.056   4.838 -1.0309  1.6878  0.5889
11604SOL     OW35366   5.694   0.063   0.599 -0.1552 -0.0002 -0.6438
11604SOL    HW135367   5.614   0.055   0.546  0.3710 -0.1711 -1.4393
11604SOL    HW235368   5.757   0.005   0.555 -0.3930 -2.1077  1.5734
11605SOL     OW35369   5.892   3.014   1.169  0.0658  0.5389 -0.0530
11605SOL    HW135370   5.939   2.991   1.089 -0.7927  1.1260 -0.7476
11605SOL    HW235371   5.956   3.001   1.239  0.1226 -2.3905 -0.5205
11606SOL     OW35372   1.164   0.013   3.513 -0.2868 -0.7289  0.1932
11606SOL    HW135373   1.175  -0.071   3.470 -1.4361 -0.1757 -1.2367
11606SOL    HW235374   1.190   0.078   3.447 -0.0908  0.0757  1.0362
11607SOL     OW35375   3.249   4.129   2.648 -0.7702 -0.5850  0.3428
11607SOL    HW135376   3.282   4.096   2.731 -0.5573  1.5269  1.1484
11607SOL    HW235377   3.279   4.220   2.644 -1.0040 -0.5369 -1.9271
11608SOL     OW35378   0.109   7.692   1.645 -0.0562  0.4765  0.1703
11608SOL    HW135379   0.044   7.722   1.708  0.7777 -1.4326  2.0612
11608SOL    HW235380   0.191   7.688   1.695  0.5750 -1.4043 -0.8989
11609SOL     OW35381   2.194   6.676   6.950  0.1110 -0.0829  0.4496
11609SOL    HW135382   2.142   6.710   7.023 -0.8442 -0.7079  0.0758
11609SOL    HW235383   2.183   6.581   6.954  2.3065 -0.3575  1.1451
11610SOL     OW35384   3.357   6.804   6.635  0.1715  0.0049  0.5619
11610SOL    HW135385   3.416   6.855   6.691  0.7969 -0.1890  0.0989
11610SOL    HW235386   3.416   6.759   6.574 -0.5125  0.4815 -0.4681
11611SOL     OW35387   7.146   5.186   4.083  0.3120  0.5435 -0.0065
11611SOL    HW135388   7.208   5.169   4.155  0.6460  2.1193  0.1131
11611SOL    HW235389   7.194   5.160   4.004  0.8586  1.0725  0.1470
11612SOL     OW35390   0.016   1.175   3.221  0.0605  0.4871 -0.0582
11612SOL    HW135391  -0.053   1.140   3.278 -0.9255  1.1303 -0.8247
11612SOL    HW235392   0.079   1.103   3.212 -1.3249 -0.6911 -0.6346
11613SOL     OW35393   6.045   0.495   1.807 -0.2344 -0.6813 -0.7751
11613SOL    HW135394   6.006   0.409   1.789 -1.0691 -0.2211 -1.2213
11613SOL    HW235395   5.974   0.545   1.848  0.1070 -0.0551 -0.9427
11614SOL     OW35396   1.539   5.679   4.233 -0.1663  0.4631  0.3588
11614SOL    HW135397   1.529   5.594   4.190  0.9193 -0.4519  1.8091
11614SOL    HW235398   1.463   5.686   4.290 -1.3272  1.4352 -1.2383
11615SOL     OW35399   3.030   5.038   2.286  0.1479  0.2812 -0.2041
11615SOL    HW135400   3.005   5.105   2.223 -1.2141  0.8032  0.8436
11615SOL    HW235401   3.022   5.080   2.371  0.7482 -0.7710  0.4001
11616SOL     OW35402   2.375   7.297   5.199 -0.5617  0.0995  0.2707
11616SOL    HW135403   2.289   7.274   5.234 -0.3109  0.0661  0.8827
11616SOL    HW235404   2.392   7.384   5.236  0.1439 -0.3624  1.0563
11617SOL     OW35405   7.388   2.262   1.970 -0.0434 -0.5448 -0.3181
11617SOL    HW135406   7.429   2.178   1.992  1.7259  0.8992  2.6040
11617SOL    HW235407   7.370   2.302   2.055 -1.9467  1.5553 -1.6082
11618SOL     OW35408   5.480   5.513   5.772 -0.6855  0.2652  0.3388
11618SOL    HW135409   5.560   5.475   5.735  0.1845  0.1500  2.2498
11618SOL    HW235410   5.460   5.587   5.714  0.5802  0.0522 -0.4107
11619SOL     OW35411   1.529   7.734   2.179 -0.0932 -0.3554 -0.1814
11619SOL    HW135412   1.512   7.807   2.239  0.6708 -0.2626 -0.0731
11619SOL    HW235413   1.493   7.764   2.095  1.8847  0.9567 -0.6178
11620SOL     OW35414   6.589   3.052   6.533  0.0551  0.3743  0.3341
11620SOL    HW135415   6.505   3.067   6.490 -0.7597  0.2727  1.8267
11620SOL    HW235416   6.612   3.137   6.572  0.8827  0.5172 -0.4099
11621SOL     OW35417   0.554   6.033   0.124  0.1485  0.1322 -0.1542
11621SOL    HW135418   0.570   5.941   0.106 -1.6259 -0.6949  1.9916
11621SOL    HW235419   0.611   6.080   0.063  0.1989 -2.3336 -2.1693
11622SOL     OW35420   5.801   5.297   0.010  0.1277  0.4437  0.2683
11622SOL    HW135421   5.806   5.385   0.046 -1.3207 -0.1592  2.0883
11622SOL    HW235422   5.780   5.310  -0.083  1.7840  2.0047  0.0651
11623SOL     OW35423   1.838   5.993   1.490 -0.5944  0.0010 -0.3489
11623SOL    HW135424   1.765   5.993   1.428 -1.9521  0.2906  1.1674
11623SOL    HW235425   1.908   6.041   1.445 -1.8051  0.8888 -1.3500
11624SOL     OW35426   7.044   2.971   6.102  0.6489 -0.7993  0.3765
11624SOL    HW135427   6.995   2.967   6.019 -0.6449 -2.8746  1.1420
11624SOL    HW235428   6.992   2.917   6.162  2.3205 -0.5432  2.1368
11625SOL     OW35429   0.794   2.342   3.665 -0.2355 -0.9511  0.1097
11625SOL    HW135430   0.872   2.397   3.665 -1.2042  0.5528 -1.3118
11625SOL    HW235431   0.757   2.352   3.753 -0.4689  0.9026 -0.1439
11626SOL     OW35432   6.340   6.518   2.554 -0.0505 -0.0964 -0.1160
11626SOL    HW135433   6.311   6.503   2.464 -0.5013  0.3502 -0.0522
11626SOL    HW235434   6.288   6.593   2.584 -0.1836 -0.4716  0.6355
11627SOL     OW35435   4.744   2.815   6.309  0.3466  0.0603  0.7789
11627SOL    HW135436   4.819   2.763   6.280 -0.1631 -0.6208  0.6627
11627SOL    HW235437   4.768   2.905   6.286  0.2756 -0.3651 -1.1531
11628SOL     OW35438   5.160   4.355   5.479  0.7295 -0.1680 -0.1010
11628SOL    HW135439   5.192   4.399   5.400 -0.7579 -0.8517 -1.1458
11628SOL    HW235440   5.219   4.281   5.491  0.2462 -0.7846 -1.3448
11629SOL     OW35441   4.534   3.514   3.238  0.0822 -0.4340  0.4229
11629SOL    HW135442   4.469   3.520   3.308  0.5770 -2.7920  1.1852
11629SOL    HW235443   4.499   3.448   3.178  1.3875 -1.1593  0.4305
11630SOL     OW35444   7.486   2.554   3.819 -0.6125  0.0277  0.1021
11630SOL    HW135445   7.526   2.641   3.818 -2.2418  0.8475  0.9183
11630SOL    HW235446   7.419   2.557   3.750 -0.2670 -0.7929 -0.2742
11631SOL     OW35447   1.973   3.856   7.622  0.0691 -0.2919  0.6403
11631SOL    HW135448   2.065   3.860   7.645 -0.0645  1.1514  1.0269
11631SOL    HW235449   1.972   3.854   7.526  0.5086  1.0877  0.5781
11632SOL     OW35450   7.264   2.924   2.138  0.1461  0.1200  0.2473
11632SOL    HW135451   7.262   2.991   2.206  0.2747 -0.4375  0.8134
11632SOL    HW235452   7.228   2.846   2.181  0.9274 -0.4358 -0.1018
11633SOL     OW35453   5.208   2.527   5.714  0.1710  0.8217 -0.2136
11633SOL    HW135454   5.274   2.465   5.684 -0.9983 -0.0931 -0.9944
11633SOL    HW235455   5.124   2.484   5.696 -0.6856  0.8342  2.9924
11634SOL     OW35456   5.252   0.511   1.675 -0.0236 -0.0320  0.1465
11634SOL    HW135457   5.275   0.419   1.683 -0.5474 -0.1407  0.4487
11634SOL    HW235458   5.174   0.521   1.729 -1.6285 -0.0122 -2.0215
11635SOL     OW35459   0.789   6.077   3.816 -0.3530  0.4303 -0.6128
11635SOL    HW135460   0.806   6.008   3.881  0.0535  0.7516 -0.3732
11635SOL    HW235461   0.830   6.044   3.736  2.3014  1.5796  0.1711
11636SOL     OW35462   6.417   0.312   5.002 -0.0591 -0.3551 -0.1297
11636SOL    HW135463   6.462   0.320   4.918  2.2526  1.3350  1.1439
11636SOL    HW235464   6.340   0.369   4.994 -0.1559 -0.6180 -1.2459
11637SOL     OW35465   1.411   0.212   0.448  0.1566 -0.3015 -0.5267
11637SOL    HW135466   1.487   0.258   0.413  1.6270 -2.7083 -0.7628
11637SOL    HW235467   1.434   0.192   0.539 -1.6384  1.7579  0.4635
11638SOL     OW35468   7.620   7.630   3.759 -0.4841 -0.1138 -0.8293
11638SOL    HW135469   7.568   7.690   3.813 -0.8016  0.3917 -1.6873
11638SOL    HW235470   7.704   7.625   3.804  0.3813  2.7886 -1.8961
11639SOL     OW35471   7.422   4.899   6.343  0.1578 -0.5270  0.2453
11639SOL    HW135472   7.484   4.885   6.271  1.5773  0.0602  1.3000
11639SOL    HW235473   7.352   4.836   6.328  1.5424 -1.9601 -0.4070
11640SOL     OW35474   1.114   6.400   3.196 -0.1755  0.1156 -0.2185
11640SOL    HW135475   1.079   6.436   3.278 -0.6740  1.6242 -1.0416
11640SOL    HW235476   1.119   6.306   3.211 -1.3258  0.2371  1.1453
11641SOL     OW35477   4.317   3.448   2.989 -0.1897  0.3968  0.3047
11641SOL    HW135478   4.408   3.425   2.974  0.2028  1.0453  1.5969
11641SOL    HW235479   4.271   3.414   2.912  0.9686 -0.8592  0.1282
11642SOL     OW35480   0.030   0.821   1.785  0.2046 -0.0075  0.0736
11642SOL    HW135481   0.051   0.813   1.878  2.1632  2.4391 -0.0461
11642SOL    HW235482   0.111   0.851   1.745 -1.5992  3.0339 -1.6905
11643SOL     OW35483   1.634   2.830   6.524  0.2219 -0.5597 -0.6977
11643SOL    HW135484   1.660   2.751   6.476  0.6594 -1.1998  0.5326
11643SOL    HW235485   1.706   2.892   6.510  1.1903 -1.3614  0.5013
11644SOL     OW35486   6.116   6.415   5.590  0.5668 -0.0665  0.1349
11644SOL    HW135487   6.123   6.320   5.579 -0.1721 -0.4770  2.5402
11644SOL    HW235488   6.162   6.432   5.672  0.9754  1.7428 -0.4318
11645SOL     OW35489   3.554   2.283   7.379 -0.1976  0.1855  0.7860
11645SOL    HW135490   3.576   2.213   7.442  2.3968 -0.4208 -0.6660
11645SOL    HW235491   3.529   2.236   7.299 -2.8105  0.9601  1.0535
11646SOL     OW35492   6.522   3.591   3.105  0.1558 -0.4386 -0.4233
11646SOL    HW135493   6.476   3.603   3.187  1.4756 -0.5190  0.3558
11646SOL    HW235494   6.464   3.627   3.038 -0.2222  1.1468  0.7303
11647SOL     OW35495   7.495   6.109   2.232  0.4239 -0.9233  1.0137
11647SOL    HW135496   7.401   6.107   2.249  0.6992  0.0010  2.9170
11647SOL    HW235497   7.517   6.019   2.208 -1.0307 -1.0028 -0.1627
11648SOL     OW35498   0.117   6.387   6.511 -0.4017 -0.3655  0.7893
11648SOL    HW135499   0.161   6.362   6.592  1.2283 -1.6567 -0.4072
11648SOL    HW235500   0.169   6.461   6.477 -0.0166 -0.9323  0.1072
11649SOL     OW35501   7.684   1.962   0.459  0.3291  0.2401  0.2914
11649SOL    HW135502   7.589   1.967   0.458  0.3827  1.7244  0.2694
11649SOL    HW235503   7.708   1.973   0.551  0.4372 -2.0841  0.5962
11650SOL     OW35504   6.536   2.790   3.796 -0.2004  0.0494  0.2723
11650SOL    HW135505   6.581   2.747   3.869 -0.4842 -2.9436 -1.1880
11650SOL    HW235506   6.444   2.764   3.806 -0.2063 -0.5815 -1.2434
11651SOL     OW35507   1.643   2.673   7.066  0.0677 -0.2872 -0.1202
11651SOL    HW135508   1.617   2.762   7.090 -0.3266 -0.5136  0.3200
11651SOL    HW235509   1.678   2.681   6.978 -1.0844  0.1057 -0.5554
11652SOL     OW35510   0.411   1.290   1.920 -0.5527 -0.4524 -0.0983
11652SOL    HW135511   0.374   1.315   2.005  0.0028 -0.1425  0.0591
11652SOL    HW235512   0.335   1.279   1.863 -0.8757  0.9029  0.0233
11653SOL     OW35513   5.625   7.435   4.749  0.3438 -0.4463 -0.0549
11653SOL    HW135514   5.668   7.352   4.769 -3.2464 -2.6513 -0.5765
11653SOL    HW235515   5.630   7.443   4.654  0.9293  0.1166  0.0167
11654SOL     OW35516   4.829   2.957   7.248 -0.2151  0.3764  0.1312
11654SOL    HW135517   4.893   2.940   7.316  1.1476  1.2190 -0.8863
11654SOL    HW235518   4.837   3.051   7.229 -1.0194  0.2955 -0.7366
11655SOL     OW35519   2.349   0.874   4.929 -0.1345 -0.1649 -0.0735
11655SOL    HW135520   2.312   0.789   4.953 -1.5677  0.5817  0.4657
11655SOL    HW235521   2.307   0.936   4.989 -0.6832  1.2140 -1.8047
11656SOL     OW35522   6.514   1.710   4.779  0.0712 -0.1559  0.2546
11656SOL    HW135523   6.456   1.673   4.846 -0.3948 -0.5340 -0.3395
11656SOL    HW235524   6.601   1.678   4.802  0.0682  0.4949  1.2147
11657SOL     OW35525   4.973   1.596   5.247  0.1138 -0.0165  0.4034
11657SOL    HW135526   5.021   1.612   5.166  0.0143 -0.6909  0.2027
11657SOL    HW235527   4.938   1.681   5.272 -1.0125 -0.0276 -1.0083
11658SOL     OW35528   4.759   7.063   4.273  0.4322 -0.1270 -0.0002
11658SOL    HW135529   4.709   6.996   4.320 -1.6423  0.7050 -0.8848
11658SOL    HW235530   4.756   7.140   4.330 -1.0634  0.5190 -0.8849
11659SOL     OW35531   6.878   2.012   2.243 -0.1490  0.0810  0.4936
11659SOL    HW135532   6.940   1.985   2.175 -0.3350  0.0263  0.3463
11659SOL    HW235533   6.805   2.050   2.195 -0.7673 -0.9350  0.6027
11660SOL     OW35534   2.819   5.771   0.091 -0.3851 -0.2889  0.0265
11660SOL    HW135535   2.798   5.864   0.094  0.3559 -0.1484  1.9316
11660SOL    HW235536   2.907   5.764   0.127  0.1276 -1.6036 -1.3640
11661SOL     OW35537   7.641   0.164   4.687  0.4211  0.3293 -0.3609
11661SOL    HW135538   7.551   0.157   4.657 -0.1512  0.5239  1.2236
11661SOL    HW235539   7.684   0.085   4.654  0.2843  1.2343 -2.9597
11662SOL     OW35540   4.679   2.100   4.553  0.0615  0.2701 -0.1181
11662SOL    HW135541   4.635   2.036   4.497  1.4783 -0.6306 -0.2397
11662SOL    HW235542   4.634   2.183   4.534 -2.8943 -0.8918  1.2210
11663SOL     OW35543   0.685   5.589   7.668  0.2187 -0.0234  0.6066
11663SOL    HW135544   0.609   5.646   7.677  0.4343  1.0210 -2.8983
11663SOL    HW235545   0.758   5.640   7.701 -0.2056 -0.1042  1.7255
11664SOL     OW35546   6.138   6.682   7.510 -0.0035  0.3286  0.7537
11664SOL    HW135547   6.082   6.751   7.546 -1.8904 -1.4381  1.3990
11664SOL    HW235548   6.105   6.668   7.422  2.5507  2.4411 -0.6727
11665SOL     OW35549   1.764   7.431   5.623  0.1593 -0.3784  0.2008
11665SOL    HW135550   1.824   7.479   5.566 -0.1193  0.5506  0.6689
11665SOL    HW235551   1.699   7.394   5.565  1.1037 -1.3082 -0.3100
11666SOL     OW35552   1.695   0.696   0.103  0.0301  0.1458 -0.1158
11666SOL    HW135553   1.659   0.699   0.192  1.7365  0.6482  0.5905
11666SOL    HW235554   1.640   0.632   0.057 -0.5228 -0.5576  1.4626
11667SOL     OW35555   2.552   4.146   5.612 -0.6975  0.5475 -0.1839
11667SOL    HW135556   2.575   4.081   5.679 -2.3144  0.7314  0.6040
11667SOL    HW235557   2.595   4.226   5.640 -0.0128  0.2160 -0.2756
11668SOL     OW35558   1.579   0.479   2.927  0.3167  0.4504 -0.3384
11668SOL    HW135559   1.640   0.506   2.858  0.0777 -2.0388 -1.6415
11668SOL    HW235560   1.496   0.518   2.900  0.0966 -0.9357 -1.8597
11669SOL     OW35561   1.645   7.075   1.300  0.6099 -0.2432 -0.0048
11669SOL    HW135562   1.653   7.110   1.388 -1.7922  0.9812 -0.2046
11669SOL    HW235563   1.556   7.098   1.272  0.4680 -2.5906 -1.8883
11670SOL     OW35564   5.088   3.733   4.604  0.2233  0.1846  0.0995
11670SOL    HW135565   5.110   3.648   4.567  0.0254  0.6377 -1.1150
11670SOL    HW235566   5.133   3.736   4.688  0.9114 -0.7794 -0.2240
11671SOL     OW35567   7.017   1.501   1.859  0.5893  0.4338  0.5067
11671SOL    HW135568   6.983   1.420   1.896 -0.2662  0.3104 -0.4914
11671SOL    HW235569   6.985   1.502   1.769 -0.6561  2.5395  0.8851
11672SOL     OW35570   1.357   4.405   2.332  0.1640  0.1240 -0.3058
11672SOL    HW135571   1.332   4.416   2.240 -1.7331 -0.4234  0.0856
11672SOL    HW235572   1.356   4.494   2.367 -2.6430  0.1048 -0.0597
11673SOL     OW35573   2.181   2.715   2.608  0.3620 -0.2918  0.2663
11673SOL    HW135574   2.205   2.728   2.517 -2.1558 -0.8731 -0.5596
11673SOL    HW235575   2.118   2.785   2.627 -0.0151 -0.8489  1.1736
11674SOL     OW35576   3.848   7.201   7.207  0.1622 -0.4532 -0.0898
11674SOL    HW135577   3.911   7.247   7.152 -0.3086 -0.8740 -1.0062
11674SOL    HW235578   3.763   7.218   7.165 -0.0712 -1.7823 -0.2057
11675SOL     OW35579   1.917   6.609   4.753  0.4368  0.7393  0.3376
11675SOL    HW135580   1.973   6.635   4.827 -0.2275  0.8308  0.8152
11675SOL    HW235581   1.874   6.529   4.782 -1.3578  1.8355  0.8680
11676SOL     OW35582   1.709   3.109   4.955  0.5751 -0.2409 -0.0010
11676SOL    HW135583   1.749   3.090   5.040 -0.5807  2.1303  1.1753
11676SOL    HW235584   1.633   3.051   4.951 -0.6906  1.1823  1.7272
11677SOL     OW35585   3.451   3.307   2.199  0.4044 -0.5371  0.1729
11677SOL    HW135586   3.365   3.268   2.215 -0.3306  1.0274  0.2401
11677SOL    HW235587   3.448   3.390   2.247  2.0238 -0.5295  0.3017
11678SOL     OW35588   6.448   7.679   6.567  0.3038 -0.5457  0.3223
11678SOL    HW135589   6.449   7.660   6.661  1.0330 -0.2532  0.3806
11678SOL    HW235590   6.414   7.768   6.560  0.5982 -0.4307  0.3393
11679SOL     OW35591   2.043   4.873   1.763  0.8630 -0.3776  0.5023
11679SOL    HW135592   2.056   4.968   1.760 -0.8847 -0.0464 -4.0678
11679SOL    HW235593   2.118   4.837   1.716  1.2433 -1.3146  1.7519
11680SOL     OW35594   5.546   5.753   6.282  0.4852  0.2627 -0.3044
11680SOL    HW135595   5.578   5.725   6.196 -1.9738  0.5237 -1.3828
11680SOL    HW235596   5.553   5.675   6.337  0.5575 -0.3678 -1.1937
11681SOL     OW35597   2.800   6.763   0.877 -1.0539  0.3549 -0.0349
11681SOL    HW135598   2.819   6.718   0.960 -0.4430  2.5830  1.1111
11681SOL    HW235599   2.815   6.696   0.810 -0.5141 -1.2320  1.5834
11682SOL     OW35600   6.839   1.660   5.678 -0.0278 -0.4153 -0.6997
11682SOL    HW135601   6.785   1.729   5.641  1.3116  0.2488 -1.4776
11682SOL    HW235602   6.929   1.690   5.665  0.5557 -0.6475  2.1151
11683SOL     OW35603   4.676   6.938   3.371  0.1711 -0.0075 -0.0153
11683SOL    HW135604   4.598   6.980   3.406  1.9860  3.0890  0.7167
11683SOL    HW235605   4.702   6.874   3.437  0.4241  1.8145  1.7455
11684SOL     OW35606   4.499   4.140   4.692 -0.2798 -0.1661 -0.0164
11684SOL    HW135607   4.469   4.185   4.771  1.5818 -0.8340  1.1455
11684SOL    HW235608   4.446   4.177   4.622  0.5413  3.2475  0.9672
11685SOL     OW35609   2.616   7.417   0.680  0.5681 -0.0276 -0.4762
11685SOL    HW135610   2.666   7.363   0.741  0.0244 -0.7215 -0.6257
11685SOL    HW235611   2.671   7.494   0.664  1.3811 -0.5655 -0.2992
11686SOL     OW35612   0.697   1.365   5.584  0.7299  0.2126 -0.0928
11686SOL    HW135613   0.769   1.392   5.527  0.4263 -1.8746 -1.5754
11686SOL    HW235614   0.718   1.275   5.609  0.2413  0.6680  2.1930
11687SOL     OW35615   6.636   2.836   5.133 -0.3413  0.1582  0.0975
11687SOL    HW135616   6.636   2.893   5.209 -0.3909 -0.0091  0.2239
11687SOL    HW235617   6.615   2.894   5.059  0.0464  0.3824  0.1623
11688SOL     OW35618   5.146   5.657   6.249  0.3278  0.4440  0.2550
11688SOL    HW135619   5.145   5.737   6.301 -0.0336  0.9012 -0.4353
11688SOL    HW235620   5.180   5.590   6.308  1.2931  1.2491  0.6435
11689SOL     OW35621   4.619   3.461   4.889  0.3564 -0.1907 -0.1366
11689SOL    HW135622   4.557   3.421   4.950  0.0291  0.0624 -0.2935
11689SOL    HW235623   4.644   3.390   4.830 -1.6660  0.2007 -1.5808
11690SOL     OW35624   3.936   0.667   1.586  0.3504  0.3836 -0.1474
11690SOL    HW135625   3.899   0.583   1.557  0.3460  0.5288 -0.5751
11690SOL    HW235626   3.893   0.732   1.530 -1.2638  0.9080  1.6017
11691SOL     OW35627   4.707   5.486   2.345  0.4309 -0.4256  0.0288
11691SOL    HW135628   4.711   5.392   2.364 -0.1813 -0.3830  0.3873
11691SOL    HW235629   4.795   5.508   2.316  0.6954 -1.0274  0.3561
11692SOL     OW35630   5.805   7.279   2.618  0.3248 -0.5608 -0.0169
11692SOL    HW135631   5.794   7.265   2.712  0.4314 -1.0036 -0.0679
11692SOL    HW235632   5.721   7.252   2.580  0.9023 -2.1669 -0.2235
11693SOL     OW35633   4.212   3.357   2.309  0.0267  0.0689  0.2579
11693SOL    HW135634   4.277   3.309   2.257  0.7697 -1.8951  2.7323
11693SOL    HW235635   4.232   3.449   2.294  2.3695 -0.4590 -0.3544
11694SOL     OW35636   3.003   1.282   2.250 -0.7368 -0.0209  0.0553
11694SOL    HW135637   3.036   1.217   2.188 -0.1935  0.6678 -0.3823
11694SOL    HW235638   3.079   1.336   2.271 -0.9204 -0.2239  1.3038
11695SOL     OW35639   0.392   2.159   1.799 -0.1952  0.1811 -0.2942
11695SOL    HW135640   0.415   2.130   1.887 -1.3930  0.4944  0.1537
11695SOL    HW235641   0.366   2.079   1.753 -1.7841  0.2739  0.3810
11696SOL     OW35642   4.554   2.527   3.551 -0.0046 -0.6486 -0.3185
11696SOL    HW135643   4.575   2.604   3.496 -1.0019 -0.5808 -0.6293
11696SOL    HW235644   4.589   2.549   3.637 -0.6996  0.3885 -0.2761
11697SOL     OW35645   1.107   1.286   2.396 -0.1569  0.0116  0.3759
11697SOL    HW135646   1.116   1.260   2.304 -1.7555 -0.7661  0.4035
11697SOL    HW235647   1.190   1.329   2.417 -0.4649  1.9950 -1.9897
11698SOL     OW35648   6.074   5.982   7.689 -0.0715 -0.0464  0.3325
11698SOL    HW135649   6.158   6.005   7.650  0.4002 -0.5336  1.0372
11698SOL    HW235650   6.014   5.977   7.614  0.9532 -1.6536 -0.4605
11699SOL     OW35651   2.832   1.280   1.018 -0.1755  0.2939  0.1984
11699SOL    HW135652   2.906   1.319   1.065  0.2251  0.7290 -0.7659
11699SOL    HW235653   2.775   1.354   0.998 -0.2485  0.1446 -0.1552
11700SOL     OW35654   5.431   4.321   7.607  0.2327  0.4627  0.2571
11700SOL    HW135655   5.491   4.277   7.667  1.3072  1.1158 -0.3114
11700SOL    HW235656   5.447   4.281   7.522  0.4706  1.1981 -0.0585
11701SOL     OW35657   1.001   2.676   1.353  0.3246  0.3343 -0.0637
11701SOL    HW135658   0.988   2.769   1.338  0.9835  0.2261 -1.5130
11701SOL    HW235659   0.917   2.644   1.385 -0.1398  1.2859 -0.3116
11702SOL     OW35660   5.630   3.397   6.257 -0.2725 -0.0419 -0.2938
11702SOL    HW135661   5.551   3.436   6.296  0.4345  0.5700  0.5742
11702SOL    HW235662   5.700   3.420   6.318  0.4682 -1.1661 -0.6971
11703SOL     OW35663   4.182   2.502   0.852 -1.0626  0.1795 -0.1618
11703SOL    HW135664   4.274   2.521   0.865 -1.2621  0.3870  1.0094
11703SOL    HW235665   4.141   2.587   0.835 -1.2640  0.2766  0.7740
11704SOL     OW35666   6.788   1.656   2.325 -0.5188 -0.3543  0.0880
11704SOL    HW135667   6.882   1.669   2.311 -0.5738  0.7536  0.5823
11704SOL    HW235668   6.756   1.743   2.349 -2.1631 -0.0924 -2.6223
11705SOL     OW35669   6.110   5.832   0.748  0.2734 -0.3986  0.0725
11705SOL    HW135670   6.032   5.794   0.789 -1.6014  1.1161 -1.8711
11705SOL    HW235671   6.117   5.919   0.786  1.5705 -0.7924  0.8187
11706SOL     OW35672   5.476   1.993   2.098  0.3647 -0.1142  0.0977
11706SOL    HW135673   5.452   2.086   2.100 -0.9646 -0.4246 -0.7426
11706SOL    HW235674   5.401   1.949   2.059  1.6491 -1.3473 -1.0951
11707SOL     OW35675   4.976   2.323   4.314 -0.1118 -0.4519 -0.5440
11707SOL    HW135676   4.987   2.410   4.353 -0.7034 -0.4135 -0.4472
11707SOL    HW235677   4.887   2.325   4.278  0.4127 -0.4867 -1.8856
11708SOL     OW35678   5.464   5.585   2.081  0.5120  0.1594 -0.1669
11708SOL    HW135679   5.456   5.679   2.064 -1.8252  0.5201  2.2613
11708SOL    HW235680   5.524   5.579   2.156  0.1944 -0.2243  0.0601
11709SOL     OW35681   0.975   0.090   5.977 -0.8149 -0.0224 -0.1410
11709SOL    HW135682   1.038   0.018   5.977  1.6379  1.9989  0.6774
11709SOL    HW235683   0.991   0.137   5.896 -2.1267 -0.1088 -0.4847
11710SOL     OW35684   7.151   5.453   3.393  0.1901  0.0257  0.7591
11710SOL    HW135685   7.103   5.473   3.473  1.0421  0.8268  1.0868
11710SOL    HW235686   7.087   5.465   3.323 -0.5312 -0.5766  1.3041
11711SOL     OW35687   1.044   0.224   6.586 -0.0055 -0.6910  0.1567
11711SOL    HW135688   1.074   0.240   6.676  0.3151 -1.9527  0.2877
11711SOL    HW235689   1.015   0.310   6.556  1.0821  0.0202  1.0209
11712SOL     OW35690   3.793   2.939   3.194  0.0824  0.4539 -0.1487
11712SOL    HW135691   3.870   2.893   3.228  1.3275  3.3914  1.2931
11712SOL    HW235692   3.820   2.970   3.108 -0.7989 -1.4050 -1.1719
11713SOL     OW35693   4.969   4.293   0.624  0.2502 -0.8066 -0.5259
11713SOL    HW135694   4.931   4.205   0.618  0.6624 -1.4271  3.4480
11713SOL    HW235695   5.064   4.278   0.625  0.3510 -0.2117 -0.7403
11714SOL     OW35696   1.279   3.870   4.123 -0.4113 -0.6717  0.0206
11714SOL    HW135697   1.259   3.777   4.113 -0.3160 -0.7451  0.5210
11714SOL    HW235698   1.252   3.909   4.039 -1.3340 -0.9965  0.1544
11715SOL     OW35699   2.508   7.097   7.385  0.4415 -0.4766  0.5175
11715SOL    HW135700   2.432   7.131   7.337  0.5239 -1.4985 -0.3727
11715SOL    HW235701   2.531   7.016   7.340  0.7857 -1.2745  2.0566
11716SOL     OW35702   1.656   2.924   5.503 -0.2260  0.0214 -0.1315
11716SOL    HW135703   1.567   2.958   5.493  0.4968  2.6507  1.4450
11716SOL    HW235704   1.644   2.830   5.518 -2.8403  0.4921  1.3346
11717SOL     OW35705   0.423   6.347   0.429  0.0726  0.6525 -0.0962
11717SOL    HW135706   0.472   6.337   0.511 -1.0599  0.0555  0.5367
11717SOL    HW235707   0.466   6.420   0.384  0.6737  1.0445  1.0712
11718SOL     OW35708   1.189   7.314   2.414 -0.0062 -0.5969  0.5157
11718SOL    HW135709   1.178   7.243   2.350  0.3528 -2.2878  2.2241
11718SOL    HW235710   1.172   7.272   2.499  0.2162  1.3864  1.5972
11719SOL     OW35711   6.363   0.026   3.426 -0.6485  0.1004 -0.6340
11719SOL    HW135712   6.393   0.047   3.514 -1.9500 -1.6210  0.3040
11719SOL    HW235713   6.435   0.051   3.369  0.8221 -0.0540  1.0668
11720SOL     OW35714   2.158   5.854   1.847 -0.3183 -0.3127 -0.3974
11720SOL    HW135715   2.242   5.829   1.808 -0.6048  0.2200 -1.3960
11720SOL    HW235716   2.094   5.842   1.777 -0.8450  0.7011 -0.1093
11721SOL     OW35717   3.989   4.913   4.052  0.0406 -0.4293  0.4226
11721SOL    HW135718   3.940   4.832   4.067  0.6518 -0.5535  1.8217
11721SOL    HW235719   4.076   4.884   4.026  0.3628 -0.2375  1.2624
11722SOL     OW35720   3.420   1.901   4.405 -0.2853 -0.5238  0.3718
11722SOL    HW135721   3.400   1.974   4.346 -0.7854  0.1635  1.3576
11722SOL    HW235722   3.459   1.943   4.482 -0.5906 -1.3048  0.9613
11723SOL     OW35723   1.877   1.078   1.986 -0.3376  0.1177  0.2989
11723SOL    HW135724   1.943   1.025   1.940 -0.8392  0.2230 -0.5669
11723SOL    HW235725   1.928   1.139   2.039  0.2645  0.1843 -0.3465
11724SOL     OW35726   2.362   4.364   1.207  0.0050  0.2465 -0.0100
11724SOL    HW135727   2.378   4.458   1.212  2.2160 -0.0950  0.3242
11724SOL    HW235728   2.393   4.338   1.120 -1.1438 -0.0967 -0.3319
11725SOL     OW35729   3.320   1.612   3.038 -0.0894 -0.5574 -0.0645
11725SOL    HW135730   3.269   1.598   2.958 -0.6446 -0.1604  0.2144
11725SOL    HW235731   3.401   1.652   3.008  1.7074 -4.4023 -0.9468
11726SOL     OW35732   5.323   0.761   3.608 -0.1019  0.9936  0.1046
11726SOL    HW135733   5.358   0.838   3.564 -0.6292  1.0488 -0.2318
11726SOL    HW235734   5.295   0.793   3.694 -1.8084  1.5558 -0.6131
11727SOL     OW35735   5.985   3.038   0.859  0.4466 -0.2372 -0.4789
11727SOL    HW135736   5.941   2.970   0.808 -0.0074 -0.4889  0.2387
11727SOL    HW235737   6.010   3.103   0.794  1.1537 -1.2151 -1.2227
11728SOL     OW35738   0.971   4.929   2.906  0.3661  0.2379 -0.0454
11728SOL    HW135739   0.920   4.848   2.908  0.7356 -0.0148 -0.7459
11728SOL    HW235740   0.913   4.994   2.945 -0.4200 -0.0919 -0.6286
11729SOL     OW35741   3.743   2.537   3.330 -0.6245 -0.7082 -0.2453
11729SOL    HW135742   3.768   2.588   3.253  0.5541  0.8519  1.1136
11729SOL    HW235743   3.770   2.590   3.405 -0.3283 -2.8468  1.2740
11730SOL     OW35744   2.980   2.362   7.560  0.0798 -0.1981 -0.2015
11730SOL    HW135745   3.034   2.375   7.638 -1.2924 -2.6441  1.3067
11730SOL    HW235746   3.001   2.436   7.504  0.2765  2.3932  2.9563
11731SOL     OW35747   4.519   3.049   4.442 -0.1062 -0.3394 -0.0389
11731SOL    HW135748   4.607   3.074   4.413 -0.7529  0.8754 -1.0162
11731SOL    HW235749   4.534   3.003   4.524  1.3673  1.1173  0.5785
11732SOL     OW35750   6.712   6.488   7.100  0.3122  0.3259  0.1189
11732SOL    HW135751   6.646   6.536   7.151  0.2281 -2.2130  2.6415
11732SOL    HW235752   6.663   6.418   7.058  1.0468 -0.1861  0.1052
11733SOL     OW35753   1.586   4.526   3.117  0.2510 -0.3219 -0.2648
11733SOL    HW135754   1.604   4.572   3.035  0.1280 -0.4623 -0.3709
11733SOL    HW235755   1.540   4.446   3.091  0.1548 -0.3373 -0.0539
11734SOL     OW35756   7.517   6.703   4.900  0.2494  0.1145  0.1407
11734SOL    HW135757   7.568   6.637   4.852 -0.0458  0.9790 -1.4469
11734SOL    HW235758   7.570   6.783   4.893 -0.4336  0.5695  0.1237
11735SOL     OW35759   1.027   4.887   6.407  0.6037 -1.2880 -0.1254
11735SOL    HW135760   0.935   4.896   6.431  0.9530  3.8136  0.4092
11735SOL    HW235761   1.059   4.814   6.459 -2.7973 -2.4050  0.6352
11736SOL     OW35762   3.237   3.792   3.414 -0.1386 -0.0760 -0.1160
11736SOL    HW135763   3.194   3.868   3.375  0.0031  0.1414  0.1439
11736SOL    HW235764   3.165   3.743   3.454 -0.0507  0.8350  1.2388
11737SOL     OW35765   0.981   6.694   5.207 -0.2175  0.2516  0.6293
11737SOL    HW135766   1.072   6.715   5.189  0.0646 -1.2784  0.1265
11737SOL    HW235767   0.979   6.677   5.301  0.3122 -1.0327  0.4189
11738SOL     OW35768   4.076   3.842   6.252 -0.4058  0.2671  0.1853
11738SOL    HW135769   4.037   3.922   6.288  0.4202  0.9215 -0.3391
11738SOL    HW235770   4.006   3.802   6.201 -0.6089  1.0757 -0.1957
11739SOL     OW35771   5.732   2.666   2.099 -0.4551  0.0715  0.1918
11739SOL    HW135772   5.701   2.611   2.171 -0.3597  1.0896  1.0230
11739SOL    HW235773   5.826   2.653   2.097 -0.5699 -0.8123 -0.4943
11740SOL     OW35774   5.879   4.575   0.314  0.3567 -0.3158  0.3008
11740SOL    HW135775   5.826   4.621   0.379 -0.9434  0.1894 -1.0652
11740SOL    HW235776   5.913   4.645   0.258 -1.6330 -0.8940 -1.7931
11741SOL     OW35777   3.788   6.967   5.335  0.4125  0.4898 -0.0460
11741SOL    HW135778   3.719   6.921   5.286  0.1695  0.5448  0.2449
11741SOL    HW235779   3.760   7.059   5.333  0.6159  0.5499 -0.1550
11742SOL     OW35780   5.360   7.165   0.184  0.2334  0.0400  0.1751
11742SOL    HW135781   5.426   7.151   0.116 -1.0496 -2.2160 -0.6933
11742SOL    HW235782   5.408   7.156   0.267  1.1891 -0.5361 -0.4285
11743SOL     OW35783   1.309   7.317   3.501  0.2196 -0.3005 -0.1602
11743SOL    HW135784   1.336   7.284   3.587 -0.2979  0.4733  0.3114
11743SOL    HW235785   1.389   7.351   3.462  0.3260  0.0562  0.3521
11744SOL     OW35786   4.041   2.984   1.839  0.5081 -0.1636  0.4752
11744SOL    HW135787   4.086   3.048   1.893  0.1951  1.1239 -0.7427
11744SOL    HW235788   4.091   2.903   1.851  1.4897  0.5385  1.2749
11745SOL     OW35789   5.545   5.956   4.976 -0.2469 -0.0247  0.4710
11745SOL    HW135790   5.565   5.897   5.049  3.6733  1.4773  0.8210
11745SOL    HW235791   5.550   6.044   5.014  1.2239  0.7747 -1.3968
11746SOL     OW35792   4.882   0.639   2.464  0.5973 -0.4113 -0.6129
11746SOL    HW135793   4.868   0.581   2.390 -0.7295 -0.9471  0.0335
11746SOL    HW235794   4.959   0.691   2.440 -0.6772  0.4877 -3.0138
11747SOL     OW35795   2.482   5.880   1.782 -0.1440  0.3769 -0.3409
11747SOL    HW135796   2.513   5.807   1.837  0.7469  1.1657  0.2408
11747SOL    HW235797   2.518   5.958   1.824 -0.8185  1.1341 -1.1393
11748SOL     OW35798   5.162   4.215   5.140 -0.0885 -0.4132 -0.6220
11748SOL    HW135799   5.227   4.252   5.080  0.2771  1.4798  0.8362
11748SOL    HW235800   5.214   4.189   5.217 -0.9364  0.4376  0.2631
11749SOL     OW35801   1.889   7.516   0.079  0.4093 -0.1554 -0.2469
11749SOL    HW135802   1.971   7.467   0.093  0.6759  0.5031  0.6101
11749SOL    HW235803   1.853   7.527   0.167 -0.2663  0.1309 -0.5545
11750SOL     OW35804   1.296   1.128   7.170  0.1927  0.0922 -0.2898
11750SOL    HW135805   1.388   1.111   7.149 -0.1280  0.4134 -2.0581
11750SOL    HW235806   1.268   1.194   7.106 -1.7893 -1.4094 -1.0553
11751SOL     OW35807   6.574   4.697   4.257  0.2614  0.6773  0.5219
11751SOL    HW135808   6.486   4.705   4.222  1.0094  0.0680 -1.7027
11751SOL    HW235809   6.570   4.622   4.316 -0.6438  0.5041  0.2497
11752SOL     OW35810   1.776   7.086   0.610 -0.2777  0.0111 -0.3540
11752SOL    HW135811   1.789   7.013   0.550  2.4190 -0.5536  0.7612
11752SOL    HW235812   1.689   7.119   0.590 -1.0865 -2.7119 -1.7517
11753SOL     OW35813   1.868   2.085   4.735 -0.2592 -0.0680  0.4765
11753SOL    HW135814   1.815   2.163   4.719  1.1254  0.8872  0.4024
11753SOL    HW235815   1.958   2.117   4.740  0.5712 -1.8831 -1.3907
11754SOL     OW35816   1.981   3.039   7.483  0.1013 -0.1749  0.1263
11754SOL    HW135817   1.980   2.993   7.568 -0.7684  0.9438  0.7565
11754SOL    HW235818   1.905   3.097   7.487 -1.0363 -1.3740 -2.1614
11755SOL     OW35819   5.064   2.967   1.714 -0.5649 -0.2219 -0.3205
11755SOL    HW135820   5.087   2.973   1.806 -3.4206  1.3622  0.4303
11755SOL    HW235821   5.072   3.057   1.681 -0.3992 -0.6169 -1.4046
11756SOL     OW35822   5.997   0.457   4.925 -0.3726  0.2308  0.2483
11756SOL    HW135823   6.065   0.523   4.933 -0.0657 -0.1026  0.3727
11756SOL    HW235824   6.025   0.402   4.851 -1.5264  1.3124 -1.0568
11757SOL     OW35825   6.169   4.026   2.073 -0.1528  0.1458 -0.3095
11757SOL    HW135826   6.138   4.025   1.982  1.3955 -0.3506 -0.8756
11757SOL    HW235827   6.137   3.943   2.109  0.8458 -0.5806 -1.0245
11758SOL     OW35828   0.278   6.077   7.680  0.1124 -0.5754  0.3937
11758SOL    HW135829   0.195   6.036   7.704  0.0922 -0.3747  0.6753
11758SOL    HW235830   0.308   6.119   7.761 -0.6504  1.3104 -0.2650
11759SOL     OW35831   0.796   6.258   1.269 -0.3302 -0.3538 -0.6394
11759SOL    HW135832   0.838   6.325   1.214  0.5310  0.4273  0.8804
11759SOL    HW235833   0.703   6.281   1.268 -0.2138  0.1101 -1.1606
11760SOL     OW35834   5.051   5.444   5.112 -0.1629 -0.5279  0.1257
11760SOL    HW135835   5.050   5.372   5.176  0.5467 -1.1819 -0.5742
11760SOL    HW235836   5.141   5.445   5.079  0.3250  1.7677  1.2978
11761SOL     OW35837   2.567   0.824   2.040  0.1412  0.0836  0.5673
11761SOL    HW135838   2.578   0.914   2.070 -1.4833  0.4668  0.1145
11761SOL    HW235839   2.481   0.798   2.073 -0.2435 -0.6399 -0.9229
11762SOL     OW35840   6.122   2.311   6.664 -0.1026  0.3137  0.3390
11762SOL    HW135841   6.142   2.395   6.704 -1.0277  1.2077 -0.9991
11762SOL    HW235842   6.187   2.301   6.595 -0.1705  0.0611  0.3103
11763SOL     OW35843   3.198   0.165   1.831  0.1432  0.4100  0.2965
11763SOL    HW135844   3.287   0.194   1.810  0.4736  0.3668  1.5752
11763SOL    HW235845   3.195   0.165   1.927 -0.8377 -0.7995  0.2843
11764SOL     OW35846   2.259   4.479   0.794 -0.1807  0.6058 -0.1494
11764SOL    HW135847   2.251   4.417   0.867  2.4341  1.1359  0.6750
11764SOL    HW235848   2.218   4.559   0.827  0.4899  0.6714  0.5364
11765SOL     OW35849   4.753   6.621   0.636  0.3508 -0.0743 -0.2295
11765SOL    HW135850   4.786   6.643   0.723  0.0525 -1.5062  0.2853
11765SOL    HW235851   4.811   6.667   0.576  0.7136  0.7523  0.7118
11766SOL     OW35852   0.703   3.235   2.997 -0.8888 -0.3344 -0.2999
11766SOL    HW135853   0.722   3.143   3.015  0.3475  0.0576  0.5687
11766SOL    HW235854   0.617   3.250   3.035 -0.5620 -0.8333  0.6801
11767SOL     OW35855   6.401   3.244   6.085  0.1755  0.4708  0.2048
11767SOL    HW135856   6.333   3.229   6.151  0.7321  0.3958  0.7784
11767SOL    HW235857   6.353   3.264   6.005 -0.5185  0.5319  0.6236
11768SOL     OW35858   5.085   5.043   5.983 -0.0431  0.2108 -0.0333
11768SOL    HW135859   5.093   5.133   5.950 -2.2539  0.3236 -0.4083
11768SOL    HW235860   5.033   4.998   5.917 -1.2158 -0.6192  1.4145
11769SOL     OW35861   4.783   4.360   4.763 -0.4654  0.1386 -0.0162
11769SOL    HW135862   4.772   4.451   4.792  1.5208  0.3299  0.2896
11769SOL    HW235863   4.798   4.368   4.669  0.4196  0.2104  0.1242
11770SOL     OW35864   0.653   5.363   5.278  0.3683 -0.0786  0.0572
11770SOL    HW135865   0.669   5.310   5.356 -1.3237 -0.0168  0.4947
11770SOL    HW235866   0.694   5.447   5.297 -0.5531  0.1346  1.1563
11771SOL     OW35867   3.046   2.311   2.840  0.6705  0.1895 -0.2831
11771SOL    HW135868   3.002   2.343   2.762 -1.1071  1.2936  1.1043
11771SOL    HW235869   3.067   2.220   2.820 -0.2126  0.2923 -1.8365
11772SOL     OW35870   3.950   5.583   2.534 -0.3967  0.3219  0.2464
11772SOL    HW135871   3.953   5.516   2.466 -1.7589 -0.4391  0.8937
11772SOL    HW235872   4.015   5.648   2.506 -0.9051  0.0426 -1.7554
11773SOL     OW35873   3.589   0.654   3.204  0.2555 -0.0260  0.1917
11773SOL    HW135874   3.655   0.702   3.254 -0.7454  0.7790  0.7959
11773SOL    HW235875   3.508   0.665   3.255 -0.3165 -1.1319 -0.4293
11774SOL     OW35876   4.205   1.484   5.248  0.1144 -0.0804  0.3074
11774SOL    HW135877   4.141   1.552   5.269  1.0107  0.5705  0.9952
11774SOL    HW235878   4.258   1.522   5.179  0.3660 -0.2477  0.4087
11775SOL     OW35879   1.709   4.497   1.799 -0.1257 -0.0273  0.6059
11775SOL    HW135880   1.747   4.584   1.788 -1.1458  0.6328  1.9848
11775SOL    HW235881   1.737   4.470   1.887 -0.6938 -0.6340  0.6080
11776SOL     OW35882   6.932   5.796   6.267 -0.1668  0.2254 -0.1629
11776SOL    HW135883   7.008   5.740   6.285 -1.3094 -1.3978 -0.2671
11776SOL    HW235884   6.900   5.821   6.354  1.2751  2.1065 -0.1027
11777SOL     OW35885   4.241   0.575   3.368 -0.0943  0.4804  0.4459
11777SOL    HW135886   4.205   0.621   3.443 -3.3099 -1.7814  0.4910
11777SOL    HW235887   4.215   0.484   3.380  2.3292 -0.6421 -1.6996
11778SOL     OW35888   6.953   0.684   2.411  0.0389 -0.6234  0.2333
11778SOL    HW135889   6.953   0.596   2.374 -2.3421 -0.1844 -0.9785
11778SOL    HW235890   6.984   0.740   2.340  0.7196 -0.3754  0.7188
11779SOL     OW35891   2.403   2.210   4.468  0.1220 -0.4578  0.4232
11779SOL    HW135892   2.498   2.221   4.476  0.4857 -1.3019 -1.8599
11779SOL    HW235893   2.382   2.136   4.525  0.6918  0.2662  1.5823
11780SOL     OW35894   3.679   3.129   5.815  0.1116  0.3721  0.4306
11780SOL    HW135895   3.661   3.195   5.882  0.4033 -0.6125  1.5174
11780SOL    HW235896   3.775   3.120   5.816  0.0511 -0.2743  0.5065
11781SOL     OW35897   0.474   1.936   4.730  0.4250 -0.2423 -0.5495
11781SOL    HW135898   0.496   1.973   4.816  1.6848 -2.3206  0.1083
11781SOL    HW235899   0.452   2.012   4.676 -0.4354  1.1426  1.5976
11782SOL     OW35900   5.241   5.348   2.301 -0.0699  0.2249  0.4468
11782SOL    HW135901   5.318   5.338   2.245  0.0791  0.3184  0.6340
11782SOL    HW235902   5.169   5.310   2.250  0.0477  0.3944  0.1558
11783SOL     OW35903   3.316   5.546   3.465 -0.5940  0.1702 -0.3196
11783SOL    HW135904   3.259   5.595   3.525 -0.1727 -1.1768  1.2698
11783SOL    HW235905   3.393   5.601   3.456 -0.7999  0.5486  0.1322
11784SOL     OW35906   2.030   2.350   2.660 -0.5525  0.0365 -0.3814
11784SOL    HW135907   1.989   2.285   2.718  0.3686 -1.4148 -1.2644
11784SOL    HW235908   2.047   2.425   2.716 -1.9360 -0.3535  0.6213
11785SOL     OW35909   1.147   7.260   4.713 -0.3166  0.1436 -0.1235
11785SOL    HW135910   1.196   7.199   4.659  0.1166  0.6313 -0.2817
11785SOL    HW235911   1.072   7.209   4.744 -0.2561 -0.3063 -0.7001
11786SOL     OW35912   6.545   6.696   7.672  0.2040 -0.7950  0.3964
11786SOL    HW135913   6.485   6.695   7.597  0.2301 -1.0082  0.3771
11786SOL    HW235914   6.505   6.757   7.734  0.0191 -0.8616  0.3426
11787SOL     OW35915   6.568   4.336   3.715 -0.1794 -0.0604  0.1988
11787SOL    HW135916   6.548   4.346   3.622 -1.0867 -0.2286  0.3667
11787SOL    HW235917   6.627   4.409   3.735 -1.1970  0.8869 -0.1717
11788SOL     OW35918   0.999   4.172   6.998  0.0059 -1.0622 -0.0076
11788SOL    HW135919   1.051   4.208   6.927 -1.1191 -0.5440 -0.5899
11788SOL    HW235920   1.018   4.229   7.073 -0.6095 -0.1555 -0.5282
11789SOL     OW35921   6.807   5.961   7.512 -0.3000 -0.1896 -0.2484
11789SOL    HW135922   6.824   5.974   7.419  0.8720 -0.6988 -0.1217
11789SOL    HW235923   6.878   6.007   7.557 -1.0482  0.3481  0.4116
11790SOL     OW35924   6.933   6.448   7.249  0.2762  0.0866  0.2896
11790SOL    HW135925   6.987   6.400   7.187  1.0498  1.1421  0.1166
11790SOL    HW235926   6.850   6.461   7.204 -0.1954 -1.6256  0.5933
11791SOL     OW35927   4.813   3.698   5.827  0.1071  0.3646 -0.7738
11791SOL    HW135928   4.750   3.764   5.800  2.4774  2.8348 -0.6580
11791SOL    HW235929   4.863   3.678   5.747  1.1831  0.7923 -0.2230
11792SOL     OW35930   2.934   7.130   6.681  0.0041  0.1336  0.1242
11792SOL    HW135931   3.027   7.148   6.675  0.4241 -1.9687 -0.5631
11792SOL    HW235932   2.901   7.192   6.745  1.8009  1.1289  0.1393
11793SOL     OW35933   1.805   3.070   0.948  0.7480 -0.0260 -0.3229
11793SOL    HW135934   1.851   2.989   0.929 -1.0408 -1.5852  1.5575
11793SOL    HW235935   1.724   3.064   0.898  0.0580  0.0058  0.7578
11794SOL     OW35936   1.498   4.997   4.575  0.4936  0.1645  0.1501
11794SOL    HW135937   1.589   4.973   4.556 -0.0566 -1.0827 -1.0860
11794SOL    HW235938   1.446   4.942   4.516 -1.1645 -0.6844  2.2485
11795SOL     OW35939   4.873   2.771   4.330 -0.0995  0.1088 -0.1486
11795SOL    HW135940   4.804   2.822   4.373 -1.3351 -1.7977  0.2607
11795SOL    HW235941   4.840   2.758   4.241 -0.5904 -1.2784  0.2083
11796SOL     OW35942   1.815   4.442   2.476 -0.0254  0.1649  0.1796
11796SOL    HW135943   1.850   4.406   2.395 -0.7216  0.6871 -0.3651
11796SOL    HW235944   1.892   4.467   2.527  0.4486 -1.1143  0.1264
11797SOL     OW35945   5.194   5.938   2.271 -0.5928  0.3683 -0.0878
11797SOL    HW135946   5.145   5.879   2.328  1.3677  0.2456  1.5953
11797SOL    HW235947   5.163   5.917   2.182 -0.8115 -2.3686  0.5477
11798SOL     OW35948   2.909   1.930   6.514  0.1413 -0.3595 -0.2425
11798SOL    HW135949   2.909   2.022   6.540 -0.9683 -0.6850  1.0570
11798SOL    HW235950   2.842   1.924   6.446  0.0892 -0.2325 -0.2032
11799SOL     OW35951   7.623   1.639   1.130  0.0385 -0.1562  0.0547
11799SOL    HW135952   7.658   1.583   1.060  2.1416  1.5982 -0.4231
11799SOL    HW235953   7.673   1.721   1.122 -0.8717  0.7393  2.5407
11800SOL     OW35954   7.753   6.464   7.540  0.8373 -0.3618  0.2307
11800SOL    HW135955   7.794   6.380   7.562 -1.4191 -1.3009  1.2237
11800SOL    HW235956   7.810   6.530   7.580  1.0170 -1.6284  2.2307
11801SOL     OW35957   0.909   2.147   2.894 -0.2874  0.4735 -0.3356
11801SOL    HW135958   0.851   2.088   2.846 -1.2023 -0.1587  1.4659
11801SOL    HW235959   0.907   2.115   2.984  2.5122  0.7355 -0.0899
11802SOL     OW35960   2.789   5.905   0.835  0.0493  0.2774 -0.2069
11802SOL    HW135961   2.817   5.930   0.923 -0.0750 -0.4025  0.0282
11802SOL    HW235962   2.839   5.826   0.815 -0.1946  0.2189 -0.5984
11803SOL     OW35963   0.649   3.427   2.036  0.0937  0.0713 -0.0086
11803SOL    HW135964   0.744   3.426   2.047  0.2055  0.8847 -0.7896
11803SOL    HW235965   0.620   3.504   2.084  0.0247  0.7306 -1.0657
11804SOL     OW35966   3.954   1.300   1.581 -0.3142  0.2729 -0.1308
11804SOL    HW135967   3.905   1.358   1.639  0.2728 -0.1373  0.7917
11804SOL    HW235968   3.899   1.291   1.503 -1.2686  0.5618  0.5032
11805SOL     OW35969   6.487   5.341   0.953  0.3112  0.0040  0.0239
11805SOL    HW135970   6.539   5.284   0.897 -0.7796  0.7775 -1.8782
11805SOL    HW235971   6.474   5.420   0.900 -2.0849  0.1558  0.7491
11806SOL     OW35972   6.584   5.518   0.138  0.3241 -0.0978 -0.1775
11806SOL    HW135973   6.523   5.445   0.125 -1.1158  0.8691  0.7858
11806SOL    HW235974   6.620   5.505   0.225 -0.1494  0.4627  0.1114
11807SOL     OW35975   3.247   1.941   1.851  0.2040  0.1014  0.7062
11807SOL    HW135976   3.291   1.876   1.906  0.7674  0.7361  1.0206
11807SOL    HW235977   3.318   1.981   1.801 -0.2057  0.1203  0.1457
11808SOL     OW35978   4.743   0.041   2.306  0.7537  0.5814  0.0002
11808SOL    HW135979   4.654   0.018   2.278  0.7586  0.4222  0.1138
11808SOL    HW235980   4.799   0.010   2.236  0.5775  2.4329 -1.0269
11809SOL     OW35981   6.297   2.606   5.156 -0.0316  0.0117  0.1058
11809SOL    HW135982   6.392   2.605   5.164  0.2201  3.3857 -1.0644
11809SOL    HW235983   6.267   2.655   5.233 -0.2567  3.6022 -2.0809
11810SOL     OW35984   1.419   4.267   5.284  0.2354 -0.5833  0.5165
11810SOL    HW135985   1.391   4.283   5.193  2.0251  0.2137  0.0442
11810SOL    HW235986   1.362   4.323   5.337 -0.3871 -0.5410 -0.1846
11811SOL     OW35987   4.068   7.020   5.302  0.1461  0.1749 -0.7606
11811SOL    HW135988   3.980   6.984   5.300 -0.4605  1.6207 -1.2582
11811SOL    HW235989   4.071   7.072   5.382  0.0400  1.3141 -1.4795
11812SOL     OW35990   3.718   3.809   1.567  0.3881 -0.0449  0.0497
11812SOL    HW135991   3.734   3.778   1.657  0.7239 -3.4774 -1.0578
11812SOL    HW235992   3.623   3.801   1.555  0.5435 -1.3747 -0.4341
11813SOL     OW35993   6.269   6.997   4.793  0.1640  0.3745 -0.3870
11813SOL    HW135994   6.337   6.967   4.854  0.2994 -1.1212 -1.2159
11813SOL    HW235995   6.290   7.089   4.778  1.1833  0.3023  0.4383
11814SOL     OW35996   4.823   5.219   2.287  0.3608  0.2115 -0.7394
11814SOL    HW135997   4.770   5.240   2.209 -0.6118 -1.1275 -0.4776
11814SOL    HW235998   4.878   5.146   2.259  2.1868  1.6288 -1.0223
11815SOL     OW35999   5.742   5.976   6.750  0.1913 -0.2799 -0.0604
11815SOL    HW136000   5.724   5.915   6.822  0.3634  0.9312  1.0719
11815SOL    HW236001   5.661   6.027   6.742  0.3720 -0.0326 -0.3242
11816SOL     OW36002   1.117   3.254   2.438 -0.5360 -0.3641  0.0309
11816SOL    HW136003   1.162   3.288   2.515  0.2010  0.1085 -0.5989
11816SOL    HW236004   1.179   3.193   2.398 -0.6032 -0.0106 -0.6248
11817SOL     OW36005   5.308   6.370   4.517  0.0923 -0.1624  0.0620
11817SOL    HW136006   5.373   6.431   4.481 -0.4257  0.4856  0.2125
11817SOL    HW236007   5.345   6.344   4.601 -0.2684  0.9446  0.5867
11818SOL     OW36008   0.660   5.182   0.697 -0.1517 -0.5662 -0.1821
11818SOL    HW136009   0.719   5.250   0.726 -0.8772  0.1636 -0.3787
11818SOL    HW236010   0.586   5.186   0.757  0.4838 -2.2458  0.7943
11819SOL     OW36011   3.127   7.348   4.987  0.5042  0.3264  0.0475
11819SOL    HW136012   3.180   7.280   4.945 -0.8444 -0.4078 -0.5197
11819SOL    HW236013   3.037   7.319   4.975 -0.0403  1.5287  1.0245
11820SOL     OW36014   7.304   3.056   1.720 -0.1699 -0.2159  0.1652
11820SOL    HW136015   7.400   3.060   1.729 -0.1012  0.3339 -0.7271
11820SOL    HW236016   7.286   3.101   1.638 -1.1745 -0.6232  0.1543
11821SOL     OW36017   5.627   1.625   7.003 -0.0174 -0.4007  0.5530
11821SOL    HW136018   5.714   1.665   6.993 -0.6117  0.9912  0.6384
11821SOL    HW236019   5.615   1.572   6.924  0.5823  0.0678  0.1356
11822SOL     OW36020   6.337   3.543   3.666 -0.3196 -0.2390 -0.2281
11822SOL    HW136021   6.272   3.539   3.595 -2.5370 -1.4354  1.7265
11822SOL    HW236022   6.375   3.630   3.659 -2.0444  0.4720 -1.5813
11823SOL     OW36023   4.862   4.479   1.880 -0.1140  0.1809 -0.7702
11823SOL    HW136024   4.830   4.447   1.964  1.8676 -0.1954 -0.1221
11823SOL    HW236025   4.791   4.461   1.818 -1.2664 -0.2792  0.6514
11824SOL     OW36026   6.296   3.224   7.292  0.7046 -0.0309  0.1174
11824SOL    HW136027   6.367   3.201   7.352  0.8392  1.2629  0.4818
11824SOL    HW236028   6.262   3.308   7.325  0.3742  0.4080 -1.2486
11825SOL     OW36029   6.914   3.253   0.173 -0.2386 -0.0811 -0.3848
11825SOL    HW136030   6.882   3.197   0.102 -0.0853  0.1304 -0.6235
11825SOL    HW236031   6.992   3.295   0.136  0.1371 -0.3630  0.0828
11826SOL     OW36032   2.662   4.517   6.000  0.1237 -0.3412  0.4312
11826SOL    HW136033   2.757   4.505   5.999  0.1909  0.1298 -0.4768
11826SOL    HW236034   2.648   4.598   5.951 -0.8892 -1.5624 -1.4267
11827SOL     OW36035   0.129   1.261   4.153 -0.0079 -0.4607  0.2145
11827SOL    HW136036   0.219   1.229   4.138 -0.3360 -1.5177  0.3890
11827SOL    HW236037   0.098   1.210   4.228 -1.1118 -0.8805 -0.5002
11828SOL     OW36038   5.094   0.644   0.652 -0.0029  0.3012  0.9076
11828SOL    HW136039   5.189   0.653   0.652  0.0607 -0.2616  1.6289
11828SOL    HW236040   5.063   0.719   0.703  0.0732  0.3343  0.9056
11829SOL     OW36041   1.064   3.522   1.689 -0.9489 -0.2959  0.1268
11829SOL    HW136042   1.096   3.533   1.778  0.2119  0.5361 -0.3722
11829SOL    HW236043   1.041   3.429   1.682 -1.3136 -0.3081  1.3600
11830SOL     OW36044   5.692   3.335   6.853  0.5145  0.5261  0.4386
11830SOL    HW136045   5.608   3.327   6.808  1.5417 -0.2940 -1.4305
11830SOL    HW236046   5.709   3.429   6.855  1.0872  0.5571 -2.2493
11831SOL     OW36047   3.736   3.396   0.071  0.2637  0.0001  0.4158
11831SOL    HW136048   3.703   3.472   0.025  1.6788 -0.2031 -1.0327
11831SOL    HW236049   3.669   3.329   0.059  0.2161  0.2208 -0.6501
11832SOL     OW36050   0.379   2.605   4.623 -0.0472  0.2181 -0.1167
11832SOL    HW136051   0.445   2.628   4.688 -0.3149  0.0493  0.2172
11832SOL    HW236052   0.336   2.527   4.659 -0.6619  0.5303 -0.1683
11833SOL     OW36053   4.507   6.353   0.915  0.0234  0.1432  0.6193
11833SOL    HW136054   4.460   6.417   0.862 -2.0511 -2.6526 -1.1661
11833SOL    HW236055   4.597   6.355   0.882 -0.7591 -0.0891 -1.6401
11834SOL     OW36056   5.068   4.856   0.423 -0.5927 -0.0472  0.0704
11834SOL    HW136057   5.007   4.835   0.352  1.4898 -0.5619 -1.6538
11834SOL    HW236058   5.113   4.935   0.394 -0.2422  0.1831  1.1860
11835SOL     OW36059   5.232   5.954   3.923  0.6285 -0.5402  0.3854
11835SOL    HW136060   5.290   5.948   3.998 -0.7775 -3.1587  1.4217
11835SOL    HW236061   5.281   5.914   3.851  0.5247 -1.8574  1.0126
11836SOL     OW36062   6.617   5.171   0.349  0.4838 -0.5734  0.5074
11836SOL    HW136063   6.647   5.218   0.271 -1.1554 -1.4649 -0.7273
11836SOL    HW236064   6.692   5.118   0.375  1.4410  0.6028  0.2663
11837SOL     OW36065   6.001   7.141   4.991 -0.4388 -0.3379 -0.2154
11837SOL    HW136066   6.064   7.213   4.984 -0.4025 -0.3624 -0.1381
11837SOL    HW236067   6.053   7.064   5.010 -0.4308 -0.4777 -0.7889
11838SOL     OW36068   5.876   0.635   1.523 -0.5286 -0.7879 -0.1358
11838SOL    HW136069   5.882   0.546   1.558 -1.1747 -0.9684 -0.4699
11838SOL    HW236070   5.798   0.634   1.467 -1.4954  0.4150  1.1136
11839SOL     OW36071   7.679   0.990   5.308 -0.1005 -0.2887 -0.0278
11839SOL    HW136072   7.734   0.914   5.288 -0.6337 -0.5656 -0.4848
11839SOL    HW236073   7.593   0.952   5.326 -0.1104  0.1232  0.8441
11840SOL     OW36074   0.474   6.077   5.924  0.5136  0.3487 -0.1988
11840SOL    HW136075   0.569   6.081   5.932  0.6881  0.4927 -2.0152
11840SOL    HW236076   0.453   6.140   5.855 -0.4905 -2.2752 -2.4566
11841SOL     OW36077   3.832   7.317   3.393 -0.3625  0.0461  0.0819
11841SOL    HW136078   3.916   7.296   3.351  0.9290  0.2128  2.4217
11841SOL    HW236079   3.846   7.403   3.432 -1.8124  0.2829  0.1237
11842SOL     OW36080   5.482   2.688   3.267  0.4168  0.2128  0.5672
11842SOL    HW136081   5.437   2.768   3.293  0.6513  0.3835  0.4537
11842SOL    HW236082   5.430   2.617   3.305 -0.8556  0.3198 -0.8738
11843SOL     OW36083   6.995   2.301   4.684  0.4295  1.0992 -0.3075
11843SOL    HW136084   6.973   2.333   4.772 -0.6682  1.1614 -0.5856
11843SOL    HW236085   6.911   2.274   4.647  1.0526 -0.1770 -0.8582
11844SOL     OW36086   6.576   4.106   1.571 -0.3983  0.0995  0.2955
11844SOL    HW136087   6.572   4.088   1.477  0.1328 -1.1776  0.5044
11844SOL    HW236088   6.611   4.195   1.576  1.3651 -0.4909 -0.6897
11845SOL     OW36089   7.260   0.820   2.093  0.0895  0.7351 -0.1718
11845SOL    HW136090   7.202   0.757   2.051 -0.2548 -0.0896  1.4365
11845SOL    HW236091   7.274   0.888   2.027 -0.4070 -0.4728 -1.5746
11846SOL     OW36092   3.789   0.201   5.486 -0.6430  0.2204  0.0413
11846SOL    HW136093   3.874   0.167   5.461  0.0505 -0.0163  2.4314
11846SOL    HW236094   3.770   0.158   5.570 -1.6171  2.6460  1.1523
11847SOL     OW36095   7.418   3.519   6.590  0.1184  0.6956  0.0723
11847SOL    HW136096   7.381   3.448   6.642  1.3638 -1.5753 -1.9109
11847SOL    HW236097   7.507   3.530   6.623  0.6380 -0.1979 -0.9429
11848SOL     OW36098   2.204   5.644   5.590  0.9357  0.2065 -0.0444
11848SOL    HW136099   2.226   5.567   5.537  1.1707 -0.0540  0.4172
11848SOL    HW236100   2.187   5.608   5.677  2.1243  0.7775  0.4514
11849SOL     OW36101   3.148   2.563   7.429 -0.4682 -0.0089  0.1818
11849SOL    HW136102   3.180   2.473   7.423 -0.7884 -0.0961 -0.1673
11849SOL    HW236103   3.209   2.605   7.491 -1.0896 -0.8030  1.3576
11850SOL     OW36104   4.255   5.666   1.704  0.3920 -0.5308 -0.2506
11850SOL    HW136105   4.308   5.623   1.771 -0.7555  0.4543  1.3721
11850SOL    HW236106   4.284   5.757   1.706 -0.6772 -0.1898 -0.0315
11851SOL     OW36107   2.876   7.405   5.240 -0.0544 -0.2568  0.1139
11851SOL    HW136108   2.835   7.488   5.216 -0.5003 -0.9387 -1.6622
11851SOL    HW236109   2.956   7.402   5.186  0.2560 -0.7395  0.5882
11852SOL     OW36110   0.381   0.444   7.179 -0.1704  0.6082 -0.1641
11852SOL    HW136111   0.290   0.460   7.154  0.7965  3.2264 -2.6725
11852SOL    HW236112   0.405   0.364   7.133 -1.5582 -1.1024  1.8960
11853SOL     OW36113   7.395   0.414   0.872 -0.6739  0.2009 -0.4233
11853SOL    HW136114   7.468   0.409   0.934  1.0260  0.6999 -2.2619
11853SOL    HW236115   7.322   0.373   0.917  1.3721 -2.6615  0.6079
11854SOL     OW36116   1.888   1.512   3.011 -0.0187 -0.1614 -0.0121
11854SOL    HW136117   1.859   1.421   3.003 -0.1100 -0.3619  2.1532
11854SOL    HW236118   1.806   1.562   3.011 -0.0852 -0.2649  0.8383
11855SOL     OW36119   2.920   0.573   1.783  0.0614 -0.1362  0.5771
11855SOL    HW136120   2.895   0.605   1.869 -1.2345  2.4307 -0.6329
11855SOL    HW236121   3.007   0.611   1.768  0.4725 -0.9344  0.8994
11856SOL     OW36122   6.161   5.733   6.679  0.0501  0.7646  0.4365
11856SOL    HW136123   6.238   5.744   6.622  0.4333  1.4413  1.0716
11856SOL    HW236124   6.186   5.775   6.761 -0.6836  0.2180  0.9460
11857SOL     OW36125   0.862   2.033   5.074 -0.2630  0.3796  0.0401
11857SOL    HW136126   0.910   2.087   5.012  0.2304 -0.1066 -0.0033
11857SOL    HW236127   0.770   2.053   5.056 -0.1071  0.7261 -0.4020
11858SOL     OW36128   0.836   4.830   7.015 -0.0789  0.1005 -0.1693
11858SOL    HW136129   0.781   4.892   7.062 -0.5861 -1.2314  1.0685
11858SOL    HW236130   0.838   4.862   6.925  1.1538  2.9180  0.7367
11859SOL     OW36131   2.883   2.535   3.722 -0.0824  0.4183 -0.3311
11859SOL    HW136132   2.920   2.619   3.748  1.9386 -0.5638  0.1948
11859SOL    HW236133   2.907   2.526   3.629  0.5961 -0.0099 -0.1183
11860SOL     OW36134   5.338   4.746   6.673 -0.2507 -0.5903  0.0524
11860SOL    HW136135   5.260   4.693   6.653  0.9329 -1.6449 -2.0071
11860SOL    HW236136   5.312   4.836   6.651 -0.3710 -1.1599 -2.4351
11861SOL     OW36137   7.228   3.811   5.889  0.2288  0.2168  0.7505
11861SOL    HW136138   7.201   3.801   5.797  2.3503  0.0888  0.0961
11861SOL    HW236139   7.158   3.769   5.938 -1.1836  0.6676 -0.7607
11862SOL     OW36140   6.210   1.994   6.703 -0.1511 -0.5840  0.6685
11862SOL    HW136141   6.193   2.082   6.736  0.3137  0.2997 -1.2748
11862SOL    HW236142   6.304   1.994   6.683  0.2552 -2.1598  2.2929
11863SOL     OW36143   0.782   2.413   0.304 -0.7224 -0.0943 -0.0653
11863SOL    HW136144   0.720   2.357   0.350 -2.3811  2.2665  0.8095
11863SOL    HW236145   0.808   2.363   0.227 -1.3718 -2.3620  1.1143
11864SOL     OW36146   1.417   1.414   1.301  0.2529 -0.1534  0.4217
11864SOL    HW136147   1.327   1.448   1.301  0.7806  1.2944  0.3864
11864SOL    HW236148   1.459   1.457   1.227  1.5126  0.7069  1.5994
11865SOL     OW36149   5.394   5.013   5.804 -0.4038  0.4050  0.6317
11865SOL    HW136150   5.368   5.104   5.800 -2.7393 -0.1785  1.2763
11865SOL    HW236151   5.359   4.974   5.724 -0.0664 -0.0939  0.7191
11866SOL     OW36152   5.085   4.652   4.867  0.1304 -0.5007 -0.0490
11866SOL    HW136153   5.152   4.706   4.826 -0.5191 -1.1705 -2.1404
11866SOL    HW236154   5.097   4.565   4.829 -0.1235 -1.3498  1.7179
11867SOL     OW36155   2.453   3.317   0.094 -0.1347  0.0162  0.3225
11867SOL    HW136156   2.468   3.329   0.001  1.3231 -4.4102 -0.2114
11867SOL    HW236157   2.539   3.330   0.135 -0.3642  0.0463  0.8106
11868SOL     OW36158   3.048   2.772   1.955 -0.1389  0.1353  0.0535
11868SOL    HW136159   3.107   2.788   2.028 -0.4059 -1.6651  0.7221
11868SOL    HW236160   3.067   2.683   1.927 -3.4933 -1.1523  1.3134
11869SOL     OW36161   5.249   3.728   2.629  0.0729 -0.1333  0.5004
11869SOL    HW136162   5.205   3.773   2.701  0.7623 -0.3943  1.0883
11869SOL    HW236163   5.295   3.797   2.582 -2.0007  0.3797 -0.9378
11870SOL     OW36164   4.936   3.841   6.252 -0.2589 -0.1789 -0.2054
11870SOL    HW136165   4.952   3.912   6.191 -1.1154 -0.0380 -0.2835
11870SOL    HW236166   4.877   3.782   6.205 -0.5513 -0.3055  0.3092
11871SOL     OW36167   6.971   5.661   4.334 -0.3019 -0.0441  0.2874
11871SOL    HW136168   6.888   5.621   4.362 -0.7595  0.1367 -0.7808
11871SOL    HW236169   7.019   5.675   4.416 -0.1696 -2.6485  0.7270
11872SOL     OW36170   5.700   0.426   6.238 -0.0382  0.2949  0.1749
11872SOL    HW136171   5.637   0.489   6.272 -0.2558 -0.7585  1.8523
11872SOL    HW236172   5.681   0.345   6.285  2.0317 -0.2729  0.1545
11873SOL     OW36173   4.346   7.221   6.823 -0.1374  0.9027  0.0999
11873SOL    HW136174   4.441   7.215   6.833 -0.2259 -1.7054  0.0009
11873SOL    HW236175   4.323   7.303   6.867  2.0806  1.3461  0.5675
11874SOL     OW36176   3.423   6.985   0.239  0.9137 -0.4719 -0.5350
11874SOL    HW136177   3.409   6.896   0.271  1.3660 -0.0892  0.8217
11874SOL    HW236178   3.348   7.002   0.182 -0.8457 -0.6739  1.5841
11875SOL     OW36179   4.684   6.049   7.068  0.2112  0.6306  0.7717
11875SOL    HW136180   4.767   6.012   7.038 -0.3276 -2.5061  2.7215
11875SOL    HW236181   4.626   6.043   6.992  0.9949  0.1512  0.1968
11876SOL     OW36182   1.637   2.076   5.101 -0.0975 -0.0107  0.0338
11876SOL    HW136183   1.576   2.110   5.036 -1.0788 -2.8120 -0.6668
11876SOL    HW236184   1.642   1.982   5.082  2.3678 -0.3217  1.7931
11877SOL     OW36185   7.449   6.238   6.956  0.1380  0.1063  0.2296
11877SOL    HW136186   7.437   6.144   6.974 -1.7132  0.3708  0.4914
11877SOL    HW236187   7.438   6.280   7.041 -0.4792  0.6838 -0.1382
11878SOL     OW36188   4.785   5.392   0.800  0.3255 -0.3320 -0.2843
11878SOL    HW136189   4.842   5.341   0.743  0.7494  0.5644 -0.6705
11878SOL    HW236190   4.701   5.396   0.753  0.0143 -1.3798  0.1407
11879SOL     OW36191   0.775   4.341   3.810  0.0969 -0.5425  0.0142
11879SOL    HW136192   0.712   4.293   3.756  2.3841 -0.5477 -2.9385
11879SOL    HW236193   0.860   4.310   3.780  1.5701  0.9256  2.3729
11880SOL     OW36194   5.317   5.344   7.690  0.2476 -0.2311 -0.9955
11880SOL    HW136195   5.373   5.302   7.756  1.3226  0.2027 -1.5971
11880SOL    HW236196   5.298   5.431   7.726 -0.9909 -0.7701 -0.2888
11881SOL     OW36197   2.605   5.545   7.007 -0.4571 -0.3977  0.3857
11881SOL    HW136198   2.575   5.478   6.945 -1.9308 -0.2925  0.9353
11881SOL    HW236199   2.698   5.525   7.021 -0.7015 -1.9400  0.0392
11882SOL     OW36200   1.265   1.908   3.346 -0.0289 -0.1157 -0.0585
11882SOL    HW136201   1.219   1.845   3.291 -1.2533  0.2177  0.5376
11882SOL    HW236202   1.343   1.933   3.296  0.5058 -2.1102 -0.2809
11883SOL     OW36203   6.268   6.957   5.505 -0.1982 -0.9051 -0.2563
11883SOL    HW136204   6.292   6.870   5.537 -1.4450 -1.1803 -0.0047
11883SOL    HW236205   6.255   7.009   5.584 -0.6413 -0.8323 -0.3744
11884SOL     OW36206   5.878   1.945   1.891  0.3197 -0.1736 -0.5800
11884SOL    HW136207   5.911   2.033   1.908 -1.9964  1.1864 -2.4297
11884SOL    HW236208   5.930   1.913   1.817 -0.2779  0.6032 -1.3557
11885SOL     OW36209   0.640   0.134   4.270  0.0056 -0.3990  0.0305
11885SOL    HW136210   0.715   0.138   4.210 -2.0753  1.6096 -2.7127
11885SOL    HW236211   0.599   0.050   4.251  0.6793 -0.8144  0.3919
11886SOL     OW36212   3.827   1.395   4.912  0.2371 -0.0304  0.5152
11886SOL    HW136213   3.761   1.407   4.980 -0.6020  2.3100 -0.6197
11886SOL    HW236214   3.830   1.300   4.899 -1.8828 -0.3084  1.5911
11887SOL     OW36215   1.833   2.370   1.891 -0.8438  0.4096 -0.2436
11887SOL    HW136216   1.909   2.315   1.907 -1.2587 -0.5206 -1.2950
11887SOL    HW236217   1.758   2.314   1.914 -1.2826  0.3652 -1.6881
11888SOL     OW36218   3.423   1.078   1.426 -0.0640 -0.1795  0.4580
11888SOL    HW136219   3.369   1.027   1.486 -1.4911 -0.5936 -1.0870
11888SOL    HW236220   3.507   1.033   1.425 -0.4777 -0.9950  1.0657
11889SOL     OW36221   1.766   5.077   6.977 -0.2951 -0.1712 -0.4289
11889SOL    HW136222   1.814   5.127   7.043 -0.1412  0.7411 -1.2204
11889SOL    HW236223   1.755   5.138   6.904 -1.5882 -0.7530 -0.7422
11890SOL     OW36224   0.705   6.159   1.547 -0.1688 -0.2220  0.1750
11890SOL    HW136225   0.703   6.085   1.487 -2.4305  0.7850 -1.0971
11890SOL    HW236226   0.773   6.216   1.512  0.5337 -0.9610  0.2910
11891SOL     OW36227   7.259   3.450   1.921 -0.0990 -0.3028 -0.4910
11891SOL    HW136228   7.184   3.509   1.915 -0.2863 -0.4486  0.2355
11891SOL    HW236229   7.311   3.484   1.995 -0.2646 -1.0873  0.0012
11892SOL     OW36230   2.867   1.558   1.593  0.0200  0.7382  0.0737
11892SOL    HW136231   2.960   1.536   1.600 -0.0380  0.8797  1.5260
11892SOL    HW236232   2.835   1.503   1.521  0.6785 -1.2374  1.2199
11893SOL     OW36233   1.276   0.503   1.890 -0.6481 -0.1844 -0.0412
11893SOL    HW136234   1.317   0.575   1.841 -0.5189  0.5320  1.0883
11893SOL    HW236235   1.198   0.542   1.928 -1.2872 -1.0079 -0.4829
11894SOL     OW36236   0.963   0.717   7.350  0.0998  0.4067  0.0038
11894SOL    HW136237   0.979   0.705   7.256 -0.8895  0.4511 -0.1808
11894SOL    HW236238   0.901   0.790   7.355 -2.5554 -1.7060  0.4312
11895SOL     OW36239   1.323   2.725   1.343  0.2376  0.4120 -0.1272
11895SOL    HW136240   1.395   2.787   1.329 -0.0868  0.4094 -2.0459
11895SOL    HW236241   1.245   2.780   1.349  0.2229  0.3251  0.5074
11896SOL     OW36242   6.787   7.646   7.085 -0.0499 -0.5044 -0.3973
11896SOL    HW136243   6.742   7.714   7.135 -0.6635  0.4485 -2.1821
11896SOL    HW236244   6.763   7.564   7.129  2.5159  0.4471  3.1945
11897SOL     OW36245   7.036   7.646   4.795 -0.5911  0.1332 -0.2907
11897SOL    HW136246   7.072   7.632   4.708 -0.2868 -0.6327 -0.0466
11897SOL    HW236247   7.110   7.679   4.847 -0.5663 -0.1795 -0.1233
11898SOL     OW36248   5.878   1.038   4.961 -0.4164  0.5934  0.5598
11898SOL    HW136249   5.827   1.118   4.947 -1.1948  0.2248  1.2431
11898SOL    HW236250   5.901   1.040   5.054  0.4003  0.5080  0.3656
11899SOL     OW36251   3.418   3.240   1.019  0.0244 -0.1246 -0.0940
11899SOL    HW136252   3.333   3.279   1.041  0.6428  0.6584  0.9959
11899SOL    HW236253   3.435   3.177   1.089  1.1042  0.9570  0.6517
11900SOL     OW36254   7.170   2.805   5.830  0.3230  0.3595 -0.1889
11900SOL    HW136255   7.216   2.775   5.908  0.7013  0.3050 -0.4270
11900SOL    HW236256   7.240   2.837   5.772  0.0153  0.7895 -0.3340
11901SOL     OW36257   5.683   1.905   4.312  0.6584 -0.4421 -0.1115
11901SOL    HW136258   5.615   1.965   4.281  0.2822 -1.5632 -1.5976
11901SOL    HW236259   5.651   1.818   4.287  0.4926 -1.4803  3.2738
11902SOL     OW36260   2.226   0.014   6.423  0.4984 -0.4873 -0.1552
11902SOL    HW136261   2.166  -0.043   6.376  0.6209 -0.4653 -0.3398
11902SOL    HW236262   2.191   0.102   6.411 -0.3656 -0.6229  1.1295
11903SOL     OW36263   2.366   4.722   2.260 -0.0143 -0.0958  0.0400
11903SOL    HW136264   2.375   4.755   2.170  1.4800  1.0331  0.5624
11903SOL    HW236265   2.282   4.758   2.289  0.1259  0.6816 -0.4665
11904SOL     OW36266   5.041   7.379   2.339 -0.6457  0.0689  0.2734
11904SOL    HW136267   5.007   7.330   2.263 -1.8636  0.5224  0.4977
11904SOL    HW236268   5.019   7.470   2.320  0.2214  0.3494  0.5756
11905SOL     OW36269   4.650   0.632   4.592 -0.3682  0.4671  0.1194
11905SOL    HW136270   4.708   0.653   4.665  0.2536  0.5841 -0.4058
11905SOL    HW236271   4.588   0.705   4.589 -0.8761  0.0939  1.0002
11906SOL     OW36272   0.006   0.415   4.156  0.1529  0.3005 -0.1256
11906SOL    HW136273   0.079   0.452   4.107  0.5348 -1.3439 -0.8760
11906SOL    HW236274  -0.027   0.487   4.209  3.3895  0.7119  1.5521
11907SOL     OW36275   6.984   5.455   1.172 -0.3944  0.0637 -0.1149
11907SOL    HW136276   6.966   5.403   1.094  2.5386  0.7850 -1.4178
11907SOL    HW236277   6.980   5.546   1.143 -2.0751  0.5059  1.3214
11908SOL     OW36278   2.352   1.528   5.638 -0.2434 -0.5692  0.1204
11908SOL    HW136279   2.405   1.528   5.559 -0.3238 -0.2486  0.0633
11908SOL    HW236280   2.270   1.570   5.612  0.4646  1.3585  0.8413
11909SOL     OW36281   7.729   2.829   3.959  0.5257  0.4070 -0.1669
11909SOL    HW136282   7.694   2.867   4.039 -1.3867 -0.7764 -0.3862
11909SOL    HW236283   7.661   2.841   3.894  0.6060 -1.6321 -0.7193
11910SOL     OW36284   6.131   4.157   7.439 -0.1320  0.3014  0.3728
11910SOL    HW136285   6.168   4.208   7.512  1.3192  0.4815 -0.4517
11910SOL    HW236286   6.081   4.221   7.388 -0.0900  0.4431  0.5085
11911SOL     OW36287   2.308   2.653   0.595 -0.1107  0.1990  0.0842
11911SOL    HW136288   2.242   2.593   0.632  0.2204 -0.0604  0.2585
11911SOL    HW236289   2.364   2.597   0.543 -0.0893  0.4393 -0.1509
11912SOL     OW36290   2.768   7.324   2.187 -0.5905 -0.2224  0.0987
11912SOL    HW136291   2.821   7.317   2.267 -0.0289  1.3283 -0.1030
11912SOL    HW236292   2.832   7.337   2.117 -1.1626  0.0837 -0.3725
11913SOL     OW36293   7.658   3.069   5.857 -0.2825 -0.1849 -0.0206
11913SOL    HW136294   7.566   3.067   5.883 -0.5240  2.8355 -0.2917
11913SOL    HW236295   7.695   3.143   5.905  1.5941 -0.2978 -1.1908
11914SOL     OW36296   2.131   3.448   2.044 -0.2342  0.1325 -0.9984
11914SOL    HW136297   2.150   3.537   2.073 -0.1131 -0.4758  0.9704
11914SOL    HW236298   2.212   3.419   2.001  1.1527 -0.1897  1.5574
11915SOL     OW36299   2.390   1.483   3.248 -0.0277  0.2761  0.5557
11915SOL    HW136300   2.315   1.484   3.189  0.7784  0.1710 -0.5017
11915SOL    HW236301   2.356   1.446   3.329 -0.7214 -1.3950 -0.4563
11916SOL     OW36302   3.737   3.007   5.147  0.0125 -0.0738 -0.6293
11916SOL    HW136303   3.758   2.931   5.201 -0.6232  0.2491  0.0969
11916SOL    HW236304   3.786   3.079   5.187 -0.6969  0.2270 -0.2972
11917SOL     OW36305   1.733   4.661   0.498  0.7566  0.0626  0.0253
11917SOL    HW136306   1.816   4.702   0.524 -0.1271  0.7857  1.8706
11917SOL    HW236307   1.680   4.661   0.578 -0.7796 -1.0202 -0.9405
11918SOL     OW36308   3.876   1.097   3.971  0.3506  0.0046  0.1332
11918SOL    HW136309   3.882   1.153   3.894 -0.2251 -0.8954 -0.5803
11918SOL    HW236310   3.887   1.157   4.045  1.1546  0.8440 -0.6419
11919SOL     OW36311   3.013   5.347   4.750  0.0800  0.2189 -0.1702
11919SOL    HW136312   2.945   5.328   4.686  1.7586  1.2163 -2.3509
11919SOL    HW236313   2.966   5.390   4.822 -2.0681 -2.1688  0.0129
11920SOL     OW36314   5.695   5.074   3.096  0.1564  0.3412  0.2413
11920SOL    HW136315   5.785   5.107   3.102  0.3463 -0.1217 -0.0296
11920SOL    HW236316   5.703   4.990   3.051 -0.0668 -1.1034  2.6956
11921SOL     OW36317   1.289   5.177   3.266  0.1475  0.1877  0.5520
11921SOL    HW136318   1.352   5.190   3.195 -0.7749 -1.0152 -0.5195
11921SOL    HW236319   1.218   5.127   3.227 -1.1633  0.9015  1.9256
11922SOL     OW36320   4.617   0.805   2.563  0.2205 -0.1940  0.0478
11922SOL    HW136321   4.655   0.871   2.621  0.3520 -1.1631  1.1026
11922SOL    HW236322   4.685   0.787   2.499  0.1093  0.8302 -0.3672
11923SOL     OW36323   3.625   7.267   6.281 -0.3003 -0.0347 -0.7069
11923SOL    HW136324   3.576   7.232   6.356 -1.4340 -1.3202 -1.9881
11923SOL    HW236325   3.680   7.194   6.253  1.4870  1.0070 -0.0618
11924SOL     OW36326   3.954   5.766   1.362  0.0412 -0.4439 -0.3205
11924SOL    HW136327   3.900   5.688   1.369  0.5374 -0.9833 -2.1606
11924SOL    HW236328   3.896   5.837   1.391 -1.2672 -1.1590 -1.0937
11925SOL     OW36329   3.744   4.888   1.691  0.0361 -0.3677  0.6819
11925SOL    HW136330   3.655   4.863   1.714 -0.6421 -0.7453 -1.9539
11925SOL    HW236331   3.792   4.805   1.686 -0.3848 -0.5510 -1.1354
11926SOL     OW36332   0.089   1.900   3.300 -0.0592 -0.1570  0.1215
11926SOL    HW136333   0.004   1.920   3.260 -0.2263 -0.5731  0.2592
11926SOL    HW236334   0.153   1.941   3.243 -0.2865 -0.7800 -0.5982
11927SOL     OW36335   7.064   4.082   0.584 -0.1771 -0.4475  0.4814
11927SOL    HW136336   7.159   4.082   0.587 -0.0622  2.2392 -0.4414
11927SOL    HW236337   7.041   4.171   0.557 -3.0077 -0.6479  1.8816
11928SOL     OW36338   5.898   3.875   1.334 -0.2035 -0.0965  0.1056
11928SOL    HW136339   5.889   3.961   1.375  0.8315  1.2567 -2.2592
11928SOL    HW236340   5.831   3.874   1.266  1.2394 -0.1361 -1.3940
11929SOL     OW36341   2.475   3.608   6.455  0.3856 -0.1908  0.2979
11929SOL    HW136342   2.471   3.669   6.382  3.7117 -0.3588 -0.1663
11929SOL    HW236343   2.421   3.533   6.427  0.9154  0.0984 -1.6457
11930SOL     OW36344   1.506   2.623   6.736  0.0127  0.0822 -0.5335
11930SOL    HW136345   1.575   2.683   6.709 -0.9480  1.2659 -0.4301
11930SOL    HW236346   1.548   2.537   6.737  1.3243  0.6946 -1.0247
11931SOL     OW36347   7.697   0.625   1.055 -0.6321 -0.3632  0.4542
11931SOL    HW136348   7.647   0.543   1.055  0.8810 -1.3417  0.1066
11931SOL    HW236349   7.716   0.641   1.148 -1.2368 -0.2038  0.5521
11932SOL     OW36350   7.121   5.931   1.223  0.0064  0.7295 -0.3894
11932SOL    HW136351   7.045   5.929   1.165  0.4943  1.5408 -1.0825
11932SOL    HW236352   7.085   5.948   1.310 -0.6328  0.7254 -0.6497
11933SOL     OW36353   1.550   4.735   6.261  0.0145 -0.6155 -0.1905
11933SOL    HW136354   1.584   4.814   6.219 -0.2227 -0.3847  0.0499
11933SOL    HW236355   1.473   4.712   6.208 -0.8223  0.1910  0.6309
11934SOL     OW36356   2.146   3.076   6.927 -0.1389 -0.2792 -0.2755
11934SOL    HW136357   2.194   3.100   7.006  3.2088  0.4750 -2.3582
11934SOL    HW236358   2.122   2.984   6.941 -0.3042  0.0341  1.8765
11935SOL     OW36359   6.305   6.044   7.532 -0.0122 -0.9379 -0.4708
11935SOL    HW136360   6.391   6.038   7.574 -0.6056 -2.4243  0.6323
11935SOL    HW236361   6.304   6.130   7.491  2.1226 -1.0223 -0.7907
11936SOL     OW36362   4.268   5.771   0.648 -0.1914  0.2308  0.2002
11936SOL    HW136363   4.327   5.703   0.681 -0.2181  0.9265  1.7626
11936SOL    HW236364   4.226   5.806   0.726 -0.5978  1.6638 -0.6250
11937SOL     OW36365   1.828   4.222   5.988  0.8381 -0.1011 -0.1719
11937SOL    HW136366   1.741   4.198   5.957  0.7648 -0.7165  0.4883
11937SOL    HW236367   1.869   4.266   5.913  0.5132 -1.1493 -0.9976
11938SOL     OW36368   1.807   2.753   0.656  0.6702  0.1813 -0.2710
11938SOL    HW136369   1.764   2.793   0.581 -3.4885 -2.7439  0.2517
11938SOL    HW236370   1.852   2.676   0.620  0.7729  0.1445 -0.0653
11939SOL     OW36371   0.195   6.352   3.091  0.4112 -0.1432 -0.4408
11939SOL    HW136372   0.271   6.384   3.043 -0.7575  1.4287 -1.3300
11939SOL    HW236373   0.230   6.284   3.148  2.3747  0.1232 -1.2443
11940SOL     OW36374   3.945   0.822   2.380 -0.2849 -0.0162  0.1855
11940SOL    HW136375   3.880   0.815   2.450  0.7372 -1.7479  1.0315
11940SOL    HW236376   4.024   0.853   2.423  0.5564 -1.7550 -0.0178
11941SOL     OW36377   4.214   7.635   4.957  0.3940  0.3808  0.2697
11941SOL    HW136378   4.186   7.677   4.876  1.2894  0.1671 -0.1657
11941SOL    HW236379   4.310   7.637   4.953  0.5068  1.7598  2.0452
11942SOL     OW36380   7.299   6.832   1.751 -0.3403 -0.0576  0.0858
11942SOL    HW136381   7.381   6.863   1.790  0.6332 -3.5037  1.1411
11942SOL    HW236382   7.232   6.891   1.783  1.3002  0.8300  2.0347
11943SOL     OW36383   3.765   3.991   3.449  0.4922  0.0641  0.1469
11943SOL    HW136384   3.760   4.078   3.410 -0.1477 -0.1272 -0.2192
11943SOL    HW236385   3.839   3.949   3.406  2.2097  1.1410  1.8434
11944SOL     OW36386   7.034   3.349   0.624  0.0894  0.0216 -0.6778
11944SOL    HW136387   7.066   3.306   0.544 -0.9731 -2.5012  0.1307
11944SOL    HW236388   6.950   3.306   0.641 -1.8399  3.5122 -0.5159
11945SOL     OW36389   0.050   1.583   3.506  0.1923 -0.2769  0.2285
11945SOL    HW136390  -0.036   1.624   3.504  0.0469 -0.5304  1.0571
11945SOL    HW236391   0.078   1.582   3.414 -0.4509  0.2891  0.0173
11946SOL     OW36392   7.244   0.374   4.016 -0.0425  0.0158 -0.1998
11946SOL    HW136393   7.245   0.316   4.093 -1.0940 -0.5165 -0.5718
11946SOL    HW236394   7.156   0.410   4.015  0.6189  1.7541  0.0887
11947SOL     OW36395   7.367   2.041   6.191  0.0361  0.6988  0.2896
11947SOL    HW136396   7.320   2.084   6.262 -0.1416 -1.6145  1.6408
11947SOL    HW236397   7.457   2.073   6.198 -0.2765  1.5318  0.6454
11948SOL     OW36398   3.958   6.861   1.289  0.7208  0.2874  0.2521
11948SOL    HW136399   4.045   6.901   1.290  0.7180  0.3200 -0.5454
11948SOL    HW236400   3.966   6.786   1.348  0.9711  0.9366  1.0706
11949SOL     OW36401   6.513   0.933   4.614  0.1861 -0.2440 -0.4517
11949SOL    HW136402   6.593   0.926   4.562  1.6290 -0.4220  1.6464
11949SOL    HW236403   6.511   1.024   4.642 -0.7059 -0.0873 -0.9995
11950SOL     OW36404   2.562   4.554   1.720 -0.8362  0.0620  0.5537
11950SOL    HW136405   2.491   4.509   1.765 -2.4947  0.9486 -1.0484
11950SOL    HW236406   2.580   4.630   1.774 -1.2429 -0.0566  0.8652
11951SOL     OW36407   2.123   5.040   0.159  0.1596 -0.1697 -0.0691
11951SOL    HW136408   2.032   5.052   0.131 -0.2137  1.2539  1.5833
11951SOL    HW236409   2.170   5.021   0.079 -1.5899 -0.8875 -0.9756
11952SOL     OW36410   6.382   3.617   0.236 -0.3646  0.0541 -0.2018
11952SOL    HW136411   6.441   3.691   0.223  0.4293 -0.6065 -0.4345
11952SOL    HW236412   6.331   3.613   0.156 -1.7800  1.5205  0.5609
11953SOL     OW36413   5.870   7.439   5.072  0.0552 -0.4443  0.1329
11953SOL    HW136414   5.867   7.533   5.057 -2.8635 -0.1223  1.9011
11953SOL    HW236415   5.932   7.406   5.007 -0.1550  2.4577 -1.7230
11954SOL     OW36416   4.984   0.112   7.731 -0.0801 -0.4323 -0.1538
11954SOL    HW136417   4.993   0.017   7.741  0.3164 -0.5036 -1.1308
11954SOL    HW236418   5.018   0.131   7.643 -1.1449  0.4787 -0.3917
11955SOL     OW36419   6.499   2.796   3.519 -0.0790 -0.0571 -0.5586
11955SOL    HW136420   6.528   2.791   3.610  0.2509  1.0699 -0.5797
11955SOL    HW236421   6.404   2.798   3.524 -0.0567  0.3866 -0.2048
11956SOL     OW36422   4.269   0.677   5.043  0.2855  0.0871 -0.0373
11956SOL    HW136423   4.228   0.764   5.040  2.8678  1.4170  0.8540
11956SOL    HW236424   4.243   0.636   4.960  0.0086  2.1764 -1.0490
11957SOL     OW36425   5.494   7.502   4.488  0.4149 -0.3882  0.0079
11957SOL    HW136426   5.469   7.593   4.501  2.1443 -0.1546  2.5125
11957SOL    HW236427   5.430   7.452   4.540 -1.6874 -0.9022 -2.8198
11958SOL     OW36428   3.815   2.297   3.556  0.2121  0.2780  0.2917
11958SOL    HW136429   3.754   2.357   3.514  0.5479  2.1192  2.2566
11958SOL    HW236430   3.886   2.286   3.492  0.1270  1.9902 -0.1492
11959SOL     OW36431   3.483   4.958   1.470 -0.2755 -0.4803  0.3491
11959SOL    HW136432   3.575   4.965   1.446 -0.7621  0.5823 -1.3041
11959SOL    HW236433   3.459   4.867   1.450 -0.0225 -0.2847 -0.8655
11960SOL     OW36434   6.875   4.483   2.968  0.0846  0.2248  0.3298
11960SOL    HW136435   6.807   4.466   2.902  1.0152  0.2610 -0.6608
11960SOL    HW236436   6.874   4.578   2.979 -0.0752  0.2192  0.3601
11961SOL     OW36437   4.084   5.993   0.427  0.7475 -0.0298  0.2621
11961SOL    HW136438   4.093   6.087   0.409 -0.5379 -0.1228 -1.1303
11961SOL    HW236439   4.174   5.962   0.439  1.3436  1.0854 -0.9651
11962SOL     OW36440   1.356   1.102   5.279  0.2750 -0.4924  0.1941
11962SOL    HW136441   1.352   1.156   5.358 -0.1901 -0.0506 -0.1240
11962SOL    HW236442   1.268   1.063   5.273 -0.3667  1.0460 -1.1821
11963SOL     OW36443   2.000   7.599   3.575 -0.0732  0.0700  0.6844
11963SOL    HW136444   2.002   7.652   3.656 -1.0304  1.2749 -0.0369
11963SOL    HW236445   1.925   7.634   3.526  1.8888  1.0499 -1.8377
11964SOL     OW36446   7.648   7.600   4.148 -0.4361  0.0590  0.6371
11964SOL    HW136447   7.577   7.547   4.112 -0.6848  1.2118 -0.6505
11964SOL    HW236448   7.724   7.578   4.094  0.0271 -0.6348  1.5482
11965SOL     OW36449   6.095   7.341   0.170 -0.8245  0.0696 -0.2475
11965SOL    HW136450   6.078   7.427   0.132 -0.8653  0.3664  0.4373
11965SOL    HW236451   6.161   7.357   0.238 -1.8771 -0.1936  0.8763
11966SOL     OW36452   4.887   2.913   0.098 -0.5353  0.1640  0.3323
11966SOL    HW136453   4.978   2.892   0.076 -0.0936 -0.0910  2.2734
11966SOL    HW236454   4.890   2.941   0.189 -2.3609  0.5902  0.2980
11967SOL     OW36455   4.831   3.099   0.285 -0.5360  0.0761  0.2184
11967SOL    HW136456   4.760   3.048   0.247 -0.9631  0.9933 -0.2335
11967SOL    HW236457   4.803   3.190   0.276  0.9067  0.4860 -0.4237
11968SOL     OW36458   4.217   5.968   3.917 -0.1380  0.1605 -0.2287
11968SOL    HW136459   4.152   5.983   3.848  0.4357  0.1596 -0.7726
11968SOL    HW236460   4.244   6.056   3.944  1.2390  0.1866 -1.5417
11969SOL     OW36461   0.832   5.953   1.964 -0.3549  0.0438  0.7518
11969SOL    HW136462   0.749   5.914   1.992 -0.3527 -1.9436 -1.6215
11969SOL    HW236463   0.806   6.028   1.911 -0.5946  0.1084  0.9579
11970SOL     OW36464   2.715   6.184   1.680 -0.6239 -0.2785  0.1534
11970SOL    HW136465   2.729   6.242   1.605  0.6553 -0.6097  0.1127
11970SOL    HW236466   2.800   6.144   1.695 -1.0183 -0.6841  1.4069
11971SOL     OW36467   2.766   6.528   7.180 -0.1763  0.0300  0.0466
11971SOL    HW136468   2.731   6.559   7.097 -1.5776 -1.5494 -0.0018
11971SOL    HW236469   2.712   6.451   7.202  0.3818  0.1951  2.2301
11972SOL     OW36470   1.017   2.655   4.262  0.2493 -0.0214 -0.3987
11972SOL    HW136471   0.988   2.604   4.338  1.0874 -3.8797 -2.3973
11972SOL    HW236472   1.111   2.669   4.278  0.3967 -0.7150 -0.5897
11973SOL     OW36473   0.499   0.263   3.307  0.4490  0.3601  0.3667
11973SOL    HW136474   0.410   0.228   3.309  0.2105  0.9856  0.9014
11973SOL    HW236475   0.487   0.358   3.305  1.0482  0.4612 -2.6836
11974SOL     OW36476   2.433   0.586   3.354 -0.2442 -0.5327 -0.8021
11974SOL    HW136477   2.347   0.573   3.395 -0.8703  1.5056 -1.3661
11974SOL    HW236478   2.441   0.515   3.291 -1.3211 -0.9890 -0.4440
11975SOL     OW36479   0.507   0.321   6.515 -0.2941  0.5281 -0.7089
11975SOL    HW136480   0.418   0.295   6.494 -0.3231  1.6034 -1.9804
11975SOL    HW236481   0.561   0.246   6.490 -0.8048 -0.0517 -0.1002
11976SOL     OW36482   0.768   6.997   5.847 -0.2006 -0.3112  0.9199
11976SOL    HW136483   0.781   7.017   5.939 -0.6814 -0.2211  0.9718
11976SOL    HW236484   0.678   6.963   5.842 -0.4408  0.3701  0.3851
11977SOL     OW36485   2.198   4.957   3.872  0.2781 -0.1621  0.0076
11977SOL    HW136486   2.271   4.896   3.882  0.4554 -0.1867 -1.3426
11977SOL    HW236487   2.216   5.003   3.790 -1.5897 -0.6576 -0.7127
11978SOL     OW36488   5.296   4.282   4.066  0.2441 -0.6413 -0.4472
11978SOL    HW136489   5.229   4.216   4.078  0.2669 -0.6854 -0.5613
11978SOL    HW236490   5.346   4.281   4.148 -0.9562  0.6102  0.3555
11979SOL     OW36491   0.375   5.202   2.348 -0.2016 -0.4095  0.0049
11979SOL    HW136492   0.349   5.172   2.261 -1.4451  0.2089  0.1338
11979SOL    HW236493   0.301   5.179   2.404  0.4003 -0.4040  0.8193
11980SOL     OW36494   6.906   6.220   3.224  0.6672  0.1973  0.8057
11980SOL    HW136495   6.812   6.230   3.234  0.3601 -1.5357  0.0142
11980SOL    HW236496   6.922   6.126   3.237  2.1193  0.2623 -0.2111
11981SOL     OW36497   2.045   4.514   1.190  0.4392  1.0067  0.4886
11981SOL    HW136498   2.124   4.566   1.198  0.0981  1.4203  1.3477
11981SOL    HW236499   2.076   4.425   1.173  1.0201  1.7884 -3.6973
11982SOL     OW36500   6.762   0.314   4.442  0.2056  0.9074 -0.3207
11982SOL    HW136501   6.697   0.261   4.488 -0.3825 -0.4966 -2.5809
11982SOL    HW236502   6.800   0.370   4.509 -2.6817  1.1302  1.2839
11983SOL     OW36503   7.565   6.757   5.574 -0.3932 -0.0531 -0.3721
11983SOL    HW136504   7.507   6.744   5.500 -1.7448  1.3345  0.3763
11983SOL    HW236505   7.509   6.747   5.651  0.5380  0.4781  0.4036
11984SOL     OW36506   2.938   4.882   2.871  0.3604  0.2308  0.1948
11984SOL    HW136507   2.866   4.824   2.895  0.4780  0.8729  2.2379
11984SOL    HW236508   2.906   4.927   2.792 -0.6915 -0.8327 -0.0224
11985SOL     OW36509   1.314   2.019   6.830  0.4811 -0.5876 -0.0011
11985SOL    HW136510   1.246   1.967   6.873  0.1391 -1.7124 -1.7975
11985SOL    HW236511   1.339   2.084   6.896 -0.6408 -1.6317  1.5460
11986SOL     OW36512   3.231   5.521   4.488 -0.0187  0.6840  0.4299
11986SOL    HW136513   3.260   5.433   4.465 -0.5391  0.0868  1.9170
11986SOL    HW236514   3.264   5.576   4.417 -0.3557 -0.7967 -0.9585
11987SOL     OW36515   1.003   2.098   7.129  0.4605  0.1113  0.2409
11987SOL    HW136516   0.970   2.172   7.078 -0.9334  1.3009  2.6850
11987SOL    HW236517   1.048   2.139   7.203  2.8719 -1.5393 -0.1909
11988SOL     OW36518   5.541   7.545   1.160  0.3224  0.3765  0.4039
11988SOL    HW136519   5.610   7.530   1.096 -2.0298 -0.0543 -2.2453
11988SOL    HW236520   5.534   7.463   1.209  0.8573 -0.0117 -0.1640
11989SOL     OW36521   1.807   6.250   4.532 -0.6694  0.1188  0.4967
11989SOL    HW136522   1.729   6.252   4.587  0.2255 -1.0085  1.8999
11989SOL    HW236523   1.775   6.230   4.445 -2.0766  1.2653  0.7234
11990SOL     OW36524   7.314   2.982   7.309 -0.2404 -0.5442  0.1919
11990SOL    HW136525   7.325   2.892   7.279 -1.8366 -0.4715 -0.6878
11990SOL    HW236526   7.253   2.976   7.383 -1.0219 -0.1051 -0.4069
11991SOL     OW36527   1.414   6.644   5.337 -0.0744 -0.1368 -0.2194
11991SOL    HW136528   1.444   6.618   5.424 -0.5047  0.0778 -0.0031
11991SOL    HW236529   1.378   6.564   5.299  0.5959 -0.3514 -0.4083
11992SOL     OW36530   7.605   3.241   6.755 -0.5467 -0.0898 -0.5058
11992SOL    HW136531   7.675   3.186   6.720 -1.5933 -1.4329 -0.5489
11992SOL    HW236532   7.639   3.331   6.747  1.2317 -0.7134 -0.3227
11993SOL     OW36533   7.161   7.407   1.349  0.3636  0.4170  0.2227
11993SOL    HW136534   7.074   7.373   1.368  0.6901 -0.9070 -0.4954
11993SOL    HW236535   7.204   7.414   1.434 -0.0739  0.0027  0.4789
11994SOL     OW36536   4.599   4.691   1.985  0.1908 -0.9139  0.2975
11994SOL    HW136537   4.549   4.615   2.014 -0.2109 -1.9730 -2.8635
11994SOL    HW236538   4.689   4.670   2.011 -0.0370 -2.0680  0.2326
11995SOL     OW36539   2.813   3.918   2.666  0.2768  0.6308  0.2539
11995SOL    HW136540   2.864   3.969   2.603  1.5033 -0.7280  0.1072
11995SOL    HW236541   2.877   3.883   2.727 -0.8390  1.4574  1.9682
11996SOL     OW36542   5.087   0.275   2.834 -0.3176 -0.5345  0.1937
11996SOL    HW136543   5.073   0.318   2.918  0.3381 -1.6617  0.9004
11996SOL    HW236544   5.041   0.331   2.771  2.2059  2.3892  0.7258
11997SOL     OW36545   7.578   4.165   0.967 -0.3986 -0.0002  0.4217
11997SOL    HW136546   7.620   4.219   0.899  1.3513 -1.9001 -0.1139
11997SOL    HW236547   7.633   4.178   1.044 -1.3341  0.7546  0.9727
11998SOL     OW36548   7.326   3.267   3.736 -0.1571  0.1131  0.5264
11998SOL    HW136549   7.307   3.357   3.711 -0.6910 -0.2003 -0.2122
11998SOL    HW236550   7.289   3.213   3.666  0.1885 -0.6839  0.9346
11999SOL     OW36551   5.807   5.602   1.401 -0.7901  0.0478 -0.5937
11999SOL    HW136552   5.792   5.667   1.470 -0.9050 -0.2324 -0.3532
11999SOL    HW236553   5.902   5.590   1.399 -0.6879  0.8432 -1.2146
12000SOL     OW36554   1.105   7.447   1.980  0.2277 -0.2853 -0.1287
12000SOL    HW136555   1.198   7.448   2.001  0.2359  0.8100 -0.1543
12000SOL    HW236556   1.061   7.440   2.065  0.3288 -2.2102 -0.1981
12001SOL     OW36557   3.087   4.924   5.409  0.4427 -0.4892 -0.7266
12001SOL    HW136558   3.008   4.872   5.400  0.1417 -0.0711 -0.5331
12001SOL    HW236559   3.056   5.014   5.419  0.9133 -0.3948  0.0060
12002SOL     OW36560   1.284   6.308   4.874 -0.4032 -0.1575 -0.0676
12002SOL    HW136561   1.239   6.224   4.879  0.5687 -0.7001 -0.3316
12002SOL    HW236562   1.369   6.293   4.915 -0.0788  0.5990 -0.4488
12003SOL     OW36563   2.225   3.279   1.083 -0.1702  0.3346  0.3231
12003SOL    HW136564   2.280   3.338   1.032  1.6858 -1.1106  0.5462
12003SOL    HW236565   2.153   3.255   1.024  0.5586  0.6725 -0.7197
12004SOL     OW36566   5.022   6.883   3.426  0.5815  0.0633 -0.1151
12004SOL    HW136567   5.089   6.933   3.378 -0.7457  0.6311 -1.4751
12004SOL    HW236568   4.939   6.913   3.388 -0.4301 -0.8998  1.2538
12005SOL     OW36569   4.738   5.030   3.595 -1.2936  0.1513  0.1002
12005SOL    HW136570   4.778   5.027   3.682 -1.0075 -0.6144 -0.0552
12005SOL    HW236571   4.781   5.104   3.552 -0.7284 -0.0734  0.2682
12006SOL     OW36572   2.996   2.798   5.098 -0.0294 -0.5672 -0.9562
12006SOL    HW136573   2.931   2.769   5.035 -1.2638 -0.6169  0.2979
12006SOL    HW236574   3.012   2.890   5.076 -1.0167 -0.3690 -0.8761
12007SOL     OW36575   1.052   3.902   7.562 -0.3280 -0.4951 -0.2772
12007SOL    HW136576   1.131   3.887   7.613  0.0757 -1.4057 -1.1422
12007SOL    HW236577   1.002   3.966   7.613  1.9519  1.8352 -0.7714
12008SOL     OW36578   5.650   5.712   3.104  0.4288  0.1520  0.1341
12008SOL    HW136579   5.728   5.658   3.114  0.4053 -0.2500 -1.4860
12008SOL    HW236580   5.580   5.649   3.085  0.1376  0.6450 -0.4737
12009SOL     OW36581   4.425   1.840   5.219 -0.3504 -0.0066  0.1461
12009SOL    HW136582   4.357   1.893   5.177  0.3045 -0.8249 -2.0782
12009SOL    HW236583   4.378   1.792   5.288 -1.1397  2.6436  1.6241
12010SOL     OW36584   3.187   2.541   7.123  0.3641  0.9518  0.2931
12010SOL    HW136585   3.178   2.551   7.218 -0.2253 -1.4951  0.5630
12010SOL    HW236586   3.098   2.549   7.089  0.0755 -1.3181  0.3711
12011SOL     OW36587   6.486   1.926   6.599  0.3653 -0.5395  0.2457
12011SOL    HW136588   6.475   1.848   6.545 -2.0742  0.7588 -1.3287
12011SOL    HW236589   6.534   1.988   6.543 -2.1151  0.7920 -0.5497
12012SOL     OW36590   1.145   3.862   7.004  0.1257  0.0392  0.1816
12012SOL    HW136591   1.095   3.929   6.957 -0.2121  0.5850  1.2846
12012SOL    HW236592   1.112   3.866   7.094 -1.5330 -3.1272 -0.1287
12013SOL     OW36593   5.901   2.840   0.711 -0.7359 -0.0748 -0.4452
12013SOL    HW136594   5.924   2.778   0.642 -1.2564 -2.5861  1.4947
12013SOL    HW236595   5.806   2.850   0.704 -0.7553 -0.1217 -0.2594
12014SOL     OW36596   3.809   6.424   5.002 -0.2193  0.0691 -0.0597
12014SOL    HW136597   3.837   6.490   4.939 -2.6995  3.4539  2.0801
12014SOL    HW236598   3.885   6.410   5.058 -0.2140  2.9301  0.7865
12015SOL     OW36599   1.161   1.865   4.794 -0.8554 -0.2442 -0.0434
12015SOL    HW136600   1.083   1.826   4.833 -0.6145  0.9546  1.7655
12015SOL    HW236601   1.234   1.830   4.845 -0.4261  0.5040 -0.1197
12016SOL     OW36602   7.523   1.032   4.832  0.0484 -0.6803 -0.6623
12016SOL    HW136603   7.439   1.020   4.787 -1.2761  0.3709  1.4034
12016SOL    HW236604   7.500   1.039   4.924  2.4641 -0.6301 -0.0102
12017SOL     OW36605   1.347   4.647   6.098 -0.3039  0.3840 -0.7517
12017SOL    HW136606   1.254   4.670   6.099 -0.7341 -1.1610 -1.1940
12017SOL    HW236607   1.362   4.613   6.010  0.5958  0.2997 -0.5748
12018SOL     OW36608   4.938   3.408   5.561 -0.4666 -0.6187 -0.4041
12018SOL    HW136609   5.003   3.468   5.597 -0.3034 -1.1559  0.2303
12018SOL    HW236610   4.862   3.418   5.619 -0.2602 -1.3731  0.0089
12019SOL     OW36611   6.905   2.947   5.809  0.2343  0.5223 -0.7620
12019SOL    HW136612   6.835   2.894   5.771 -0.3478  0.6429  0.1010
12019SOL    HW236613   6.985   2.896   5.796  0.1579  0.8122 -2.6216
12020SOL     OW36614   4.324   3.203   5.910 -0.6648  0.2092  0.0706
12020SOL    HW136615   4.379   3.139   5.957 -0.6244 -0.5279 -0.9562
12020SOL    HW236616   4.307   3.162   5.825 -1.4912  1.1325 -0.2194
12021SOL     OW36617   7.450   5.104   3.586 -0.6557 -0.1233 -0.2450
12021SOL    HW136618   7.532   5.128   3.630 -0.0772 -1.6394 -0.4452
12021SOL    HW236619   7.477   5.076   3.499 -1.4608 -0.1131 -0.5032
12022SOL     OW36620   1.890   2.558   0.507  0.1819 -0.2529 -0.3593
12022SOL    HW136621   1.799   2.537   0.485  0.0389 -0.0907  0.0690
12022SOL    HW236622   1.942   2.497   0.454 -0.1418  0.2882 -1.3253
12023SOL     OW36623   0.027   2.234   6.405 -0.9625  0.2858  0.3501
12023SOL    HW136624  -0.028   2.173   6.355 -1.2070 -0.1304  1.0970
12023SOL    HW236625  -0.030   2.262   6.478 -0.4886  0.5621  0.6168
12024SOL     OW36626   2.005   3.818   5.719 -0.0355 -0.0176  0.4264
12024SOL    HW136627   1.918   3.854   5.739 -0.7853 -0.5040 -1.6921
12024SOL    HW236628   2.053   3.826   5.801 -1.7144  1.3048  1.3610
12025SOL     OW36629   3.537   5.411   4.275 -0.5352  0.4124  0.1063
12025SOL    HW136630   3.598   5.453   4.214 -0.2188 -0.5762 -0.2916
12025SOL    HW236631   3.466   5.474   4.286  0.7416  1.7554  0.8849
12026SOL     OW36632   4.818   0.499   1.554  0.2566  0.4734  0.1428
12026SOL    HW136633   4.842   0.502   1.461  3.6338  2.1812  0.8991
12026SOL    HW236634   4.874   0.430   1.590 -2.0652 -1.1995  0.7947
12027SOL     OW36635   2.952   4.460   1.963  0.3434 -0.3240  0.0607
12027SOL    HW136636   2.865   4.425   1.977  0.2658 -0.1058  0.1366
12027SOL    HW236637   3.002   4.388   1.926 -0.1844 -0.1266 -1.0746
12028SOL     OW36638   3.912   7.457   1.908  0.1723  0.2799  0.1652
12028SOL    HW136639   3.941   7.376   1.865 -0.1197  0.1435  0.2217
12028SOL    HW236640   3.870   7.427   1.989  2.0569  0.6019  1.3437
12029SOL     OW36641   7.740   2.230   3.887 -0.1232 -0.7125  0.0121
12029SOL    HW136642   7.762   2.141   3.858 -0.4151 -1.9196  3.1268
12029SOL    HW236643   7.650   2.223   3.920 -0.7337  1.1667 -1.0893
12030SOL     OW36644   2.646   5.300   1.280  0.2522  0.0127 -0.2846
12030SOL    HW136645   2.664   5.345   1.363 -1.0266  2.4020 -1.1923
12030SOL    HW236646   2.584   5.231   1.303  1.2548 -0.5015  0.9830
12031SOL     OW36647   4.879   1.354   2.773  0.2989 -0.1618  0.4467
12031SOL    HW136648   4.930   1.355   2.692 -2.1917 -0.3196 -1.2235
12031SOL    HW236649   4.872   1.261   2.795 -0.8762 -0.3119 -0.4568
12032SOL     OW36650   1.613   0.770   5.364 -0.2678 -0.2817  0.5075
12032SOL    HW136651   1.594   0.825   5.288  0.2669 -0.3865  0.2886
12032SOL    HW236652   1.529   0.732   5.389 -0.8339  1.3366  1.2244
12033SOL     OW36653   7.754   3.772   6.600 -0.3911 -0.3239  0.1406
12033SOL    HW136654   7.836   3.819   6.584  0.3544 -1.4990  0.3156
12033SOL    HW236655   7.782   3.682   6.618 -1.7851 -0.9801 -0.7636
12034SOL     OW36656   1.481   6.975   1.817 -0.1068 -0.1500 -0.0927
12034SOL    HW136657   1.493   6.940   1.905  0.9112 -1.3914 -0.6930
12034SOL    HW236658   1.486   6.898   1.760 -1.4619  0.5304 -1.1962
12035SOL     OW36659   4.099   4.309   4.217  0.4716 -0.6884 -0.0916
12035SOL    HW136660   4.027   4.370   4.231  0.8416 -0.2275 -0.1626
12035SOL    HW236661   4.059   4.223   4.221 -0.0404 -0.4429  0.1198
12036SOL     OW36662   0.501   0.111   6.808  0.1134  0.2213 -0.2720
12036SOL    HW136663   0.475   0.059   6.732 -0.5687 -0.5945  0.4970
12036SOL    HW236664   0.428   0.171   6.823 -0.0251 -0.0322  0.0927
12037SOL     OW36665   6.660   5.738   5.214 -0.0595  0.4105  0.7463
12037SOL    HW136666   6.623   5.731   5.302 -0.3974 -1.5518  0.5049
12037SOL    HW236667   6.747   5.698   5.222 -0.4142 -0.5426  0.0404
12038SOL     OW36668   2.221   1.079   3.207  0.1314 -0.3779 -0.1802
12038SOL    HW136669   2.170   1.119   3.278  0.0376 -0.6523 -0.0933
12038SOL    HW236670   2.263   1.003   3.247  0.2541 -0.4088 -0.3643
12039SOL     OW36671   5.879   1.002   3.093 -0.3857  0.3524 -0.3166
12039SOL    HW136672   5.786   1.024   3.096 -1.0525 -2.1028 -0.2444
12039SOL    HW236673   5.897   0.965   3.180  0.4842  0.2240 -0.5422
12040SOL     OW36674   3.378   4.479   3.422 -0.1810 -0.2371  0.0622
12040SOL    HW136675   3.314   4.466   3.492  0.5806 -2.1894  0.4678
12040SOL    HW236676   3.353   4.416   3.354  0.1315  0.3939 -0.6471
12041SOL     OW36677   2.241   0.830   0.996 -0.0445 -0.1393 -0.0327
12041SOL    HW136678   2.224   0.797   0.907  0.2733 -0.1104 -0.1020
12041SOL    HW236679   2.251   0.924   0.986 -0.5533 -0.0636  0.1127
12042SOL     OW36680   5.435   7.589   0.014  0.1055  0.0362 -0.1239
12042SOL    HW136681   5.381   7.580  -0.064 -0.3360 -2.8397  0.4074
12042SOL    HW236682   5.525   7.576  -0.017  0.1462  0.9532 -0.4215
12043SOL     OW36683   3.504   6.240   4.222 -0.0646  0.2462 -0.1864
12043SOL    HW136684   3.533   6.328   4.196  2.8747 -0.2691  0.9146
12043SOL    HW236685   3.502   6.244   4.318  0.6776 -1.0341 -0.1035
12044SOL     OW36686   2.800   1.536   2.373 -0.0291  0.0660  0.1617
12044SOL    HW136687   2.784   1.628   2.353 -1.5689 -0.4049 -0.8975
12044SOL    HW236688   2.891   1.534   2.404  0.1702  1.8644 -0.2126
12045SOL     OW36689   5.061   7.733   4.004 -0.0100  0.0952 -0.1187
12045SOL    HW136690   5.098   7.736   3.915 -0.1211 -0.1257 -0.1746
12045SOL    HW236691   5.106   7.802   4.051  0.8759 -0.5225 -0.0343
12046SOL     OW36692   1.344   3.000   3.278  0.3201 -0.4486  0.0536
12046SOL    HW136693   1.274   3.047   3.325 -0.2340 -0.4743 -0.7333
12046SOL    HW236694   1.336   2.910   3.309  0.7169 -0.2453  0.7848
12047SOL     OW36695   4.970   3.238   5.834  0.2253 -0.1616  0.1367
12047SOL    HW136696   4.908   3.304   5.803  0.6150 -0.5845 -1.6380
12047SOL    HW236697   4.980   3.257   5.928 -3.5889 -0.9253  0.8526
12048SOL     OW36698   7.404   5.774   2.818  0.2870 -0.0382  0.3095
12048SOL    HW136699   7.456   5.841   2.774 -0.3321  0.4392  0.3032
12048SOL    HW236700   7.317   5.782   2.780 -0.0582 -0.1372  1.0706
12049SOL     OW36701   2.003   0.604   1.215 -0.0186 -0.0582  0.2812
12049SOL    HW136702   1.946   0.624   1.141  1.2023 -1.8849 -1.2678
12049SOL    HW236703   2.038   0.689   1.242 -0.8865  0.7146 -0.9195
12050SOL     OW36704   0.797   5.566   1.666  0.3025  0.2115  0.2593
12050SOL    HW136705   0.873   5.511   1.646 -1.1028 -0.9381 -2.3556
12050SOL    HW236706   0.835   5.645   1.704  2.5985 -1.3417  1.4846
12051SOL     OW36707   2.121   6.351   3.837 -0.1964  0.3591  0.2801
12051SOL    HW136708   2.197   6.315   3.882 -1.4482  0.0091  2.2526
12051SOL    HW236709   2.065   6.275   3.820 -0.8476  0.8101  0.3618
12052SOL     OW36710   7.544   6.058   3.327 -0.0623  0.1736 -0.4973
12052SOL    HW136711   7.501   6.033   3.246 -0.1383  1.2097 -0.7884
12052SOL    HW236712   7.573   5.975   3.365  0.5287 -0.2899 -1.8803
12053SOL     OW36713   0.535   5.563   0.925  0.6351  0.1525  0.4765
12053SOL    HW136714   0.534   5.510   1.005  0.9297  0.1829  0.5016
12053SOL    HW236715   0.458   5.619   0.933  0.0128 -0.6504  0.1907
12054SOL     OW36716   1.630   5.843   2.741  0.0705  0.0494  0.1941
12054SOL    HW136717   1.627   5.929   2.698 -1.2867 -0.5974 -1.1368
12054SOL    HW236718   1.544   5.805   2.723  0.2853 -1.2022  1.6090
12055SOL     OW36719   7.303   7.201   2.597  0.8544  0.1318  0.4074
12055SOL    HW136720   7.279   7.143   2.669  1.9865  0.7381  1.3097
12055SOL    HW236721   7.234   7.268   2.597  0.2860 -0.4456  0.2445
12056SOL     OW36722   1.264   2.687   5.242 -0.0925 -0.4309  0.4206
12056SOL    HW136723   1.300   2.609   5.284 -2.2414 -0.8222  1.7078
12056SOL    HW236724   1.228   2.655   5.159  0.5379 -0.4608  0.1555
12057SOL     OW36725   1.355   4.978   4.797 -0.1525 -0.1127 -0.2306
12057SOL    HW136726   1.283   4.970   4.735 -0.0408 -1.1961 -0.2475
12057SOL    HW236727   1.434   4.979   4.743 -0.1278  0.5645 -0.1863
12058SOL     OW36728   1.082   7.466   7.336 -0.0237 -0.1560  0.5096
12058SOL    HW136729   1.035   7.507   7.408 -1.1048 -2.0052  0.9500
12058SOL    HW236730   1.081   7.531   7.266 -4.4393 -0.4404  0.0363
12059SOL     OW36731   6.018   4.692   1.762  0.7163 -0.3008  0.0613
12059SOL    HW136732   5.936   4.664   1.721  0.6155 -0.6249  0.4814
12059SOL    HW236733   6.086   4.647   1.712  0.6437  0.0041 -0.3179
12060SOL     OW36734   2.331   1.656   0.047 -0.0013 -0.5106  0.3639
12060SOL    HW136735   2.329   1.668   0.142 -1.8602  1.8031  0.1368
12060SOL    HW236736   2.245   1.620   0.025  0.0135 -0.0295 -0.5343
12061SOL     OW36737   2.196   6.397   0.282 -0.1376 -0.3113  0.4920
12061SOL    HW136738   2.269   6.425   0.338 -1.5393  2.1609  1.2568
12061SOL    HW236739   2.181   6.470   0.223 -2.4582 -0.3627  0.8883
12062SOL     OW36740   4.479   0.826   7.524  0.1959  0.1216 -0.0055
12062SOL    HW136741   4.560   0.799   7.567 -0.0086 -2.0173 -0.8555
12062SOL    HW236742   4.413   0.766   7.556 -0.5854  0.3937 -1.0313
12063SOL     OW36743   6.154   4.734   0.387 -0.1569 -0.0502 -0.1178
12063SOL    HW136744   6.071   4.769   0.356  0.6463  0.9175 -1.2502
12063SOL    HW236745   6.160   4.647   0.347  0.8362  1.1449 -2.8395
12064SOL     OW36746   1.720   3.913   1.811 -0.1260 -0.0512  0.1560
12064SOL    HW136747   1.631   3.880   1.805 -0.4114  0.4987  1.2157
12064SOL    HW236748   1.737   3.951   1.725 -1.2794  0.7478  0.2669
12065SOL     OW36749   0.149   2.462   1.254  0.1441 -0.1138 -0.0799
12065SOL    HW136750   0.096   2.520   1.199  2.0558  1.5946 -0.2199
12065SOL    HW236751   0.087   2.396   1.286 -1.6797  0.7536 -1.6319
12066SOL     OW36752   2.313   6.683   0.191 -0.3842  0.2641 -0.3952
12066SOL    HW136753   2.366   6.756   0.159 -1.1734  1.1770  0.3025
12066SOL    HW236754   2.377   6.619   0.222  0.3560  1.7108  1.2573
12067SOL     OW36755   5.063   7.549   1.864  0.3243  0.2021 -0.1900
12067SOL    HW136756   4.973   7.525   1.886  0.6661 -0.4940  0.4891
12067SOL    HW236757   5.080   7.627   1.917 -0.4408  1.4019 -1.6264
12068SOL     OW36758   5.164   0.801   3.854  0.5157 -0.1140 -0.2881
12068SOL    HW136759   5.176   0.729   3.915  3.7108  0.3683 -0.1657
12068SOL    HW236760   5.197   0.878   3.901 -0.3041  0.9327 -1.3650
12069SOL     OW36761   1.691   2.325   0.534  0.3573  0.2503 -0.2090
12069SOL    HW136762   1.612   2.272   0.548  0.2587  0.6141  0.6794
12069SOL    HW236763   1.763   2.261   0.533 -0.0037 -0.1590 -1.7444
12070SOL     OW36764   4.208   4.235   6.500  0.0762  0.4323 -0.1224
12070SOL    HW136765   4.267   4.304   6.531 -0.4946  1.0753 -0.4484
12070SOL    HW236766   4.174   4.268   6.417  0.3868 -0.5852 -0.6699
12071SOL     OW36767   7.048   4.417   2.396  0.3369  0.2728  0.1351
12071SOL    HW136768   7.058   4.466   2.315  2.5471 -0.1086  0.1085
12071SOL    HW236769   7.033   4.326   2.368 -1.3594  0.4971  0.1951
12072SOL     OW36770   5.694   0.075   3.282  0.2720 -0.2629 -0.4186
12072SOL    HW136771   5.708   0.008   3.350 -0.3800  0.2674  0.2569
12072SOL    HW236772   5.781   0.089   3.245  0.6614 -0.5180  0.3626
12073SOL     OW36773   2.799   4.334   6.306  0.1215  0.5230  0.1084
12073SOL    HW136774   2.771   4.408   6.359 -0.8074  0.4401 -0.2377
12073SOL    HW236775   2.718   4.301   6.266  0.7644  0.5069 -1.2425
12074SOL     OW36776   3.324   6.460   2.607  0.6165  0.0042 -0.2086
12074SOL    HW136777   3.323   6.365   2.613  0.2700  0.0855  1.7094
12074SOL    HW236778   3.232   6.485   2.603  0.7140  0.2578 -1.7574
12075SOL     OW36779   3.143   6.347   3.084 -0.1590  0.5596  0.2951
12075SOL    HW136780   3.159   6.439   3.064  0.6644  0.9434  2.4743
12075SOL    HW236781   3.055   6.330   3.049  0.8589  1.2435 -2.9165
12076SOL     OW36782   5.751   6.035   6.204  0.1201 -0.3349 -0.0158
12076SOL    HW136783   5.668   6.064   6.242 -0.2414  3.3419 -3.0748
12076SOL    HW236784   5.815   6.101   6.231  1.5546 -1.7605  0.2558
12077SOL     OW36785   2.383   4.188   5.132 -0.3812  0.5416  0.2083
12077SOL    HW136786   2.287   4.186   5.125 -0.4007 -0.6719  0.6225
12077SOL    HW236787   2.409   4.096   5.137  0.7704  0.8725  0.6353
12078SOL     OW36788   1.584   0.475   3.919  0.2694 -0.0878  0.2619
12078SOL    HW136789   1.639   0.440   3.849 -0.3563 -1.5017  0.4527
12078SOL    HW236790   1.589   0.570   3.907  0.8453 -0.2652 -1.1730
12079SOL     OW36791   2.142   1.119   0.938  0.3893  0.4527  0.1254
12079SOL    HW136792   2.122   1.178   0.866 -1.1336  0.4610  0.5247
12079SOL    HW236793   2.174   1.176   1.008  1.6229  0.4720 -0.4380
12080SOL     OW36794   4.656   4.310   5.149 -0.2455  0.3234  0.0052
12080SOL    HW136795   4.642   4.333   5.241 -0.8522  2.9546 -0.6645
12080SOL    HW236796   4.751   4.301   5.140 -0.0808  1.3723  0.6273
12081SOL     OW36797   5.756   2.712   2.386  0.1616 -0.2236  0.0818
12081SOL    HW136798   5.694   2.778   2.416 -1.2092 -1.8200  0.9064
12081SOL    HW236799   5.717   2.628   2.412  1.7977 -1.3796 -0.9803
12082SOL     OW36800   5.789   7.681   4.692  0.3371 -0.6666  0.3804
12082SOL    HW136801   5.757   7.611   4.749 -0.0269 -0.1974  0.7675
12082SOL    HW236802   5.733   7.756   4.713 -2.1577 -1.3277 -3.0300
12083SOL     OW36803   0.202   2.439   0.735 -0.6066  0.2163 -0.4684
12083SOL    HW136804   0.120   2.390   0.724  0.4283 -1.6207 -0.3558
12083SOL    HW236805   0.205   2.460   0.829 -1.0140  0.4340 -0.5021
12084SOL     OW36806   2.401   4.528   5.796 -0.2075 -0.1946 -0.0831
12084SOL    HW136807   2.456   4.603   5.819 -1.8994  0.1269  3.8094
12084SOL    HW236808   2.460   4.453   5.796  0.9562  0.6950 -0.6518
12085SOL     OW36809   5.409   2.062   4.144  0.5525 -0.1527 -0.7197
12085SOL    HW136810   5.395   2.135   4.084 -0.4085 -0.1565 -0.5208
12085SOL    HW236811   5.459   2.099   4.216  0.5629  0.1659 -0.8895
12086SOL     OW36812   2.433   4.027   2.783 -0.1430 -0.7527 -0.3013
12086SOL    HW136813   2.471   3.997   2.866 -0.5923 -0.8764 -0.1375
12086SOL    HW236814   2.339   4.015   2.794 -0.2618 -0.0842 -0.5609
12087SOL     OW36815   3.787   0.440   0.557 -0.1586 -0.9366 -0.4867
12087SOL    HW136816   3.846   0.489   0.613 -0.4910  0.1848 -1.0842
12087SOL    HW236817   3.788   0.351   0.592 -1.3519 -0.0306  2.1168
12088SOL     OW36818   2.131   4.830   7.664  0.0580 -0.2693 -0.1273
12088SOL    HW136819   2.182   4.811   7.586  0.8453  0.4258  0.2099
12088SOL    HW236820   2.076   4.752   7.676  2.3002 -1.8638  0.5051
12089SOL     OW36821   6.465   2.252   7.451 -0.5477 -0.0481 -0.3225
12089SOL    HW136822   6.551   2.261   7.409 -0.5121 -0.0090 -0.2411
12089SOL    HW236823   6.435   2.165   7.425 -0.5269 -0.0241 -0.4307
12090SOL     OW36824   1.670   6.562   0.670 -0.4966  0.2317  0.3650
12090SOL    HW136825   1.631   6.634   0.720  0.0934  1.2458 -0.5799
12090SOL    HW236826   1.738   6.604   0.618 -0.3581 -0.9718 -0.4572
12091SOL     OW36827   6.932   6.053   3.510 -0.1674  0.2133  0.5817
12091SOL    HW136828   6.861   6.110   3.537  0.8525  0.8168  2.1022
12091SOL    HW236829   6.955   6.004   3.589  1.6761  0.6579  0.3504
12092SOL     OW36830   5.437   4.681   5.859  0.2543 -0.0475  0.2873
12092SOL    HW136831   5.386   4.744   5.809  0.0181 -0.9013 -0.5720
12092SOL    HW236832   5.455   4.725   5.942 -1.9524  0.2580  0.6535
12093SOL     OW36833   1.599   6.614   2.628 -0.0905  0.0233  0.7470
12093SOL    HW136834   1.689   6.581   2.629 -0.1878 -0.2387  1.5229
12093SOL    HW236835   1.546   6.539   2.601 -0.1066  0.0940  0.5828
12094SOL     OW36836   5.782   7.522   6.848 -0.2040 -0.1660 -0.6658
12094SOL    HW136837   5.688   7.540   6.862 -0.1393 -1.0234  1.2946
12094SOL    HW236838   5.783   7.441   6.797 -0.5134  0.1746 -1.2292
12095SOL     OW36839   2.024   4.721   6.430 -0.0994  0.0598  0.2264
12095SOL    HW136840   1.985   4.735   6.516 -2.1519  2.5166 -0.9916
12095SOL    HW236841   1.962   4.758   6.368  1.9946 -0.2325 -2.2554
12096SOL     OW36842   3.586   3.099   4.055  0.0687 -0.8095  0.4674
12096SOL    HW136843   3.563   3.010   4.027  1.2174 -0.8675 -0.3330
12096SOL    HW236844   3.539   3.110   4.138 -1.4918 -1.5074 -0.2717
12097SOL     OW36845   1.269   5.874   1.868 -0.5649 -0.3515 -0.4679
12097SOL    HW136846   1.258   5.920   1.784 -2.2146  2.0093  0.9217
12097SOL    HW236847   1.325   5.932   1.920 -0.2106 -1.3959  0.3517
12098SOL     OW36848   0.103   5.421   7.401  0.7289 -0.1996  0.4423
12098SOL    HW136849   0.156   5.377   7.467 -0.7130 -0.6856  1.3240
12098SOL    HW236850   0.088   5.508   7.436  2.0162  0.4179 -0.4379
12099SOL     OW36851   3.866   3.073   6.195  0.3554  0.4723 -0.1198
12099SOL    HW136852   3.824   3.157   6.214  1.1848  0.5200  1.7478
12099SOL    HW236853   3.951   3.096   6.159  0.8500  0.4768  1.0080
12100SOL     OW36854   7.462   4.514   4.432  0.6719  0.5757 -0.3310
12100SOL    HW136855   7.496   4.598   4.401  2.0150  0.7613  1.4647
12100SOL    HW236856   7.505   4.448   4.378  1.5838  0.9564 -0.0833
12101SOL     OW36857   7.612   2.737   0.931 -0.1394 -0.3133  0.7425
12101SOL    HW136858   7.632   2.798   1.001 -2.6092 -0.2092  1.4803
12101SOL    HW236859   7.588   2.792   0.856 -0.6423 -0.3632  0.8580
12102SOL     OW36860   4.796   4.283   6.117 -0.3585 -0.1764 -0.5407
12102SOL    HW136861   4.717   4.233   6.099 -1.0413  0.5020  0.4608
12102SOL    HW236862   4.804   4.344   6.044 -0.6403 -0.3982 -0.7558
12103SOL     OW36863   6.329   4.589   0.044 -0.6390  0.4239 -0.4047
12103SOL    HW136864   6.389   4.618  -0.025 -1.1328  0.1759 -0.9397
12103SOL    HW236865   6.386   4.575   0.120 -0.0520  0.4466 -0.8306
12104SOL     OW36866   4.099   7.378   4.687 -0.5633 -0.4315 -0.1846
12104SOL    HW136867   4.171   7.332   4.730 -0.7076 -0.5017 -0.0157
12104SOL    HW236868   4.130   7.395   4.598 -0.6794 -1.2691 -0.3937
12105SOL     OW36869   4.635   5.412   3.844  0.0676  0.1746  0.0459
12105SOL    HW136870   4.715   5.360   3.833 -0.6541 -0.5011 -3.4331
12105SOL    HW236871   4.661   5.501   3.818 -0.0863  0.1549 -0.1784
12106SOL     OW36872   6.040   7.530   6.636  0.4462  0.2727 -0.6905
12106SOL    HW136873   5.962   7.476   6.633  1.3006 -0.9642 -1.7673
12106SOL    HW236874   6.077   7.523   6.548  1.9545  0.5306 -0.1042
12107SOL     OW36875   4.631   6.927   7.105 -0.0840  0.0605 -0.2647
12107SOL    HW136876   4.550   6.888   7.139 -0.4014  0.6277 -0.3625
12107SOL    HW236877   4.622   6.920   7.010 -0.2867  0.6362 -0.2963
12108SOL     OW36878   3.830   4.663   6.283 -0.7398 -0.0986  0.1669
12108SOL    HW136879   3.850   4.650   6.190 -3.0067 -2.7854 -0.0873
12108SOL    HW236880   3.902   4.717   6.316 -0.1715  1.4855 -3.2444
12109SOL     OW36881   0.146   1.561   2.168  0.8582  0.5446  0.0173
12109SOL    HW136882   0.189   1.646   2.175 -0.8303  1.3900  0.6891
12109SOL    HW236883   0.062   1.572   2.213 -0.0677 -1.0251 -1.1879
12110SOL     OW36884   5.892   6.526   5.010 -0.1101 -0.0650  0.1353
12110SOL    HW136885   5.929   6.488   4.930  0.1725  1.2923 -0.4038
12110SOL    HW236886   5.940   6.609   5.021 -2.0754  1.1293  0.1277
12111SOL     OW36887   2.421   1.485   2.648 -0.8094 -0.2173  0.1091
12111SOL    HW136888   2.415   1.516   2.558 -0.3977 -3.5411 -1.2093
12111SOL    HW236889   2.513   1.498   2.672 -0.8054  0.2079 -0.1304
12112SOL     OW36890   4.572   3.015   1.192  0.4495  0.0465  0.4790
12112SOL    HW136891   4.502   2.973   1.142  0.3155 -0.1336  0.8139
12112SOL    HW236892   4.538   3.101   1.214  0.5727  0.1868  0.1204
12113SOL     OW36893   6.790   7.385   1.137  1.0448 -0.0211  0.0135
12113SOL    HW136894   6.857   7.375   1.204  1.2391 -1.1031 -0.3099
12113SOL    HW236895   6.732   7.454   1.169  2.1265  0.7011  0.4505
12114SOL     OW36896   3.261   0.783   0.393 -0.4833 -0.1205 -0.3019
12114SOL    HW136897   3.187   0.835   0.423 -0.4561 -0.3841  0.2436
12114SOL    HW236898   3.223   0.721   0.331 -0.8718 -0.7800  0.5680
12115SOL     OW36899   6.660   4.022   0.300  0.5787  0.3927  0.6363
12115SOL    HW136900   6.675   4.111   0.267 -0.1839 -0.1070 -1.1695
12115SOL    HW236901   6.748   3.984   0.304  0.8333  0.9618  0.6238
12116SOL     OW36902   4.432   1.690   3.867 -0.1917 -0.0619  0.1688
12116SOL    HW136903   4.423   1.784   3.853  0.6015  0.0331  0.2046
12116SOL    HW236904   4.459   1.682   3.959  1.1095 -0.2071 -0.1948
12117SOL     OW36905   6.555   1.339   4.467  0.6906 -0.1843 -0.2107
12117SOL    HW136906   6.532   1.299   4.551  0.8150  0.9048  0.3591
12117SOL    HW236907   6.647   1.362   4.476  0.3702  1.1478 -0.1236
12118SOL     OW36908   5.089   4.648   3.653 -0.5551  1.2958 -0.4490
12118SOL    HW136909   5.058   4.714   3.715 -2.7449 -1.2495  1.3794
12118SOL    HW236910   5.011   4.621   3.605  0.1652 -0.3729 -0.7397
12119SOL     OW36911   1.310   6.479   6.380  0.4607 -0.0197  0.2040
12119SOL    HW136912   1.229   6.460   6.427  0.6957 -0.7967  0.3170
12119SOL    HW236913   1.380   6.465   6.444  0.6524  1.7558  0.4342
12120SOL     OW36914   5.348   5.844   3.364 -0.0525  0.0786  1.1855
12120SOL    HW136915   5.411   5.865   3.295 -2.7851 -0.8507 -1.8447
12120SOL    HW236916   5.326   5.752   3.349 -2.3049  0.4342  1.8566
12121SOL     OW36917   5.139   2.576   0.714  0.4871  0.1192 -0.0951
12121SOL    HW136918   5.095   2.558   0.631 -0.5864  1.3041  0.1819
12121SOL    HW236919   5.173   2.665   0.705  0.1161  0.3680  0.8293
12122SOL     OW36920   2.611   1.577   3.777  0.1024  1.0910  0.3411
12122SOL    HW136921   2.550   1.633   3.730  0.3399  0.0628 -1.2662
12122SOL    HW236922   2.692   1.582   3.726 -0.0542 -1.1730 -0.2192
12123SOL     OW36923   3.238   3.649   5.142  0.5544  0.3781  0.1502
12123SOL    HW136924   3.323   3.686   5.166 -0.0623  1.0978  1.2871
12123SOL    HW236925   3.260   3.579   5.080  1.9590  0.6262  0.3168
12124SOL     OW36926   3.108   0.315   4.740 -0.3816  0.6475  0.3550
12124SOL    HW136927   3.034   0.314   4.679 -0.1347 -0.4766  0.0585
12124SOL    HW236928   3.068   0.307   4.826 -0.6814  1.4355  0.2995
12125SOL     OW36929   2.799   5.530   1.027  0.2223 -0.6452  0.1323
12125SOL    HW136930   2.713   5.516   0.989  0.2810 -1.1040  0.1635
12125SOL    HW236931   2.783   5.547   1.120  0.1246 -0.1408  0.0255
12126SOL     OW36932   1.604   7.524   0.994  0.6655 -0.4977  0.1426
12126SOL    HW136933   1.620   7.533   1.088  2.4796 -0.9502 -0.0865
12126SOL    HW236934   1.676   7.571   0.953 -0.9117  1.0065 -1.0779
12127SOL     OW36935   7.690   4.117   2.306  0.3972  0.1143  0.4900
12127SOL    HW136936   7.603   4.129   2.346 -0.7489 -0.6691 -1.6114
12127SOL    HW236937   7.677   4.142   2.214  3.0122  2.2480  0.5884
12128SOL     OW36938   7.142   0.652   6.813 -0.4469  0.0653 -0.4277
12128SOL    HW136939   7.047   0.660   6.806 -0.4501  0.9433  0.4214
12128SOL    HW236940   7.158   0.627   6.904  0.0107 -3.1132 -1.2574
12129SOL     OW36941   6.448   1.345   0.356 -0.0421 -0.2830 -0.2295
12129SOL    HW136942   6.529   1.395   0.344  0.3938 -0.2414  2.2681
12129SOL    HW236943   6.381   1.411   0.369  0.1276 -0.2755  0.7658
12130SOL     OW36944   4.215   5.614   7.344  1.0333 -0.0789  0.1520
12130SOL    HW136945   4.180   5.541   7.395 -0.2334  0.6670  0.4017
12130SOL    HW236946   4.211   5.583   7.253  1.9655 -0.8782  0.3639
12131SOL     OW36947   5.925   5.706   0.928 -0.2917 -0.1016  0.2813
12131SOL    HW136948   5.910   5.611   0.934  0.5597 -0.4145 -1.6514
12131SOL    HW236949   5.840   5.745   0.943 -0.4554 -1.1072  2.1971
12132SOL     OW36950   1.447   2.280   2.960 -0.1575  0.1735 -0.3932
12132SOL    HW136951   1.354   2.304   2.966 -0.2628 -0.6018  2.5982
12132SOL    HW236952   1.482   2.299   3.047  1.4758 -3.3692 -0.1201
12133SOL     OW36953   6.111   3.913   7.579  0.4635 -0.2453  0.3299
12133SOL    HW136954   6.194   3.867   7.567  1.3434  0.7248  2.1966
12133SOL    HW236955   6.125   3.999   7.540 -0.8264 -1.1095 -2.2315
12134SOL     OW36956   6.149   1.713   6.670  0.3451  0.2103  0.0443
12134SOL    HW136957   6.209   1.641   6.691 -1.3953 -1.2379  0.3027
12134SOL    HW236958   6.196   1.792   6.695  2.2356 -0.8424 -0.0112
12135SOL     OW36959   3.905   6.405   1.620  0.7722  0.4750 -0.3904
12135SOL    HW136960   3.820   6.386   1.579 -0.2686  3.0758  0.3545
12135SOL    HW236961   3.969   6.397   1.549  0.0962 -2.3336 -0.7970
12136SOL     OW36962   4.846   7.076   7.149  0.5538  0.3203 -0.6029
12136SOL    HW136963   4.890   7.050   7.068 -0.4855 -1.0172 -0.7681
12136SOL    HW236964   4.759   7.036   7.144 -0.1483  1.6125  0.4131
12137SOL     OW36965   5.564   1.236   1.852  0.7248 -0.1826 -0.6917
12137SOL    HW136966   5.610   1.186   1.920 -0.3764  1.2546  1.2080
12137SOL    HW236967   5.633   1.261   1.790  1.6018 -2.3614 -0.6872
12138SOL     OW36968   7.500   5.990   3.055  0.8248 -0.0180 -0.6900
12138SOL    HW136969   7.514   5.896   3.050 -0.5483 -0.2169 -1.1155
12138SOL    HW236970   7.523   6.023   2.968  2.5790  0.2545 -0.1636
12139SOL     OW36971   1.109   2.474   1.814 -0.1738  0.3116 -0.2536
12139SOL    HW136972   1.203   2.481   1.832 -0.2465  1.1975 -0.1885
12139SOL    HW236973   1.068   2.529   1.880 -0.7079  0.4180 -0.6670
12140SOL     OW36974   0.132   2.032   2.729 -0.3644  0.8185 -0.3699
12140SOL    HW136975   0.146   2.046   2.823  1.3252  0.3290 -0.5194
12140SOL    HW236976   0.059   2.089   2.707  0.9951  3.1227  0.6911
12141SOL     OW36977   4.702   2.532   7.407 -0.0400 -0.2075  0.1755
12141SOL    HW136978   4.669   2.546   7.319 -2.2651  0.6043  1.0701
12141SOL    HW236979   4.634   2.480   7.450  0.3504  0.5770  1.8154
12142SOL     OW36980   3.628   2.142   0.709 -0.2371  0.2361 -0.4777
12142SOL    HW136981   3.720   2.118   0.719 -0.0165  1.3015  0.1859
12142SOL    HW236982   3.589   2.067   0.663  0.7196 -0.7074  0.1891
12143SOL     OW36983   2.551   0.911   0.785  0.0591  0.1074 -0.5436
12143SOL    HW136984   2.622   0.958   0.828  1.2354  0.2213 -2.4971
12143SOL    HW236985   2.521   0.848   0.851  0.6881  1.3266  0.9592
12144SOL     OW36986   7.699   0.426   2.312  0.6131  0.2488  0.1783
12144SOL    HW136987   7.787   0.388   2.316  1.1799  1.5214  0.1857
12144SOL    HW236988   7.683   0.460   2.400 -0.1519 -0.5046  0.3494
12145SOL     OW36989   5.584   2.846   4.073 -0.2706  0.0958  0.3055
12145SOL    HW136990   5.653   2.900   4.036  1.1884 -1.1031  1.1360
12145SOL    HW236991   5.511   2.906   4.087  0.9087  1.6099  0.2306
12146SOL     OW36992   6.148   3.184   4.930  0.1402  0.3142 -0.2902
12146SOL    HW136993   6.068   3.134   4.912  0.1168  0.6770 -1.2378
12146SOL    HW236994   6.121   3.275   4.922  0.1181  0.5309  1.6986
12147SOL     OW36995   5.798   2.004   4.004 -0.4057 -0.6027  0.1075
12147SOL    HW136996   5.870   1.946   4.026  0.3403 -0.2270 -1.2532
12147SOL    HW236997   5.839   2.086   3.977 -1.3127 -0.4251 -0.8323
12148SOL     OW36998   7.391   7.109   5.630 -0.0996  0.3220  0.0245
12148SOL    HW136999   7.314   7.061   5.599 -0.7366  0.2955  1.5707
12148SOL    HW237000   7.359   7.161   5.704  1.6707 -0.9042  1.7391
12149SOL     OW37001   5.338   5.477   7.287 -0.1255 -0.0768  0.0557
12149SOL    HW137002   5.316   5.521   7.369  0.7605 -0.2568  0.4043
12149SOL    HW237003   5.304   5.388   7.298 -0.6172  0.0947 -0.0565
12150SOL     OW37004   5.518   3.243   5.407 -0.0936  0.3523  0.0121
12150SOL    HW137005   5.589   3.305   5.391  2.0746 -1.9638 -0.0012
12150SOL    HW237006   5.497   3.254   5.500 -3.1161  4.2286 -0.8523
12151SOL     OW37007   1.387   1.024   6.273 -0.0922  0.0502 -0.0422
12151SOL    HW137008   1.437   1.000   6.351  0.2817 -1.3607 -0.6757
12151SOL    HW237009   1.392   1.119   6.269  0.8998  0.0635  0.9816
12152SOL     OW37010   1.450   1.519   4.556  0.1377 -0.4932 -0.1004
12152SOL    HW137011   1.354   1.514   4.553  0.0404  1.0378 -0.7257
12152SOL    HW237012   1.473   1.584   4.490  1.6996 -1.5282 -0.6282
12153SOL     OW37013   5.625   7.144   3.414 -0.8513 -0.1989  0.0762
12153SOL    HW137014   5.693   7.193   3.460 -0.4377 -1.4660  0.8548
12153SOL    HW237015   5.560   7.124   3.482 -1.5733  0.2336 -0.4748
12154SOL     OW37016   2.178   1.244   4.783  0.3294 -0.2329 -0.1714
12154SOL    HW137017   2.216   1.165   4.747 -0.4381 -1.1899  1.0171
12154SOL    HW237018   2.095   1.254   4.736  0.6835  0.2012 -0.7169
12155SOL     OW37019   6.138   4.703   7.648  0.2103  0.0230  0.0605
12155SOL    HW137020   6.186   4.758   7.586  1.8154 -1.9648 -0.5643
12155SOL    HW237021   6.206   4.661   7.700 -0.6592 -3.6295 -1.4634
12156SOL     OW37022   6.771   7.640   6.802  0.1885 -0.0448  0.4588
12156SOL    HW137023   6.800   7.651   6.893  0.9281 -0.5751  0.2935
12156SOL    HW237024   6.686   7.685   6.799 -1.5496 -2.8976  2.3100
12157SOL     OW37025   5.539   0.268   2.371 -0.0567  0.8037  0.0182
12157SOL    HW137026   5.591   0.285   2.450 -0.8615 -2.6285  1.4566
12157SOL    HW237027   5.565   0.180   2.344 -2.1395  0.6456 -1.6717
12158SOL     OW37028   2.998   3.076   1.272  0.2588  0.5812 -0.6246
12158SOL    HW137029   2.967   3.158   1.311 -3.0243 -0.0497 -1.5835
12158SOL    HW237030   2.998   3.093   1.178  0.9083 -0.1233 -0.7591
12159SOL     OW37031   3.735   1.195   2.398  0.0427 -0.1235  0.0711
12159SOL    HW137032   3.653   1.157   2.367  1.1826 -1.6667 -1.2028
12159SOL    HW237033   3.725   1.199   2.493 -2.4012  1.9660 -0.1646
12160SOL     OW37034   0.185   0.456   7.010  0.5732 -0.1570  0.1080
12160SOL    HW137035   0.136   0.431   6.932 -0.2441 -1.0754  0.8913
12160SOL    HW237036   0.222   0.542   6.988 -1.3982  0.6039 -0.5401
12161SOL     OW37037   7.543   4.568   0.206  0.1185  0.4714  0.0348
12161SOL    HW137038   7.537   4.477   0.237 -2.2618  0.3417 -0.6369
12161SOL    HW237039   7.474   4.614   0.253  0.7589  1.7612 -0.2503
12162SOL     OW37040   5.076   5.524   1.777 -0.3394  0.1459 -0.0359
12162SOL    HW137041   5.046   5.453   1.720 -0.5725 -0.7529  1.1740
12162SOL    HW237042   5.108   5.591   1.716  0.2663 -1.1480 -1.2142
12163SOL     OW37043   4.610   3.812   3.814 -0.1255  0.2902 -0.2466
12163SOL    HW137044   4.516   3.815   3.792 -0.3241  3.1606  0.5662
12163SOL    HW237045   4.613   3.819   3.909  0.9153  0.0192 -0.2487
12164SOL     OW37046   2.631   1.079   0.136  0.0313 -0.6233  0.5777
12164SOL    HW137047   2.674   0.994   0.124 -0.3445 -0.8645  0.9165
12164SOL    HW237048   2.653   1.104   0.226 -1.0136 -1.0285  0.9605
12165SOL     OW37049   5.582   3.424   5.994 -0.3427 -0.5686 -0.6804
12165SOL    HW137050   5.488   3.436   6.007  0.1110  1.7516  1.0567
12165SOL    HW237051   5.620   3.428   6.082  1.6332  1.6387 -1.5133
12166SOL     OW37052   5.868   7.037   7.387 -0.5039  1.1357 -0.0071
12166SOL    HW137053   5.794   7.026   7.327 -1.8344  0.7231  1.6422
12166SOL    HW237054   5.838   7.102   7.451  0.0952  0.1479  1.3352
12167SOL     OW37055   5.413   3.737   1.121  0.0900  0.3637 -0.3890
12167SOL    HW137056   5.411   3.641   1.112 -1.5859  0.2596  0.5946
12167SOL    HW237057   5.482   3.753   1.186  0.5044 -0.1625 -0.6940
12168SOL     OW37058   1.410   3.873   7.114 -0.1662 -0.5675  0.3853
12168SOL    HW137059   1.324   3.839   7.091 -0.5629 -0.2450  1.3365
12168SOL    HW237060   1.428   3.837   7.201 -0.4542  1.3012  1.2782
12169SOL     OW37061   1.750   6.664   2.321  0.6087  0.2637 -0.1167
12169SOL    HW137062   1.703   6.584   2.343 -0.2192 -0.1519 -2.8950
12169SOL    HW237063   1.688   6.735   2.340  1.0685  0.2423  1.6332
12170SOL     OW37064   4.019   1.646   5.774 -0.2055 -0.1954 -0.2436
12170SOL    HW137065   4.086   1.700   5.734 -0.9593  0.5509 -0.5421
12170SOL    HW237066   3.937   1.692   5.755 -0.7345 -0.7010  0.7200
12171SOL     OW37067   7.432   7.438   4.431  0.1162  0.2501  0.4183
12171SOL    HW137068   7.524   7.417   4.414 -0.0461  0.9253 -1.5579
12171SOL    HW237069   7.427   7.451   4.526  1.6029 -1.8222  0.8459
12172SOL     OW37070   7.199   2.677   1.250  0.2492 -0.1064 -0.2036
12172SOL    HW137071   7.194   2.741   1.322 -0.5523 -2.6102  2.1489
12172SOL    HW237072   7.133   2.707   1.187  1.4533  2.5528 -0.3356
12173SOL     OW37073   0.424   2.652   5.483  0.1380  0.8108  0.1274
12173SOL    HW137074   0.360   2.606   5.428 -0.9706  1.2759  1.0031
12173SOL    HW237075   0.508   2.633   5.441 -0.5810  0.4091 -1.2140
12174SOL     OW37076   1.776   3.561   6.001  0.2678 -0.0938 -0.0438
12174SOL    HW137077   1.782   3.628   6.069  1.4039  0.2087 -0.4205
12174SOL    HW237078   1.846   3.499   6.021 -1.6827 -2.0576  1.1726
12175SOL     OW37079   4.784   7.551   6.322  0.0663  0.1234  0.2627
12175SOL    HW137080   4.734   7.615   6.374  0.8195  0.8350  0.1415
12175SOL    HW237081   4.801   7.479   6.383 -2.3871 -0.8508 -0.1122
12176SOL     OW37082   2.599   3.727   2.693  0.3568  0.8209 -0.3524
12176SOL    HW137083   2.567   3.736   2.782  0.3800  1.9183 -0.4325
12176SOL    HW237084   2.667   3.795   2.685 -0.7467  1.8406 -1.6670
12177SOL     OW37085   3.482   4.030   1.882 -0.3757 -0.4013 -0.1606
12177SOL    HW137086   3.415   3.962   1.880 -0.7547 -0.0195 -0.8022
12177SOL    HW237087   3.447   4.100   1.827 -0.1137  0.4359  0.7156
12178SOL     OW37088   6.891   6.263   5.265  0.4798  0.1676  0.3354
12178SOL    HW137089   6.826   6.311   5.316  1.5471  0.1891  1.7409
12178SOL    HW237090   6.974   6.282   5.308  1.1606 -1.5712 -0.1198
12179SOL     OW37091   5.461   7.072   4.947 -0.2621  0.3958 -0.0985
12179SOL    HW137092   5.534   7.134   4.947  1.2070 -1.2098 -1.8369
12179SOL    HW237093   5.405   7.101   4.874 -1.1220  1.3167  0.9017
12180SOL     OW37094   7.085   7.572   6.731  0.2254 -0.5297 -0.1252
12180SOL    HW137095   7.049   7.636   6.670  1.2811 -1.5866 -1.9418
12180SOL    HW237096   7.119   7.624   6.804  1.1507  0.9998 -1.5936
12181SOL     OW37097   4.729   0.698   5.059  0.3492 -0.2189  0.2004
12181SOL    HW137098   4.673   0.634   5.103  0.4869 -0.3131  0.2382
12181SOL    HW237099   4.808   0.701   5.112 -0.5324  1.6699  1.5463
12182SOL     OW37100   1.167   5.067   4.220 -0.2439 -0.2627 -0.0522
12182SOL    HW137101   1.100   5.003   4.244 -1.9641  1.2300 -0.6636
12182SOL    HW237102   1.201   5.098   4.304 -0.3782 -0.9789  0.2753
12183SOL     OW37103   6.696   2.290   7.306  0.1416  0.0607  0.1584
12183SOL    HW137104   6.768   2.239   7.268  0.1191  0.4374 -0.4107
12183SOL    HW237105   6.675   2.355   7.238 -0.7019 -0.0133  0.3378
12184SOL     OW37106   1.959   6.190   6.434  0.2538 -0.4876  0.4052
12184SOL    HW137107   2.028   6.153   6.379  1.3980 -1.3544  2.2986
12184SOL    HW237108   1.928   6.267   6.387  2.1305 -0.3996 -0.7709
12185SOL     OW37109   4.106   1.746   0.500 -0.4061  0.1509  0.4844
12185SOL    HW137110   4.072   1.734   0.589 -2.1448  1.6437  0.0952
12185SOL    HW237111   4.136   1.837   0.498 -1.6769  0.5913 -0.7923
12186SOL     OW37112   2.910   0.770   0.639  0.1317  0.2455  0.3798
12186SOL    HW137113   2.993   0.793   0.681  0.1218  0.8530  0.0911
12186SOL    HW237114   2.905   0.675   0.644  0.7189  0.2250  0.6404
12187SOL     OW37115   3.696   2.058   2.213 -0.2077  0.2345  0.2715
12187SOL    HW137116   3.720   1.976   2.256 -2.3512 -0.7323 -0.2425
12187SOL    HW237117   3.751   2.124   2.256  0.1197 -1.1549  2.1392
12188SOL     OW37118   5.833   5.345   4.500  0.2744 -0.5950  0.4385
12188SOL    HW137119   5.771   5.416   4.518  2.4269  1.6363 -0.2533
12188SOL    HW237120   5.881   5.334   4.582  1.7031  0.7023 -0.1722
12189SOL     OW37121   4.390   1.799   4.205 -0.3178  0.1977 -0.1189
12189SOL    HW137122   4.344   1.875   4.169 -0.4729  0.9774  1.6132
12189SOL    HW237123   4.322   1.734   4.222 -0.3991  0.2746 -0.1516
12190SOL     OW37124   6.734   0.361   6.582 -0.2352 -1.3660  0.3037
12190SOL    HW137125   6.654   0.412   6.574  0.8285  0.5089  1.0090
12190SOL    HW237126   6.725   0.292   6.516 -1.6465 -0.1624 -0.8414
12191SOL     OW37127   7.515   1.041   3.373  0.8116  0.6034 -0.1944
12191SOL    HW137128   7.484   1.023   3.462  0.7905 -0.7438 -0.4480
12191SOL    HW237129   7.436   1.036   3.319  0.9603  0.4957 -0.4049
12192SOL     OW37130   2.444   7.696   6.105 -0.0046  0.1414 -0.1650
12192SOL    HW137131   2.352   7.719   6.114 -0.4945 -1.6352 -0.1777
12192SOL    HW237132   2.446   7.601   6.113  1.8589  0.1481 -0.0072
12193SOL     OW37133   4.068   0.762   7.474 -0.7644  0.0440  0.2122
12193SOL    HW137134   4.010   0.704   7.524  1.0182 -1.0840  1.0661
12193SOL    HW237135   4.075   0.841   7.529 -0.8745 -0.1283  0.4793
12194SOL     OW37136   4.425   7.527   6.228  0.1497 -0.4261 -0.1831
12194SOL    HW137137   4.455   7.444   6.265  1.4016 -0.3191 -0.9385
12194SOL    HW237138   4.333   7.511   6.205 -0.3473 -0.8483  1.8746
12195SOL     OW37139   3.235   2.586   0.836 -0.0857 -0.0415 -1.0255
12195SOL    HW137140   3.220   2.564   0.928  0.0003 -0.7038 -1.1621
12195SOL    HW237141   3.302   2.524   0.807 -0.8583 -0.5444 -1.8085
12196SOL     OW37142   2.723   3.868   5.077  0.2418  0.3496 -0.2598
12196SOL    HW137143   2.700   3.882   4.985  0.0633 -1.0649 -0.4510
12196SOL    HW237144   2.802   3.919   5.090 -0.2306  1.2966 -0.9469
12197SOL     OW37145   2.358   0.397   7.062 -0.1281  0.0152  0.3329
12197SOL    HW137146   2.402   0.355   6.988 -0.2505  0.8606 -0.2446
12197SOL    HW237147   2.352   0.329   7.129 -2.4286 -1.6205 -1.3733
12198SOL     OW37148   1.817   6.410   3.545  0.2741 -0.2289  0.4149
12198SOL    HW137149   1.748   6.476   3.532  0.9802  0.3142 -0.7571
12198SOL    HW237150   1.773   6.326   3.531 -0.1483  0.1139 -0.3549
12199SOL     OW37151   0.033   3.988   0.106  0.3950  0.6047 -0.5866
12199SOL    HW137152  -0.052   3.964   0.144 -0.0005  0.9897 -1.2156
12199SOL    HW237153   0.079   4.031   0.178 -1.1213  3.1805 -0.9870
12200SOL     OW37154   0.610   7.633   5.147  0.5879  0.3355 -0.3973
12200SOL    HW137155   0.645   7.601   5.064 -0.6419 -2.1097 -0.0572
12200SOL    HW237156   0.631   7.565   5.210 -0.5198  1.0558  0.8093
12201SOL     OW37157   3.413   7.068   3.500 -0.0203  0.4499  0.3997
12201SOL    HW137158   3.371   7.057   3.415 -0.6339 -0.9600  0.8495
12201SOL    HW237159   3.362   7.135   3.544 -0.5707  0.1828  0.1798
12202SOL     OW37160   3.687   6.000   2.764  0.7358  0.5655 -0.2801
12202SOL    HW137161   3.640   6.077   2.730  1.2450  1.0611  0.1275
12202SOL    HW237162   3.779   6.023   2.756  0.9293 -0.4188 -1.1032
12203SOL     OW37163   5.562   3.604   4.802 -0.6163 -0.1997 -0.0597
12203SOL    HW137164   5.516   3.681   4.836 -1.8504 -0.8267 -0.2608
12203SOL    HW237165   5.497   3.534   4.804  0.7765 -1.5444  1.1552
12204SOL     OW37166   2.628   7.050   2.237  0.2340 -0.2582 -0.0090
12204SOL    HW137167   2.609   7.012   2.323  0.8175  1.9854  1.1948
12204SOL    HW237168   2.724   7.056   2.235  0.1534  2.4728  0.5589
12205SOL     OW37169   5.987   2.408   0.021  0.0138  0.4083 -0.2705
12205SOL    HW137170   6.043   2.384   0.095 -1.3743  1.6154  1.2308
12205SOL    HW237171   6.030   2.368  -0.055  1.9141 -0.2033  1.0517
12206SOL     OW37172   1.222   7.432   6.275 -0.1245 -0.5383 -0.2695
12206SOL    HW137173   1.257   7.373   6.208 -0.1036 -1.3665  0.4541
12206SOL    HW237174   1.140   7.390   6.303 -0.7152  0.3836 -0.5682
12207SOL     OW37175   1.487   5.062   1.378  0.2353 -0.5418 -0.2302
12207SOL    HW137176   1.432   5.024   1.447 -1.9062 -1.6776 -2.4269
12207SOL    HW237177   1.484   5.156   1.395 -2.3560 -0.5627 -0.1735
12208SOL     OW37178   0.552   0.381   1.711  0.6253  0.7241  0.2873
12208SOL    HW137179   0.597   0.306   1.671 -0.1549  0.5711 -0.3363
12208SOL    HW237180   0.582   0.457   1.661 -1.1141  0.4192 -1.3258
12209SOL     OW37181   4.062   5.964   6.555 -0.0375 -0.4609 -0.2625
12209SOL    HW137182   4.094   6.037   6.607  0.2228 -1.6373  1.3014
12209SOL    HW237183   3.981   5.996   6.515  1.4708  1.5842 -1.9040
12210SOL     OW37184   4.908   1.392   3.233 -0.4010 -0.0486 -0.6907
12210SOL    HW137185   4.961   1.396   3.154  2.9294 -3.0878  1.0906
12210SOL    HW237186   4.839   1.329   3.212  0.5588 -0.9657 -1.1871
12211SOL     OW37187   4.206   0.503   3.818 -0.4105  0.1160 -0.3541
12211SOL    HW137188   4.278   0.520   3.879 -2.1454  2.2904  1.2579
12211SOL    HW237189   4.143   0.450   3.868 -0.4654 -0.8412 -1.3779
12212SOL     OW37190   5.567   3.675   0.202  0.2005 -0.1253  0.0354
12212SOL    HW137191   5.549   3.647   0.291  0.1363 -0.0372  0.0499
12212SOL    HW237192   5.634   3.613   0.171  0.6992  0.2394  0.3654
12213SOL     OW37193   6.821   0.326   1.626  0.0934 -0.1749 -0.3399
12213SOL    HW137194   6.804   0.412   1.587 -0.5548  0.7171  1.8026
12213SOL    HW237195   6.739   0.279   1.617 -0.4737  0.5001  1.0206
12214SOL     OW37196   2.454   5.802   3.776 -0.1879  0.7434  0.0989
12214SOL    HW137197   2.500   5.853   3.709  0.1478 -0.6734 -0.7811
12214SOL    HW237198   2.512   5.728   3.794 -1.1955  0.0220  0.4576
12215SOL     OW37199   5.340   7.000   5.990 -0.1046 -0.4407  0.3150
12215SOL    HW137200   5.421   7.020   5.943  0.4875  0.2471  1.5973
12215SOL    HW237201   5.359   6.920   6.039 -0.4303 -0.6444  0.1207
12216SOL     OW37202   1.944   6.793   1.757  0.3979 -0.6370 -0.3832
12216SOL    HW137203   2.038   6.813   1.763  0.1317  1.3481 -1.9006
12216SOL    HW237204   1.902   6.857   1.813 -0.1365 -0.6221 -0.7911
12217SOL     OW37205   1.008   4.759   1.357 -0.3772  0.0987  0.3869
12217SOL    HW137206   0.916   4.759   1.330 -0.1341  1.4589 -0.5574
12217SOL    HW237207   1.039   4.671   1.337 -0.9060  0.2796 -1.4210
12218SOL     OW37208   2.836   5.478   6.215 -0.1180  0.2388 -0.6190
12218SOL    HW137209   2.765   5.429   6.256  0.3765  2.0130  2.6749
12218SOL    HW237210   2.792   5.540   6.157 -1.0201 -0.6573 -0.9350
12219SOL     OW37211   1.158   5.112   0.118 -0.6863 -0.1664  0.1649
12219SOL    HW137212   1.197   5.063   0.046  0.6213  0.2970  0.5215
12219SOL    HW237213   1.136   5.197   0.081 -0.6593 -0.1704  0.1396
12220SOL     OW37214   6.035   5.009   6.375  0.1311  0.0599  0.3033
12220SOL    HW137215   6.080   4.936   6.333  1.8531  1.5577 -0.5693
12220SOL    HW237216   5.982   5.048   6.306 -2.3015 -1.4104  1.2141
12221SOL     OW37217   0.420   7.281   4.366 -0.1772  0.0506  0.0149
12221SOL    HW137218   0.497   7.229   4.345  0.4331  0.3696  1.3614
12221SOL    HW237219   0.354   7.217   4.394  0.1938 -0.0988  0.5643
12222SOL     OW37220   2.110   1.455   0.759  0.1221  0.4766  0.0385
12222SOL    HW137221   2.028   1.408   0.771  0.0478  1.1150  2.5438
12222SOL    HW237222   2.172   1.387   0.731 -0.5794 -0.5937  1.0090
12223SOL     OW37223   1.642   1.792   5.020 -0.2718  0.3521  0.6992
12223SOL    HW137224   1.681   1.826   4.940 -1.7507  1.4136  0.3797
12223SOL    HW237225   1.708   1.732   5.056 -0.0374 -1.1177 -1.9294
12224SOL     OW37226   1.548   4.285   7.409 -0.1435  0.1257  0.6162
12224SOL    HW137227   1.583   4.329   7.332 -0.3986  1.0610  1.0252
12224SOL    HW237228   1.527   4.355   7.470 -0.1252 -0.5887  1.4713
12225SOL     OW37229   0.337   1.953   6.316  0.0010  0.1768  0.2751
12225SOL    HW137230   0.272   1.975   6.382  0.0999 -0.7152  0.6858
12225SOL    HW237231   0.330   2.023   6.251  0.1374  1.2415  1.3878
12226SOL     OW37232   6.822   5.175   6.519  0.1929 -0.2349  0.5358
12226SOL    HW137233   6.751   5.200   6.577  0.3830  0.2469  0.5647
12226SOL    HW237234   6.796   5.208   6.433 -0.4356 -1.5901  0.1812
12227SOL     OW37235   1.732   2.044   0.535  0.1367 -0.1100 -0.0757
12227SOL    HW137236   1.755   2.020   0.625 -1.9671  1.8907  1.1284
12227SOL    HW237237   1.652   1.994   0.517 -1.2062  1.7244  0.4275
12228SOL     OW37238   6.085   3.024   2.657 -0.1466  0.0419 -0.4520
12228SOL    HW137239   6.051   3.007   2.745  0.2255  1.9025  0.1073
12228SOL    HW237240   6.093   3.119   2.653  0.1715 -0.0295 -2.3961
12229SOL     OW37241   4.648   3.247   0.503 -0.0405 -0.7116 -0.1233
12229SOL    HW137242   4.560   3.219   0.478 -0.1212  0.1819 -0.8717
12229SOL    HW237243   4.683   3.289   0.425  0.3959  0.5027  0.6964
12230SOL     OW37244   4.200   3.051   6.705  0.1920  0.0839  0.0621
12230SOL    HW137245   4.248   3.123   6.664  0.4548 -0.3982 -0.4944
12230SOL    HW237246   4.220   2.975   6.650  0.1899 -0.4848  0.8332
12231SOL     OW37247   6.325   1.247   1.138 -0.2305  0.4710  0.5098
12231SOL    HW137248   6.270   1.293   1.202 -1.5830  0.8845 -0.8996
12231SOL    HW237249   6.326   1.304   1.061  1.0612 -0.1958 -0.0057
12232SOL     OW37250   4.781   5.695   1.783  0.4490 -0.3631  0.3017
12232SOL    HW137251   4.796   5.786   1.758 -0.2860 -0.2344  0.3113
12232SOL    HW237252   4.857   5.672   1.836  0.3454  0.4363  0.8133
12233SOL     OW37253   5.510   7.536   6.800 -0.2912  0.2488  0.2190
12233SOL    HW137254   5.454   7.464   6.771 -2.2879  1.6936  0.2713
12233SOL    HW237255   5.507   7.600   6.729  0.2744  0.8911  0.7543
12234SOL     OW37256   7.488   1.402   3.956  0.8839 -0.1931 -0.1755
12234SOL    HW137257   7.522   1.316   3.980  1.2286  0.1436  0.5641
12234SOL    HW237258   7.562   1.461   3.968  0.0752  0.5438  1.3838
12235SOL     OW37259   4.909   3.201   3.424 -0.0799  0.1430 -0.2331
12235SOL    HW137260   4.850   3.245   3.363 -1.0439 -0.3464  0.3293
12235SOL    HW237261   4.943   3.271   3.480  0.9323  0.6195 -1.4050
12236SOL     OW37262   0.684   0.595   4.741  0.2694 -0.7394  0.1490
12236SOL    HW137263   0.680   0.598   4.645 -1.2790 -0.3431  0.2036
12236SOL    HW237264   0.678   0.502   4.762  1.5727 -0.9116 -0.1457
12237SOL     OW37265   6.159   3.055   2.261  0.2224  0.5402  0.3034
12237SOL    HW137266   6.104   3.044   2.338  1.1874  0.4656  1.0047
12237SOL    HW237267   6.226   2.987   2.269  0.6729  0.8954 -0.3083
12238SOL     OW37268   4.704   5.874   2.785  0.4808  0.4226 -0.4435
12238SOL    HW137269   4.737   5.869   2.874 -0.6608 -1.6125 -0.0834
12238SOL    HW237270   4.756   5.811   2.736 -0.6561 -0.4483 -0.5822
12239SOL     OW37271   6.133   5.507   5.025 -1.4720  0.4326 -0.0294
12239SOL    HW137272   6.180   5.471   4.949  0.1608  2.0378  0.1602
12239SOL    HW237273   6.114   5.431   5.079 -0.1243 -0.4372 -0.7082
12240SOL     OW37274   1.536   2.651   3.252  0.4454 -0.0510  0.5760
12240SOL    HW137275   1.442   2.634   3.257  0.4931 -0.0883  1.4250
12240SOL    HW237276   1.549   2.686   3.164 -0.3986  0.1590  0.5251
12241SOL     OW37277   2.379   2.219   7.115  0.0925  0.6642  0.6429
12241SOL    HW137278   2.440   2.228   7.188  1.5873  0.7550 -0.5887
12241SOL    HW237279   2.415   2.273   7.045 -0.1739 -1.0388 -0.8940
12242SOL     OW37280   3.500   3.023   0.181  0.2981  0.3168  0.2834
12242SOL    HW137281   3.569   2.962   0.209 -0.6233 -0.3900  1.0724
12242SOL    HW237282   3.418   2.982   0.208 -0.2993  2.7267  2.5822
12243SOL     OW37283   5.629   4.909   5.662  0.5908 -0.8642  0.2397
12243SOL    HW137284   5.704   4.907   5.722  0.2259 -0.7042  0.7121
12243SOL    HW237285   5.557   4.943   5.716 -0.2124 -2.5049  0.2576
12244SOL     OW37286   2.554   5.824   5.098  0.0754  0.4257  0.0663
12244SOL    HW137287   2.594   5.785   5.020  0.5607 -0.2124  0.6294
12244SOL    HW237288   2.464   5.845   5.070 -0.2920 -1.3321 -0.1863
12245SOL     OW37289   4.239   0.597   0.554 -0.3026 -0.1920 -0.5058
12245SOL    HW137290   4.210   0.661   0.618  0.2378  0.3055 -0.7517
12245SOL    HW237291   4.208   0.513   0.588 -1.0892  0.2042 -0.2294
12246SOL     OW37292   7.451   1.330   1.323 -0.0868 -0.3961  0.3917
12246SOL    HW137293   7.488   1.387   1.390  0.6126 -1.1051  0.6360
12246SOL    HW237294   7.498   1.247   1.334 -1.8004 -1.3651  0.7314
12247SOL     OW37295   4.974   7.651   6.985  0.5188 -0.3513  0.3945
12247SOL    HW137296   5.030   7.716   7.027  0.8163  0.4156 -1.1352
12247SOL    HW237297   4.891   7.696   6.971 -0.1454 -1.1283  1.6078
12248SOL     OW37298   1.997   0.812   4.974  0.4914 -0.6825  0.2270
12248SOL    HW137299   1.960   0.731   4.940 -2.6264  0.3124  0.9058
12248SOL    HW237300   1.956   0.881   4.922  1.4300  0.5511  1.0632
12249SOL     OW37301   4.073   0.363   3.520  0.9875 -0.3284 -0.1423
12249SOL    HW137302   4.144   0.300   3.532  0.2541 -0.9225  1.3729
12249SOL    HW237303   4.064   0.405   3.606  0.0846  0.3533 -0.5562
12250SOL     OW37304   2.271   3.973   6.947  0.2448  0.2110 -0.3118
12250SOL    HW137305   2.205   3.906   6.929  1.5465 -1.3969  0.6618
12250SOL    HW237306   2.246   4.047   6.892 -1.9405 -0.6080 -0.5051
12251SOL     OW37307   3.233   3.976   2.875 -0.3458  0.3398  0.1210
12251SOL    HW137308   3.166   3.922   2.833 -0.8447  0.1527  1.1501
12251SOL    HW237309   3.218   3.966   2.969  1.3992 -0.0736  0.4091
12252SOL     OW37310   1.596   5.649   3.946 -0.0836 -0.2655  0.2814
12252SOL    HW137311   1.556   5.570   3.981 -0.2156 -0.8141 -1.0482
12252SOL    HW237312   1.619   5.701   4.023 -0.4703 -1.3606  1.1550
12253SOL     OW37313   6.876   0.684   7.712  0.1722 -0.0728 -0.5090
12253SOL    HW137314   6.782   0.701   7.703 -0.2382 -0.8108  1.6775
12253SOL    HW237315   6.915   0.769   7.729 -0.2920  0.0721 -0.1779
12254SOL     OW37316   2.567   1.567   7.717  0.2439  0.1767  0.1471
12254SOL    HW137317   2.483   1.601   7.748  0.8942  2.6459 -0.5640
12254SOL    HW237318   2.551   1.474   7.702 -1.5056 -0.0723  2.8763
12255SOL     OW37319   2.732   4.287   4.632  0.0958  0.6095 -0.2474
12255SOL    HW137320   2.787   4.213   4.604  0.3507 -0.2919  2.3612
12255SOL    HW237321   2.673   4.301   4.558 -1.2938 -3.5567 -0.2254
12256SOL     OW37322   7.107   4.089   6.466  0.1479 -0.0177  0.0312
12256SOL    HW137323   7.150   4.007   6.441  1.2033 -0.2040  2.1743
12256SOL    HW237324   7.066   4.121   6.386 -0.2617 -2.6149 -0.8749
12257SOL     OW37325   6.672   3.691   5.434  0.1359 -0.1794 -1.2400
12257SOL    HW137326   6.629   3.608   5.413  1.0995 -0.8964 -0.4718
12257SOL    HW237327   6.714   3.675   5.519 -1.5725  1.8096  0.0945
12258SOL     OW37328   3.341   5.219   4.462 -0.1624 -0.1063  0.1270
12258SOL    HW137329   3.386   5.210   4.378 -0.7095 -1.3526 -0.0625
12258SOL    HW237330   3.300   5.133   4.476  1.0641 -0.4050  2.3296
12259SOL     OW37331   2.026   2.486   5.996  0.3905  0.1768  0.3008
12259SOL    HW137332   2.047   2.404   5.951  0.8295  0.4199  0.0462
12259SOL    HW237333   1.951   2.465   6.051 -0.9310  0.1401 -1.4178
12260SOL     OW37334   7.546   2.945   2.867  0.2678  0.6730 -0.1779
12260SOL    HW137335   7.567   3.034   2.838 -0.9735  1.6830  1.7733
12260SOL    HW237336   7.450   2.942   2.868  0.2338  0.3325  2.4451
12261SOL     OW37337   4.544   0.352   3.664 -0.6604 -0.1678  0.2795
12261SOL    HW137338   4.622   0.408   3.663 -2.2761  2.2735 -0.9001
12261SOL    HW237339   4.494   0.381   3.741 -0.8703 -0.9716  0.4498
12262SOL     OW37340   4.701   2.332   1.172  0.0378 -0.2892 -0.2736
12262SOL    HW137341   4.724   2.286   1.092  0.3749  0.5544 -0.6653
12262SOL    HW237342   4.605   2.335   1.171  0.0415 -0.2886 -0.6325
12263SOL     OW37343   1.538   0.145   7.329 -0.7326 -0.0605 -0.2296
12263SOL    HW137344   1.555   0.191   7.411 -0.2261 -1.9567  0.7888
12263SOL    HW237345   1.443   0.135   7.325 -0.8609  1.1864 -0.5540
12264SOL     OW37346   3.529   1.799   5.667  0.2878  0.0490  0.0972
12264SOL    HW137347   3.616   1.760   5.675 -0.6703 -1.8855  2.0610
12264SOL    HW237348   3.521   1.821   5.574  2.1753 -1.3958 -0.4665
12265SOL     OW37349   0.063   1.154   2.072  0.1666 -0.1089  0.5701
12265SOL    HW137350   0.071   1.072   2.120 -0.3790  0.1845  1.1689
12265SOL    HW237351  -0.026   1.185   2.090  0.8656  1.4041  1.6472
12266SOL     OW37352   7.173   1.104   5.587  0.1618  0.0470  0.4181
12266SOL    HW137353   7.203   1.150   5.665 -0.5255 -0.5264  1.0327
12266SOL    HW237354   7.208   1.015   5.596  0.3201  0.0555 -0.0683
12267SOL     OW37355   3.613   3.540   7.007 -0.0858 -0.1942  0.3537
12267SOL    HW137356   3.526   3.506   7.030  0.4808  0.3148  3.7238
12267SOL    HW237357   3.669   3.514   7.079  2.1930  1.0813 -0.8351
12268SOL     OW37358   1.884   7.057   0.272 -0.0970  0.4778 -0.2183
12268SOL    HW137359   1.815   6.996   0.297 -0.3617  1.0719  0.5366
12268SOL    HW237360   1.966   7.010   0.290 -0.2567  0.9990  2.2301
12269SOL     OW37361   6.456   2.200   2.916  0.0397  0.0697  0.3398
12269SOL    HW137362   6.483   2.155   2.996 -0.9648 -0.0551  0.6177
12269SOL    HW237363   6.447   2.292   2.942 -1.6665 -0.1820  0.7520
12270SOL     OW37364   5.798   4.470   4.565 -0.2611  0.6805 -0.5919
12270SOL    HW137365   5.850   4.390   4.559 -0.3107  0.3465  2.1719
12270SOL    HW237366   5.861   4.537   4.593 -1.0518  0.4519  1.9671
12271SOL     OW37367   0.173   6.489   1.984  0.0400 -0.0856  0.1684
12271SOL    HW137368   0.096   6.539   1.957 -0.1677 -0.9575 -0.9497
12271SOL    HW237369   0.236   6.555   2.014 -0.8328  0.6965  0.3172
12272SOL     OW37370   4.742   6.195   2.925  0.0514 -0.3049 -0.1623
12272SOL    HW137371   4.781   6.245   2.997 -0.0866 -1.6129  0.8784
12272SOL    HW237372   4.690   6.127   2.969 -0.6434 -0.6862 -1.5098
12273SOL     OW37373   7.127   7.714   4.174  0.8098  0.7269  0.1361
12273SOL    HW137374   7.047   7.766   4.183  0.0653 -0.2313 -0.6407
12273SOL    HW237375   7.109   7.634   4.224  1.5364  0.7557  0.4612
12274SOL     OW37376   2.549   4.530   1.400  0.5339 -0.0671 -0.1556
12274SOL    HW137377   2.454   4.537   1.388  0.5814 -0.2859 -0.7114
12274SOL    HW237378   2.560   4.515   1.494 -0.1525 -2.4022 -0.3766
12275SOL     OW37379   5.878   1.707   6.962 -0.0999  0.4296 -0.8608
12275SOL    HW137380   5.930   1.629   6.944 -0.2261  0.3137 -0.7269
12275SOL    HW237381   5.892   1.725   7.055  0.5677  1.0414 -1.0715
12276SOL     OW37382   3.454   0.842   3.029  0.1683  0.0593 -0.2928
12276SOL    HW137383   3.450   0.750   3.054 -1.4324  0.3795  0.7388
12276SOL    HW237384   3.489   0.888   3.106 -0.9854  0.5467 -0.0347
12277SOL     OW37385   0.762   6.696   3.023 -0.6317 -0.6872 -0.1348
12277SOL    HW137386   0.695   6.636   3.056 -1.3901  0.2928  0.1767
12277SOL    HW237387   0.712   6.771   2.991  0.3286  0.0226  0.0043
12278SOL     OW37388   2.448   4.320   4.015  0.5353 -0.2116  0.2106
12278SOL    HW137389   2.471   4.408   4.045  0.2426 -0.0515 -0.0272
12278SOL    HW237390   2.471   4.320   3.922 -2.2442  0.6428 -0.5986
12279SOL     OW37391   3.121   1.640   2.218  0.1321  0.4388 -0.6150
12279SOL    HW137392   3.091   1.606   2.134  0.9226 -0.8088 -0.4214
12279SOL    HW237393   3.150   1.729   2.199 -3.8609  1.8993 -0.7469
12280SOL     OW37394   6.327   3.641   2.667  0.0014  0.2959 -0.1694
12280SOL    HW137395   6.333   3.685   2.752  0.8109 -0.8556  0.3961
12280SOL    HW237396   6.253   3.581   2.676  0.6019 -0.4264  0.0212
12281SOL     OW37397   6.447   0.614   1.633 -0.2897 -0.8006 -0.2500
12281SOL    HW137398   6.460   0.525   1.600  0.8464 -0.6116 -0.3724
12281SOL    HW237399   6.425   0.602   1.726 -1.3306 -1.2495 -0.5484
12282SOL     OW37400   1.180   3.812   3.476 -0.7232  0.0444  0.5631
12282SOL    HW137401   1.222   3.760   3.407 -1.2827 -1.2128  1.1471
12282SOL    HW237402   1.091   3.825   3.445 -0.5938  0.6407  0.4353
12283SOL     OW37403   4.713   4.484   6.615  0.2357 -0.1362  0.0764
12283SOL    HW137404   4.699   4.550   6.547  0.0859  0.6288  0.8254
12283SOL    HW237405   4.695   4.401   6.573  1.0779  0.2492 -1.0813
12284SOL     OW37406   3.041   0.846   6.469  0.0109 -0.6964 -0.0107
12284SOL    HW137407   3.075   0.760   6.494 -0.6673 -1.3739 -1.3266
12284SOL    HW237408   3.009   0.884   6.551  1.6923 -1.0304  0.8511
12285SOL     OW37409   2.064   5.015   5.759  0.2266  0.2006  0.3559
12285SOL    HW137410   2.055   5.108   5.738  0.6975  0.8416  2.7519
12285SOL    HW237411   1.977   4.978   5.744  0.3325  0.7072 -1.8384
12286SOL     OW37412   3.150   0.538   7.261 -0.3826  0.7457 -0.0479
12286SOL    HW137413   3.075   0.514   7.208  0.1234  0.6269 -0.7211
12286SOL    HW237414   3.181   0.455   7.298  1.9490  0.0747 -3.1385
12287SOL     OW37415   3.338   2.121   1.287 -0.6482 -0.2250  0.6084
12287SOL    HW137416   3.244   2.110   1.273 -0.2815  0.3902 -3.7622
12287SOL    HW237417   3.347   2.203   1.335 -2.3198 -0.5497  1.5225
12288SOL     OW37418   6.657   4.346   6.579 -0.2681  0.0935  0.1434
12288SOL    HW137419   6.748   4.339   6.551 -0.4682 -0.1963 -0.4575
12288SOL    HW237420   6.614   4.270   6.540 -1.2177  1.3593 -1.4167
12289SOL     OW37421   0.544   7.306   5.113 -0.0063 -0.2823 -0.2710
12289SOL    HW137422   0.616   7.249   5.085 -0.1485  0.1948 -1.7246
12289SOL    HW237423   0.517   7.272   5.198 -0.9771 -3.2572 -1.6593
12290SOL     OW37424   1.565   3.037   3.103 -0.1931  0.4465 -0.1984
12290SOL    HW137425   1.635   3.085   3.146  0.9295 -0.3554 -1.0858
12290SOL    HW237426   1.489   3.048   3.161  1.1869 -0.4201  1.9083
12291SOL     OW37427   2.848   2.927   4.278 -0.2763 -0.0726  0.2928
12291SOL    HW137428   2.903   2.987   4.327 -0.5067 -0.8825  1.5893
12291SOL    HW237429   2.886   2.840   4.293 -0.9433 -0.4582 -0.1420
12292SOL     OW37430   0.519   3.818   1.979 -0.5478 -0.1265  0.2940
12292SOL    HW137431   0.439   3.771   1.957  0.0570 -1.5502  0.9970
12292SOL    HW237432   0.585   3.750   1.988  0.4908  0.9151  0.8530
12293SOL     OW37433   7.571   4.548   6.225  0.0006 -0.5405 -0.2644
12293SOL    HW137434   7.528   4.463   6.226  0.2402 -0.7108  1.9538
12293SOL    HW237435   7.661   4.530   6.254  0.3577  0.3288 -0.7901
12294SOL     OW37436   2.674   4.101   1.274 -0.1248  0.1768  0.2878
12294SOL    HW137437   2.707   4.187   1.301  0.2963  0.3206 -0.6403
12294SOL    HW237438   2.657   4.110   1.180  3.3545 -1.7194 -0.7188
12295SOL     OW37439   3.641   2.112   6.045  0.1230 -0.4638  0.3276
12295SOL    HW137440   3.664   2.132   5.954  1.9388 -0.3329  0.7847
12295SOL    HW237441   3.625   2.018   6.045  0.8599 -0.5929  0.0147
12296SOL     OW37442   2.162   4.660   5.118  0.0407 -0.3972  0.0075
12296SOL    HW137443   2.109   4.666   5.039 -1.3145  0.3306  0.9424
12296SOL    HW237444   2.251   4.682   5.088 -0.5471  0.4483 -1.2141
12297SOL     OW37445   7.441   6.401   6.384 -0.4635 -0.0416 -0.1058
12297SOL    HW137446   7.415   6.327   6.439  0.7373  0.0597  0.6340
12297SOL    HW237447   7.425   6.478   6.439  3.1300 -0.0548  1.2327
12298SOL     OW37448   2.215   5.345   5.506  0.8080 -0.1330  0.0224
12298SOL    HW137449   2.192   5.282   5.438  2.2830 -0.8352  0.1257
12298SOL    HW237450   2.177   5.309   5.586 -0.1793  0.2387 -0.2696
12299SOL     OW37451   1.533   4.029   0.511  0.1149  0.4394  0.0056
12299SOL    HW137452   1.542   3.961   0.578 -0.1062 -0.2179 -0.6177
12299SOL    HW237453   1.622   4.062   0.499  0.0276  1.2100  1.2662
12300SOL     OW37454   1.135   5.298   6.086 -0.0782  0.1121  0.0191
12300SOL    HW137455   1.136   5.217   6.138  0.4769 -0.5971 -1.0579
12300SOL    HW237456   1.209   5.348   6.120 -1.0607  0.6727  1.4191
12301SOL     OW37457   0.680   7.426   1.751 -0.0119  0.1294  0.0398
12301SOL    HW137458   0.687   7.458   1.841  2.8430 -3.6516  1.3855
12301SOL    HW237459   0.618   7.353   1.756 -0.1200  0.1130 -1.1778
12302SOL     OW37460   4.182   1.049   4.657  0.1371  0.5915 -0.6472
12302SOL    HW137461   4.203   1.125   4.603 -0.4153  0.8495 -0.5077
12302SOL    HW237462   4.202   1.077   4.746  1.5035  0.0051 -0.7464
12303SOL     OW37463   2.335   6.006   1.578 -0.0055  0.4634  0.2704
12303SOL    HW137464   2.423   6.005   1.540 -0.4645  0.6507 -0.8487
12303SOL    HW237465   2.344   5.958   1.660  1.0938  0.2908  0.0710
12304SOL     OW37466   1.293   5.884   3.828  0.0501 -0.2363  0.5640
12304SOL    HW137467   1.341   5.906   3.908 -0.4450  2.3605  0.2198
12304SOL    HW237468   1.218   5.943   3.828  0.3484  0.2643 -2.0837
12305SOL     OW37469   5.283   5.668   1.174  1.3840  0.0489 -0.4413
12305SOL    HW137470   5.190   5.645   1.174  0.9403  1.6793 -1.2825
12305SOL    HW237471   5.316   5.633   1.091  2.1449 -2.6555  0.9170
12306SOL     OW37472   6.836   6.750   0.521  0.2283 -0.5360 -0.7268
12306SOL    HW137473   6.771   6.779   0.457  0.4718  1.0449 -0.3144
12306SOL    HW237474   6.919   6.757   0.475  0.3044 -0.4688 -0.5785
12307SOL     OW37475   6.438   0.020   4.088 -0.3473 -0.0484  0.1360
12307SOL    HW137476   6.457  -0.073   4.097 -1.6271 -0.4171 -0.5817
12307SOL    HW237477   6.505   0.053   4.028  0.3596 -0.4049  0.7157
12308SOL     OW37478   0.625   6.953   0.917  0.2435 -0.5544 -0.0067
12308SOL    HW137479   0.548   7.008   0.900  0.8645  0.2758 -0.2183
12308SOL    HW237480   0.680   6.964   0.840  0.9788 -0.4348  0.5247
12309SOL     OW37481   0.346   1.360   7.648 -0.2413  0.0918 -0.1977
12309SOL    HW137482   0.277   1.345   7.712  0.2869  0.0856  0.3807
12309SOL    HW237483   0.325   1.300   7.576 -0.6520 -0.1488  0.1151
12310SOL     OW37484   1.056   3.261   7.019  0.2592 -0.2616 -0.0835
12310SOL    HW137485   0.986   3.285   6.958  0.8139  1.1799 -0.1806
12310SOL    HW237486   1.073   3.169   7.000 -1.4976 -0.6169 -0.1527
12311SOL     OW37487   0.674   5.805   2.694 -0.1749  0.2850  0.4474
12311SOL    HW137488   0.622   5.843   2.623 -0.3762 -0.5638  0.1321
12311SOL    HW237489   0.691   5.879   2.752  0.9945  1.2608 -1.0547
12312SOL     OW37490   1.369   1.763   3.582 -0.7094  0.5538 -0.6056
12312SOL    HW137491   1.321   1.820   3.522 -1.2265  0.8042  0.0341
12312SOL    HW237492   1.439   1.725   3.528 -2.6418 -1.2163 -2.0706
12313SOL     OW37493   4.246   2.835   5.032  0.1040  0.1760 -0.3224
12313SOL    HW137494   4.198   2.834   5.115 -0.0090 -1.4372 -0.3689
12313SOL    HW237495   4.181   2.863   4.967 -0.8979 -2.1118 -0.4030
12314SOL     OW37496   7.455   6.760   5.836  0.1910  0.2024  0.2721
12314SOL    HW137497   7.543   6.788   5.863 -0.0776  0.0632  1.3382
12314SOL    HW237498   7.430   6.695   5.902 -0.6073  0.0507 -0.1759
12315SOL     OW37499   6.780   3.775   3.102  0.2246  0.0816 -0.2103
12315SOL    HW137500   6.719   3.814   3.038 -0.3401  0.7532  0.7145
12315SOL    HW237501   6.862   3.767   3.054 -0.2009  0.5281 -1.0443
12316SOL     OW37502   3.364   6.264   5.595 -0.0610  0.0425  0.1647
12316SOL    HW137503   3.435   6.316   5.559  0.5214 -0.0245  1.1828
12316SOL    HW237504   3.406   6.183   5.625 -0.6699 -0.2708  0.1900
12317SOL     OW37505   4.258   0.570   6.343  0.0808 -0.0931  0.3091
12317SOL    HW137506   4.287   0.656   6.313 -0.1512 -0.6125 -1.5112
12317SOL    HW237507   4.333   0.535   6.392  0.7257  0.5568 -0.1904
12318SOL     OW37508   6.775   3.755   5.153 -0.0255  0.0309 -0.7322
12318SOL    HW137509   6.856   3.711   5.129  0.4537 -0.0092  0.8327
12318SOL    HW237510   6.748   3.713   5.235 -1.7262 -0.0599 -1.2916
12319SOL     OW37511   5.560   6.494   4.369 -0.3597 -0.5418  0.4495
12319SOL    HW137512   5.567   6.467   4.277  0.0659  0.0945  0.2933
12319SOL    HW237513   5.624   6.564   4.379 -2.3624  1.4166  0.4812
12320SOL     OW37514   1.804   2.019   2.234  0.1869 -0.2241 -0.5060
12320SOL    HW137515   1.825   2.104   2.196  0.6750  0.4740  1.2191
12320SOL    HW237516   1.869   1.959   2.197 -0.6420 -0.0598 -2.3397
12321SOL     OW37517   7.514   1.800   4.658 -0.3489 -0.2901 -0.1681
12321SOL    HW137518   7.536   1.848   4.738  0.6041  1.0186 -1.1739
12321SOL    HW237519   7.591   1.746   4.641 -0.9748 -1.3814  0.3483
12322SOL     OW37520   6.795   6.373   2.920 -0.0912  0.4853 -0.2751
12322SOL    HW137521   6.781   6.278   2.916 -1.6172  0.6656  0.2538
12322SOL    HW237522   6.741   6.408   2.849 -2.9709  1.2420  2.0997
12323SOL     OW37523   3.434   6.043   5.959 -0.7493 -0.2142 -0.3726
12323SOL    HW137524   3.430   6.010   6.049 -0.4978  1.5459  0.3313
12323SOL    HW237525   3.363   6.107   5.953 -1.6281 -1.2704 -1.8805
12324SOL     OW37526   3.290   3.395   3.703  0.9533 -0.2664  0.2958
12324SOL    HW137527   3.297   3.387   3.798  0.0473  2.1609  0.6525
12324SOL    HW237528   3.377   3.373   3.670  1.2253 -1.3428  1.6596
12325SOL     OW37529   4.738   2.503   4.886 -0.0971 -0.0053  0.0501
12325SOL    HW137530   4.750   2.463   4.972  0.5161 -1.6128 -0.7539
12325SOL    HW237531   4.775   2.591   4.895 -1.2154  0.3489  1.7762
12326SOL     OW37532   6.400   1.087   5.959 -0.0854 -0.1759 -0.4045
12326SOL    HW137533   6.470   1.142   5.993  0.9517 -2.1023  0.7974
12326SOL    HW237534   6.329   1.147   5.940  1.2425  1.6415  0.0764
12327SOL     OW37535   6.182   7.153   2.320  0.7582 -0.6228  0.5452
12327SOL    HW137536   6.088   7.167   2.309  0.9676  1.6028  1.2216
12327SOL    HW237537   6.210   7.114   2.236 -0.6690 -0.9664  0.1999
12328SOL     OW37538   2.184   4.463   3.549  0.0313  0.3572  0.1600
12328SOL    HW137539   2.133   4.387   3.576  1.8196 -1.3794 -1.0771
12328SOL    HW237540   2.133   4.503   3.478 -0.9352  0.3604  0.8393
12329SOL     OW37541   4.011   5.473   5.184 -0.3121  0.0181 -0.2657
12329SOL    HW137542   3.953   5.465   5.259  0.1246  0.4211  0.1201
12329SOL    HW237543   3.954   5.497   5.111 -0.5111  1.3316  0.3043
12330SOL     OW37544   0.085   0.016   6.850 -0.6224  0.4707  0.2355
12330SOL    HW137545   0.067   0.102   6.811  0.1800  0.3541 -0.4288
12330SOL    HW237546   0.160  -0.017   6.800 -1.7177 -1.1914 -0.3827
12331SOL     OW37547   5.301   4.954   4.044  0.2648 -0.1712 -0.1116
12331SOL    HW137548   5.300   4.915   3.956 -0.3255  0.6758 -0.5023
12331SOL    HW237549   5.371   4.908   4.090 -0.2788 -1.5270 -0.6049
12332SOL     OW37550   3.374   0.766   2.515 -0.6114  0.7081  0.2926
12332SOL    HW137551   3.415   0.682   2.494  0.4514  0.7064  2.1286
12332SOL    HW237552   3.424   0.799   2.589 -0.7527  3.1722 -0.6130
12333SOL     OW37553   2.331   6.876   7.566  0.0321 -0.5734 -0.0999
12333SOL    HW137554   2.288   6.948   7.519  1.3057 -0.6332 -1.4263
12333SOL    HW237555   2.313   6.798   7.513 -1.6286 -1.3615  1.5080
12334SOL     OW37556   4.066   2.464   6.567 -0.5324 -0.9067 -0.2211
12334SOL    HW137557   4.013   2.512   6.503 -1.1013 -1.7123 -0.3757
12334SOL    HW237558   4.005   2.401   6.605 -0.4628  0.1858  1.8109
12335SOL     OW37559   6.921   6.195   1.138  0.3427  0.3073 -0.3711
12335SOL    HW137560   6.942   6.131   1.207  0.3597  0.0875 -0.5780
12335SOL    HW237561   6.991   6.184   1.073  1.1917  1.5759  0.2883
12336SOL     OW37562   2.794   2.786   4.607 -0.6193  0.2353  0.2235
12336SOL    HW137563   2.777   2.696   4.632 -0.6084  0.3888  0.7972
12336SOL    HW237564   2.764   2.792   4.516  1.6551 -0.9899 -0.6927
12337SOL     OW37565   6.940   2.418   3.087  0.0214  0.0652 -0.7213
12337SOL    HW137566   6.949   2.465   3.004 -0.6458  0.8493 -0.3610
12337SOL    HW237567   7.011   2.452   3.142 -0.7037  0.9775 -0.3226
12338SOL     OW37568   6.962   1.962   5.834 -1.1935 -0.2831 -0.0102
12338SOL    HW137569   6.955   1.958   5.739 -0.3411 -1.1152 -0.0509
12338SOL    HW237570   6.876   1.931   5.865 -1.5974  0.3223 -0.5009
12339SOL     OW37571   4.588   4.540   4.993  0.3341  0.2573  0.1912
12339SOL    HW137572   4.654   4.607   5.013 -2.2481  2.3263  2.5229
12339SOL    HW237573   4.617   4.463   5.042  1.5864  0.7292  0.2380
12340SOL     OW37574   2.888   3.881   3.096  0.1210  0.1804  0.0190
12340SOL    HW137575   2.978   3.882   3.128  0.2097 -0.2293 -0.2192
12340SOL    HW237576   2.861   3.789   3.101 -0.4771  0.3762  0.6219
12341SOL     OW37577   0.239   5.830   4.380  0.0510  0.5466  0.1728
12341SOL    HW137578   0.262   5.773   4.307  0.1694 -2.4606  2.3621
12341SOL    HW237579   0.186   5.774   4.438  0.8936  2.3815  2.9023
12342SOL     OW37580   1.233   5.059   5.032  0.6985 -0.2164  0.1990
12342SOL    HW137581   1.275   5.043   4.948  1.9092  0.6650  0.6096
12342SOL    HW237582   1.217   4.971   5.067 -2.6999 -0.7581 -2.2234
12343SOL     OW37583   7.138   6.184   4.269 -0.5482  0.1663 -0.1857
12343SOL    HW137584   7.209   6.230   4.313  0.0411 -0.3260 -0.6191
12343SOL    HW237585   7.099   6.129   4.337  0.3789 -0.6162 -0.2663
12344SOL     OW37586   6.228   5.654   3.825 -0.2995 -0.0655  0.0923
12344SOL    HW137587   6.255   5.651   3.733 -0.9416 -3.1300 -0.0957
12344SOL    HW237588   6.301   5.615   3.872 -0.6353  0.0321  0.6974
12345SOL     OW37589   2.842   1.012   4.981  0.3875 -0.3273 -0.5627
12345SOL    HW137590   2.879   1.069   4.914 -0.3425 -1.3814 -1.8925
12345SOL    HW237591   2.749   1.037   4.985  0.2929 -0.7044 -0.3857
12346SOL     OW37592   5.589   3.601   6.942 -0.3024 -0.2244  0.3326
12346SOL    HW137593   5.552   3.654   6.871  0.7806  1.7846  1.1812
12346SOL    HW237594   5.589   3.659   7.018  2.7421 -0.7318  0.8487
12347SOL     OW37595   6.710   6.472   6.452 -0.0389  0.3386 -0.2962
12347SOL    HW137596   6.628   6.454   6.498 -0.2892 -0.9544 -1.1566
12347SOL    HW237597   6.718   6.399   6.389  2.1518  0.0037  0.2769
12348SOL     OW37598   5.990   3.695   0.739 -0.2156 -0.6768  0.3845
12348SOL    HW137599   5.990   3.765   0.675 -0.9163 -1.3261 -0.3542
12348SOL    HW237600   6.024   3.619   0.692 -2.5380 -1.6558  0.1454
12349SOL     OW37601   3.673   6.416   5.802 -0.3103 -0.7340 -0.2104
12349SOL    HW137602   3.617   6.412   5.880 -0.2720  2.8947  0.1795
12349SOL    HW237603   3.619   6.381   5.731 -1.6108 -0.9193  0.8452
12350SOL     OW37604   2.676   5.178   6.104  0.0234  0.1618 -0.3126
12350SOL    HW137605   2.749   5.238   6.094 -0.4959  0.8286 -0.1433
12350SOL    HW237606   2.688   5.142   6.192 -0.1445  0.6662 -0.0817
12351SOL     OW37607   5.002   7.297   1.447 -0.0021  0.4778 -0.2660
12351SOL    HW137608   5.055   7.355   1.393  0.4917  0.0063 -0.2965
12351SOL    HW237609   4.912   7.313   1.417  0.2812  0.0238 -1.4448
12352SOL     OW37610   2.705   0.675   4.440  0.2468 -0.0756  0.2180
12352SOL    HW137611   2.670   0.609   4.500  0.3439  0.5486  0.9751
12352SOL    HW237612   2.783   0.635   4.403  1.4685  0.3532  2.2116
12353SOL     OW37613   5.630   1.080   5.509 -0.1210  0.5845 -0.1672
12353SOL    HW137614   5.708   1.063   5.562 -0.3048 -0.0174 -0.0767
12353SOL    HW237615   5.557   1.045   5.561 -0.4251  0.9258 -0.3567
12354SOL     OW37616   2.766   3.044   5.600  0.2846  0.4035  0.3659
12354SOL    HW137617   2.782   2.952   5.623 -1.1582 -0.3534 -1.4114
12354SOL    HW237618   2.706   3.075   5.667 -0.3914 -0.4216  0.1608
12355SOL     OW37619   6.219   1.479   4.134  0.4980 -0.0744 -0.1029
12355SOL    HW137620   6.245   1.540   4.065  0.8776 -1.1601 -0.9537
12355SOL    HW237621   6.180   1.405   4.087  1.5065 -1.2049  0.7722
12356SOL     OW37622   3.574   6.487   0.283  0.0346 -0.2039  0.6138
12356SOL    HW137623   3.538   6.415   0.231  0.4350 -0.6669  0.9663
12356SOL    HW237624   3.614   6.545   0.219 -0.4560 -0.1991  0.3068
12357SOL     OW37625   0.577   1.123   5.976 -0.0289 -0.0768 -0.2948
12357SOL    HW137626   0.491   1.165   5.973  0.4746  0.9955 -2.9692
12357SOL    HW237627   0.567   1.047   5.918 -0.2300 -2.4160  2.5734
12358SOL     OW37628   2.695   5.462   4.096 -0.0057  0.2367 -0.1243
12358SOL    HW137629   2.729   5.438   4.182  0.6951  1.0880 -0.1470
12358SOL    HW237630   2.715   5.387   4.040  0.2338 -0.0034  0.2781
12359SOL     OW37631   3.829   0.988   4.578 -0.0917 -0.3476 -0.0267
12359SOL    HW137632   3.900   0.965   4.639  0.4910  2.0287  0.2785
12359SOL    HW237633   3.850   0.940   4.498 -0.8629 -3.5517  1.5345
12360SOL     OW37634   6.751   0.322   0.194  0.2747  0.0099  0.0766
12360SOL    HW137635   6.656   0.332   0.184  0.4070  0.3695 -0.9213
12360SOL    HW237636   6.763   0.233   0.226 -0.2831 -0.7969 -1.8422
12361SOL     OW37637   6.734   7.147   0.569  0.6343 -0.5577 -0.0008
12361SOL    HW137638   6.663   7.210   0.581  0.7650 -0.3630 -0.2269
12361SOL    HW237639   6.736   7.131   0.475  1.2349 -0.1469 -0.0676
12362SOL     OW37640   6.598   5.712   2.320  0.0442  0.1715  0.1631
12362SOL    HW137641   6.563   5.751   2.400  0.1121  0.8569 -0.1299
12362SOL    HW237642   6.644   5.633   2.349 -0.9104 -0.2117  0.6649
12363SOL     OW37643   4.427   3.116   0.429  0.0100 -0.0510 -0.0461
12363SOL    HW137644   4.347   3.070   0.403  0.7424 -2.0048  0.9381
12363SOL    HW237645   4.492   3.090   0.365  0.1623  0.5375 -0.1330
12364SOL     OW37646   2.622   1.912   5.300 -0.0050 -0.5513  0.4751
12364SOL    HW137647   2.584   1.839   5.250  1.2261  0.3739 -1.9761
12364SOL    HW237648   2.547   1.968   5.321 -0.4552 -0.2185 -1.7396
12365SOL     OW37649   1.179   2.087   0.572  0.7648  0.2386 -0.1808
12365SOL    HW137650   1.090   2.058   0.554  0.1832  1.7014  0.1947
12365SOL    HW237651   1.180   2.105   0.666  1.2851  0.7665 -0.2836
12366SOL     OW37652   5.735   1.377   4.281  0.2189 -0.0317  0.5201
12366SOL    HW137653   5.789   1.389   4.359  0.4027 -2.5204  0.8576
12366SOL    HW237654   5.657   1.331   4.313 -0.9513  1.2166 -0.3870
12367SOL     OW37655   3.640   0.394   3.136 -0.2758  0.0028  0.1054
12367SOL    HW137656   3.705   0.391   3.065  2.2393 -0.7655  2.2943
12367SOL    HW237657   3.627   0.487   3.152  1.1158  0.2045  0.2594
12368SOL     OW37658   0.766   6.659   1.680 -0.1136  0.4540 -0.2249
12368SOL    HW137659   0.796   6.736   1.632 -0.3628  0.2072 -0.7866
12368SOL    HW237660   0.761   6.687   1.771  1.0213  0.7287 -0.2432
12369SOL     OW37661   7.517   2.719   2.225  0.6464 -0.4611  0.3098
12369SOL    HW137662   7.539   2.785   2.160 -0.3935 -0.5701 -0.1712
12369SOL    HW237663   7.514   2.637   2.176  0.5524 -0.6510  0.6295
12370SOL     OW37664   3.488   2.340   2.112 -0.2015  0.1434 -0.4602
12370SOL    HW137665   3.556   2.272   2.117 -1.1458 -0.7434  1.6567
12370SOL    HW237666   3.415   2.296   2.068 -0.3665  0.1686 -0.2159
12371SOL     OW37667   4.315   4.669   2.561  0.2898 -0.7686  0.1533
12371SOL    HW137668   4.269   4.730   2.504 -1.6263 -1.1243  1.2184
12371SOL    HW237669   4.406   4.698   2.560 -0.0322  0.3104 -1.6260
12372SOL     OW37670   7.029   4.410   0.621 -0.2970 -0.6291 -0.2195
12372SOL    HW137671   7.110   4.416   0.570  0.3618 -2.7711  0.4451
12372SOL    HW237672   6.959   4.419   0.557  0.4857 -1.0006 -1.1536
12373SOL     OW37673   2.359   0.297   2.701  0.5326  0.0373 -0.0981
12373SOL    HW137674   2.439   0.264   2.743  1.1073 -1.0276 -1.9287
12373SOL    HW237675   2.356   0.253   2.616 -1.8289  0.3329 -0.2341
12374SOL     OW37676   2.387   0.418   5.546  0.0630  0.4321  0.1516
12374SOL    HW137677   2.302   0.375   5.560  0.5873 -0.3420  1.0713
12374SOL    HW237678   2.451   0.348   5.553  0.7725  0.9594 -0.8772
12375SOL     OW37679   1.143   7.220   6.930  0.3776 -0.2217  0.1637
12375SOL    HW137680   1.069   7.178   6.886  1.1355 -0.6612 -0.7437
12375SOL    HW237681   1.107   7.255   7.011 -0.9635  0.1353 -0.5561
12376SOL     OW37682   6.176   6.154   5.555  0.4129 -0.5585 -0.1269
12376SOL    HW137683   6.206   6.065   5.573  3.2130  0.2074 -0.5612
12376SOL    HW237684   6.216   6.176   5.471 -1.7431  0.5165 -0.9558
12377SOL     OW37685   3.053   4.159   3.586  0.1787 -0.5084 -0.5124
12377SOL    HW137686   3.134   4.194   3.622  1.1431 -1.9522 -1.2312
12377SOL    HW237687   3.007   4.122   3.661  0.8273 -0.9086 -0.3082
12378SOL     OW37688   3.589   2.900   6.421 -0.1172  0.3275 -0.3843
12378SOL    HW137689   3.522   2.842   6.455  0.3879  0.1184  0.2607
12378SOL    HW237690   3.587   2.885   6.326 -0.2651 -0.4495 -0.2670
12379SOL     OW37691   2.065   6.854   0.831  0.0391  0.3680 -0.4755
12379SOL    HW137692   2.038   6.800   0.906 -1.4371 -0.3782 -1.4854
12379SOL    HW237693   2.122   6.796   0.779 -1.8178 -0.4201 -1.7365
12380SOL     OW37694   5.508   0.345   1.521  0.2886  0.0464  0.0755
12380SOL    HW137695   5.533   0.266   1.570  1.5419  0.3011 -0.1244
12380SOL    HW237696   5.529   0.417   1.581 -0.6080  0.2544  0.1545
12381SOL     OW37697   4.399   4.969   7.134  0.6072 -0.0131  0.9798
12381SOL    HW137698   4.368   4.934   7.217  0.2570 -1.0287  0.4303
12381SOL    HW237699   4.494   4.975   7.144  0.5469  0.0806  1.5213
12382SOL     OW37700   7.606   3.909   7.333  0.2357 -0.1613  0.1419
12382SOL    HW137701   7.663   3.978   7.300  0.1743 -0.1227  0.1168
12382SOL    HW237702   7.643   3.828   7.297 -0.4979 -0.0232 -0.9723
12383SOL     OW37703   6.518   0.846   6.773 -0.3147 -0.5408  0.6307
12383SOL    HW137704   6.543   0.937   6.757 -1.7588 -0.3461 -0.7545
12383SOL    HW237705   6.501   0.843   6.867  0.2873  0.4772  0.7928
12384SOL     OW37706   2.911   1.819   4.324 -0.5898 -0.0055 -0.0282
12384SOL    HW137707   2.855   1.759   4.276  1.0936 -0.1902 -1.9157
12384SOL    HW237708   2.876   1.906   4.305 -1.1995 -0.2002  0.1851
12385SOL     OW37709   5.372   5.959   0.450 -0.0049  0.1263  0.4602
12385SOL    HW137710   5.377   6.035   0.392 -0.9351 -1.0371 -1.2315
12385SOL    HW237711   5.461   5.947   0.482  1.2818 -0.8226 -3.0121
12386SOL     OW37712   0.078   2.839   1.867 -0.5435  0.5607 -0.6822
12386SOL    HW137713   0.103   2.913   1.923  1.4790 -0.3969 -0.2066
12386SOL    HW237714   0.075   2.876   1.779  1.9482  0.9900 -0.6748
12387SOL     OW37715   2.298   5.540   3.614 -0.0312 -0.3737 -0.6267
12387SOL    HW137716   2.324   5.628   3.586 -0.8683  0.1329  0.1593
12387SOL    HW237717   2.213   5.552   3.656  0.0495 -1.4952 -0.1161
12388SOL     OW37718   3.939   6.332   7.328 -0.1321 -0.4668  0.0729
12388SOL    HW137719   4.003   6.283   7.379 -2.0504 -2.1806  0.9398
12388SOL    HW237720   3.934   6.418   7.371 -0.9232 -1.5020  2.1480
12389SOL     OW37721   6.780   6.981   3.785  0.1843 -0.5372 -0.0394
12389SOL    HW137722   6.783   6.927   3.864 -2.4362 -1.4506 -0.4640
12389SOL    HW237723   6.871   6.986   3.756  1.2447 -0.0865  3.0406
12390SOL     OW37724   5.484   6.757   1.732 -0.2353 -0.0353  0.5029
12390SOL    HW137725   5.504   6.792   1.819 -0.6293 -2.8449  1.8284
12390SOL    HW237726   5.429   6.681   1.749 -0.9299 -0.2529 -2.2921
12391SOL     OW37727   6.176   1.340   6.485  0.2550 -0.5938 -0.0227
12391SOL    HW137728   6.219   1.256   6.469  0.5476 -0.9183  2.2012
12391SOL    HW237729   6.090   1.317   6.519 -0.7127  0.0568 -1.8957
12392SOL     OW37730   5.996   4.775   0.136  0.3946 -0.0791  0.0131
12392SOL    HW137731   5.940   4.842   0.096  0.4798 -0.5638 -0.9315
12392SOL    HW237732   6.053   4.745   0.064  2.2926  0.8171  1.0569
12393SOL     OW37733   1.345   6.746   1.276  0.2221  0.4148 -0.7755
12393SOL    HW137734   1.317   6.835   1.255  3.6480  2.3775  1.8133
12393SOL    HW237735   1.429   6.735   1.231 -0.2412 -1.6553 -1.2442
12394SOL     OW37736   2.237   7.266   2.681  0.1111  0.2398 -0.0380
12394SOL    HW137737   2.220   7.172   2.686 -0.3702  0.3563  0.6060
12394SOL    HW237738   2.155   7.305   2.650  0.1692  0.4860  0.1072
12395SOL     OW37739   2.232   1.538   1.606  0.0908 -0.1810  0.1063
12395SOL    HW137740   2.207   1.492   1.686  1.1886 -0.4373  0.3159
12395SOL    HW237741   2.324   1.516   1.593  0.7655  2.1876  0.3780
12396SOL     OW37742   7.256   7.369   2.249  0.1802 -0.1829  0.2415
12396SOL    HW137743   7.207   7.437   2.295  1.6216  0.3679  1.0245
12396SOL    HW237744   7.250   7.394   2.156  0.3087  0.7753  0.4788
12397SOL     OW37745   3.198   7.628   7.754  0.4356 -0.1103  0.0686
12397SOL    HW137746   3.185   7.603   7.845  1.2667 -0.2857  0.1426
12397SOL    HW237747   3.227   7.719   7.758 -1.0091  0.3863 -0.1152
12398SOL     OW37748   6.025   1.819   2.569  0.0856 -0.2981 -0.1539
12398SOL    HW137749   5.968   1.795   2.642  1.3553 -0.4872  0.8056
12398SOL    HW237750   6.027   1.741   2.514 -2.0305  0.3124 -1.2287
12399SOL     OW37751   1.634   7.709   3.060 -0.2903 -0.8641  0.5194
12399SOL    HW137752   1.724   7.735   3.080 -0.2617 -0.8180  0.3290
12399SOL    HW237753   1.622   7.626   3.106 -0.5180 -0.3074  1.4957
12400SOL     OW37754   1.383   2.871   3.747 -0.0622 -0.4771 -0.3375
12400SOL    HW137755   1.385   2.873   3.843  0.2637 -2.2925 -0.2668
12400SOL    HW237756   1.292   2.889   3.724 -0.2528 -0.5622  0.3325
12401SOL     OW37757   7.712   1.721   6.665 -0.4001 -0.3700 -0.4322
12401SOL    HW137758   7.735   1.716   6.758 -0.4843 -1.0772 -0.4398
12401SOL    HW237759   7.662   1.802   6.657  0.2650  0.0954 -0.0092
12402SOL     OW37760   2.540   0.929   4.700 -0.0221 -0.2972 -0.1262
12402SOL    HW137761   2.518   0.891   4.785  0.8108  0.4054  0.4154
12402SOL    HW237762   2.465   0.907   4.645 -0.8505 -0.2704  0.9400
12403SOL     OW37763   4.379   1.165   7.349  0.0937 -0.4714 -0.3353
12403SOL    HW137764   4.322   1.151   7.426  0.7585  0.6144  0.3846
12403SOL    HW237765   4.394   1.077   7.315 -0.5605 -0.9461  0.5294
12404SOL     OW37766   2.026   1.105   7.160 -0.0285 -0.2220  0.1438
12404SOL    HW137767   2.016   1.156   7.240  1.7677 -0.1891  0.3824
12404SOL    HW237768   2.043   1.170   7.092 -1.0236 -0.2906 -0.1886
12405SOL     OW37769   3.832   4.876   4.797  0.3123  0.8949 -0.3111
12405SOL    HW137770   3.825   4.918   4.883  2.2431 -0.4368  0.5557
12405SOL    HW237771   3.774   4.927   4.741 -0.1645  2.4782  1.5231
12406SOL     OW37772   1.205   3.319   2.694  0.2326  0.3734 -0.2794
12406SOL    HW137773   1.205   3.413   2.715  1.3153  0.0558  1.3704
12406SOL    HW237774   1.243   3.278   2.772 -1.2197 -1.5510 -0.5276
12407SOL     OW37775   2.961   0.689   6.817  0.5982 -0.4283 -0.5610
12407SOL    HW137776   2.924   0.669   6.903 -0.5496 -1.3899 -1.2499
12407SOL    HW237777   2.955   0.607   6.768 -0.6775  0.5937 -2.2249
12408SOL     OW37778   6.071   5.735   1.782  0.0734 -0.5151  0.4942
12408SOL    HW137779   6.053   5.644   1.758  3.0152 -1.7176  2.2805
12408SOL    HW237780   6.030   5.746   1.868  0.2513 -0.3613  0.5604
12409SOL     OW37781   7.533   3.724   4.476 -0.2739  0.2678  0.2155
12409SOL    HW137782   7.521   3.629   4.488 -0.2108  0.2852  0.4005
12409SOL    HW237783   7.533   3.760   4.564 -0.5644  0.4728  0.1306
12410SOL     OW37784   0.589   6.988   1.716 -0.0471 -0.0553  0.1889
12410SOL    HW137785   0.642   6.955   1.644 -0.4351  2.5094 -1.4019
12410SOL    HW237786   0.652   7.005   1.786  0.8061  0.1114 -0.5925
12411SOL     OW37787   6.705   4.411   0.922 -0.3902  0.9140 -0.1258
12411SOL    HW137788   6.659   4.493   0.902 -0.9878  0.5628 -0.2156
12411SOL    HW237789   6.794   4.438   0.944 -0.3655  1.5194 -0.9318
12412SOL     OW37790   2.739   0.185   3.899 -0.2555  0.1525 -0.0902
12412SOL    HW137791   2.772   0.239   3.827  1.5769 -1.2329 -0.3861
12412SOL    HW237792   2.799   0.110   3.901  0.4827  0.6694  3.6232
12413SOL     OW37793   5.817   6.715   3.260  0.4201  0.2009 -0.1856
12413SOL    HW137794   5.902   6.712   3.306  0.8883  0.2528 -1.0356
12413SOL    HW237795   5.825   6.791   3.202 -0.9503  1.4224  1.1282
12414SOL     OW37796   7.725   7.440   4.792 -0.2054 -0.0814 -0.0311
12414SOL    HW137797   7.806   7.424   4.743 -0.9064 -2.5417 -0.5295
12414SOL    HW237798   7.753   7.481   4.873  1.4714 -0.2547 -0.4933
12415SOL     OW37799   1.223   1.957   2.176  0.8062 -0.1607 -0.3489
12415SOL    HW137800   1.244   2.010   2.253  0.5878 -1.8225  0.9070
12415SOL    HW237801   1.131   1.977   2.158  0.8924  0.3291 -0.2641
12416SOL     OW37802   4.922   4.334   5.074 -0.1759 -0.3796 -0.6705
12416SOL    HW137803   4.985   4.282   5.125 -0.7763 -1.0854 -0.6317
12416SOL    HW237804   4.973   4.367   5.000  0.1237 -1.3969 -0.9336
12417SOL     OW37805   6.609   3.199   4.048 -0.0290  0.2550  0.0337
12417SOL    HW137806   6.622   3.116   4.095  0.2486  0.1071 -0.2998
12417SOL    HW237807   6.611   3.175   3.956 -2.3351  0.2651 -0.0814
12418SOL     OW37808   2.569   0.376   0.121  0.3468  0.0045  0.6092
12418SOL    HW137809   2.629   0.425   0.177  0.0809  0.6622  0.3294
12418SOL    HW237810   2.624   0.339   0.053  0.5503 -0.0920  0.8249
12419SOL     OW37811   0.963   4.641   6.265  0.0471  0.0609  0.6318
12419SOL    HW137812   0.984   4.719   6.315 -1.9421  0.6250  0.6769
12419SOL    HW237813   1.000   4.569   6.315  0.1467  0.8225  1.6728
12420SOL     OW37814   4.780   3.281   0.758 -0.9538 -0.1702  0.5553
12420SOL    HW137815   4.763   3.261   0.666 -0.2762 -0.7687  0.5521
12420SOL    HW237816   4.813   3.371   0.757  0.6021 -0.7261  0.0211
12421SOL     OW37817   5.575   2.041   5.845  0.0260 -0.0325  0.0510
12421SOL    HW137818   5.486   2.005   5.847  0.3236 -0.8561 -0.8824
12421SOL    HW237819   5.626   1.981   5.899  0.2456 -0.2268 -0.3690
12422SOL     OW37820   6.075   3.275   1.207  0.2071 -0.1727 -0.0679
12422SOL    HW137821   6.153   3.273   1.263 -1.0755  0.8711  1.8508
12422SOL    HW237822   6.035   3.189   1.218  0.8300 -0.5658 -0.7398
12423SOL     OW37823   0.829   3.599   3.116 -0.1164 -0.0611  0.5943
12423SOL    HW137824   0.834   3.523   3.175  0.5743  1.1692  2.2048
12423SOL    HW237825   0.740   3.596   3.081  0.0145 -1.8082  0.3389
12424SOL     OW37826   1.112   2.845   3.591 -0.0948  0.0953  0.6465
12424SOL    HW137827   1.111   2.783   3.664 -0.1943  0.8641  1.3140
12424SOL    HW237828   1.034   2.899   3.605 -0.1100  0.2592 -0.0285
12425SOL     OW37829   6.203   3.225   6.299  0.1946 -0.2582  0.3383
12425SOL    HW137830   6.203   3.299   6.360 -2.3218  0.2827 -0.2313
12425SOL    HW237831   6.167   3.152   6.350 -3.0452  0.4866 -0.6972
12426SOL     OW37832   6.781   0.380   6.122 -0.3682 -0.1417 -0.2174
12426SOL    HW137833   6.776   0.433   6.042  2.0523 -1.7481 -1.5705
12426SOL    HW237834   6.698   0.333   6.124 -0.5179 -0.0018 -1.7710
12427SOL     OW37835   7.200   0.158   0.796 -0.4673  0.2282 -0.2309
12427SOL    HW137836   7.167   0.095   0.859 -2.5373 -0.2993 -1.7493
12427SOL    HW237837   7.164   0.242   0.823 -1.6272 -0.0513 -0.8519
12428SOL     OW37838   4.977   4.539   7.662 -0.1686  0.0351 -0.2085
12428SOL    HW137839   5.046   4.475   7.676 -0.5471 -0.9029 -2.2756
12428SOL    HW237840   5.022   4.624   7.661  0.7290 -0.4371 -0.0385
12429SOL     OW37841   5.927   3.363   3.935 -0.2945  0.5818  0.3654
12429SOL    HW137842   6.013   3.331   3.911 -0.0860  1.5109 -0.1712
12429SOL    HW237843   5.877   3.362   3.853 -1.2559 -1.2584  0.9076
12430SOL     OW37844   3.842   4.312   3.997 -0.4229  0.4051 -0.5986
12430SOL    HW137845   3.914   4.248   3.994 -0.2992  0.3179  1.8555
12430SOL    HW237846   3.832   4.331   4.090 -1.9229  2.3421 -1.1000
12431SOL     OW37847   7.122   5.473   5.455  0.0377  0.0240  0.0828
12431SOL    HW137848   7.143   5.538   5.389 -3.1350  0.7153 -0.4170
12431SOL    HW237849   7.039   5.434   5.425  0.3889 -2.2836  1.7863
12432SOL     OW37850   4.940   0.389   3.815  0.0210 -0.1709 -0.1781
12432SOL    HW137851   5.014   0.430   3.770  0.7680 -1.4244 -0.1328
12432SOL    HW237852   4.867   0.397   3.754  0.4718  0.1193 -0.6818
12433SOL     OW37853   0.234   3.944   0.531 -0.0382  0.2632 -0.1774
12433SOL    HW137854   0.154   3.897   0.555 -0.9716  1.5181 -0.6831
12433SOL    HW237855   0.203   4.016   0.475  1.6104 -0.1105 -1.6502
12434SOL     OW37856   0.687   2.920   1.481  0.0147  0.3241  0.1066
12434SOL    HW137857   0.777   2.917   1.513  0.7665 -0.4943 -1.9080
12434SOL    HW237858   0.651   2.833   1.499 -0.7480  0.9567  1.8067
12435SOL     OW37859   5.003   7.004   6.939  0.5158 -0.2380 -0.6350
12435SOL    HW137860   5.023   7.032   6.850  0.1756  1.3268 -0.2669
12435SOL    HW237861   4.942   6.931   6.928  2.3938 -1.7377 -1.6750
12436SOL     OW37862   6.283   3.870   5.149 -0.4700 -0.4134 -0.6266
12436SOL    HW137863   6.357   3.812   5.136  0.5812  0.8580 -0.5735
12436SOL    HW237864   6.246   3.883   5.062  0.0753 -0.1727 -0.8262
12437SOL     OW37865   2.130   5.605   2.930  0.0734  0.0483 -0.0304
12437SOL    HW137866   2.203   5.543   2.925  0.3977  0.2752  1.3698
12437SOL    HW237867   2.057   5.560   2.887  1.3613  0.3909 -2.7767
12438SOL     OW37868   2.586   7.042   3.543  0.0951 -0.2838 -0.3797
12438SOL    HW137869   2.666   7.001   3.511 -0.3652 -1.5320 -0.0026
12438SOL    HW237870   2.576   7.121   3.491  1.8532  0.1787 -0.0721
12439SOL     OW37871   6.298   4.816   4.673 -0.0241  0.5062 -0.2219
12439SOL    HW137872   6.210   4.823   4.711  0.4967  3.0225  0.6831
12439SOL    HW237873   6.349   4.770   4.740 -0.8734 -2.2171 -1.3159
12440SOL     OW37874   6.594   5.163   3.679 -0.1004 -0.5160  0.3276
12440SOL    HW137875   6.603   5.104   3.754 -0.3378 -2.7742 -1.3065
12440SOL    HW237876   6.524   5.124   3.626 -0.8682  1.7424 -0.4520
12441SOL     OW37877   1.266   0.162   2.610 -0.3448 -0.2126  0.4992
12441SOL    HW137878   1.309   0.245   2.629 -1.3493  0.3539  0.4090
12441SOL    HW237879   1.255   0.121   2.696  1.4543 -0.9520  0.4143
12442SOL     OW37880   4.643   7.638   6.527  0.3784 -0.1432  0.4091
12442SOL    HW137881   4.611   7.570   6.586  0.9267 -0.2018  0.6456
12442SOL    HW237882   4.730   7.659   6.560  0.0678  0.9419  0.5584
12443SOL     OW37883   1.635   5.135   4.817  0.4214  0.6465  0.1182
12443SOL    HW137884   1.685   5.096   4.746 -1.6259 -3.1197  0.4905
12443SOL    HW237885   1.701   5.165   4.880  2.2315 -0.4517 -1.1690
12444SOL     OW37886   0.564   7.169   5.370 -0.2731 -0.0039  0.1473
12444SOL    HW137887   0.525   7.167   5.458 -0.7955  0.4051 -0.0675
12444SOL    HW237888   0.541   7.084   5.332 -2.0737  0.6867 -0.4307
12445SOL     OW37889   3.624   2.732   1.826  0.3032 -0.1542  0.1178
12445SOL    HW137890   3.654   2.732   1.735 -0.2942  1.0376 -0.0938
12445SOL    HW237891   3.650   2.817   1.860 -1.9330  0.5506  0.2049
12446SOL     OW37892   1.605   4.211   2.145  0.1546 -0.0028  0.2066
12446SOL    HW137893   1.674   4.240   2.086  0.7358 -0.8103  0.4628
12446SOL    HW237894   1.551   4.289   2.160  1.3337  0.7943  0.4528
12447SOL     OW37895   0.498   2.207   4.062 -0.4067  0.0318  0.1140
12447SOL    HW137896   0.473   2.283   4.115  0.3629 -0.0809  0.6431
12447SOL    HW237897   0.416   2.180   4.019 -1.1608 -0.1852  1.6380
12448SOL     OW37898   5.715   1.568   7.280  0.0067  0.0921 -0.3201
12448SOL    HW137899   5.795   1.516   7.288 -0.1602 -0.3588 -1.3438
12448SOL    HW237900   5.694   1.564   7.186 -0.3687  1.4845 -0.3081
12449SOL     OW37901   1.232   2.988   2.873  0.5200 -0.2538 -0.0128
12449SOL    HW137902   1.253   2.974   2.781  0.5774 -1.1012  0.1236
12449SOL    HW237903   1.291   3.058   2.900  0.5123 -0.0089 -0.6147
12450SOL     OW37904   5.739   1.379   6.021  0.3950 -0.3072 -0.4281
12450SOL    HW137905   5.647   1.388   6.047 -0.3446 -2.2924 -2.1349
12450SOL    HW237906   5.785   1.445   6.074 -1.7642 -0.2870  1.5969
12451SOL     OW37907   5.693   6.952   2.173  0.4480 -0.5038  0.0405
12451SOL    HW137908   5.738   6.994   2.099  0.0882 -0.0183  0.0908
12451SOL    HW237909   5.666   7.025   2.229 -0.8272 -0.7463 -0.2317
12452SOL     OW37910   3.515   0.635   0.173  0.6594  0.3489 -0.2758
12452SOL    HW137911   3.498   0.693   0.248  0.2195 -0.7016  0.4496
12452SOL    HW237912   3.577   0.570   0.206 -1.2917 -1.5183 -0.0965
12453SOL     OW37913   0.879   7.602   3.720 -1.0692  0.4820  0.3850
12453SOL    HW137914   0.886   7.548   3.799 -0.0341  0.6020  0.3935
12453SOL    HW237915   0.936   7.677   3.737 -0.9517  0.5847 -0.4111
12454SOL     OW37916   7.293   4.476   5.190 -0.3962  0.0170  0.2098
12454SOL    HW137917   7.306   4.519   5.274  0.7540 -0.0909  0.1124
12454SOL    HW237918   7.262   4.545   5.132 -1.1061  0.1141  0.6886
12455SOL     OW37919   4.829   6.664   1.473 -0.1597 -0.0397  0.2269
12455SOL    HW137920   4.815   6.732   1.407 -0.0945 -1.8559 -1.7770
12455SOL    HW237921   4.908   6.692   1.519  0.1780  0.9787 -0.9076
12456SOL     OW37922   1.233   1.025   4.276 -0.1530  0.0790  0.6373
12456SOL    HW137923   1.158   0.965   4.285 -0.0467 -0.2350 -0.4356
12456SOL    HW237924   1.297   0.975   4.226 -0.5889  1.5375 -1.4623
12457SOL     OW37925   0.938   5.998   3.583  0.7218 -0.0114  0.4361
12457SOL    HW137926   1.030   5.978   3.562  0.7833  0.9702 -0.3123
12457SOL    HW237927   0.889   5.924   3.549  1.2654 -0.6998  1.1343
12458SOL     OW37928   4.677   2.587   4.081 -0.0238  0.4266  0.0155
12458SOL    HW137929   4.679   2.498   4.117  1.6200  0.6592  0.6245
12458SOL    HW237930   4.687   2.575   3.987 -0.6708 -0.0631  0.0047
12459SOL     OW37931   3.426   0.382   7.487 -0.5256 -0.3176  0.9215
12459SOL    HW137932   3.423   0.466   7.440 -0.8819 -0.1361  1.2652
12459SOL    HW237933   3.481   0.398   7.563  0.5141 -0.7643  0.2876
12460SOL     OW37934   5.794   5.111   0.709 -0.1493  0.0076  0.3707
12460SOL    HW137935   5.863   5.113   0.775 -0.7860 -1.6298  1.1582
12460SOL    HW237936   5.713   5.103   0.759 -0.5371 -3.2384 -0.5159
12461SOL     OW37937   7.586   3.172   3.662  0.8769 -0.4491 -0.0022
12461SOL    HW137938   7.502   3.212   3.682  0.8216  0.3976 -1.7797
12461SOL    HW237939   7.650   3.223   3.712  0.3898 -1.0331  1.2747
12462SOL     OW37940   6.977   5.856   5.968  0.1534 -0.7271 -0.4984
12462SOL    HW137941   6.971   5.768   5.931 -1.9408 -1.3718  1.1900
12462SOL    HW237942   6.979   5.843   6.063  0.2538  1.0258 -0.2152
12463SOL     OW37943   2.601   4.742   0.930 -0.0239  0.1022  0.3630
12463SOL    HW137944   2.658   4.819   0.939  0.6065 -0.3054 -0.0669
12463SOL    HW237945   2.528   4.760   0.989  2.3983 -1.1216  4.1627
12464SOL     OW37946   4.479   4.103   1.218 -0.2063 -0.7903 -0.5151
12464SOL    HW137947   4.559   4.146   1.250 -1.4757  0.9958  0.4257
12464SOL    HW237948   4.511   4.041   1.152  2.0169 -0.7038  0.3735
12465SOL     OW37949   6.296   5.605   5.471 -0.3493  0.0991  0.0148
12465SOL    HW137950   6.204   5.582   5.481 -0.3937  0.0193 -0.5653
12465SOL    HW237951   6.344   5.533   5.513 -0.5028 -0.7953 -1.2902
12466SOL     OW37952   7.366   4.182   5.160 -0.4398  0.0630  0.3358
12466SOL    HW137953   7.338   4.266   5.195 -0.1395 -0.5464  2.1410
12466SOL    HW237954   7.289   4.125   5.169 -0.3588 -0.1026 -0.0087
12467SOL     OW37955   2.620   0.214   5.366 -0.4795 -0.1532  0.1479
12467SOL    HW137956   2.680   0.171   5.305  1.0699  0.7516  0.9862
12467SOL    HW237957   2.660   0.203   5.452 -2.3412 -0.9062  0.9736
12468SOL     OW37958   6.989   3.336   1.741 -0.1849 -0.3019  0.0895
12468SOL    HW137959   6.980   3.257   1.793  0.4119  0.0719  0.7708
12468SOL    HW237960   6.906   3.381   1.752 -0.7619 -1.1148 -0.7951
12469SOL     OW37961   7.559   5.205   4.664 -0.1360  0.0321 -0.4369
12469SOL    HW137962   7.628   5.146   4.633 -0.1066 -0.0666 -0.1860
12469SOL    HW237963   7.514   5.233   4.584 -2.4912 -3.1264 -0.4003
12470SOL     OW37964   5.493   5.694   3.712 -0.1023 -0.3011  0.9512
12470SOL    HW137965   5.479   5.629   3.644  0.0328 -0.8886  1.4823
12470SOL    HW237966   5.411   5.696   3.762  0.1864 -0.6684  1.4453
12471SOL     OW37967   3.329   5.612   2.958  0.2110 -0.2553  0.3785
12471SOL    HW137968   3.368   5.572   3.036 -0.1162 -1.4998 -0.0790
12471SOL    HW237969   3.383   5.690   2.943  1.7778 -1.2608  0.4756
12472SOL     OW37970   7.282   5.832   4.996 -0.2238 -0.3648  0.0428
12472SOL    HW137971   7.373   5.855   5.017 -0.5717 -0.5350  1.9478
12472SOL    HW237972   7.276   5.738   5.016 -0.2244 -0.9492 -2.4205
12473SOL     OW37973   0.099   5.255   0.527 -0.0958 -0.1543  0.0798
12473SOL    HW137974   0.056   5.339   0.511 -1.3401  0.1901  4.1763
12473SOL    HW237975   0.035   5.190   0.496 -1.2354  0.4107  1.1666
12474SOL     OW37976   0.640   2.352   7.197  0.6644  0.0411 -0.4542
12474SOL    HW137977   0.726   2.344   7.237  1.3507  1.1133 -1.6722
12474SOL    HW237978   0.657   2.372   7.105 -0.8827 -1.0466 -1.0333
12475SOL     OW37979   0.575   7.190   2.258 -0.2193 -0.3741 -0.5429
12475SOL    HW137980   0.550   7.208   2.168 -0.4487 -1.4554 -0.7128
12475SOL    HW237981   0.657   7.141   2.252  0.7686  1.1487 -0.0718
12476SOL     OW37982   0.291   3.171   2.521  0.4099  0.2711 -0.5217
12476SOL    HW137983   0.383   3.146   2.521  0.1026 -0.9408 -1.6180
12476SOL    HW237984   0.292   3.267   2.531  1.7731  0.2893 -0.7014
12477SOL     OW37985   4.914   1.743   3.024  0.0428 -0.0916 -0.8093
12477SOL    HW137986   4.971   1.681   3.069  1.1786  1.9013  0.6812
12477SOL    HW237987   4.829   1.701   3.023  0.3084 -0.8802  1.9484
12478SOL     OW37988   4.098   5.209   2.554  0.6576  0.0208  0.4161
12478SOL    HW137989   4.106   5.294   2.597  0.8959 -0.4454  1.3355
12478SOL    HW237990   4.164   5.211   2.485  0.1907  0.8315 -0.0249
12479SOL     OW37991   3.263   1.896   2.783 -0.2425 -0.4015  0.2264
12479SOL    HW137992   3.228   1.811   2.807  1.8300 -1.4826 -0.3965
12479SOL    HW237993   3.312   1.881   2.703  1.5032  1.0310  0.9433
12480SOL     OW37994   1.625   7.089   7.653  0.2994  0.0296  0.0809
12480SOL    HW137995   1.695   7.125   7.708  0.0618 -1.5165  1.4644
12480SOL    HW237996   1.613   7.000   7.685 -0.1756 -0.7884 -2.1990
12481SOL     OW37997   1.362   7.364   1.198  0.4284 -0.0306 -0.3405
12481SOL    HW137998   1.410   7.446   1.210 -2.7315  1.9382 -0.0315
12481SOL    HW237999   1.270   7.391   1.192 -0.6269 -3.4564 -1.7127
12482SOL     OW38000   3.754   7.750   3.941 -0.6065  0.0791  0.6464
12482SOL    HW138001   3.804   7.673   3.914  1.5130  1.3479  0.7054
12482SOL    HW238002   3.686   7.715   3.999 -0.4803 -1.8549 -0.2937
12483SOL     OW38003   5.192   6.234   5.631  0.6602  0.5268 -0.2977
12483SOL    HW138004   5.268   6.200   5.677  1.3181  0.5531 -1.3548
12483SOL    HW238005   5.117   6.190   5.673  1.3979 -1.3177 -0.8122
12484SOL     OW38006   4.986   7.202   6.725  0.1941  0.5121 -0.4189
12484SOL    HW138007   4.933   7.240   6.654  0.9949 -0.2122 -1.4237
12484SOL    HW238008   5.003   7.276   6.783  0.3858  1.3558 -1.5140
12485SOL     OW38009   2.476   7.696   5.507  0.0865  0.1516  0.5248
12485SOL    HW138010   2.533   7.769   5.531  1.0325 -0.5011  0.2946
12485SOL    HW238011   2.418   7.685   5.583 -0.6839  1.7009  0.2140
12486SOL     OW38012   3.051   7.561   3.961  0.4600 -0.3620 -0.0384
12486SOL    HW138013   3.075   7.474   3.931 -0.2074 -0.6829  0.3481
12486SOL    HW238014   2.984   7.547   4.028  1.1340  0.3904  0.8375
12487SOL     OW38015   7.261   0.931   6.760  0.3421  0.1173 -0.2466
12487SOL    HW138016   7.305   0.929   6.675  2.7527  1.5600  0.8517
12487SOL    HW238017   7.261   0.840   6.789  1.4780 -0.1117 -0.8785
12488SOL     OW38018   1.617   6.128   5.279  0.0226 -0.3248  0.6023
12488SOL    HW138019   1.709   6.102   5.272 -0.2116 -0.9970 -0.1437
12488SOL    HW238020   1.569   6.047   5.265 -0.7509  0.5225 -2.2390
12489SOL     OW38021   1.308   4.658   0.783 -0.4723 -0.1651  0.5058
12489SOL    HW138022   1.376   4.724   0.769  0.4107 -0.9218  1.0595
12489SOL    HW238023   1.319   4.596   0.712 -1.7145  0.5878 -0.3779
12490SOL     OW38024   2.121   6.396   6.954 -0.3527  0.2280 -0.5440
12490SOL    HW138025   2.029   6.406   6.930 -0.0487 -0.1148 -1.8812
12490SOL    HW238026   2.121   6.406   7.050 -1.7741  0.1977 -0.5174
12491SOL     OW38027   2.886   5.493   3.554  0.0484  0.0705  0.6337
12491SOL    HW138028   2.961   5.494   3.613  0.8453  0.3239 -0.3481
12491SOL    HW238029   2.876   5.402   3.527  1.3400  0.3251 -0.8405
12492SOL     OW38030   7.420   1.942   0.419 -0.5633 -0.1531 -0.1252
12492SOL    HW138031   7.363   2.011   0.451  1.8469  1.3602  1.2174
12492SOL    HW238032   7.437   1.965   0.328  1.5876  2.1705  0.7544
12493SOL     OW38033   0.295   0.904   3.801  0.0218  0.4614  0.5822
12493SOL    HW138034   0.310   0.891   3.895 -1.3304 -0.9202  0.6482
12493SOL    HW238035   0.222   0.846   3.780 -0.1831  1.2901 -1.1895
12494SOL     OW38036   6.546   5.926   7.625 -0.9538  0.5457  0.4567
12494SOL    HW138037   6.623   5.961   7.579 -0.1489 -2.1552 -0.4232
12494SOL    HW238038   6.558   5.954   7.716  0.3815  1.2689  0.0888
12495SOL     OW38039   7.568   1.589   7.530 -0.2628 -0.6431  0.5540
12495SOL    HW138040   7.515   1.557   7.603 -1.4427 -1.2611 -0.5189
12495SOL    HW238041   7.537   1.538   7.455 -0.5331  1.3585 -0.7821
12496SOL     OW38042   4.120   7.638   2.078 -0.4525 -0.1794 -0.2518
12496SOL    HW138043   4.133   7.650   1.984 -1.2154 -1.3544 -0.5250
12496SOL    HW238044   4.033   7.599   2.086 -0.0793 -0.8383  0.8776
12497SOL     OW38045   6.986   5.161   5.572  0.2968  0.4582 -0.0535
12497SOL    HW138046   6.897   5.133   5.592  0.6420  0.6275  1.8978
12497SOL    HW238047   7.019   5.095   5.511 -0.7531 -0.2534  0.1315
12498SOL     OW38048   0.870   4.883   2.257 -0.0243 -0.1407 -0.2036
12498SOL    HW138049   0.865   4.963   2.309  2.3301 -1.3989  2.1729
12498SOL    HW238050   0.779   4.856   2.245 -0.7155  0.3485  3.1373
12499SOL     OW38051   0.474   4.035   6.092 -0.9759  0.0157 -0.0977
12499SOL    HW138052   0.453   4.123   6.124  0.3663  0.2263  0.2932
12499SOL    HW238053   0.463   4.041   5.997  0.0184  0.9057 -0.1833
12500SOL     OW38054   6.877   2.676   4.449 -0.2945  0.2862  0.8108
12500SOL    HW138055   6.802   2.617   4.455  0.5057 -0.7349  1.2253
12500SOL    HW238056   6.948   2.628   4.492  0.7085  1.0228  0.0237
12501SOL     OW38057   4.952   4.567   6.314  0.3472 -0.5703 -0.0520
12501SOL    HW138058   4.954   4.503   6.385  0.0814 -0.2770  0.2217
12501SOL    HW238059   5.041   4.601   6.311 -0.1068  0.8857  1.5001
12502SOL     OW38060   7.724   6.784   5.855  0.0022  0.3270  0.6409
12502SOL    HW138061   7.749   6.717   5.791  1.5475  0.3572  1.1692
12502SOL    HW238062   7.774   6.763   5.934 -0.8478  1.0705  1.4108
12503SOL     OW38063   2.882   4.748   3.764  0.0537 -0.1342  0.1663
12503SOL    HW138064   2.949   4.699   3.716 -1.6854 -3.5077  0.8399
12503SOL    HW238065   2.922   4.767   3.849 -0.1190 -3.4225  1.1347
12504SOL     OW38066   3.254   7.303   5.208 -0.4767 -0.0610 -0.7218
12504SOL    HW138067   3.231   7.279   5.118 -0.7088 -0.0912 -0.6555
12504SOL    HW238068   3.221   7.231   5.261 -0.5668  0.0755 -0.5888
12505SOL     OW38069   6.526   0.879   1.203 -0.1787 -0.5029  0.1754
12505SOL    HW138070   6.473   0.910   1.276 -0.3851 -0.7691  0.1400
12505SOL    HW238071   6.539   0.786   1.220 -0.6062 -0.6634 -0.3519
12506SOL     OW38072   6.733   4.740   5.971 -0.1174 -0.0605  0.0254
12506SOL    HW138073   6.751   4.706   6.058  1.3292  1.8335  0.5299
12506SOL    HW238074   6.801   4.806   5.956 -0.9643  0.4212 -2.1046
12507SOL     OW38075   0.491   2.636   3.762 -0.2814 -0.1849  0.0731
12507SOL    HW138076   0.481   2.644   3.668 -0.6375  0.8652  0.1834
12507SOL    HW238077   0.582   2.661   3.779 -0.5798  0.9192  0.1231
12508SOL     OW38078   6.571   3.494   6.408 -1.0178 -0.1476 -0.1174
12508SOL    HW138079   6.636   3.489   6.337 -0.9839  1.2157 -0.2105
12508SOL    HW238080   6.492   3.527   6.365 -0.5108  2.3793  0.7283
12509SOL     OW38081   1.891   7.746   3.156 -0.5585 -0.0891 -0.3096
12509SOL    HW138082   1.958   7.678   3.168  0.2434  0.9021  1.1087
12509SOL    HW238083   1.912   7.786   3.072 -0.3853 -0.8821 -0.6489
12510SOL     OW38084   7.453   7.472   7.554 -0.0702  0.3281 -0.1143
12510SOL    HW138085   7.420   7.444   7.639  0.2729 -0.0591 -0.1050
12510SOL    HW238086   7.386   7.444   7.491  0.0430 -0.0922 -0.0531
12511SOL     OW38087   3.534   0.927   7.749  0.5505  0.2315 -0.0678
12511SOL    HW138088   3.554   0.919   7.842 -0.5480  0.1993  0.1750
12511SOL    HW238089   3.482   0.848   7.729 -1.1912  1.3529 -0.1582
12512SOL     OW38090   0.248   5.672   3.599 -0.2243 -0.3257 -0.0184
12512SOL    HW138091   0.261   5.698   3.508  4.1363  0.5708  0.6314
12512SOL    HW238092   0.332   5.634   3.626 -0.6468  1.1022  4.0889
12513SOL     OW38093   7.343   3.931   6.321  0.2778  0.3691  0.4112
12513SOL    HW138094   7.370   3.903   6.233 -0.6004 -0.9819  0.5448
12513SOL    HW238095   7.425   3.941   6.369  0.7577  0.8888 -0.4807
12514SOL     OW38096   0.580   7.423   2.415  0.0718  0.5458  0.4036
12514SOL    HW138097   0.566   7.363   2.341 -0.0756  1.8797 -0.7019
12514SOL    HW238098   0.591   7.366   2.491 -0.5792 -0.8531 -0.5135
12515SOL     OW38099   3.441   5.777   4.905 -0.1605 -0.5590  0.3011
12515SOL    HW138100   3.396   5.774   4.989 -0.3532  0.6901  0.2556
12515SOL    HW238101   3.378   5.739   4.843 -0.7404  0.1756  0.4239
12516SOL     OW38102   4.558   5.188   2.853 -0.5403 -0.2296 -0.3788
12516SOL    HW138103   4.502   5.116   2.879  0.6403 -0.7613  0.7698
12516SOL    HW238104   4.505   5.238   2.791 -1.3278 -2.1505 -1.3394
12517SOL     OW38105   7.289   3.565   4.729 -0.1116 -0.5647 -0.2961
12517SOL    HW138106   7.329   3.640   4.774 -0.8717 -0.4687  0.2530
12517SOL    HW238107   7.232   3.605   4.663 -0.8735 -0.6235  0.3027
12518SOL     OW38108   7.079   1.398   6.718  0.1182  1.0208  0.1352
12518SOL    HW138109   7.156   1.346   6.744  0.0114  0.7739 -0.0414
12518SOL    HW238110   7.035   1.418   6.801  0.1154  0.7601  0.1999
12519SOL     OW38111   2.275   6.950   1.052  0.6998  0.1226 -0.8448
12519SOL    HW138112   2.204   6.951   0.988 -0.3395  0.8077  0.2847
12519SOL    HW238113   2.354   6.931   1.000 -0.2033 -0.0214 -2.2107
12520SOL     OW38114   6.078   3.657   6.205 -0.1432 -0.2309 -0.0721
12520SOL    HW138115   6.004   3.696   6.252 -1.3975 -1.8987 -0.5470
12520SOL    HW238116   6.082   3.704   6.122 -1.6256 -1.0559 -0.6380
12521SOL     OW38117   4.551   1.231   5.625 -0.4901  0.0954  0.1971
12521SOL    HW138118   4.546   1.136   5.634  1.1643 -0.2420 -1.6248
12521SOL    HW238119   4.470   1.255   5.580 -1.4461 -0.2628  1.6672
12522SOL     OW38120   7.140   4.803   2.263  0.4832  0.7249 -0.2141
12522SOL    HW138121   7.187   4.793   2.345 -0.3738  0.4015  0.2502
12522SOL    HW238122   7.197   4.857   2.208  2.2905 -1.2627 -0.4073
12523SOL     OW38123   1.458   1.332   7.694  0.4008  0.3212  0.1593
12523SOL    HW138124   1.380   1.371   7.655 -0.1834 -1.2041 -0.2530
12523SOL    HW238125   1.456   1.241   7.666  0.9409 -0.3957  2.3013
12524SOL     OW38126   1.077   1.372   4.126  0.4311 -0.5772 -0.0508
12524SOL    HW138127   1.023   1.446   4.153 -2.4204 -2.6482  0.4571
12524SOL    HW238128   1.132   1.353   4.202  0.4002  0.3423  0.2085
12525SOL     OW38129   0.185   7.139   0.770  0.5033  0.1565  0.3884
12525SOL    HW138130   0.185   7.048   0.800  0.1594  0.5581  1.7050
12525SOL    HW238131   0.116   7.142   0.704 -0.0201 -0.3942  0.8845
12526SOL     OW38132   7.222   1.145   4.388  0.4443  0.0355 -0.3399
12526SOL    HW138133   7.277   1.089   4.333  0.4751 -0.2975  0.0278
12526SOL    HW238134   7.165   1.191   4.326  0.6464 -0.1481 -0.6665
12527SOL     OW38135   6.257   3.827   1.827 -0.2748  0.4174  0.1627
12527SOL    HW138136   6.330   3.820   1.887  0.2938 -0.6657 -0.6185
12527SOL    HW238137   6.222   3.738   1.821 -1.1211  0.7553 -0.1388
12528SOL     OW38138   2.612   0.073   0.198  0.1179  0.1009  0.6515
12528SOL    HW138139   2.623   0.168   0.206 -0.1746  0.0437  1.8930
12528SOL    HW238140   2.518   0.060   0.206  0.1349 -0.2810  0.2466
12529SOL     OW38141   5.303   3.480   6.327 -0.0646  0.1108  0.0304
12529SOL    HW138142   5.216   3.521   6.328  0.0288  0.3670  2.0003
12529SOL    HW238143   5.357   3.538   6.380  1.4379  0.1374 -1.4555
12530SOL     OW38144   0.509   4.107   5.794  0.3705  0.4721  0.1851
12530SOL    HW138145   0.510   4.156   5.711  0.1503  2.2191  1.1725
12530SOL    HW238146   0.575   4.149   5.848  1.1919 -1.2678  0.6135
12531SOL     OW38147   1.579   0.736   3.873 -0.3693 -0.3184  0.2195
12531SOL    HW138148   1.504   0.790   3.848 -1.2281  0.1633  3.4377
12531SOL    HW238149   1.656   0.791   3.852 -1.0203  0.2876 -0.6486
12532SOL     OW38150   6.916   0.922   6.348 -0.4368 -0.2234 -0.3213
12532SOL    HW138151   6.929   0.874   6.429 -1.2723 -0.7762 -0.4935
12532SOL    HW238152   6.911   0.855   6.280  1.0247  0.2782 -0.9513
12533SOL     OW38153   5.128   6.234   1.906  0.2302  0.1084 -0.0885
12533SOL    HW138154   5.042   6.233   1.865  0.2143  0.4344 -0.0669
12533SOL    HW238155   5.115   6.194   1.992 -0.7535  3.5771  1.5523
12534SOL     OW38156   2.060   3.514   0.395 -0.7949 -0.4027  0.1616
12534SOL    HW138157   2.039   3.495   0.303 -1.5982  0.2139  0.2035
12534SOL    HW238158   1.974   3.524   0.437 -0.4250  0.5736  0.7040
12535SOL     OW38159   4.326   7.406   2.104 -0.3180  0.0954 -0.7830
12535SOL    HW138160   4.379   7.449   2.171 -0.8489 -0.2263 -0.1365
12535SOL    HW238161   4.268   7.475   2.071 -1.2885 -0.1254  0.3738
12536SOL     OW38162   5.701   3.000   3.220 -0.2181  0.1221  0.3082
12536SOL    HW138163   5.615   3.039   3.235 -0.5506 -0.8819  1.1758
12536SOL    HW238164   5.702   2.979   3.127 -1.6660 -1.5021  0.6171
12537SOL     OW38165   0.296   7.164   0.049  0.1311 -0.0637 -0.1352
12537SOL    HW138166   0.213   7.176   0.003  0.2890  0.1657 -0.3631
12537SOL    HW238167   0.279   7.198   0.137 -0.1086 -0.3063 -0.0892
12538SOL     OW38168   7.550   4.625   6.591  0.3014 -0.2393 -0.0015
12538SOL    HW138169   7.578   4.652   6.504  0.5449 -0.2345  0.0769
12538SOL    HW238170   7.549   4.706   6.642  1.4634 -0.4277  0.3500
12539SOL     OW38171   4.662   7.742   1.421  0.4253 -0.0282  0.3223
12539SOL    HW138172   4.631   7.745   1.331  0.0990  1.7564  0.4553
12539SOL    HW238173   4.585   7.717   1.472  0.0659  0.9909  0.2985
12540SOL     OW38174   7.511   1.961   2.912  0.3464  0.0588 -0.0146
12540SOL    HW138175   7.557   1.878   2.902 -1.7198 -1.1637 -0.0595
12540SOL    HW238176   7.546   2.017   2.843  0.6561 -1.3339 -1.0175
12541SOL     OW38177   5.818   5.568   6.153  0.7029  0.0408 -0.2543
12541SOL    HW138178   5.843   5.642   6.098 -0.2284 -0.8541 -1.9432
12541SOL    HW238179   5.877   5.497   6.128  1.5375  0.1428  1.3002
12542SOL     OW38180   6.963   7.523   1.670 -0.3050  0.1140 -0.1271
12542SOL    HW138181   6.932   7.436   1.696 -0.9219  0.2160 -0.5017
12542SOL    HW238182   7.054   7.525   1.699 -0.7025 -0.1130  1.1770
12543SOL     OW38183   5.319   5.371   1.880  0.6416  0.0803 -0.3581
12543SOL    HW138184   5.309   5.466   1.879 -1.7778 -0.0907 -2.1778
12543SOL    HW238185   5.320   5.346   1.787  0.3519 -1.7310  0.0853
12544SOL     OW38186   1.804   2.055   5.963  0.4944 -0.3480 -0.5238
12544SOL    HW138187   1.867   2.079   6.032 -0.1567 -0.2756  0.0584
12544SOL    HW238188   1.729   2.112   5.978  0.8085  0.5333 -2.0559
12545SOL     OW38189   6.848   3.185   3.667  0.5883 -0.3937 -0.2010
12545SOL    HW138190   6.759   3.159   3.688  0.2746 -0.0103 -1.0207
12545SOL    HW238191   6.883   3.220   3.749 -0.4458  0.6565 -0.1895
12546SOL     OW38192   4.391   5.581   2.804  0.2173 -0.5827 -0.4429
12546SOL    HW138193   4.457   5.591   2.873  0.1499 -0.0238 -0.4513
12546SOL    HW238194   4.308   5.573   2.850  0.1292  0.1475 -0.4536
12547SOL     OW38195   4.325   5.070   3.355  0.4705  0.1500 -0.1925
12547SOL    HW138196   4.335   5.152   3.307 -0.8289  0.5314  0.1445
12547SOL    HW238197   4.387   5.075   3.427  1.0693  0.4125 -0.7206
12548SOL     OW38198   6.799   6.451   4.619 -0.2305 -0.1835  0.7279
12548SOL    HW138199   6.761   6.451   4.706  1.4226 -1.1574  1.4943
12548SOL    HW238200   6.794   6.543   4.591 -1.9778 -0.0796  1.2619
12549SOL     OW38201   3.575   6.731   6.033  0.0371  0.5748  0.0962
12549SOL    HW138202   3.629   6.778   5.969  0.4341  0.9967  0.7349
12549SOL    HW238203   3.492   6.715   5.987  0.9359 -0.7596 -1.1748
12550SOL     OW38204   0.921   3.175   7.596 -0.5774  0.1358 -0.2639
12550SOL    HW138205   0.966   3.245   7.643 -0.9045 -0.9723  1.8197
12550SOL    HW238206   0.877   3.219   7.523  1.0217  1.7379 -0.3246
12551SOL     OW38207   2.332   5.881   4.369 -0.1904 -0.1648  0.3598
12551SOL    HW138208   2.249   5.910   4.406 -0.0733  0.7269 -0.0599
12551SOL    HW238209   2.311   5.859   4.278  0.0907  0.3515  0.1676
12552SOL     OW38210   7.454   6.104   0.305 -0.2325  0.0099 -0.2608
12552SOL    HW138211   7.527   6.043   0.294 -1.2674 -1.1489 -0.8728
12552SOL    HW238212   7.487   6.170   0.367  1.7702  0.2494 -1.4974
12553SOL     OW38213   6.141   4.236   1.354 -0.0506 -0.3988  0.1860
12553SOL    HW138214   6.085   4.302   1.313 -0.1675 -1.2848 -1.1699
12553SOL    HW238215   6.163   4.272   1.439 -0.2199  1.3286 -0.4643
12554SOL     OW38216   7.289   3.019   2.807  0.8633  0.4372  0.4768
12554SOL    HW138217   7.224   2.968   2.758  2.8312 -1.1848 -0.6264
12554SOL    HW238218   7.324   3.080   2.742  0.8926  0.8582  0.8882
12555SOL     OW38219   0.879   7.162   2.150 -0.1136  0.2934 -0.5009
12555SOL    HW138220   0.875   7.256   2.166  0.4104  0.5736 -1.9051
12555SOL    HW238221   0.963   7.134   2.186  0.2019  0.5594 -1.0298
12556SOL     OW38222   3.118   1.761   3.166  0.7398 -0.8753  0.2836
12556SOL    HW138223   3.194   1.707   3.144  1.3828 -0.2038  0.8171
12556SOL    HW238224   3.078   1.717   3.241  1.0475 -0.8202  0.4826
12557SOL     OW38225   0.871   7.174   6.447  0.0635  0.7621  0.2518
12557SOL    HW138226   0.817   7.222   6.384  0.3798  1.6777  0.6680
12557SOL    HW238227   0.820   7.096   6.467  0.0705  0.3154 -1.3398
12558SOL     OW38228   3.650   3.301   5.501  0.0242  0.1503  0.4375
12558SOL    HW138229   3.694   3.381   5.528  1.2075 -0.2405 -0.2565
12558SOL    HW238230   3.596   3.327   5.426 -0.7156  0.5624  1.0895
12559SOL     OW38231   5.306   4.633   1.583 -0.1076  0.3684 -0.3896
12559SOL    HW138232   5.301   4.610   1.676  0.2676 -0.7803 -0.6442
12559SOL    HW238233   5.283   4.726   1.581 -1.8481  0.0021  0.6585
12560SOL     OW38234   0.967   4.109   5.106 -0.4486  0.3876 -0.0028
12560SOL    HW138235   1.033   4.049   5.071 -2.3757 -1.3007 -0.9182
12560SOL    HW238236   0.935   4.156   5.030 -1.4153  0.0215  0.1656
12561SOL     OW38237   6.675   6.515   1.012 -0.4902  0.2545  0.0670
12561SOL    HW138238   6.700   6.606   1.027  1.0764 -0.2111  0.4788
12561SOL    HW238239   6.690   6.501   0.918 -1.7335  0.6737 -0.2242
12562SOL     OW38240   4.212   7.650   5.443 -0.2318 -0.2570  0.2902
12562SOL    HW138241   4.264   7.668   5.365 -0.1153 -2.0372 -0.0880
12562SOL    HW238242   4.270   7.672   5.516  0.2689 -0.1564 -0.1282
12563SOL     OW38243   0.577   2.290   0.528  0.1545  0.7854 -0.0150
12563SOL    HW138244   0.534   2.255   0.606  0.9112 -2.0308 -0.7401
12563SOL    HW238245   0.510   2.344   0.485 -1.3561 -0.3169  0.8799
12564SOL     OW38246   4.718   1.815   1.778  0.2274  0.3161 -0.0469
12564SOL    HW138247   4.771   1.829   1.699  0.5594  0.0670  0.1280
12564SOL    HW238248   4.782   1.803   1.848 -0.0600  1.8995  0.5250
12565SOL     OW38249   0.156   7.476   3.667  0.2610  0.5376 -0.1784
12565SOL    HW138250   0.238   7.523   3.651  0.2067  0.8636  0.4663
12565SOL    HW238251   0.088   7.539   3.643  0.1820 -0.1886 -2.0046
12566SOL     OW38252   3.004   2.273   1.683  0.3839 -0.2193 -0.4103
12566SOL    HW138253   2.936   2.327   1.644 -1.2652 -0.0050  2.4493
12566SOL    HW238254   2.993   2.186   1.644 -1.5108 -0.1601 -0.0693
12567SOL     OW38255   5.598   2.873   2.174 -0.8660 -0.3652 -0.1073
12567SOL    HW138256   5.581   2.901   2.084 -1.3245 -2.1277 -0.5962
12567SOL    HW238257   5.649   2.793   2.166  1.4189  0.8536  1.2796
12568SOL     OW38258   4.908   6.201   6.531  0.4190 -0.3363  0.1167
12568SOL    HW138259   5.001   6.222   6.543  0.4854 -1.0365  0.9533
12568SOL    HW238260   4.900   6.181   6.438  1.3828 -1.4834  0.2527
12569SOL     OW38261   0.237   1.672   0.471  0.5314  0.4494 -0.2913
12569SOL    HW138262   0.157   1.714   0.504  0.8124 -0.6325  1.9648
12569SOL    HW238263   0.278   1.739   0.416 -0.8608  1.8001  0.2287
12570SOL     OW38264   5.893   0.438   0.880 -0.2850  0.3508  0.0686
12570SOL    HW138265   5.891   0.455   0.786  1.7842 -0.3442 -0.1389
12570SOL    HW238266   5.963   0.494   0.913  0.1512 -0.6571  0.8993
12571SOL     OW38267   4.521   3.275   4.209 -0.3098  0.4050 -0.3606
12571SOL    HW138268   4.465   3.288   4.286  1.0148  0.5751  0.6096
12571SOL    HW238269   4.569   3.194   4.226 -0.0011  0.4407 -1.0025
12572SOL     OW38270   4.588   0.389   4.889 -0.0264  0.3321  0.4401
12572SOL    HW138271   4.615   0.365   4.800  0.1934  1.5070  0.1697
12572SOL    HW238272   4.504   0.345   4.902  0.3403 -0.5191 -0.0343
12573SOL     OW38273   1.026   1.470   7.223 -0.0569 -0.5486  0.3424
12573SOL    HW138274   1.045   1.400   7.160 -0.2154 -1.0747  0.8726
12573SOL    HW238275   0.966   1.527   7.176  0.1934 -0.6845 -0.1535
12574SOL     OW38276   6.989   6.218   1.848 -0.0728 -0.0482 -0.0074
12574SOL    HW138277   6.908   6.258   1.818 -0.7089  0.6306  2.3653
12574SOL    HW238278   6.961   6.149   1.908  1.0690  0.0499  0.6782
12575SOL     OW38279   5.440   3.387   7.068 -0.0842  0.0315 -0.6860
12575SOL    HW138280   5.353   3.405   7.033 -0.2895 -1.3612 -0.9523
12575SOL    HW238281   5.501   3.431   7.009 -0.6038  1.1886 -0.3785
12576SOL     OW38282   7.730   6.119   5.072 -0.1184  0.0717 -0.6672
12576SOL    HW138283   7.658   6.088   5.018 -0.6734 -0.8841  0.5528
12576SOL    HW238284   7.721   6.215   5.073 -0.5901  0.0394 -1.5570
12577SOL     OW38285   1.531   6.290   0.893  0.2916  0.2350  0.0893
12577SOL    HW138286   1.488   6.296   0.808 -1.9268 -0.3638  1.1165
12577SOL    HW238287   1.605   6.231   0.878 -0.2795 -0.1608 -1.3346
12578SOL     OW38288   0.766   4.322   0.372 -0.4119  0.2979 -0.1474
12578SOL    HW138289   0.678   4.355   0.355 -0.8118 -0.9308 -0.6173
12578SOL    HW238290   0.824   4.381   0.324 -0.8773  1.6846  0.9248
12579SOL     OW38291   5.145   4.621   5.595 -0.3608  0.0422  0.4688
12579SOL    HW138292   5.132   4.529   5.570 -0.4109  0.4258 -1.0502
12579SOL    HW238293   5.237   4.639   5.575 -0.1911  0.1729  1.3298
12580SOL     OW38294   7.628   4.128   5.066 -0.9327 -0.3732 -0.7553
12580SOL    HW138295   7.552   4.164   5.111  1.0996  1.4836  1.5141
12580SOL    HW238296   7.671   4.073   5.131  0.5737  0.0308 -1.3644
12581SOL     OW38297   3.924   7.260   0.865  0.0693  0.2768 -0.4313
12581SOL    HW138298   3.845   7.248   0.812 -0.3638  0.7721  0.0808
12581SOL    HW238299   3.990   7.289   0.803 -0.0536 -0.4741 -0.9266
12582SOL     OW38300   3.763   6.991   7.383 -0.0166  0.0787 -0.3667
12582SOL    HW138301   3.758   6.912   7.328 -0.3549 -0.1725  0.0158
12582SOL    HW238302   3.782   7.062   7.321 -0.4038 -0.1987 -0.8171
12583SOL     OW38303   1.476   7.435   5.974 -0.5408  0.0749  0.5556
12583SOL    HW138304   1.386   7.402   5.973 -0.3012 -0.6196  1.2385
12583SOL    HW238305   1.516   7.393   6.050  0.8450 -0.8608 -0.6567
12584SOL     OW38306   1.587   4.311   2.574 -0.4543  0.1215  0.2016
12584SOL    HW138307   1.656   4.350   2.520  0.6545 -0.4121  1.1847
12584SOL    HW238308   1.614   4.220   2.584 -1.3179 -0.0982  0.5967
12585SOL     OW38309   2.851   4.740   3.183 -0.3716  0.0114  0.1073
12585SOL    HW138310   2.762   4.742   3.219 -0.2916 -1.1372  0.4088
12585SOL    HW238311   2.888   4.658   3.215  0.6843  0.3101 -0.3047
12586SOL     OW38312   2.296   5.106   2.640 -0.0256 -0.5443 -0.0070
12586SOL    HW138313   2.253   5.188   2.615 -0.1718 -1.0533 -1.4904
12586SOL    HW238314   2.287   5.103   2.736  1.0792  1.7628  0.2362
12587SOL     OW38315   7.122   7.220   5.083  0.0414  0.3797  0.0428
12587SOL    HW138316   7.145   7.293   5.140  2.4744 -0.6682  0.5383
12587SOL    HW238317   7.079   7.157   5.141  0.6913  0.1564  0.2855
12588SOL     OW38318   4.822   4.714   4.933  0.0164 -0.7102 -0.4016
12588SOL    HW138319   4.862   4.765   5.003 -0.4470 -0.3367 -0.4064
12588SOL    HW238320   4.896   4.679   4.883  0.4221 -2.2895  1.1879
12589SOL     OW38321   1.452   3.839   3.845 -0.5664 -0.1703  0.0785
12589SOL    HW138322   1.395   3.768   3.872 -1.9974  1.1003  0.5271
12589SOL    HW238323   1.448   3.903   3.916 -0.8761  1.2239 -1.1181
12590SOL     OW38324   2.839   2.509   0.075  0.6709 -0.4713 -0.5094
12590SOL    HW138325   2.818   2.417   0.057 -1.0130 -0.3227  0.4110
12590SOL    HW238326   2.829   2.553  -0.009  1.9498 -1.1830 -1.0586
12591SOL     OW38327   5.529   0.221   7.267  0.1078  0.4818  0.2612
12591SOL    HW138328   5.570   0.289   7.319  1.1131  0.6606 -0.7111
12591SOL    HW238329   5.456   0.264   7.223 -0.5421  0.4053  1.2324
12592SOL     OW38330   6.411   0.357   1.567  0.0221 -0.0212 -0.3356
12592SOL    HW138331   6.334   0.340   1.513 -0.1297 -2.7996  0.5943
12592SOL    HW238332   6.469   0.283   1.550  2.2350  1.6386 -0.4651
12593SOL     OW38333   4.295   5.251   4.186 -0.0508 -0.0493  0.0005
12593SOL    HW138334   4.252   5.291   4.110 -0.5620 -1.8325 -0.6916
12593SOL    HW238335   4.230   5.192   4.222  0.4850  0.1573  1.3614
12594SOL     OW38336   5.297   2.560   7.345  0.7717  0.0750  0.1893
12594SOL    HW138337   5.231   2.516   7.399  0.8702 -1.0233 -0.5512
12594SOL    HW238338   5.339   2.621   7.405  0.1524 -0.3395  1.0815
12595SOL     OW38339   1.225   5.718   7.078 -0.1592 -0.1609  0.1821
12595SOL    HW138340   1.130   5.719   7.064 -0.1278 -0.7085 -0.1063
12595SOL    HW238341   1.261   5.752   6.996 -0.1721  2.5239  1.1951
12596SOL     OW38342   0.474   4.160   0.327  0.1891 -0.2394 -0.1054
12596SOL    HW138343   0.478   4.255   0.322 -2.6831 -0.0410 -0.4002
12596SOL    HW238344   0.483   4.130   0.237  0.9395 -0.2431 -0.0306
12597SOL     OW38345   2.929   7.040   2.217  0.8395  0.2048 -0.5652
12597SOL    HW138346   2.991   6.967   2.215  0.2881 -0.3845  1.4498
12597SOL    HW238347   2.931   7.070   2.308 -0.8115  1.0763 -0.7845
12598SOL     OW38348   7.086   5.077   0.421 -0.0051 -0.2658  0.2821
12598SOL    HW138349   7.074   5.146   0.355  0.7441 -0.3051  0.0967
12598SOL    HW238350   7.145   5.115   0.485  0.4810 -0.7587  0.1359
12599SOL     OW38351   5.154   7.553   7.284 -0.4196  0.0988 -0.2854
12599SOL    HW138352   5.210   7.513   7.218  0.0754  0.8532 -0.3377
12599SOL    HW238353   5.128   7.637   7.246 -0.4689  0.3536  0.3017
12600SOL     OW38354   1.849   3.847   2.603  0.0315  0.3253 -0.2471
12600SOL    HW138355   1.940   3.872   2.583 -0.1845  0.5490 -0.9761
12600SOL    HW238356   1.854   3.753   2.623  0.2444  0.0418 -1.5485
12601SOL     OW38357   2.993   2.977   2.643 -0.0678 -0.6103  0.2567
12601SOL    HW138358   2.937   2.914   2.689 -0.0890  1.3594  3.2474
12601SOL    HW238359   2.936   3.017   2.578 -0.5783 -2.3123 -0.3759
12602SOL     OW38360   2.818   6.619   2.634  0.5228 -0.0179 -0.0417
12602SOL    HW138361   2.838   6.656   2.720 -1.4903  1.7934 -0.2789
12602SOL    HW238362   2.841   6.526   2.643  1.2231  0.2927  2.1297
12603SOL     OW38363   1.584   6.426   0.275 -0.2656  0.5393 -0.2597
12603SOL    HW138364   1.613   6.341   0.242 -0.0391  0.9773 -1.2358
12603SOL    HW238365   1.665   6.476   0.288 -0.3006  0.1641  1.6360
12604SOL     OW38366   5.087   1.833   1.099 -0.1553  0.1605 -0.8055
12604SOL    HW138367   5.176   1.854   1.073  0.4934 -2.1230 -0.5845
12604SOL    HW238368   5.040   1.819   1.017  0.1339 -0.2869 -0.8979
12605SOL     OW38369   6.458   5.552   1.473 -0.1467  0.1993 -0.1909
12605SOL    HW138370   6.542   5.515   1.500  0.0833  1.4744  0.9966
12605SOL    HW238371   6.435   5.505   1.393  0.7474 -1.5156  0.5031
12606SOL     OW38372   5.824   7.631   0.414  0.2033 -0.2693 -0.1817
12606SOL    HW138373   5.750   7.572   0.402  0.7726 -1.3218  1.1876
12606SOL    HW238374   5.891   7.577   0.457  1.2969  0.9844 -0.2481
12607SOL     OW38375   6.815   0.695   5.599  0.0022 -0.0948  0.7493
12607SOL    HW138376   6.795   0.721   5.509  0.3808 -0.0713  0.6698
12607SOL    HW238377   6.855   0.773   5.639 -2.1109  0.6254  1.6041
12608SOL     OW38378   7.370   0.453   4.808  0.8154  0.5613  0.1878
12608SOL    HW138379   7.388   0.537   4.765 -0.5127  0.9731  0.3988
12608SOL    HW238380   7.386   0.470   4.901  0.6647  0.5453  0.2170
12609SOL     OW38381   2.623   4.114   5.283  0.0181  0.2918  0.1090
12609SOL    HW138382   2.703   4.086   5.328 -0.8937  0.5147  1.9337
12609SOL    HW238383   2.562   4.040   5.295 -0.7432  0.9842  0.5931
12610SOL     OW38384   1.988   1.909   6.928  0.6558  0.4738 -0.0156
12610SOL    HW138385   2.046   1.957   6.987  0.2112  1.5019 -0.3718
12610SOL    HW238386   1.992   1.959   6.846  0.9144 -0.6654 -0.7262
12611SOL     OW38387   5.926   6.042   3.142  0.1540 -0.1296 -0.0755
12611SOL    HW138388   5.906   5.975   3.207 -0.6949 -0.2232 -0.4146
12611SOL    HW238389   5.933   6.124   3.192 -0.3127 -0.2285  0.1540
12612SOL     OW38390   4.798   0.924   0.964  0.1932 -0.3274  0.8878
12612SOL    HW138391   4.727   0.877   0.920 -0.0445  1.3076 -0.6132
12612SOL    HW238392   4.780   0.914   1.057 -0.5305 -2.0989  0.5997
12613SOL     OW38393   4.827   5.531   3.184 -0.3435 -0.0563 -0.7355
12613SOL    HW138394   4.799   5.581   3.260  1.6963 -1.8844  1.3488
12613SOL    HW238395   4.748   5.488   3.152 -0.9553 -0.7446  1.5429
12614SOL     OW38396   2.024   4.593   0.243  0.0898 -0.0562 -0.0093
12614SOL    HW138397   2.007   4.657   0.313 -1.7662 -0.4607 -0.0408
12614SOL    HW238398   2.116   4.568   0.255  1.0178  2.8910 -0.2501
12615SOL     OW38399   5.346   1.405   2.427  0.2483  0.0084  0.3339
12615SOL    HW138400   5.380   1.370   2.344 -2.4331 -0.8732 -0.4769
12615SOL    HW238401   5.367   1.498   2.423  2.1085 -0.3826 -0.2798
12616SOL     OW38402   3.361   2.048   0.764 -0.1713  0.3665  0.3667
12616SOL    HW138403   3.370   2.140   0.789 -2.5242  0.8735 -0.3976
12616SOL    HW238404   3.393   2.044   0.674  0.7609  0.2134  0.6889
12617SOL     OW38405   2.326   6.730   4.335  0.5847 -0.3665  0.7843
12617SOL    HW138406   2.235   6.742   4.311  0.3735  0.5270  1.9389
12617SOL    HW238407   2.354   6.652   4.287 -0.0258  0.7776 -1.5811
12618SOL     OW38408   1.212   0.522   3.199 -0.3028 -0.2456 -0.2796
12618SOL    HW138409   1.157   0.475   3.262 -0.1836 -0.4457 -0.3211
12618SOL    HW238410   1.191   0.614   3.212  0.7439 -0.1587  1.0526
12619SOL     OW38411   1.331   5.612   1.971 -0.5427  0.0610  0.1947
12619SOL    HW138412   1.313   5.702   1.943  0.1903  0.8353  2.0828
12619SOL    HW238413   1.417   5.617   2.012 -0.4965 -1.5245  0.3323
12620SOL     OW38414   2.699   4.019   3.899 -0.0615 -0.1743 -0.2555
12620SOL    HW138415   2.660   3.950   3.846 -0.8533  0.2270 -0.1999
12620SOL    HW238416   2.772   4.052   3.845 -2.0927  1.6454 -2.0887
12621SOL     OW38417   5.510   2.373   4.974 -0.7947  0.1537  0.3942
12621SOL    HW138418   5.554   2.453   4.946 -1.1066  0.6190  1.2211
12621SOL    HW238419   5.573   2.304   4.954  0.8342  0.9056  2.5399
12622SOL     OW38420   3.200   2.518   2.164 -0.6541  1.1345 -0.0540
12622SOL    HW138421   3.184   2.430   2.132  0.3118 -0.4507  3.4083
12622SOL    HW238422   3.268   2.553   2.105 -0.3562 -0.7887 -0.9191
12623SOL     OW38423   4.192   6.414   3.852  0.1658 -0.2875  0.0537
12623SOL    HW138424   4.126   6.445   3.790  0.1823 -0.6813 -0.1659
12623SOL    HW238425   4.234   6.493   3.884  0.4196 -0.1009 -0.7233
12624SOL     OW38426   3.039   2.135   1.293 -0.0630 -0.1551  0.4842
12624SOL    HW138427   3.012   2.092   1.375 -0.3767  2.3075  1.7841
12624SOL    HW238428   2.981   2.211   1.286  0.7686  0.3658 -1.4069
12625SOL     OW38429   2.562   2.830   1.333  0.5225 -0.1472  0.0464
12625SOL    HW138430   2.615   2.831   1.254 -0.6917  1.1160 -0.8080
12625SOL    HW238431   2.502   2.756   1.322  0.1984  0.1691 -0.3381
12626SOL     OW38432   2.288   0.142   4.377 -0.2656 -0.5532 -0.2068
12626SOL    HW138433   2.338   0.222   4.390  0.1804 -0.8848  0.1638
12626SOL    HW238434   2.198   0.172   4.364  0.0670  0.0654 -1.2049
12627SOL     OW38435   3.102   5.179   5.559 -0.3280  0.6429  0.4622
12627SOL    HW138436   3.093   5.252   5.498 -0.6310  0.5822  0.4347
12627SOL    HW238437   3.192   5.149   5.547 -0.5109  0.3576 -0.2676
12628SOL     OW38438   3.981   3.225   7.202  0.2857  1.1516 -0.2365
12628SOL    HW138439   4.061   3.248   7.249  1.7014 -0.0553 -1.8912
12628SOL    HW238440   4.011   3.203   7.114 -1.8602  0.4069 -0.8511
12629SOL     OW38441   2.137   2.301   4.722  0.3109 -0.0004 -0.3397
12629SOL    HW138442   2.210   2.243   4.743  1.1735  0.7754 -1.1226
12629SOL    HW238443   2.166   2.387   4.751 -0.8586  0.1145  0.5867
12630SOL     OW38444   3.018   3.687   2.129  0.6610 -0.0733  0.0933
12630SOL    HW138445   2.966   3.763   2.153  0.8915  0.1157  0.0078
12630SOL    HW238446   2.994   3.619   2.192 -1.5641 -0.8172 -1.4510
12631SOL     OW38447   4.576   2.206   3.761  0.1877 -0.3054  0.1292
12631SOL    HW138448   4.669   2.227   3.748 -0.0676 -0.1459 -1.7269
12631SOL    HW238449   4.542   2.278   3.814  0.6728  0.7701 -0.9732
12632SOL     OW38450   7.546   0.308   6.606  0.2328 -0.4052  0.8492
12632SOL    HW138451   7.560   0.329   6.513 -1.0456  1.0101  0.9359
12632SOL    HW238452   7.490   0.379   6.638  2.2021  0.1994  3.2222
12633SOL     OW38453   4.733   7.504   5.012  0.3121  0.6238  0.1025
12633SOL    HW138454   4.700   7.500   5.101 -0.2171  1.4547 -0.0432
12633SOL    HW238455   4.801   7.437   5.008  0.1412  0.3860  1.0419
12634SOL     OW38456   1.108   1.341   3.608  0.0112  0.4628  0.2212
12634SOL    HW138457   1.196   1.378   3.611  0.1269  0.1962  0.1905
12634SOL    HW238458   1.050   1.415   3.623  0.2281  0.7052 -0.1291
12635SOL     OW38459   4.648   0.615   6.609  0.5790 -0.6678 -0.4876
12635SOL    HW138460   4.587   0.541   6.612  0.0344 -0.1813  0.7989
12635SOL    HW238461   4.722   0.582   6.558 -0.1206 -1.7442 -0.8461
12636SOL     OW38462   5.095   2.472   1.682  0.2987 -0.1197 -0.6206
12636SOL    HW138463   5.058   2.391   1.717  0.8163  0.0150  0.2612
12636SOL    HW238464   5.184   2.449   1.656  0.5162  0.1982 -0.1805
12637SOL     OW38465   1.307   0.810   6.143  0.5499 -0.2103 -0.3497
12637SOL    HW138466   1.333   0.868   6.214  0.3152  0.5828 -0.8920
12637SOL    HW238467   1.277   0.869   6.074 -0.6537 -1.0068 -0.5419
12638SOL     OW38468   0.144   6.823   2.237  0.4336  0.3454  0.1494
12638SOL    HW138469   0.233   6.789   2.245  0.5583  0.6729  0.1435
12638SOL    HW238470   0.124   6.859   2.323 -0.1976 -0.9407  0.5751
12639SOL     OW38471   7.123   5.102   2.451  0.2994 -0.7638 -0.5698
12639SOL    HW138472   7.137   5.145   2.366  0.6402  0.4769  0.0923
12639SOL    HW238473   7.028   5.106   2.464  0.2040 -1.2964 -1.0517
12640SOL     OW38474   5.719   7.170   5.498  0.0764  0.2586 -0.5601
12640SOL    HW138475   5.793   7.137   5.547 -0.6740  0.9145  1.0855
12640SOL    HW238476   5.756   7.198   5.414  1.4557 -0.5297 -0.2365
12641SOL     OW38477   6.468   0.751   4.843  0.0258 -0.0576  0.6035
12641SOL    HW138478   6.480   0.838   4.880 -0.6482  0.1014  0.4679
12641SOL    HW238479   6.458   0.767   4.749 -0.5567 -0.2289  0.6306
12642SOL     OW38480   2.685   1.633   4.042  0.1419  0.8151  0.2623
12642SOL    HW138481   2.636   1.556   4.070  0.7559  0.3384  0.0544
12642SOL    HW238482   2.686   1.627   3.947  3.8479 -1.3661  0.2140
12643SOL     OW38483   6.064   6.341   5.907  0.0845 -0.5109  0.0000
12643SOL    HW138484   6.030   6.345   5.997 -1.2355  0.6180 -0.5256
12643SOL    HW238485   6.066   6.247   5.887  2.7009 -1.0056  2.0116
12644SOL     OW38486   2.221   5.252   6.259  0.0385 -0.3709  0.0979
12644SOL    HW138487   2.170   5.255   6.340  0.1779 -1.2095  0.2313
12644SOL    HW238488   2.283   5.325   6.266  0.7310 -1.0290  1.2163
12645SOL     OW38489   5.426   0.512   3.711  0.0035  0.5955  0.2056
12645SOL    HW138490   5.440   0.595   3.665  1.4331  0.4097  0.2601
12645SOL    HW238491   5.332   0.496   3.704 -0.5905  3.0033  1.5427
12646SOL     OW38492   7.293   2.792   3.708 -0.3298  0.0498 -0.1680
12646SOL    HW138493   7.270   2.713   3.660 -1.5967  0.7164 -0.6969
12646SOL    HW238494   7.209   2.826   3.741  0.2043  1.0970  0.1646
12647SOL     OW38495   1.381   7.041   4.770  0.3137  0.1428 -0.1145
12647SOL    HW138496   1.378   7.134   4.790 -0.5609 -0.1894  1.4545
12647SOL    HW238497   1.429   7.002   4.843 -3.8536 -1.2445  2.1791
12648SOL     OW38498   6.944   0.469   4.615 -0.3298  0.0265 -0.2713
12648SOL    HW138499   6.895   0.534   4.665 -0.9276 -0.3003 -0.4236
12648SOL    HW238500   7.033   0.504   4.611 -0.5214  0.5717  0.1056
12649SOL     OW38501   0.325   7.499   5.081  0.1353 -0.4834 -0.3878
12649SOL    HW138502   0.394   7.434   5.093  0.7149 -0.4593 -2.9375
12649SOL    HW238503   0.363   7.581   5.113  0.2812 -0.9264  0.6235
12650SOL     OW38504   1.827   7.366   1.247 -0.0978 -0.5477  0.3404
12650SOL    HW138505   1.822   7.348   1.153  0.8121  0.0739  0.1661
12650SOL    HW238506   1.764   7.437   1.261  0.3416 -0.0993  0.0567
12651SOL     OW38507   3.984   0.125   0.346  0.3829 -0.3525 -0.3632
12651SOL    HW138508   3.954   0.045   0.304  2.3698 -1.2156 -0.2622
12651SOL    HW238509   4.011   0.097   0.434 -1.5770  0.9984  0.7517
12652SOL     OW38510   5.234   0.737   0.207 -0.4180  0.2294 -0.0908
12652SOL    HW138511   5.166   0.767   0.148 -0.3893 -3.2570 -2.2015
12652SOL    HW238512   5.314   0.779   0.176 -0.7856  0.1813 -1.1263
12653SOL     OW38513   0.615   3.316   1.375  0.2296 -0.0605  0.4699
12653SOL    HW138514   0.632   3.283   1.463  0.8816  1.8826  1.1107
12653SOL    HW238515   0.534   3.366   1.383  0.6567  0.7051  0.1410
12654SOL     OW38516   6.118   5.226   5.919  0.4851  0.1072  0.1470
12654SOL    HW138517   6.127   5.141   5.876  1.1263 -0.3058  1.0714
12654SOL    HW238518   6.200   5.271   5.901  0.2183  0.4714 -0.1877
12655SOL     OW38519   6.110   0.607   0.969 -0.0824 -0.3472  0.3041
12655SOL    HW138520   6.165   0.686   0.966 -1.6439  0.8062  0.3783
12655SOL    HW238521   6.095   0.591   1.062  0.6968 -1.0808  0.3061
12656SOL     OW38522   0.549   0.908   6.521  0.0120 -0.8056  0.1856
12656SOL    HW138523   0.481   0.956   6.569 -0.5123 -1.1318 -0.2143
12656SOL    HW238524   0.503   0.831   6.486  0.1562 -0.1082 -1.6135
12657SOL     OW38525   0.029   0.770   5.235 -0.1942  0.4007 -0.3059
12657SOL    HW138526   0.026   0.676   5.252  0.6629  0.5124  0.5509
12657SOL    HW238527  -0.027   0.783   5.159 -1.1835 -0.6588  0.2222
12658SOL     OW38528   1.590   1.737   4.430  0.0851 -0.2232 -0.1415
12658SOL    HW138529   1.652   1.688   4.484  1.7326 -0.3177 -2.0078
12658SOL    HW238530   1.602   1.828   4.456 -1.0482 -0.4702  1.4312
12659SOL     OW38531   6.017   5.808   3.865  0.1420 -0.4001  0.1055
12659SOL    HW138532   6.095   5.776   3.820  0.4907 -1.6563  1.5450
12659SOL    HW238533   6.002   5.746   3.936 -2.7886 -0.8235 -0.7346
12660SOL     OW38534   1.300   1.242   3.994 -0.3497 -0.3510 -0.1856
12660SOL    HW138535   1.284   1.165   4.049 -0.8357  0.0050  0.1871
12660SOL    HW238536   1.244   1.310   4.032 -1.9305 -0.5075 -2.0712
12661SOL     OW38537   1.131   6.357   0.410  0.1777 -0.7484  0.3022
12661SOL    HW138538   1.112   6.450   0.398 -1.1080 -1.2216 -1.8510
12661SOL    HW238539   1.134   6.321   0.321 -0.8174 -3.0116  1.1028
12662SOL     OW38540   0.619   2.385   6.687 -0.4864 -0.1866 -0.2378
12662SOL    HW138541   0.566   2.311   6.659 -0.9146 -0.1928  0.5692
12662SOL    HW238542   0.558   2.445   6.730  0.1014 -0.0703  0.4669
12663SOL     OW38543   6.843   3.454   0.332  0.4712 -0.0710  0.4117
12663SOL    HW138544   6.748   3.444   0.330  0.4991 -0.4666  0.9050
12663SOL    HW238545   6.875   3.385   0.273  0.4356  0.3347 -0.0866
12664SOL     OW38546   0.937   0.380   5.352  0.3475 -0.2032 -0.1506
12664SOL    HW138547   0.987   0.309   5.392 -0.8418 -1.1297 -0.2476
12664SOL    HW238548   0.866   0.397   5.413  1.0328  1.4539  0.2353
12665SOL     OW38549   2.373   4.853   3.058  0.0539  0.0244  0.2953
12665SOL    HW138550   2.374   4.757   3.057  0.9122  0.0323 -0.3925
12665SOL    HW238551   2.329   4.875   3.140 -0.9339 -0.9511  0.0561
12666SOL     OW38552   2.079   1.345   0.288  0.3166  0.1755  0.3685
12666SOL    HW138553   2.030   1.284   0.233 -0.3769  0.2752  0.8705
12666SOL    HW238554   2.124   1.290   0.352  0.3272  0.1322  0.3233
12667SOL     OW38555   1.023   0.492   5.116  0.0045 -0.0501  0.2450
12667SOL    HW138556   1.000   0.483   5.209  0.9368 -0.9778  0.4017
12667SOL    HW238557   0.940   0.516   5.074 -0.2345  1.3562  1.4309
12668SOL     OW38558   2.723   1.821   0.765  0.2034 -0.5723  0.4902
12668SOL    HW138559   2.805   1.797   0.723  0.7699  2.8242 -0.6654
12668SOL    HW238560   2.655   1.783   0.709  0.9996 -0.0203 -0.8920
12669SOL     OW38561   3.180   1.348   5.284  0.3903 -0.0499 -0.5272
12669SOL    HW138562   3.241   1.307   5.222  0.1989 -0.2477 -0.5891
12669SOL    HW238563   3.223   1.340   5.369  0.2513 -0.5873 -0.5068
12670SOL     OW38564   6.662   5.116   0.787  0.5725 -0.2145  0.1372
12670SOL    HW138565   6.739   5.156   0.747 -0.1066 -0.1784 -1.1767
12670SOL    HW238566   6.649   5.035   0.738  0.4441 -0.7950  1.1128
12671SOL     OW38567   0.106   2.429   7.035 -0.3416  0.7853 -0.0875
12671SOL    HW138568   0.055   2.505   7.064 -1.8371  0.1215 -0.8685
12671SOL    HW238569   0.097   2.429   6.940  1.6282  0.9534 -0.3172
12672SOL     OW38570   6.457   0.451   2.734 -0.2568 -0.0573  0.1024
12672SOL    HW138571   6.550   0.472   2.720  0.7775 -3.4232  0.9126
12672SOL    HW238572   6.424   0.521   2.790  1.7089  1.3826 -0.4535
12673SOL     OW38573   4.761   7.379   4.447 -0.0472 -0.4085  0.1114
12673SOL    HW138574   4.817   7.362   4.371 -0.1317 -1.7981  0.3397
12673SOL    HW238575   4.686   7.428   4.411  0.6278  0.2546 -0.4271
12674SOL     OW38576   6.555   1.530   4.272  0.3901  0.2126 -0.4795
12674SOL    HW138577   6.646   1.545   4.248  0.5806  2.1118  1.0850
12674SOL    HW238578   6.559   1.471   4.347  0.1571 -1.3428 -1.6488
12675SOL     OW38579   2.853   6.026   7.218  0.5946  0.1808 -0.0862
12675SOL    HW138580   2.892   6.071   7.293  0.1182  0.6862 -0.1300
12675SOL    HW238581   2.902   5.944   7.210  0.0056 -0.3471  1.3988
12676SOL     OW38582   0.350   4.368   5.905  0.0563 -0.2597  0.4067
12676SOL    HW138583   0.433   4.410   5.880 -1.3188  2.2902 -0.2763
12676SOL    HW238584   0.365   4.337   5.994  1.5828  0.6549  0.5160
12677SOL     OW38585   2.695   6.066   6.194  0.2798 -0.0943 -0.7888
12677SOL    HW138586   2.645   6.034   6.270  0.5466 -1.5330 -1.1782
12677SOL    HW238587   2.679   6.160   6.192 -0.8211 -0.2358  0.2576
12678SOL     OW38588   2.870   0.690   5.970  0.2243  0.2136 -0.4700
12678SOL    HW138589   2.911   0.615   5.927  1.8433 -0.1858  1.6200
12678SOL    HW238590   2.903   0.766   5.922  0.0364 -0.3073 -1.4475
12679SOL     OW38591   7.422   4.681   3.028  0.1887 -0.7201 -0.4006
12679SOL    HW138592   7.347   4.715   2.980  1.1823  0.2725 -1.3441
12679SOL    HW238593   7.422   4.587   3.011 -0.1458 -0.5457 -1.3905
12680SOL     OW38594   1.799   4.485   3.259  0.0042 -0.2880 -0.1587
12680SOL    HW138595   1.733   4.484   3.191  0.4497  0.5465 -0.6163
12680SOL    HW238596   1.752   4.507   3.339 -0.3143 -0.0172 -0.4229
12681SOL     OW38597   4.381   2.298   3.584 -0.0461 -0.2161 -0.4789
12681SOL    HW138598   4.449   2.262   3.640 -0.5829 -1.3289 -0.5128
12681SOL    HW238599   4.420   2.376   3.545  0.6852 -0.0108  0.6401
12682SOL     OW38600   6.595   3.652   0.509 -0.0146 -0.2481  0.3679
12682SOL    HW138601   6.690   3.659   0.517 -0.0985  2.7144 -0.2229
12682SOL    HW238602   6.582   3.593   0.435  1.3893 -0.2073  0.0605
12683SOL     OW38603   5.847   2.693   2.743  0.2628 -0.1369  0.2209
12683SOL    HW138604   5.916   2.652   2.691  0.3074 -0.1761  0.3097
12683SOL    HW238605   5.889   2.768   2.784 -0.3332  1.2483 -1.5850
12684SOL     OW38606   0.648   7.658   4.091  0.0452 -0.9141 -0.2777
12684SOL    HW138607   0.669   7.621   4.177 -0.3134  0.0986  0.2726
12684SOL    HW238608   0.622   7.583   4.037 -0.6587 -1.4639  0.7881
12685SOL     OW38609   2.330   0.768   2.854  0.7638 -0.1423 -0.1497
12685SOL    HW138610   2.406   0.793   2.907  1.7342  1.5872 -2.1924
12685SOL    HW238611   2.365   0.704   2.791 -0.0263 -1.0860  0.3581
12686SOL     OW38612   6.339   6.828   7.257 -0.5998  0.4686 -0.3222
12686SOL    HW138613   6.302   6.905   7.301  2.6046  1.3999  1.0451
12686SOL    HW238614   6.361   6.768   7.327  1.6561  0.5993 -0.8324
12687SOL     OW38615   5.456   1.558   1.123 -0.5938 -0.8003 -0.0105
12687SOL    HW138616   5.542   1.579   1.159 -1.1530 -0.0657  0.9443
12687SOL    HW238617   5.467   1.567   1.028 -0.0012  0.8635  0.1763
12688SOL     OW38618   3.536   3.211   7.750  0.3754 -0.2592 -0.3659
12688SOL    HW138619   3.588   3.156   7.692  1.7738  0.5247  0.1022
12688SOL    HW238620   3.517   3.156   7.826  1.7796 -0.1211  0.1085
12689SOL     OW38621   1.265   3.347   0.261  0.0100  0.1713 -0.3831
12689SOL    HW138622   1.227   3.434   0.249 -1.9638 -0.8694 -2.2397
12689SOL    HW238623   1.198   3.297   0.307  0.9649 -0.4974  0.3155
12690SOL     OW38624   3.962   1.444   5.548 -0.2299 -0.0078  0.1472
12690SOL    HW138625   3.944   1.503   5.621  1.5060  0.0493  0.5615
12690SOL    HW238626   3.974   1.502   5.472 -1.7554 -0.0521 -0.1581
12691SOL     OW38627   5.563   1.595   5.155  0.1889 -0.2006 -0.0476
12691SOL    HW138628   5.487   1.564   5.204  0.8433 -2.1076 -0.1608
12691SOL    HW238629   5.533   1.597   5.064  0.7707 -2.9238 -0.3816
12692SOL     OW38630   4.175   6.502   5.619  0.1939  0.1242 -0.0057
12692SOL    HW138631   4.165   6.423   5.567  1.8141 -0.8373  1.0827
12692SOL    HW238632   4.131   6.482   5.702 -1.2642  1.1803 -0.4855
12693SOL     OW38633   4.928   2.661   2.021 -0.2268 -0.0827  0.3082
12693SOL    HW138634   4.910   2.649   2.114 -1.1817  1.1311  0.3020
12693SOL    HW238635   4.843   2.652   1.978  0.3624 -1.7025 -0.5937
12694SOL     OW38636   6.995   3.832   7.567 -0.2841  0.6624 -0.1319
12694SOL    HW138637   6.929   3.790   7.511  0.9527 -2.8871  0.7691
12694SOL    HW238638   6.946   3.865   7.642 -1.2071 -1.7709  0.4538
12695SOL     OW38639   2.272   1.613   7.012  0.9635 -0.1608 -0.2476
12695SOL    HW138640   2.366   1.622   6.996  0.7910  1.1220 -0.6934
12695SOL    HW238641   2.261   1.637   7.104  0.8526  1.8844 -0.7358
12696SOL     OW38642   0.767   2.059   6.542  0.1969 -0.2605 -0.3596
12696SOL    HW138643   0.678   2.084   6.519  0.2612  0.7899  0.4829
12696SOL    HW238644   0.822   2.125   6.499  0.5942 -0.9150 -0.8976
12697SOL     OW38645   7.376   0.931   3.151  0.0121 -0.3685 -0.3073
12697SOL    HW138646   7.287   0.960   3.166 -0.1765 -1.4884  0.8383
12697SOL    HW238647   7.408   0.987   3.080 -1.1562  0.8995  0.1406
12698SOL     OW38648   3.732   5.524   6.051  0.4405 -0.2462 -0.0915
12698SOL    HW138649   3.648   5.478   6.048  1.0258 -1.3846  0.4154
12698SOL    HW238650   3.736   5.561   6.139 -0.5746  1.9191 -0.8701
12699SOL     OW38651   7.563   5.496   3.593  0.0907 -0.4113 -0.2252
12699SOL    HW138652   7.477   5.494   3.635 -0.2796  0.5579 -0.8898
12699SOL    HW238653   7.544   5.504   3.500  0.8853  0.3257 -0.3391
12700SOL     OW38654   0.960   0.745   1.792  1.2628 -0.5392 -0.4350
12700SOL    HW138655   0.984   0.804   1.720  0.3334 -0.8319 -0.9977
12700SOL    HW238656   0.937   0.663   1.750 -1.2504 -0.1304 -0.0339
12701SOL     OW38657   3.888   1.765   5.049  0.4825  0.4953  0.6706
12701SOL    HW138658   3.793   1.764   5.062  0.2082  0.1708 -1.0929
12701SOL    HW238659   3.923   1.724   5.128 -0.9868 -1.5210  0.3439
12702SOL     OW38660   0.637   4.341   4.434 -0.2563  0.8767 -0.1221
12702SOL    HW138661   0.604   4.259   4.471 -0.5522  0.0453 -2.1172
12702SOL    HW238662   0.558   4.393   4.417 -0.6084 -0.4862 -3.4348
12703SOL     OW38663   7.576   0.447   5.009  0.0359  0.1259 -0.3359
12703SOL    HW138664   7.601   0.423   4.919 -0.5507  0.8613 -0.7061
12703SOL    HW238665   7.647   0.413   5.063  0.0626 -0.9398 -1.0052
12704SOL     OW38666   7.164   2.220   7.653 -0.1171 -0.3527  0.3419
12704SOL    HW138667   7.221   2.144   7.661 -1.0164 -1.0362  0.3801
12704SOL    HW238668   7.143   2.245   7.743 -1.8636 -1.6485  0.3412
12705SOL     OW38669   1.911   7.482   6.654 -0.1331  0.2772  0.4416
12705SOL    HW138670   1.873   7.401   6.619 -0.1823 -0.6444  2.4904
12705SOL    HW238671   1.853   7.551   6.623 -0.7261 -0.5809 -0.4328
12706SOL     OW38672   2.582   3.573   0.450 -0.3017 -0.0355  0.1737
12706SOL    HW138673   2.588   3.661   0.413  0.3513  0.0970  0.5611
12706SOL    HW238674   2.497   3.571   0.493 -0.5092  0.2587 -0.2186
12707SOL     OW38675   1.696   6.739   3.847  0.0692  0.1610 -0.3185
12707SOL    HW138676   1.774   6.690   3.822 -1.2094 -2.1514 -0.0171
12707SOL    HW238677   1.691   6.810   3.782  1.7364 -0.3483 -1.0575
12708SOL     OW38678   7.454   1.768   7.067 -0.4944  0.0178 -0.5497
12708SOL    HW138679   7.474   1.678   7.044 -0.8627 -0.4165  0.7588
12708SOL    HW238680   7.513   1.788   7.140 -1.7154  0.1880  0.4198
12709SOL     OW38681   2.667   2.531   4.694  0.3113  0.1789 -0.6389
12709SOL    HW138682   2.703   2.450   4.656  1.4432  0.4030 -0.0702
12709SOL    HW238683   2.580   2.506   4.725  0.6506 -0.8295 -0.4586
12710SOL     OW38684   3.433   7.271   0.977 -0.3663  0.1488  0.0379
12710SOL    HW138685   3.454   7.199   0.918  0.0061  0.3688 -0.0978
12710SOL    HW238686   3.340   7.258   0.997  0.2926 -1.9950  2.2190
12711SOL     OW38687   1.065   7.618   5.749 -0.3301  0.3785 -0.4326
12711SOL    HW138688   1.068   7.625   5.654 -0.6706 -2.1686 -0.7014
12711SOL    HW238689   0.974   7.596   5.769  0.1101 -0.9788  0.2645
12712SOL     OW38690   1.655   3.460   3.883  0.1018 -0.3959 -0.4263
12712SOL    HW138691   1.645   3.531   3.946  0.3004  0.0093 -0.8489
12712SOL    HW238692   1.739   3.419   3.905 -0.9714 -1.8745  1.1823
12713SOL     OW38693   5.588   3.906   3.876 -0.0334  0.2473  0.4995
12713SOL    HW138694   5.607   3.998   3.897 -0.7082  0.5307 -0.0676
12713SOL    HW238695   5.551   3.870   3.956  0.1375  0.4965  0.6941
12714SOL     OW38696   3.297   4.729   6.524 -0.3144 -0.3029  0.6751
12714SOL    HW138697   3.227   4.787   6.553  0.3304  0.7573  0.1580
12714SOL    HW238698   3.279   4.646   6.568 -2.1038 -0.1737  0.2727
12715SOL     OW38699   5.007   1.208   4.960 -0.0050 -0.6162  0.3340
12715SOL    HW138700   4.990   1.119   4.929  2.6132 -1.1781  0.2606
12715SOL    HW238701   5.017   1.200   5.055 -0.7762 -0.1860  0.4650
12716SOL     OW38702   6.126   2.450   3.352  0.5566  0.6514  0.3186
12716SOL    HW138703   6.147   2.482   3.439  0.6750 -0.4424  0.7056
12716SOL    HW238704   6.091   2.527   3.306 -1.8149  0.7466  2.0871
12717SOL     OW38705   3.258   0.282   2.747 -0.0396 -0.3946 -0.6194
12717SOL    HW138706   3.239   0.205   2.693  0.0706  1.6590 -3.8021
12717SOL    HW238707   3.173   0.320   2.767 -0.0347 -0.6959  0.0093
12718SOL     OW38708   6.389   2.217   4.824 -0.1069 -0.1157  0.4917
12718SOL    HW138709   6.436   2.135   4.810 -0.1698 -0.0584 -0.0597
12718SOL    HW238710   6.309   2.191   4.871  0.3315 -0.2450  1.1855
12719SOL     OW38711   6.017   7.602   3.935 -0.3896 -0.5640  0.4056
12719SOL    HW138712   6.045   7.674   3.992 -0.5586  0.8506 -1.1970
12719SOL    HW238713   5.922   7.599   3.945 -0.1611 -2.9694  3.1046
12720SOL     OW38714   0.959   6.483   5.873 -0.1426 -0.1323  0.4769
12720SOL    HW138715   0.967   6.475   5.968 -0.5100  1.0037  0.6142
12720SOL    HW238716   0.943   6.576   5.858 -1.4130 -0.4962 -0.5959
12721SOL     OW38717   7.113   6.854   6.640 -0.5175  0.2043  0.0866
12721SOL    HW138718   7.056   6.795   6.590 -0.3826 -0.1556  0.3565
12721SOL    HW238719   7.054   6.894   6.705 -0.6845  0.6425 -0.3340
12722SOL     OW38720   4.895   7.581   4.790 -0.1169 -0.2310  0.5786
12722SOL    HW138721   4.840   7.612   4.718  0.6104 -2.3631 -0.9893
12722SOL    HW238722   4.837   7.580   4.866 -1.7189 -0.5441 -0.6026
12723SOL     OW38723   2.450   6.693   3.548  0.0232 -0.0038 -0.5557
12723SOL    HW138724   2.439   6.787   3.534  0.2884  0.3892  1.5151
12723SOL    HW238725   2.531   6.686   3.599  1.6500 -1.6358 -3.1603
12724SOL     OW38726   0.665   7.143   4.088  0.1142 -0.6015  0.4317
12724SOL    HW138727   0.668   7.083   4.163 -0.0151 -1.4565 -0.2407
12724SOL    HW238728   0.572   7.151   4.066  0.0330  0.6077  1.1008
12725SOL     OW38729   5.866   4.195   6.597  0.5999 -0.3941  0.8377
12725SOL    HW138730   5.822   4.125   6.645 -0.0982  0.2939  1.2329
12725SOL    HW238731   5.841   4.181   6.506  1.8485 -1.6467  0.6579
12726SOL     OW38732   5.573   2.716   0.956  0.6612  0.4474 -0.6120
12726SOL    HW138733   5.587   2.621   0.948  1.6041  0.2591  2.1753
12726SOL    HW238734   5.550   2.729   1.048  0.8761  2.9646 -0.8564
12727SOL     OW38735   1.692   4.902   7.193  0.0202 -0.0724 -0.2101
12727SOL    HW138736   1.742   4.957   7.132  0.8620 -0.8117 -0.1900
12727SOL    HW238737   1.717   4.933   7.280 -1.9552  1.6975 -0.1540
12728SOL     OW38738   6.186   7.422   2.223 -0.4270 -0.3293 -0.4820
12728SOL    HW138739   6.185   7.501   2.278  0.2722 -1.0147  0.5510
12728SOL    HW238740   6.223   7.354   2.279 -0.0938 -1.1690 -1.6726
12729SOL     OW38741   5.979   0.480   4.120  0.1222 -0.3672  0.1172
12729SOL    HW138742   5.996   0.395   4.160  0.3143 -0.5184 -0.2872
12729SOL    HW238743   6.011   0.543   4.185  1.0047 -0.6221 -0.0521
12730SOL     OW38744   5.827   5.261   4.009  0.2672 -0.3252 -0.3041
12730SOL    HW138745   5.772   5.237   3.934 -1.0556  0.7063  0.3037
12730SOL    HW238746   5.914   5.272   3.971 -0.4342  0.5045 -1.7954
12731SOL     OW38747   5.012   1.271   6.123 -0.2060 -0.3995  0.0701
12731SOL    HW138748   5.071   1.225   6.182  1.3425  2.0115  0.5379
12731SOL    HW238749   5.043   1.250   6.035  0.6647 -0.0285  0.2848
12732SOL     OW38750   3.736   6.002   6.531  0.3746 -0.4449 -0.3872
12732SOL    HW138751   3.646   5.972   6.534 -1.1220  3.4236 -0.9428
12732SOL    HW238752   3.774   5.973   6.614 -1.7982 -0.9783  0.4812
12733SOL     OW38753   5.825   1.179   5.916 -0.2768  0.1984  0.3815
12733SOL    HW138754   5.893   1.196   5.851 -0.6028  0.3826  0.0871
12733SOL    HW238755   5.806   1.265   5.953 -0.0105  0.0790  0.8066
12734SOL     OW38756   0.119   4.110   0.341  0.6628  0.1986 -0.3613
12734SOL    HW138757   0.178   4.174   0.300  0.0267  0.9618 -0.1098
12734SOL    HW238758   0.058   4.164   0.392 -0.7584 -0.5202 -1.2631
12735SOL     OW38759   5.338   3.821   5.662 -0.6202  0.1199  0.3461
12735SOL    HW138760   5.395   3.751   5.691  0.4693  1.0468  0.5122
12735SOL    HW238761   5.382   3.859   5.586 -1.5730  0.1395 -0.2115
12736SOL     OW38762   3.893   2.205   1.991 -0.5247 -0.2935 -0.3392
12736SOL    HW138763   3.865   2.171   1.906 -1.2630  1.1472 -0.7152
12736SOL    HW238764   3.837   2.282   2.005 -0.4766 -0.5637  1.5009
12737SOL     OW38765   1.449   5.299   4.693 -0.0106 -0.6779 -0.0698
12737SOL    HW138766   1.485   5.324   4.607  0.5745  0.1170  0.3965
12737SOL    HW238767   1.518   5.245   4.732  0.8581  1.0465  0.9258
12738SOL     OW38768   3.643   4.296   5.066 -0.0579  0.7827  0.0183
12738SOL    HW138769   3.630   4.345   4.985 -0.9669  2.4061  1.0856
12738SOL    HW238770   3.738   4.282   5.070 -0.1014 -0.4036 -1.8876
12739SOL     OW38771   1.233   2.701   4.611 -0.1967 -0.0978  0.1101
12739SOL    HW138772   1.262   2.672   4.525  0.7494  0.9113  0.0706
12739SOL    HW238773   1.304   2.675   4.670 -0.1060  0.6320  0.3269
12740SOL     OW38774   0.358   2.861   6.924  0.1453  0.0706  0.0571
12740SOL    HW138775   0.411   2.935   6.894  0.7827  0.0842  1.1447
12740SOL    HW238776   0.332   2.816   6.843  0.5505  0.9279 -0.5715
12741SOL     OW38777   1.700   5.417   5.828  0.3356 -0.6664 -0.8460
12741SOL    HW138778   1.780   5.458   5.798 -0.2005 -0.1071 -1.5554
12741SOL    HW238779   1.644   5.413   5.750 -0.6381 -0.2718 -0.1989
12742SOL     OW38780   6.497   5.895   4.289 -0.5215  0.2616 -0.3546
12742SOL    HW138781   6.444   5.870   4.213 -1.7593 -0.4618  0.6929
12742SOL    HW238782   6.476   5.987   4.304 -0.3252  0.3876 -0.8480
12743SOL     OW38783   0.164   1.482   0.891 -0.4043  0.0990 -0.4007
12743SOL    HW138784   0.165   1.541   0.966 -0.8154 -0.4541  0.0458
12743SOL    HW238785   0.074   1.486   0.858  0.1845  1.6958 -1.9672
12744SOL     OW38786   1.441   7.413   4.094  0.3401  0.1614 -0.0073
12744SOL    HW138787   1.374   7.427   4.027  0.4446  0.6548 -0.0136
12744SOL    HW238788   1.425   7.482   4.159  1.1998  0.6551 -0.3010
12745SOL     OW38789   4.535   6.110   3.305  0.0566  0.1366  0.3524
12745SOL    HW138790   4.462   6.171   3.319 -0.1865 -0.6387  2.7654
12745SOL    HW238791   4.575   6.099   3.391  0.0682 -3.1375  0.0412
12746SOL     OW38792   7.240   0.136   7.148  0.0099 -0.5917 -0.6382
12746SOL    HW138793   7.284   0.192   7.213 -1.2006  0.6139 -0.8121
12746SOL    HW238794   7.156   0.179   7.133  0.0882 -1.0636 -2.7036
12747SOL     OW38795   3.195   2.762   4.871 -0.0237  0.0245 -0.0071
12747SOL    HW138796   3.223   2.836   4.925  0.2804 -0.9125  1.1545
12747SOL    HW238797   3.271   2.744   4.815 -0.3539  1.0246 -0.8178
12748SOL     OW38798   2.050   2.019   6.679  0.1069 -0.0486  0.4741
12748SOL    HW138799   1.974   2.056   6.634  0.5973  1.6240  0.9461
12748SOL    HW238800   2.126   2.055   6.633  0.6685 -2.0028 -0.2428
12749SOL     OW38801   4.720   5.749   6.611 -0.0645 -0.1598  0.6967
12749SOL    HW138802   4.805   5.738   6.567  0.3969 -0.6421  1.6603
12749SOL    HW238803   4.723   5.838   6.646 -0.5590  0.3364 -0.4687
12750SOL     OW38804   1.768   0.465   2.745  0.4436 -0.2033 -0.0953
12750SOL    HW138805   1.731   0.383   2.714  1.5909 -1.9408  2.6966
12750SOL    HW238806   1.860   0.445   2.762  0.7240  1.6118  0.8175
12751SOL     OW38807   2.596   0.790   5.115  0.3348 -0.0456  0.5821
12751SOL    HW138808   2.517   0.755   5.157  0.3567  0.0288  0.6849
12751SOL    HW238809   2.590   0.885   5.130  0.6955 -0.0889  1.0162
12752SOL     OW38810   1.013   0.121   0.259  0.2061 -0.2809  0.0800
12752SOL    HW138811   1.011   0.170   0.177 -1.2603  0.3935  0.4750
12752SOL    HW238812   0.985   0.033   0.236  2.8903 -1.0169 -0.6447
12753SOL     OW38813   4.338   3.555   2.151  0.4373  0.1774 -0.3691
12753SOL    HW138814   4.277   3.618   2.188  0.1365 -0.1781 -0.2551
12753SOL    HW238815   4.419   3.605   2.137  1.2129 -0.0891  2.5594
12754SOL     OW38816   1.378   0.015   5.329  0.9438 -0.3579  0.2174
12754SOL    HW138817   1.284   0.013   5.308  0.9461  0.9713 -0.0046
12754SOL    HW238818   1.386  -0.039   5.407 -0.2873  0.8117  1.2106
12755SOL     OW38819   1.920   3.911   0.158  0.5663  0.9665  0.8473
12755SOL    HW138820   1.933   3.861   0.078  1.4924 -1.2972  2.3224
12755SOL    HW238821   1.871   3.853   0.216  0.9161  2.0813  2.3424
12756SOL     OW38822   7.680   6.593   7.316 -0.4622  0.1150  0.3737
12756SOL    HW138823   7.745   6.655   7.285 -1.9396  1.0227 -1.0842
12756SOL    HW238824   7.728   6.535   7.376  1.4673  1.2064 -0.0425
12757SOL     OW38825   5.022   5.622   1.232 -0.1318 -0.0331  0.1552
12757SOL    HW138826   5.046   5.532   1.256  0.7508  0.6321  1.9501
12757SOL    HW238827   4.992   5.616   1.142  0.7921 -1.9794 -0.0646
12758SOL     OW38828   0.112   6.718   7.596 -0.0344  0.1983  0.3313
12758SOL    HW138829   0.208   6.715   7.591 -0.0622  0.0137 -0.1124
12758SOL    HW238830   0.087   6.789   7.536 -0.1818  0.1506  0.3370
12759SOL     OW38831   7.444   7.753   7.417 -0.0373 -0.3413 -0.0495
12759SOL    HW138832   7.503   7.691   7.460  2.0412  2.0894  0.8852
12759SOL    HW238833   7.421   7.712   7.334  2.2302 -1.8152 -0.0212
12760SOL     OW38834   0.021   1.599   4.346 -0.7814 -0.0773  0.3906
12760SOL    HW138835   0.003   1.683   4.303 -1.1761  0.1907  1.0631
12760SOL    HW238836   0.105   1.571   4.310 -1.2197  0.0035 -0.7490
12761SOL     OW38837   1.297   3.609   3.968  0.0594 -0.0098  0.3698
12761SOL    HW138838   1.312   3.587   4.061  0.0648  2.4432  1.0125
12761SOL    HW238839   1.246   3.536   3.934  0.4224 -1.1807  2.1933
12762SOL     OW38840   3.926   3.072   2.707 -0.0893 -0.4401 -0.3475
12762SOL    HW138841   3.850   3.126   2.684 -1.0389 -1.2299  0.8403
12762SOL    HW238842   3.982   3.131   2.757 -0.5761 -0.2381 -0.0357
12763SOL     OW38843   7.181   5.945   7.676  0.3259  0.3228  0.4196
12763SOL    HW138844   7.266   5.990   7.674  0.1909  0.7079  2.2180
12763SOL    HW238845   7.118   6.012   7.650  0.2344  0.9436  2.1652
12764SOL     OW38846   6.586   4.041   6.811 -0.6082  0.2003 -0.1281
12764SOL    HW138847   6.521   4.009   6.748  0.8669  0.8134 -2.0819
12764SOL    HW238848   6.658   3.978   6.806  0.8648  1.8703 -1.4854
12765SOL     OW38849   0.956   5.669   7.005  0.1655 -0.8208 -0.5082
12765SOL    HW138850   0.967   5.686   6.911 -3.4674 -0.9871 -1.1076
12765SOL    HW238851   0.956   5.573   7.012  0.8024 -0.8058 -0.2682
12766SOL     OW38852   1.683   3.559   3.229  0.0899 -0.1693 -0.0109
12766SOL    HW138853   1.596   3.576   3.194  0.0115  1.6783  0.9414
12766SOL    HW238854   1.667   3.532   3.319  0.4958  0.9038  0.4005
12767SOL     OW38855   1.276   1.287   6.296  0.0729 -0.1077 -0.8367
12767SOL    HW138856   1.260   1.375   6.328  0.5442  0.5014 -2.1838
12767SOL    HW238857   1.192   1.259   6.260 -1.2905 -1.8935  3.1534
12768SOL     OW38858   6.371   6.800   2.270  0.5679 -0.3257  1.1403
12768SOL    HW138859   6.426   6.723   2.255 -1.1035 -1.5189  0.8991
12768SOL    HW238860   6.298   6.768   2.323 -0.9571  0.7157 -0.2114
12769SOL     OW38861   0.377   6.947   4.155 -0.3441 -0.6724 -0.4216
12769SOL    HW138862   0.327   6.995   4.220  2.6817  0.4828  1.2685
12769SOL    HW238863   0.369   6.998   4.075 -0.2488  0.5905  0.3598
12770SOL     OW38864   1.319   3.000   4.501  0.1920  0.0637 -0.0114
12770SOL    HW138865   1.308   2.917   4.546  0.6055 -0.2128 -0.4140
12770SOL    HW238866   1.231   3.038   4.499  0.2489  0.3484  1.5193
12771SOL     OW38867   6.145   0.427   7.464  0.4469  0.2445 -0.3195
12771SOL    HW138868   6.198   0.506   7.455  0.4683  0.1230 -1.4663
12771SOL    HW238869   6.203   0.355   7.437 -0.4426  0.1764 -2.2345
12772SOL     OW38870   2.598   2.230   1.042 -0.0443 -0.0758 -0.9746
12772SOL    HW138871   2.564   2.251   1.129  2.1991 -0.4105  0.0381
12772SOL    HW238872   2.619   2.315   1.003 -0.4500  0.0414 -0.9393
12773SOL     OW38873   4.297   4.220   7.628 -0.4100 -0.3665 -0.1236
12773SOL    HW138874   4.309   4.141   7.681 -0.6749  0.9048  1.9387
12773SOL    HW238875   4.203   4.239   7.634  0.1332  2.2039  2.7679
12774SOL     OW38876   1.520   5.204   5.971 -0.0666  0.0473 -0.4677
12774SOL    HW138877   1.590   5.232   5.912  0.4325 -0.7872 -0.2801
12774SOL    HW238878   1.493   5.119   5.938  1.0628 -1.0116  1.1875
12775SOL     OW38879   1.867   5.156   1.709 -0.0047 -0.0750 -0.3382
12775SOL    HW138880   1.962   5.150   1.710  0.1262  0.2946 -2.8941
12775SOL    HW238881   1.840   5.096   1.640 -1.9106 -2.2576  2.0907
12776SOL     OW38882   3.475   3.775   5.572 -0.3519 -0.1402  0.1395
12776SOL    HW138883   3.387   3.777   5.610 -0.3701  1.6607  0.0894
12776SOL    HW238884   3.511   3.861   5.591  1.2723 -0.7029 -0.2009
12777SOL     OW38885   3.078   1.622   4.019  0.2792 -0.0301  0.5000
12777SOL    HW138886   3.068   1.690   4.085 -0.6086  0.3675 -0.0283
12777SOL    HW238887   3.029   1.654   3.943 -0.2116 -1.2921  0.2579
12778SOL     OW38888   3.140   6.807   5.746 -0.0154 -0.0127  0.3910
12778SOL    HW138889   3.087   6.882   5.775 -0.7596 -0.0444 -0.8362
12778SOL    HW238890   3.082   6.732   5.754 -0.3067 -0.0022 -1.2629
12779SOL     OW38891   5.049   1.418   2.567  0.0418  0.2930  0.1394
12779SOL    HW138892   5.072   1.381   2.482  2.5251  1.6003  0.1599
12779SOL    HW238893   5.100   1.500   2.572 -3.0062  2.2968  1.2668
12780SOL     OW38894   4.449   4.983   1.701 -0.4683  0.4583  0.5633
12780SOL    HW138895   4.437   5.062   1.650  0.8874  0.8596  0.8336
12780SOL    HW238896   4.377   4.984   1.764 -0.8783  1.0895  0.0915
12781SOL     OW38897   1.476   6.045   4.366 -0.3364  0.1801 -0.2788
12781SOL    HW138898   1.485   6.010   4.277 -1.1835  0.3497 -0.4427
12781SOL    HW238899   1.534   6.121   4.368  0.7313 -0.6096 -0.2453
12782SOL     OW38900   6.764   3.681   6.512 -0.6493 -0.0542 -0.4903
12782SOL    HW138901   6.700   3.610   6.500 -1.2832  0.3291  0.5822
12782SOL    HW238902   6.749   3.738   6.436  1.1942 -2.0032 -2.4855
12783SOL     OW38903   7.404   7.490   5.194 -0.1419 -0.2088  0.5393
12783SOL    HW138904   7.348   7.484   5.271  0.6442 -1.1956  1.0581
12783SOL    HW238905   7.470   7.422   5.207 -0.0160 -0.4331 -1.0250
12784SOL     OW38906   1.269   6.663   2.545  0.1682  0.5593  0.6413
12784SOL    HW138907   1.184   6.620   2.554  0.7037 -0.2232  2.5092
12784SOL    HW238908   1.331   6.590   2.532  0.4925  1.1701 -1.5715
12785SOL     OW38909   1.798   4.747   1.701  0.1465  0.2649 -0.0227
12785SOL    HW138910   1.883   4.785   1.722 -0.1178  0.0863  1.4447
12785SOL    HW238911   1.753   4.816   1.651  1.0748  0.4148 -0.6738
12786SOL     OW38912   0.795   3.007   6.437 -0.2859  0.3956  0.1355
12786SOL    HW138913   0.862   2.942   6.460  0.6223  0.8021 -1.2859
12786SOL    HW238914   0.838   3.091   6.450 -1.2876  0.7483  1.4387
12787SOL     OW38915   2.879   0.921   4.071 -0.4140  0.1150 -0.4509
12787SOL    HW138916   2.827   0.923   3.990 -0.8998  3.2404 -0.1774
12787SOL    HW238917   2.968   0.903   4.041 -0.3129  2.6786 -1.9745
12788SOL     OW38918   1.375   4.248   5.028  0.2239 -0.3844 -0.7967
12788SOL    HW138919   1.428   4.178   4.991 -0.3204  0.0295 -2.4241
12788SOL    HW238920   1.428   4.327   5.017  0.6501 -0.4390  0.6318
12789SOL     OW38921   2.425   3.471   2.145 -1.0820  0.3238 -0.1019
12789SOL    HW138922   2.448   3.560   2.117 -0.8242  0.5259  0.7138
12789SOL    HW238923   2.432   3.418   2.066  1.2008  0.5644 -0.1262
12790SOL     OW38924   6.791   7.655   0.100 -0.3339  0.1743  0.1305
12790SOL    HW138925   6.812   7.737   0.056  0.6469  0.1942  0.6226
12790SOL    HW238926   6.790   7.590   0.030  3.8390 -0.3021  0.2720
12791SOL     OW38927   5.065   3.171   7.415 -0.6804  0.0289  0.5986
12791SOL    HW138928   5.112   3.088   7.406 -0.4449  0.1255  0.9093
12791SOL    HW238929   5.091   3.204   7.501 -0.5779  0.5500  0.3711
12792SOL     OW38930   0.703   2.341   2.807  0.2849  0.3206 -0.0989
12792SOL    HW138931   0.786   2.343   2.856  0.7352  1.4659 -0.8397
12792SOL    HW238932   0.730   2.323   2.717 -0.0575  2.2475 -0.6445
12793SOL     OW38933   3.527   7.528   1.580 -0.6478 -0.0372 -0.0309
12793SOL    HW138934   3.580   7.547   1.658  0.1724 -0.4005 -0.4834
12793SOL    HW238935   3.451   7.480   1.613 -0.8461  0.7336  0.6659
12794SOL     OW38936   6.179   7.494   4.412 -0.4113  0.3182  0.0478
12794SOL    HW138937   6.099   7.478   4.463 -0.2874  1.9876  0.8115
12794SOL    HW238938   6.184   7.419   4.353 -2.1674 -0.1848  0.4648
12795SOL     OW38939   4.180   0.676   1.662 -0.3615 -0.3621 -0.1076
12795SOL    HW138940   4.101   0.656   1.612  0.1765 -1.7771 -0.4309
12795SOL    HW238941   4.202   0.766   1.638 -2.2575  0.3141  0.5337
12796SOL     OW38942   3.535   7.073   1.351 -0.2744  0.3750 -0.0972
12796SOL    HW138943   3.577   6.992   1.380 -1.7785 -1.2965 -2.2465
12796SOL    HW238944   3.596   7.110   1.287 -0.2359  0.1624 -0.1826
12797SOL     OW38945   0.486   2.442   4.274  0.1701  0.0386 -0.3841
12797SOL    HW138946   0.396   2.441   4.306  0.5108  3.2004  1.1472
12797SOL    HW238947   0.480   2.476   4.185 -0.1525  0.4921 -0.1918
12798SOL     OW38948   3.520   0.206   3.984 -0.1700 -0.3235  0.3826
12798SOL    HW138949   3.462   0.131   3.973 -0.7280 -0.0698  1.4261
12798SOL    HW238950   3.608   0.170   3.974 -0.4292 -1.1303  0.8689
12799SOL     OW38951   2.739   1.979   6.294 -0.1260 -0.5808  0.0309
12799SOL    HW138952   2.760   2.067   6.263  0.5104 -1.4902 -2.3548
12799SOL    HW238953   2.644   1.973   6.287 -0.0940 -0.3579 -0.6781
12800SOL     OW38954   5.729   3.465   7.262 -0.2638  0.3794 -0.5530
12800SOL    HW138955   5.654   3.421   7.304  0.6079 -0.1284  0.5338
12800SOL    HW238956   5.759   3.529   7.327 -1.5784  2.7683 -2.1563
12801SOL     OW38957   5.010   5.284   2.866 -0.1372  0.3435 -0.5282
12801SOL    HW138958   4.956   5.215   2.828 -0.3792  0.9340 -1.2912
12801SOL    HW238959   5.090   5.283   2.813  0.7282 -0.6742  0.7330
12802SOL     OW38960   2.038   3.184   4.772  0.3199  0.2012 -0.2511
12802SOL    HW138961   2.097   3.134   4.829 -0.5716  0.3484  0.8337
12802SOL    HW238962   1.990   3.241   4.831 -0.4072  0.5967 -1.1973
12803SOL     OW38963   5.636   4.031   2.308  0.4401  0.6143  0.0058
12803SOL    HW138964   5.561   4.036   2.249  1.5051  1.5524 -1.3341
12803SOL    HW238965   5.676   4.118   2.303  1.3318  0.2868  1.0777
12804SOL     OW38966   5.751   5.844   2.325  0.4398  0.6376 -0.0808
12804SOL    HW138967   5.671   5.862   2.275 -0.5950  2.7717  2.1324
12804SOL    HW238968   5.772   5.927   2.367 -0.5968 -1.5221  5.5209
12805SOL     OW38969   1.153   1.832   6.508 -0.1504  0.0252  0.4309
12805SOL    HW138970   1.060   1.812   6.497 -0.2225  1.2079 -1.8299
12805SOL    HW238971   1.154   1.922   6.540  0.2121 -0.0321  0.5824
12806SOL     OW38972   6.166   5.271   3.575 -0.3981  0.2697 -0.9552
12806SOL    HW138973   6.095   5.331   3.596  0.2933  0.3981  1.3904
12806SOL    HW238974   6.123   5.189   3.552 -1.3563  0.3134  0.5188
12807SOL     OW38975   5.297   1.553   4.575  0.1674  0.7022 -0.2642
12807SOL    HW138976   5.384   1.581   4.600  0.3099  1.4768 -1.5397
12807SOL    HW238977   5.284   1.589   4.487 -1.0267 -0.2840 -0.5233
12808SOL     OW38978   2.450   4.444   7.553  0.2527 -0.5325 -0.2709
12808SOL    HW138979   2.374   4.420   7.500  0.6588  0.0536 -1.1435
12808SOL    HW238980   2.445   4.540   7.560  0.9598 -0.4785 -0.4238
12809SOL     OW38981   4.123   5.124   4.642 -0.0057  0.0188 -0.3481
12809SOL    HW138982   4.031   5.096   4.642  0.4948 -1.8021 -1.1055
12809SOL    HW238983   4.165   5.067   4.578  2.0907 -0.7080  1.5386
12810SOL     OW38984   7.625   5.919   1.712  0.0510 -0.3802 -0.2420
12810SOL    HW138985   7.611   5.910   1.806  0.5128 -0.5870 -0.1881
12810SOL    HW238986   7.547   5.880   1.672 -1.1184  1.5321  0.0563
12811SOL     OW38987   5.394   4.256   2.317  0.4812 -0.3115  0.3070
12811SOL    HW138988   5.312   4.225   2.355  0.1703 -0.2070 -0.2675
12811SOL    HW238989   5.404   4.205   2.237  2.4374 -2.3864  1.7463
12812SOL     OW38990   0.293   7.240   3.131  0.3956 -0.0693  0.6269
12812SOL    HW138991   0.332   7.166   3.086 -1.4423 -1.3495  1.0199
12812SOL    HW238992   0.311   7.315   3.074  2.7161 -0.6795  0.4722
12813SOL     OW38993   3.623   7.488   0.912 -0.1344 -0.7963 -0.7821
12813SOL    HW138994   3.553   7.428   0.939  1.4081 -1.9936  0.8028
12813SOL    HW238995   3.681   7.492   0.988  0.3799  1.9386 -1.2321
12814SOL     OW38996   0.691   1.956   0.936  0.2434 -0.8110  0.6598
12814SOL    HW138997   0.664   1.917   0.852  1.4126 -0.3398  0.0392
12814SOL    HW238998   0.622   1.932   0.997 -1.1908 -0.2620 -0.6872
12815SOL     OW38999   0.129   3.633   2.121 -0.0935 -0.1824 -0.1894
12815SOL    HW139000   0.144   3.556   2.177 -1.6284 -1.4213 -1.3924
12815SOL    HW239001   0.066   3.686   2.169  0.7281  0.2158  0.4960
12816SOL     OW39002   3.025   6.618   3.120  0.0249  0.4145  0.3061
12816SOL    HW139003   2.994   6.656   3.202 -1.1230  1.0571 -0.4028
12816SOL    HW239004   3.078   6.687   3.080  1.7126 -0.3570  1.0811
12817SOL     OW39005   3.049   5.715   4.555 -0.1567 -0.2826  0.3626
12817SOL    HW139006   2.993   5.706   4.478  0.1650  1.3842 -0.1071
12817SOL    HW239007   3.110   5.641   4.549  0.1673  0.0781 -1.2594
12818SOL     OW39008   1.565   1.089   0.540  0.1619  1.0563  0.8444
12818SOL    HW139009   1.661   1.094   0.538  0.1998  0.2823  0.6395
12818SOL    HW239010   1.539   1.079   0.449 -0.0085 -0.4532  1.0341
12819SOL     OW39011   4.509   2.854   7.637 -0.1921 -0.2207  0.3657
12819SOL    HW139012   4.563   2.846   7.558 -1.1786 -0.2930 -0.3169
12819SOL    HW239013   4.534   2.779   7.691  0.2527 -0.3557 -0.0190
12820SOL     OW39014   0.431   0.584   2.966 -0.4981 -0.2819 -0.1187
12820SOL    HW139015   0.459   0.651   3.029 -2.7177  0.5679  0.0566
12820SOL    HW239016   0.505   0.574   2.907  0.6464  0.8574  1.0663
12821SOL     OW39017   5.380   4.702   0.669  0.2013 -0.1819 -0.3578
12821SOL    HW139018   5.436   4.696   0.591  1.5735 -4.7866  0.7322
12821SOL    HW239019   5.439   4.729   0.739  0.2568 -1.3475  0.0661
12822SOL     OW39020   6.078   4.138   4.835  0.2053 -0.6406  0.5013
12822SOL    HW139021   5.987   4.126   4.864 -0.0122 -0.3398 -0.0346
12822SOL    HW239022   6.109   4.214   4.885  0.4340 -1.2453  1.2890
12823SOL     OW39023   0.538   0.902   5.816 -0.5199 -0.1876 -0.5466
12823SOL    HW139024   0.442   0.893   5.819 -0.6307  0.9153 -0.3766
12823SOL    HW239025   0.565   0.842   5.746 -1.5637  1.0878 -2.1167
12824SOL     OW39026   1.387   2.950   6.945  0.3930 -0.3771  0.9078
12824SOL    HW139027   1.409   2.961   6.852  0.8356 -1.7273  0.8299
12824SOL    HW239028   1.298   2.985   6.953 -0.4743 -2.0889 -0.4835
12825SOL     OW39029   2.061   0.884   2.192  0.1624 -0.7019  0.1953
12825SOL    HW139030   2.036   0.887   2.100  1.2229  0.5025 -0.0941
12825SOL    HW239031   2.005   0.948   2.235 -0.4913 -1.4274  0.4529
12826SOL     OW39032   3.987   4.557   5.346 -0.2581 -0.1803 -0.3901
12826SOL    HW139033   3.900   4.589   5.320 -0.7334 -0.2121  1.0747
12826SOL    HW239034   4.009   4.608   5.424  1.0163 -0.2408 -0.6860
12827SOL     OW39035   6.965   0.410   0.756 -0.0576 -0.7360  0.2021
12827SOL    HW139036   6.942   0.359   0.679  0.2998 -1.0334  0.2878
12827SOL    HW239037   6.965   0.501   0.725 -0.6492 -0.7868  0.0396
12828SOL     OW39038   0.477   4.134   6.464  0.1767 -0.1447  0.0173
12828SOL    HW139039   0.397   4.111   6.417  0.9205 -1.4835 -0.6252
12828SOL    HW239040   0.496   4.224   6.436  0.4359 -0.7873 -2.0565
12829SOL     OW39041   0.098   0.703   5.546 -0.2271  0.1059 -0.1554
12829SOL    HW139042   0.188   0.732   5.529 -0.3001  0.1806 -0.4124
12829SOL    HW239043   0.093   0.697   5.642 -0.2023  0.9254 -0.0962
12830SOL     OW39044   1.353   3.492   2.200  0.1152  0.1257  0.4161
12830SOL    HW139045   1.351   3.585   2.180 -3.2450  0.0627 -0.1249
12830SOL    HW239046   1.342   3.448   2.116  1.6040 -0.7783  0.6659
12831SOL     OW39047   5.577   0.855   2.834 -0.2597 -0.1177 -0.3353
12831SOL    HW139048   5.561   0.942   2.798  0.5532 -0.4917 -1.6696
12831SOL    HW239049   5.519   0.797   2.785 -1.0363 -0.3071  0.7725
12832SOL     OW39050   5.099   0.459   7.250 -1.0883  1.3823  0.1012
12832SOL    HW139051   5.109   0.470   7.345 -0.2733 -1.4241  0.4330
12832SOL    HW239052   5.005   0.464   7.236 -1.4368 -0.2681  1.4513
12833SOL     OW39053   7.646   0.606   1.680 -0.3073 -0.5289 -0.4729
12833SOL    HW139054   7.598   0.556   1.747 -0.5960 -0.8810 -0.9396
12833SOL    HW239055   7.671   0.687   1.725 -2.5700  0.3167 -0.6046
12834SOL     OW39056   2.870   7.247   4.956  0.3960  0.4328  0.0172
12834SOL    HW139057   2.826   7.232   5.039  1.2112 -2.0711  0.0535
12834SOL    HW239058   2.799   7.247   4.891 -0.2873  2.7481  0.6384
12835SOL     OW39059   1.721   0.789   4.797  0.0808 -0.1224 -0.1792
12835SOL    HW139060   1.631   0.759   4.786  0.0392  0.0788 -0.3992
12835SOL    HW239061   1.770   0.710   4.820 -0.4247  0.0255  1.4941
12836SOL     OW39062   5.686   1.222   2.397 -0.0955 -0.6401 -0.4258
12836SOL    HW139063   5.712   1.230   2.489  2.7571 -0.4763 -1.1612
12836SOL    HW239064   5.605   1.172   2.400  0.1679 -1.0673  2.1517
12837SOL     OW39065   2.507   4.872   2.792 -0.2810  0.1346 -0.8381
12837SOL    HW139066   2.504   4.860   2.698  0.2350 -1.2421 -0.6972
12837SOL    HW239067   2.507   4.784   2.828  1.2149  0.5788  0.3870
12838SOL     OW39068   0.688   0.277   2.573  0.2660 -0.6527 -0.2087
12838SOL    HW139069   0.746   0.210   2.538 -0.8715 -2.0413  0.4299
12838SOL    HW239070   0.697   0.270   2.668 -0.7119 -0.7168 -0.1022
12839SOL     OW39071   0.118   2.752   7.191 -0.0119  0.1732  0.0501
12839SOL    HW139072   0.207   2.726   7.166  0.6683  2.1359  0.3232
12839SOL    HW239073   0.125   2.778   7.282 -0.0028  3.7652 -0.8395
12840SOL     OW39074   3.312   2.696   7.615  0.3159 -0.3156 -1.0090
12840SOL    HW139075   3.232   2.691   7.667 -0.2762  0.9083 -1.7504
12840SOL    HW239076   3.380   2.662   7.672 -0.2710  1.0982  0.6399
12841SOL     OW39077   3.063   1.702   0.862 -0.0446 -0.1274 -0.5025
12841SOL    HW139078   3.011   1.697   0.781 -1.0115 -3.0857  0.1755
12841SOL    HW239079   3.140   1.648   0.843  1.1401  1.4580 -0.3425
12842SOL     OW39080   4.251   1.468   3.860  0.3863 -0.0734 -0.3783
12842SOL    HW139081   4.176   1.513   3.821 -0.3704 -0.4241  0.6177
12842SOL    HW239082   4.323   1.531   3.853 -0.4227  0.9568  0.1763
12843SOL     OW39083   3.038   4.559   6.575 -0.4795  0.4609 -0.8360
12843SOL    HW139084   3.043   4.565   6.670  0.8280  0.4049 -0.8823
12843SOL    HW239085   2.945   4.548   6.556 -0.6085 -1.3260  0.5535
12844SOL     OW39086   0.387   0.431   7.489  0.0445 -0.9404  0.0285
12844SOL    HW139087   0.472   0.441   7.447  0.6413 -1.8792  0.9902
12844SOL    HW239088   0.324   0.442   7.417  0.9630 -0.2571 -0.6913
12845SOL     OW39089   4.647   1.085   4.930  0.0688  0.2615  0.1778
12845SOL    HW139090   4.638   1.091   5.025  2.2578 -0.8029  0.5262
12845SOL    HW239091   4.560   1.064   4.898 -0.2099 -2.0927  2.2474
12846SOL     OW39092   3.150   3.147   2.816 -0.2344 -0.4564 -0.7582
12846SOL    HW139093   3.227   3.138   2.760  0.6468 -0.4355  0.4273
12846SOL    HW239094   3.097   3.070   2.795 -0.4454  0.0936 -2.3824
12847SOL     OW39095   2.910   2.877   5.793  0.2607 -0.2139  0.1550
12847SOL    HW139096   2.827   2.885   5.839 -0.9583  1.2475 -2.0804
12847SOL    HW239097   2.949   2.964   5.797  0.2651 -0.1266 -1.2120
12848SOL     OW39098   0.166   3.287   0.677 -0.0442 -0.3235  0.0374
12848SOL    HW139099   0.194   3.224   0.743 -0.0467 -2.5315 -1.9488
12848SOL    HW239100   0.244   3.303   0.623 -0.6370 -0.5075 -0.8995
12849SOL     OW39101   5.686   1.019   3.948 -0.2832 -0.2480  0.6269
12849SOL    HW139102   5.682   0.972   3.864 -0.4180  1.8919 -0.6615
12849SOL    HW239103   5.779   1.020   3.971  0.3507  2.2071 -1.4866
12850SOL     OW39104   3.045   7.293   3.910  0.0124 -0.6883  0.0033
12850SOL    HW139105   2.972   7.303   3.849  1.6975  1.0362 -1.9158
12850SOL    HW239106   3.011   7.238   3.981 -2.7083 -0.9905 -1.4183
12851SOL     OW39107   2.674   1.171   1.474  0.0250  0.3910 -0.1448
12851SOL    HW139108   2.653   1.135   1.388  0.9967  0.9601 -0.6356
12851SOL    HW239109   2.760   1.211   1.463  0.8740 -0.8870  1.4976
12852SOL     OW39110   0.275   5.285   5.020  0.4500  0.6477 -0.3610
12852SOL    HW139111   0.263   5.345   4.947  1.8688  0.5650 -0.6989
12852SOL    HW239112   0.370   5.272   5.024  0.3337  0.1318  1.0798
12853SOL     OW39113   6.319   0.494   4.678  0.1368  0.4918 -0.0380
12853SOL    HW139114   6.328   0.504   4.583  0.3931 -0.6518 -0.1456
12853SOL    HW239115   6.405   0.462   4.707 -0.2706 -0.1755  0.4335
12854SOL     OW39116   5.309   2.709   2.616 -0.1800 -0.3844 -0.0111
12854SOL    HW139117   5.386   2.717   2.673  0.1406  0.9141 -0.5893
12854SOL    HW239118   5.330   2.637   2.557  0.3760 -0.3835  0.1815
12855SOL     OW39119   4.252   5.292   5.031 -0.8007 -0.5311  0.1084
12855SOL    HW139120   4.251   5.388   5.038  1.2233 -0.5294  0.9239
12855SOL    HW239121   4.161   5.267   5.045 -1.3149  1.2376  0.2833
12856SOL     OW39122   6.955   7.158   4.596 -0.2118  0.2727 -0.3849
12856SOL    HW139123   6.978   7.082   4.649 -3.1736  0.4242  1.3486
12856SOL    HW239124   7.035   7.211   4.594  0.7081 -0.8840  1.9643
12857SOL     OW39125   4.874   3.781   2.003  0.3780 -0.1929 -0.4550
12857SOL    HW139126   4.819   3.749   1.931 -0.2614 -1.1726  0.4263
12857SOL    HW239127   4.915   3.702   2.039 -0.4894  0.0512  1.1795
12858SOL     OW39128   5.091   1.136   6.737  0.3569 -0.1112  0.3091
12858SOL    HW139129   5.022   1.191   6.774  0.6742  0.2531  0.3689
12858SOL    HW239130   5.158   1.198   6.708  0.9931 -0.4972  0.9243
12859SOL     OW39131   6.424   4.990   5.023 -0.1639 -0.0411 -0.0927
12859SOL    HW139132   6.496   4.927   5.028 -0.4615 -0.4322 -0.6085
12859SOL    HW239133   6.396   5.002   5.114  0.2424 -0.2451  0.0624
12860SOL     OW39134   5.646   0.017   6.583 -0.3984 -0.6090 -0.6323
12860SOL    HW139135   5.732   0.026   6.624 -0.4274 -0.6172 -0.5706
12860SOL    HW239136   5.659  -0.048   6.514 -0.7928 -1.9959  0.5770
12861SOL     OW39137   5.956   5.542   4.772 -0.3562 -0.0971 -0.0482
12861SOL    HW139138   5.919   5.474   4.828  0.3622 -1.0974 -0.7531
12861SOL    HW239139   6.049   5.522   4.769 -0.4075 -0.2268 -1.7818
12862SOL     OW39140   2.751   7.001   1.276  0.2763 -0.4949  0.2017
12862SOL    HW139141   2.806   6.932   1.239  1.9837  0.6255  0.4846
12862SOL    HW239142   2.788   7.082   1.241 -1.9618  0.2943 -0.5079
12863SOL     OW39143   4.334   2.302   0.056 -0.3619  0.0929 -0.3074
12863SOL    HW139144   4.359   2.223   0.009 -1.7994  0.8442 -2.4532
12863SOL    HW239145   4.286   2.271   0.132  2.5549 -1.1747  1.1938
12864SOL     OW39146   1.096   1.305   2.672  0.0528  0.2198 -0.4162
12864SOL    HW139147   1.065   1.345   2.591  2.1077  3.0028  0.0086
12864SOL    HW239148   1.187   1.280   2.654 -0.1879 -1.3512  0.3600
12865SOL     OW39149   7.200   0.656   6.425  0.3379  0.5461 -0.1366
12865SOL    HW139150   7.195   0.642   6.330 -0.3094  0.4391 -0.0916
12865SOL    HW239151   7.226   0.570   6.460  0.1357  0.4664 -0.1801
12866SOL     OW39152   0.742   5.764   5.181 -0.2626 -0.2891  0.2410
12866SOL    HW139153   0.692   5.816   5.118  0.2387 -0.8009 -0.5985
12866SOL    HW239154   0.694   5.774   5.264 -0.4694  1.0537 -0.0221
12867SOL     OW39155   2.131   1.341   1.819  0.3332 -0.1983 -0.4795
12867SOL    HW139156   2.201   1.392   1.861 -0.5225 -0.3507  1.2480
12867SOL    HW239157   2.168   1.254   1.807 -0.2772 -1.0659  2.8770
12868SOL     OW39158   0.322   0.898   7.141  0.3442 -0.1856  0.7950
12868SOL    HW139159   0.242   0.847   7.153 -1.7191  2.6741  0.3281
12868SOL    HW239160   0.328   0.952   7.219  1.5172  0.0762  0.5404
12869SOL     OW39161   0.555   1.265   3.316 -0.0076 -0.0706 -0.4503
12869SOL    HW139162   0.580   1.190   3.370 -0.0661  1.2177  1.4684
12869SOL    HW239163   0.612   1.259   3.238  1.2854 -1.0827  0.5251
12870SOL     OW39164   1.810   1.645   5.179 -0.2515  0.0115  0.1393
12870SOL    HW139165   1.901   1.615   5.187  0.4534  1.1097 -2.5613
12870SOL    HW239166   1.757   1.567   5.194  1.2283 -1.1043 -0.2657
12871SOL     OW39167   6.332   0.736   4.127 -0.3151  0.2958  0.5456
12871SOL    HW139168   6.344   0.679   4.203  0.9264 -0.7479 -0.3853
12871SOL    HW239169   6.314   0.822   4.165 -1.0822 -0.4572  2.0005
12872SOL     OW39170   6.877   0.517   3.209  0.1700  0.0149  0.3432
12872SOL    HW139171   6.853   0.425   3.222 -1.2417 -0.0021 -1.8399
12872SOL    HW239172   6.946   0.515   3.143 -0.6223  0.5369 -0.5256
12873SOL     OW39173   2.343   1.992   4.591 -0.3059 -0.2334 -0.1386
12873SOL    HW139174   2.399   1.930   4.543 -0.7682 -1.0159  0.3080
12873SOL    HW239175   2.281   1.936   4.639 -1.4683  0.6173 -0.6118
12874SOL     OW39176   3.071   2.596   3.112 -0.1601 -0.5330  0.0837
12874SOL    HW139177   2.975   2.591   3.109 -0.2904  1.5364 -1.0269
12874SOL    HW239178   3.097   2.519   3.162 -2.2298 -2.7225 -1.9208
12875SOL     OW39179   0.466   6.487   5.904  0.7521  0.0702  0.1309
12875SOL    HW139180   0.454   6.450   5.991 -0.2496 -1.1820 -0.5083
12875SOL    HW239181   0.379   6.485   5.864  0.7418  2.6947 -0.1369
12876SOL     OW39182   5.736   7.514   3.070  0.7314  0.4205  0.2204
12876SOL    HW139183   5.667   7.511   3.137  0.9334  0.2866  0.4256
12876SOL    HW239184   5.718   7.594   3.021  0.8864  0.7970  0.7644
12877SOL     OW39185   6.811   5.286   5.803 -0.0815  0.0562  0.5458
12877SOL    HW139186   6.824   5.242   5.887 -1.6961 -2.0596 -0.2307
12877SOL    HW239187   6.897   5.284   5.761  0.3389 -0.4323  1.4187
12878SOL     OW39188   0.651   0.783   2.113 -0.2540 -0.3949  0.0692
12878SOL    HW139189   0.676   0.872   2.091 -1.6337 -0.1305 -0.4905
12878SOL    HW239190   0.731   0.745   2.151 -0.2321  1.7505  2.4537
12879SOL     OW39191   6.014   5.444   2.784  0.0213 -0.0955  0.4800
12879SOL    HW139192   5.939   5.409   2.833  1.1243 -0.2437  2.1590
12879SOL    HW239193   6.089   5.430   2.842  1.1916  1.0326 -0.6895
12880SOL     OW39194   1.476   0.610   6.110  0.4324  0.4556 -0.9727
12880SOL    HW139195   1.427   0.535   6.078 -1.5481  0.9900  0.5995
12880SOL    HW239196   1.410   0.677   6.128  1.9875  2.0818 -0.9826
12881SOL     OW39197   4.421   7.403   5.542  0.0930 -0.7138  0.3547
12881SOL    HW139198   4.367   7.482   5.547 -0.7587 -1.3287  1.5527
12881SOL    HW239199   4.373   7.345   5.483  0.4684 -0.5228 -0.1412
12882SOL     OW39200   7.689   7.286   0.994 -0.1769 -0.2865  0.5830
12882SOL    HW139201   7.660   7.283   0.902 -1.9201 -0.3869  1.1043
12882SOL    HW239202   7.729   7.372   1.003  0.6390 -0.5278 -0.4305
12883SOL     OW39203   7.594   4.968   3.335  0.1867  0.0894 -0.6769
12883SOL    HW139204   7.535   4.919   3.277  2.0595 -1.8131 -1.0766
12883SOL    HW239205   7.621   5.044   3.282 -0.9778  0.3881 -0.8891
12884SOL     OW39206   0.270   2.155   7.560 -0.1577  0.0045  0.5739
12884SOL    HW139207   0.331   2.183   7.492 -1.0717  0.3514 -0.1406
12884SOL    HW239208   0.287   2.215   7.633  1.2912 -0.7989  0.9303
12885SOL     OW39209   6.255   2.134   1.827  0.5618  0.5896 -0.0817
12885SOL    HW139210   6.280   2.195   1.757  0.2766 -2.0576 -2.6719
12885SOL    HW239211   6.337   2.088   1.848  0.0650 -0.7518 -0.9598
12886SOL     OW39212   0.778   6.769   1.058 -0.3264 -0.2653  0.3277
12886SOL    HW139213   0.861   6.813   1.040 -0.8612  0.8187  0.3821
12886SOL    HW239214   0.712   6.824   1.016 -1.1514 -0.2648  1.5486
12887SOL     OW39215   1.500   0.362   4.154  0.2141 -0.3473 -0.2406
12887SOL    HW139216   1.438   0.431   4.178 -1.0357 -1.4173 -0.3000
12887SOL    HW239217   1.544   0.396   4.076 -0.0442  0.5762  0.0051
12888SOL     OW39218   5.735   2.143   7.541  0.2987 -0.1195 -0.3096
12888SOL    HW139219   5.650   2.100   7.547 -0.1738  0.7029 -0.9230
12888SOL    HW239220   5.741   2.170   7.449  1.6244 -0.9823 -0.5004
12889SOL     OW39221   4.627   4.295   1.570  0.6055 -0.0240 -0.0052
12889SOL    HW139222   4.652   4.387   1.583  0.2790  0.1580 -0.6145
12889SOL    HW239223   4.633   4.282   1.476 -0.5041 -0.2929 -0.0505
12890SOL     OW39224   2.659   6.221   0.226 -0.0449  0.1370  0.0496
12890SOL    HW139225   2.614   6.208   0.309 -0.5929 -3.7961 -0.6864
12890SOL    HW239226   2.743   6.176   0.237  0.7530  1.3025 -0.9313
12891SOL     OW39227   1.890   3.045   4.036  0.3004 -0.5871 -0.1521
12891SOL    HW139228   1.953   3.103   3.992 -0.3307 -0.1534 -0.5006
12891SOL    HW239229   1.943   2.995   4.097  0.9188  0.1083 -0.0997
12892SOL     OW39230   2.448   1.834   3.981  0.0404  0.5875 -0.2555
12892SOL    HW139231   2.535   1.852   3.945 -1.1422  2.6697 -2.3375
12892SOL    HW239232   2.462   1.829   4.076  2.6711 -0.9926 -0.6284
12893SOL     OW39233   5.457   5.916   1.094  0.3461 -0.0227  0.1644
12893SOL    HW139234   5.400   5.849   1.057  0.9440 -0.9714  0.9015
12893SOL    HW239235   5.400   5.991   1.110 -0.9498 -1.2799  1.8172
12894SOL     OW39236   2.580   3.489   4.505  0.2694  0.2370  0.1678
12894SOL    HW139237   2.548   3.541   4.579 -3.7901 -1.4741 -0.1169
12894SOL    HW239238   2.553   3.539   4.427  0.0918 -0.3225 -0.1316
12895SOL     OW39239   4.312   6.830   1.638  0.1539  0.2261 -0.3251
12895SOL    HW139240   4.402   6.806   1.617  0.2993 -0.0485  0.5540
12895SOL    HW239241   4.258   6.780   1.577  0.5081 -1.4328  0.6833
12896SOL     OW39242   3.354   7.099   6.279 -0.5383 -0.5050 -0.5751
12896SOL    HW139243   3.369   7.111   6.373 -0.9472  0.8256 -0.6647
12896SOL    HW239244   3.268   7.056   6.274 -1.2797  0.9075 -0.3754
12897SOL     OW39245   0.575   4.635   7.458 -0.0756 -0.1374  0.2686
12897SOL    HW139246   0.495   4.681   7.431  0.4344  0.3394 -0.4679
12897SOL    HW239247   0.557   4.543   7.439  0.0618  0.1179 -1.2818
12898SOL     OW39248   6.991   4.023   7.348  0.4160 -0.0064 -0.1173
12898SOL    HW139249   7.028   3.936   7.363  0.4466 -0.1748 -1.0639
12898SOL    HW239250   6.946   4.045   7.429 -0.5701 -1.3972 -0.2470
12899SOL     OW39251   6.621   7.413   5.654  0.2200 -1.0424  0.5255
12899SOL    HW139252   6.579   7.498   5.667  0.4828 -0.5564 -1.4310
12899SOL    HW239253   6.700   7.417   5.708 -1.1500 -1.1859  2.6584
12900SOL     OW39254   7.192   0.226   6.741 -0.3618 -0.7223  0.1099
12900SOL    HW139255   7.213   0.176   6.663 -0.4238 -0.0540 -0.3439
12900SOL    HW239256   7.277   0.245   6.781 -0.0652  1.3787 -1.3481
12901SOL     OW39257   1.921   4.478   3.024 -0.3650  0.3461 -0.2652
12901SOL    HW139258   1.918   4.470   3.119  1.8441  2.0169  0.0283
12901SOL    HW239259   1.994   4.422   2.997 -0.2354  0.7696 -0.8356
12902SOL     OW39260   3.002   4.467   6.145  0.5891  0.2982 -0.0361
12902SOL    HW139261   3.071   4.510   6.195 -0.5271  1.2436  0.7385
12902SOL    HW239262   2.955   4.414   6.209 -0.6462  1.2636 -0.1032
12903SOL     OW39263   5.181   1.492   1.517  0.0129  0.8829 -0.0681
12903SOL    HW139264   5.105   1.434   1.521 -0.2718  1.1833 -0.9968
12903SOL    HW239265   5.205   1.496   1.424  0.3355  1.8560  0.0385
12904SOL     OW39266   5.408   1.985   5.069 -0.6701 -0.1414 -0.3444
12904SOL    HW139267   5.325   1.938   5.066 -2.2860  2.3966  1.1282
12904SOL    HW239268   5.427   2.006   4.977 -2.3041  0.2535 -0.6183
12905SOL     OW39269   7.338   6.441   0.810 -0.1026 -0.5509  0.3466
12905SOL    HW139270   7.265   6.487   0.851 -0.5068 -1.3304  0.5322
12905SOL    HW239271   7.402   6.509   0.791 -0.3619 -0.0184  1.3073
12906SOL     OW39272   3.302   0.193   2.155 -0.3709 -1.1386  0.4292
12906SOL    HW139273   3.349   0.200   2.238  2.9897 -1.0516 -1.2858
12906SOL    HW239274   3.301   0.099   2.136  1.5207 -0.9974 -0.6741
12907SOL     OW39275   0.611   3.940   3.060 -0.2339  0.1883  0.3218
12907SOL    HW139276   0.541   3.877   3.078 -0.0432  0.6595  3.2315
12907SOL    HW239277   0.689   3.902   3.100  0.4008  1.2563  0.1424
12908SOL     OW39278   1.013   4.750   1.640 -0.5704 -0.5682 -0.3116
12908SOL    HW139279   1.076   4.729   1.571 -0.1850  1.4114 -0.6413
12908SOL    HW239280   0.928   4.735   1.600 -0.3383  0.0117 -1.0510
12909SOL     OW39281   7.497   3.469   0.038  0.3001  0.3187  0.5253
12909SOL    HW139282   7.446   3.510  -0.032 -2.0308 -1.3326  1.1520
12909SOL    HW239283   7.558   3.411  -0.007 -0.8943 -0.4163 -0.1826
12910SOL     OW39284   3.638   1.329   5.863  0.0801  0.1983 -0.4123
12910SOL    HW139285   3.656   1.334   5.769  2.0526 -0.3008 -0.1065
12910SOL    HW239286   3.615   1.238   5.878  0.7636  0.0472 -0.2634
12911SOL     OW39287   0.976   2.823   6.530  0.2409  0.4080 -0.1531
12911SOL    HW139288   0.924   2.744   6.516 -0.1828  0.1517  2.5107
12911SOL    HW239289   1.044   2.798   6.591  0.1659  2.0624  0.6636
12912SOL     OW39290   4.761   6.255   7.229  0.4988 -0.3479  0.0063
12912SOL    HW139291   4.753   6.180   7.170 -0.1809 -0.3087  0.0342
12912SOL    HW239292   4.793   6.218   7.311  0.2880 -0.5896 -0.0192
12913SOL     OW39293   1.897   7.641   4.810 -0.2555 -0.0405  0.1519
12913SOL    HW139294   1.924   7.549   4.812  0.2185  0.1049  0.4933
12913SOL    HW239295   1.979   7.690   4.802 -0.1836  0.4954  3.0459
12914SOL     OW39296   5.935   1.304   4.453  0.2223  0.1029 -0.1134
12914SOL    HW139297   5.910   1.234   4.514  0.3739  0.1774  0.0315
12914SOL    HW239298   6.018   1.275   4.416  1.0555  0.9206  1.0674
12915SOL     OW39299   5.609   1.657   1.763 -0.0959  0.3250  0.4190
12915SOL    HW139300   5.546   1.611   1.818 -0.0093 -1.4137 -0.8287
12915SOL    HW239301   5.571   1.743   1.747 -0.9338  0.2109  1.7317
12916SOL     OW39302   2.331   3.227   3.410 -0.2809 -0.6015  0.1201
12916SOL    HW139303   2.253   3.253   3.362  0.4743  3.3078  0.7152
12916SOL    HW239304   2.401   3.224   3.344 -0.3975 -1.4920  0.0216
12917SOL     OW39305   5.992   0.107   5.386 -0.2998 -0.3423 -0.6478
12917SOL    HW139306   6.004   0.113   5.481  2.1806  2.0480 -0.9838
12917SOL    HW239307   5.923   0.170   5.367  0.0578  0.0976 -0.5172
12918SOL     OW39308   6.890   2.530   0.594 -0.2614  0.1994  0.1823
12918SOL    HW139309   6.844   2.451   0.621 -1.9511  1.7031  1.9126
12918SOL    HW239310   6.848   2.601   0.642  1.8146  2.0730 -0.5812
12919SOL     OW39311   0.522   0.556   2.482 -0.0860  0.2767  0.0133
12919SOL    HW139312   0.491   0.645   2.493  0.0228  0.3177 -0.0089
12919SOL    HW239313   0.534   0.546   2.388  1.3353  0.7338  0.1201
12920SOL     OW39314   5.874   6.113   1.783 -0.4052  0.0548 -0.5733
12920SOL    HW139315   5.904   6.202   1.797  0.2648 -0.2072 -0.3183
12920SOL    HW239316   5.942   6.072   1.729  0.7078 -1.0954  1.5514
12921SOL     OW39317   1.626   1.831   5.873 -0.0329  0.3038 -0.3970
12921SOL    HW139318   1.559   1.880   5.921  1.0445  0.2844  1.2198
12921SOL    HW239319   1.701   1.891   5.870 -0.2037  0.4960 -2.5639
12922SOL     OW39320   6.037   3.983   1.823  0.3568 -0.3573 -0.1866
12922SOL    HW139321   6.025   4.018   1.735 -0.1794  0.6794  0.2850
12922SOL    HW239322   6.094   3.906   1.810 -1.1866 -1.3303 -1.6505
12923SOL     OW39323   7.656   2.864   7.578  0.6799  0.2487 -0.0910
12923SOL    HW139324   7.636   2.937   7.637 -0.8626 -0.7174  0.6590
12923SOL    HW239325   7.644   2.786   7.633  0.9467 -0.6144 -1.2297
12924SOL     OW39326   1.949   7.126   3.564  0.0798 -0.1063 -0.0906
12924SOL    HW139327   1.894   7.193   3.605 -1.2122  0.2628 -2.3012
12924SOL    HW239328   1.905   7.044   3.585 -0.2908  0.0388 -0.2776
12925SOL     OW39329   1.347   5.051   6.212  0.0012  0.0626  0.1109
12925SOL    HW139330   1.375   4.995   6.285  0.1349  1.2805  1.0152
12925SOL    HW239331   1.385   5.136   6.231  0.3429  0.3198 -1.5959
12926SOL     OW39332   7.358   1.515   1.125 -0.9641 -0.1131 -0.0421
12926SOL    HW139333   7.369   1.445   1.190 -1.0437  0.3870  0.5247
12926SOL    HW239334   7.444   1.557   1.121  0.0902 -2.2180 -2.7777
12927SOL     OW39335   2.816   2.058   4.257 -0.5034 -0.2338  0.3581
12927SOL    HW139336   2.771   2.106   4.327 -1.9283 -0.4863 -0.3422
12927SOL    HW239337   2.795   2.108   4.177 -1.3188 -1.5359 -0.2685
12928SOL     OW39338   0.808   5.336   2.647 -0.0435 -0.0107 -0.6698
12928SOL    HW139339   0.806   5.426   2.615 -0.8420  0.0297 -0.5434
12928SOL    HW239340   0.716   5.316   2.667  0.3612 -0.1073  1.3645
12929SOL     OW39341   4.413   0.173   2.573 -0.5069 -0.1560  0.8483
12929SOL    HW139342   4.324   0.139   2.564  0.0082 -1.2056 -0.5644
12929SOL    HW239343   4.425   0.231   2.497  0.4610 -1.1044  0.2469
12930SOL     OW39344   5.280   5.405   2.773  0.1910 -0.5414  0.4316
12930SOL    HW139345   5.366   5.435   2.745  0.0077 -0.3298  0.0770
12930SOL    HW239346   5.220   5.438   2.705  0.0805 -2.4583 -0.4496
12931SOL     OW39347   2.434   3.710   6.890  0.5450 -0.3642 -0.3939
12931SOL    HW139348   2.341   3.691   6.881  0.7882 -1.9681  0.2325
12931SOL    HW239349   2.475   3.666   6.815  0.7929  0.5193 -0.7897
12932SOL     OW39350   5.626   7.311   6.296  0.2013 -0.2202  0.0653
12932SOL    HW139351   5.536   7.298   6.327  0.0882 -1.0965 -0.5787
12932SOL    HW239352   5.676   7.242   6.340  0.6619  0.5566  0.7885
12933SOL     OW39353   7.063   1.602   3.866  0.0923  0.1123  0.1192
12933SOL    HW139354   7.154   1.612   3.839 -0.2482  1.6109 -0.5720
12933SOL    HW239355   7.051   1.666   3.936 -0.8086  1.0168 -0.8259
12934SOL     OW39356   7.279   2.166   5.937  0.3290 -0.0760 -0.1741
12934SOL    HW139357   7.272   2.097   6.003  0.5677 -0.9669 -1.0649
12934SOL    HW239358   7.304   2.244   5.987  1.0896 -0.8650  0.7186
12935SOL     OW39359   2.749   7.712   4.447 -0.1757 -0.4078 -0.6003
12935SOL    HW139360   2.730   7.625   4.482  1.0301 -0.6189 -0.4186
12935SOL    HW239361   2.829   7.739   4.492  0.2583  0.1866 -1.6698
12936SOL     OW39362   2.369   4.993   5.361 -0.1288 -0.0477  0.1434
12936SOL    HW139363   2.462   4.992   5.384 -0.2792 -3.3590  1.1405
12936SOL    HW239364   2.324   4.998   5.446 -0.8989  1.4952 -0.3303
12937SOL     OW39365   7.693   3.214   0.342  0.4559  0.2500  0.0620
12937SOL    HW139366   7.783   3.210   0.311  0.6662  0.9501  0.5742
12937SOL    HW239367   7.644   3.161   0.279  1.1510  0.2146 -0.4602
12938SOL     OW39368   6.341   2.236   0.127 -0.5155 -0.3446  0.2220
12938SOL    HW139369   6.336   2.187   0.046  1.7619 -1.0020  0.3983
12938SOL    HW239370   6.348   2.170   0.196  2.0852  0.1083  0.5045
12939SOL     OW39371   1.808   4.430   7.660  0.4961  0.5584  0.3426
12939SOL    HW139372   1.822   4.345   7.701  0.2079  1.6286  2.8786
12939SOL    HW239373   1.724   4.421   7.615  1.7653 -1.2616 -1.8479
12940SOL     OW39374   2.921   4.871   4.014 -0.6752  0.3961 -0.1498
12940SOL    HW139375   2.830   4.843   4.024 -0.4264 -0.3215  0.2254
12940SOL    HW239376   2.930   4.947   4.070 -0.9928  0.3436 -0.0278
12941SOL     OW39377   2.748   5.085   6.329  0.0382 -0.0843  0.8492
12941SOL    HW139378   2.834   5.118   6.356  0.0963 -0.4585  1.1326
12941SOL    HW239379   2.767   5.001   6.286 -0.1227  0.1562  0.2879
12942SOL     OW39380   3.161   4.096   4.173 -0.6806  0.5984  0.4855
12942SOL    HW139381   3.110   4.055   4.102  0.8254  0.1960 -0.4093
12942SOL    HW239382   3.179   4.024   4.234  2.0380 -0.2296 -1.1285
12943SOL     OW39383   6.594   6.672   1.563  0.3433 -0.6304 -0.0043
12943SOL    HW139384   6.618   6.741   1.501  0.6129  0.1093  0.8923
12943SOL    HW239385   6.671   6.615   1.565  1.0920  0.3722  1.0144
12944SOL     OW39386   3.441   6.387   2.929  0.0613  0.4843 -0.3861
12944SOL    HW139387   3.415   6.470   2.887 -3.6758 -1.8096 -3.2322
12944SOL    HW239388   3.486   6.338   2.860 -1.9077 -1.5150 -0.3760
12945SOL     OW39389   5.357   4.623   6.922 -0.3578  0.4501 -0.2266
12945SOL    HW139390   5.367   4.654   6.832  0.7555  0.0249 -0.2710
12945SOL    HW239391   5.308   4.693   6.966 -0.4342  0.9162 -1.0227
12946SOL     OW39392   3.481   7.003   5.110  0.3691  0.2484  0.2293
12946SOL    HW139393   3.484   7.067   5.039 -0.8250  0.7529  0.6120
12946SOL    HW239394   3.518   6.923   5.071  1.4112  1.0116 -0.3959
12947SOL     OW39395   6.146   1.920   0.080  0.0773  0.5031  0.7050
12947SOL    HW139396   6.106   1.983   0.020  0.2463 -1.1110 -1.1866
12947SOL    HW239397   6.211   1.874   0.027 -0.4519 -1.6760  1.8066
12948SOL     OW39398   2.394   3.579   1.549  0.1752 -0.3191  0.0089
12948SOL    HW139399   2.465   3.574   1.613  0.3522  1.2317 -0.0342
12948SOL    HW239400   2.349   3.494   1.557  0.5733 -0.4144  1.7321
12949SOL     OW39401   7.436   5.230   1.748  0.2451  0.5970 -0.7259
12949SOL    HW139402   7.513   5.287   1.758  0.6425 -0.2515  1.3550
12949SOL    HW239403   7.362   5.283   1.778  0.2300  0.8627 -1.2152
12950SOL     OW39404   2.878   2.470   2.082 -0.3277 -0.0500 -0.4691
12950SOL    HW139405   2.897   2.401   2.018  0.8855  1.9840 -2.4100
12950SOL    HW239406   2.964   2.493   2.118 -1.0659 -1.9920  2.9751
12951SOL     OW39407   1.519   5.814   0.741  0.0008 -0.6371  0.4897
12951SOL    HW139408   1.446   5.874   0.730  0.5164 -0.1191 -0.1709
12951SOL    HW239409   1.494   5.736   0.691  0.8176  0.3767 -1.6210
12952SOL     OW39410   7.461   3.899   6.024  0.5527 -0.4076 -0.0629
12952SOL    HW139411   7.402   3.893   5.950 -2.5562 -2.5525  2.3402
12952SOL    HW239412   7.531   3.836   6.004 -0.2862 -1.0298 -1.1570
12953SOL     OW39413   0.757   6.475   0.921  0.7534  0.4290 -0.2855
12953SOL    HW139414   0.754   6.518   1.006  1.7708  0.7977 -0.4288
12953SOL    HW239415   0.790   6.387   0.938  2.5900  1.0504 -0.4908
12954SOL     OW39416   5.423   5.968   4.120  0.0490  0.4760  0.1803
12954SOL    HW139417   5.403   5.995   4.210  0.5487  1.4765  0.0057
12954SOL    HW239418   5.413   5.873   4.121  0.2326  0.4530  1.3420
12955SOL     OW39419   0.329   3.150   1.659 -0.5281  0.2265 -0.0830
12955SOL    HW139420   0.317   3.208   1.735 -1.5936 -0.1343  0.0512
12955SOL    HW239421   0.419   3.118   1.667 -0.6163  0.1963  1.0389
12956SOL     OW39422   2.310   3.090   6.199  0.2846  0.9050  0.2627
12956SOL    HW139423   2.330   3.023   6.265  0.6761  0.2697 -0.4833
12956SOL    HW239424   2.364   3.164   6.223  0.3802  0.7015  0.6909
12957SOL     OW39425   4.128   2.787   1.599  0.2922 -1.0458  0.2838
12957SOL    HW139426   4.079   2.716   1.639  1.6727 -1.3014  1.6197
12957SOL    HW239427   4.158   2.840   1.673  0.5278  0.0913 -0.6037
12958SOL     OW39428   6.710   1.916   5.899 -0.2088 -0.0861  0.0020
12958SOL    HW139429   6.637   1.911   5.838  0.5669 -0.6866 -0.9187
12958SOL    HW239430   6.670   1.916   5.986 -1.2714 -1.4381 -0.4549
12959SOL     OW39431   6.934   2.799   2.764  0.3025  0.2037 -0.5541
12959SOL    HW139432   6.961   2.885   2.732 -0.1530  0.9257  0.9155
12959SOL    HW239433   6.844   2.812   2.794 -0.7336 -1.4471 -2.7030
12960SOL     OW39434   1.058   4.534   7.205  0.2289 -0.2519  0.0271
12960SOL    HW139435   0.991   4.467   7.211  1.9021 -1.9568  0.7558
12960SOL    HW239436   1.131   4.500   7.257  1.3398  1.9093 -0.0033
12961SOL     OW39437   2.920   4.316   5.829 -0.4403 -0.2450 -0.2879
12961SOL    HW139438   2.948   4.396   5.785 -1.4433  1.5647  2.1404
12961SOL    HW239439   2.999   4.284   5.872 -0.4817  0.7559  0.5746
12962SOL     OW39440   3.610   6.715   7.026  0.2745  0.3600 -0.4082
12962SOL    HW139441   3.627   6.708   6.932  1.3094 -0.3133 -0.1901
12962SOL    HW239442   3.594   6.625   7.054  2.2224  0.2049  0.4322
12963SOL     OW39443   1.433   3.968   5.955  0.3454  0.0524 -0.0415
12963SOL    HW139444   1.456   3.932   6.041  3.4274 -0.7914 -1.1025
12963SOL    HW239445   1.363   3.910   5.924 -0.1226 -0.2418  1.4689
12964SOL     OW39446   6.214   6.776   2.618 -0.4417 -0.0797 -0.3034
12964SOL    HW139447   6.168   6.849   2.578  0.0039  0.7235  0.5972
12964SOL    HW239448   6.178   6.770   2.706  0.9179  0.3645  0.3130
12965SOL     OW39449   3.768   5.789   5.355 -0.5181  0.3865 -0.0363
12965SOL    HW139450   3.796   5.835   5.275  1.1529  0.4813  0.5605
12965SOL    HW239451   3.841   5.801   5.416 -0.7390 -1.6995  0.7006
12966SOL     OW39452   5.639   1.600   2.711 -0.9298  0.3674  0.1192
12966SOL    HW139453   5.565   1.538   2.711  0.4187 -1.3328  0.3447
12966SOL    HW239454   5.651   1.623   2.619  0.2870 -1.9993 -0.4071
12967SOL     OW39455   6.790   7.377   6.473  0.2885 -0.0997  0.4221
12967SOL    HW139456   6.716   7.365   6.533 -0.9483  0.5769 -0.9018
12967SOL    HW239457   6.750   7.404   6.390  1.8464 -1.8878 -1.0115
12968SOL     OW39458   1.805   3.075   1.517 -0.7885 -0.0607  0.1635
12968SOL    HW139459   1.853   3.112   1.444 -0.3837 -0.3801  0.2612
12968SOL    HW239460   1.729   3.032   1.477 -0.7140 -0.0018 -0.0421
12969SOL     OW39461   2.407   6.582   2.797  0.2660  0.2648 -0.2632
12969SOL    HW139462   2.446   6.572   2.884 -0.5328 -0.4069  0.0296
12969SOL    HW239463   2.313   6.570   2.811  0.0624  0.7323 -1.1324
12970SOL     OW39464   4.404   7.374   1.385 -0.3438 -0.0358  0.0190
12970SOL    HW139465   4.355   7.293   1.370  1.1096 -0.9287 -0.1257
12970SOL    HW239466   4.439   7.397   1.300 -0.7577  0.7754  0.0598
12971SOL     OW39467   6.499   2.475   3.774 -0.2684  0.1154  0.0814
12971SOL    HW139468   6.412   2.491   3.811  0.6398 -1.8045  3.4454
12971SOL    HW239469   6.484   2.405   3.710 -1.3155  0.4480 -0.0615
12972SOL     OW39470   3.462   6.994   7.135  0.8185  0.2665 -0.2807
12972SOL    HW139471   3.531   7.059   7.148  1.2157 -0.4291  1.6173
12972SOL    HW239472   3.467   6.939   7.214 -1.8342  0.1087 -0.1272
12973SOL     OW39473   7.662   2.391   4.481 -0.3702  0.0279  0.4054
12973SOL    HW139474   7.712   2.467   4.512 -2.1411  2.1860 -1.5495
12973SOL    HW239475   7.574   2.405   4.518 -1.1229 -0.1637 -1.2456
12974SOL     OW39476   3.441   6.601   3.784  0.2172  0.0316  0.1224
12974SOL    HW139477   3.493   6.653   3.845  0.7792 -1.3618  0.8832
12974SOL    HW239478   3.405   6.665   3.722  0.9932  1.2843  0.9222
12975SOL     OW39479   1.305   3.322   1.608  0.2368 -0.3716 -0.1481
12975SOL    HW139480   1.317   3.248   1.548 -1.1988  0.6053 -1.7442
12975SOL    HW239481   1.318   3.399   1.553 -0.0719  0.5792  1.0671
12976SOL     OW39482   1.580   3.360   4.942  0.0748  0.2278 -0.3605
12976SOL    HW139483   1.610   3.409   4.866  1.6162  0.3471  0.2868
12976SOL    HW239484   1.621   3.274   4.932  1.7168  0.7706  1.1457
12977SOL     OW39485   7.127   6.682   3.205 -0.1953  0.2923 -0.0035
12977SOL    HW139486   7.089   6.636   3.130 -0.0730 -1.4399  0.9447
12977SOL    HW239487   7.221   6.684   3.187 -0.0919 -0.6805  0.3639
12978SOL     OW39488   0.794   2.591   3.249 -0.3876  0.3529 -0.4212
12978SOL    HW139489   0.806   2.608   3.342  2.3062  1.2327 -0.8435
12978SOL    HW239490   0.702   2.613   3.232 -0.9896  0.0128  2.0079
12979SOL     OW39491   3.344   4.078   3.321 -0.0953 -0.4477  0.1397
12979SOL    HW139492   3.423   4.063   3.268  1.4076  2.4470  1.3186
12979SOL    HW239493   3.286   4.128   3.264 -0.4776 -1.2763 -0.2218
12980SOL     OW39494   2.847   6.593   5.460 -0.1304 -0.4901 -0.1153
12980SOL    HW139495   2.809   6.677   5.484  0.7206  0.2013 -1.1232
12980SOL    HW239496   2.772   6.533   5.454 -0.7704  0.2546  0.3383
12981SOL     OW39497   6.470   6.920   5.753  0.5341 -0.2565  1.0413
12981SOL    HW139498   6.527   6.997   5.743  1.0909 -0.9212 -2.1201
12981SOL    HW239499   6.525   6.846   5.728 -0.5319 -1.4656  2.1659
12982SOL     OW39500   5.123   3.679   0.809 -0.1147 -0.1547 -0.0017
12982SOL    HW139501   5.061   3.728   0.864  3.1960  1.9253  2.1898
12982SOL    HW239502   5.149   3.604   0.862  1.2832  0.5352  0.3337
12983SOL     OW39503   7.084   6.246   4.613 -0.4269  0.5787 -0.2677
12983SOL    HW139504   7.156   6.292   4.570  1.4098 -0.4903  1.4723
12983SOL    HW239505   7.041   6.197   4.543  1.9679 -0.5010 -1.0812
12984SOL     OW39506   7.705   2.561   1.123  0.5054 -0.2065 -0.2692
12984SOL    HW139507   7.689   2.469   1.101 -0.2853  0.0299 -0.7579
12984SOL    HW239508   7.675   2.609   1.046  3.8333  0.3293 -1.4041
12985SOL     OW39509   5.386   6.902   7.175 -0.6090  0.1878  0.4193
12985SOL    HW139510   5.336   6.832   7.134  0.4087 -0.6778  0.6125
12985SOL    HW239511   5.435   6.941   7.103  0.4692 -0.7260  0.6366
12986SOL     OW39512   6.643   7.185   3.157  0.2247 -0.1682  0.2213
12986SOL    HW139513   6.620   7.109   3.210 -2.0205  1.5894  1.9902
12986SOL    HW239514   6.563   7.238   3.153  0.8647  0.8332 -3.3043
12987SOL     OW39515   5.045   5.629   5.335  0.5123 -0.6253 -0.4318
12987SOL    HW139516   5.026   5.722   5.323 -0.0010 -0.7703 -0.7532
12987SOL    HW239517   5.042   5.592   5.247  2.4215 -0.6430 -0.5351
12988SOL     OW39518   2.139   1.640   3.638 -0.1247  0.0152  0.4008
12988SOL    HW139519   2.212   1.619   3.696 -1.2716 -0.4982  1.7171
12988SOL    HW239520   2.073   1.677   3.696 -0.9847  0.3131 -0.7385
12989SOL     OW39521   7.321   7.746   0.622  0.3812 -0.0893 -0.1447
12989SOL    HW139522   7.372   7.691   0.681  0.3923  0.1444  0.0663
12989SOL    HW239523   7.273   7.806   0.680 -1.8295 -1.6987 -0.1780
12990SOL     OW39524   0.641   5.813   7.456 -0.2228 -0.1203  0.1543
12990SOL    HW139525   0.585   5.792   7.531 -0.2417 -0.7596 -0.0375
12990SOL    HW239526   0.614   5.901   7.431 -1.9404 -0.8159 -0.6347
12991SOL     OW39527   0.007   3.246   7.048  0.1773  0.2124 -0.5002
12991SOL    HW139528   0.075   3.233   7.113 -1.0363  0.4974  0.8980
12991SOL    HW239529   0.036   3.322   6.998 -0.0606  1.6624  1.4479
12992SOL     OW39530   7.162   0.686   2.612  0.4185  0.0216  0.1849
12992SOL    HW139531   7.071   0.681   2.585  0.5538  0.6528 -0.3835
12992SOL    HW239532   7.195   0.768   2.575  0.8955  0.3909  1.3691
12993SOL     OW39533   4.175   4.185   4.901  0.5015  0.0686  0.3820
12993SOL    HW139534   4.255   4.176   4.850  0.2423  0.1215 -0.0431
12993SOL    HW239535   4.141   4.095   4.908 -0.3888  0.2620 -1.0747
12994SOL     OW39536   4.879   5.577   5.781  0.1524  0.1751 -0.0405
12994SOL    HW139537   4.895   5.603   5.691 -0.7848  0.9473 -0.0034
12994SOL    HW239538   4.832   5.494   5.775 -0.8697  0.7552 -0.3108
12995SOL     OW39539   0.149   7.087   1.387  0.0249 -0.1189  0.3324
12995SOL    HW139540   0.159   7.182   1.378 -1.0639  0.0179  0.3570
12995SOL    HW239541   0.217   7.061   1.450 -0.4431  0.8367  1.2725
12996SOL     OW39542   6.099   1.495   5.408 -0.1296  0.3472  0.0284
12996SOL    HW139543   6.186   1.503   5.448 -1.0302  0.0067  2.2309
12996SOL    HW239544   6.040   1.536   5.471 -1.5388  0.9669 -1.6270
12997SOL     OW39545   5.584   3.885   7.007 -0.2339  0.0444 -0.1837
12997SOL    HW139546   5.500   3.923   6.982  0.1896 -0.4198 -2.5111
12997SOL    HW239547   5.638   3.960   7.033 -1.1919  0.3779  0.9495
12998SOL     OW39548   7.748   4.566   0.475 -0.7363  0.7670  0.4168
12998SOL    HW139549   7.766   4.654   0.442 -0.1204  0.6682  0.4773
12998SOL    HW239550   7.832   4.535   0.510 -1.0455  0.3220  0.7856
12999SOL     OW39551   4.625   4.136   3.977  0.2196 -0.2644 -0.0268
12999SOL    HW139552   4.596   4.227   3.969  0.0140 -0.2788  0.5234
12999SOL    HW239553   4.611   4.099   3.889 -0.7516 -0.0716  0.0354
13000SOL     OW39554   2.347   6.485   7.581  0.1935 -0.0082  0.1656
13000SOL    HW139555   2.302   6.441   7.654 -0.5209  0.9588  0.3323
13000SOL    HW239556   2.412   6.541   7.624 -0.9466  1.3724  0.1496
13001SOL     OW39557   4.934   1.353   1.480 -0.3126 -0.3585  0.0710
13001SOL    HW139558   4.869   1.380   1.544  0.2405  1.6856 -0.1511
13001SOL    HW239559   4.898   1.380   1.396 -0.0073 -0.9191 -0.2434
13002SOL     OW39560   1.084   6.530   5.492  0.2508 -0.1243  0.1446
13002SOL    HW139561   1.128   6.477   5.426  0.3181  0.3469 -0.1913
13002SOL    HW239562   1.029   6.468   5.540  1.5562 -0.8094  0.8210
13003SOL     OW39563   3.756   1.826   2.372 -0.7511  0.2597  0.5544
13003SOL    HW139564   3.792   1.857   2.455  0.1163  1.5894 -0.2880
13003SOL    HW239565   3.740   1.732   2.387 -1.9298  0.7366  2.6381
13004SOL     OW39566   6.788   7.170   4.055 -0.2158  0.0912  0.6716
13004SOL    HW139567   6.804   7.079   4.079  2.4733 -0.2570 -1.9709
13004SOL    HW239568   6.707   7.167   4.004  1.5165 -1.5042 -2.2260
13005SOL     OW39569   3.003   5.507   6.437  0.1041 -0.1556 -0.1120
13005SOL    HW139570   2.938   5.499   6.368  1.6736  0.8535 -1.8084
13005SOL    HW239571   2.964   5.568   6.500 -0.4456  0.7728 -1.3162
13006SOL     OW39572   5.988   2.773   5.506  0.1469  0.2006 -0.0108
13006SOL    HW139573   5.948   2.859   5.514 -0.5271 -0.2671  2.6868
13006SOL    HW239574   6.036   2.761   5.588  1.5499 -1.3706 -0.9891
13007SOL     OW39575   0.221   5.751   3.888 -0.3864 -0.3567  0.5104
13007SOL    HW139576   0.238   5.715   3.801 -1.6639 -2.0037  0.8831
13007SOL    HW239577   0.307   5.772   3.923  0.4175 -2.4549 -0.0375
13008SOL     OW39578   2.551   2.799   4.831 -0.7263 -0.0808  0.0478
13008SOL    HW139579   2.595   2.783   4.747  0.7691 -1.8881  1.0966
13008SOL    HW239580   2.470   2.844   4.807 -1.1968 -2.0662 -2.5281
13009SOL     OW39581   4.173   6.721   4.753 -0.0474 -0.7887 -0.3835
13009SOL    HW139582   4.256   6.740   4.797 -1.0876  0.8970  1.0060
13009SOL    HW239583   4.134   6.651   4.805 -1.7023  1.8181  2.2476
13010SOL     OW39584   7.070   2.870   0.542  0.5110  0.1103  0.0092
13010SOL    HW139585   7.051   2.788   0.497 -2.6825  0.4113  0.6161
13010SOL    HW239586   7.107   2.843   0.627  1.5316 -0.5810 -0.6332
13011SOL     OW39587   2.664   4.372   5.739 -0.4770  0.1704  0.5325
13011SOL    HW139588   2.710   4.417   5.669 -0.4411 -2.5544 -1.3794
13011SOL    HW239589   2.729   4.361   5.808 -0.0030  1.3962  0.2975
13012SOL     OW39590   3.985   3.317   0.055  0.0740 -0.4751  0.7124
13012SOL    HW139591   3.896   3.338   0.081  0.2163 -1.2343  1.8937
13012SOL    HW239592   4.036   3.396   0.076 -0.4502  0.3297 -0.8787
13013SOL     OW39593   4.454   2.403   1.814  0.0600  0.5794 -0.1128
13013SOL    HW139594   4.391   2.351   1.764 -1.7037  2.4178  0.0651
13013SOL    HW239595   4.521   2.340   1.840 -2.3814 -1.8262  0.8704
13014SOL     OW39596   5.774   0.996   5.727  0.5307 -0.0748 -0.7188
13014SOL    HW139597   5.855   0.947   5.725  0.5762 -0.0792  0.6551
13014SOL    HW239598   5.772   1.037   5.813 -0.1905  1.1724 -1.2954
13015SOL     OW39599   2.685   7.468   4.526 -0.1789  0.2431 -0.0127
13015SOL    HW139600   2.601   7.428   4.549 -0.3844  0.0849 -0.9878
13015SOL    HW239601   2.749   7.422   4.580 -0.3439 -1.7914 -1.4371
13016SOL     OW39602   1.354   0.638   2.860  0.0144 -0.6170 -0.1163
13016SOL    HW139603   1.264   0.627   2.828  0.4751  0.8420 -2.1273
13016SOL    HW239604   1.347   0.698   2.934 -0.8155 -1.9207  0.9074
13017SOL     OW39605   0.780   1.930   7.143  0.5104 -0.5835 -0.0613
13017SOL    HW139606   0.840   2.004   7.130 -0.3185  0.1608  0.2473
13017SOL    HW239607   0.729   1.953   7.221  1.0529 -2.0446  0.7748
13018SOL     OW39608   4.476   7.401   3.950  0.0554  0.3568 -0.7495
13018SOL    HW139609   4.448   7.490   3.970 -0.6437 -0.0811  0.3171
13018SOL    HW239610   4.444   7.385   3.861 -0.9952  0.6996 -0.4414
13019SOL     OW39611   0.403   1.567   7.489  0.3963  0.1325 -0.6387
13019SOL    HW139612   0.396   1.502   7.559  1.3348  0.5264 -0.1578
13019SOL    HW239613   0.332   1.628   7.507 -0.4050 -0.6677 -1.0100
13020SOL     OW39614   3.238   4.013   0.645 -0.1488  0.1770  0.0289
13020SOL    HW139615   3.176   4.037   0.713  0.7858  0.9817  0.6188
13020SOL    HW239616   3.205   3.929   0.611 -1.5370  0.5859  0.3132
13021SOL     OW39617   5.218   2.667   6.650 -0.0642 -0.2827 -0.6282
13021SOL    HW139618   5.286   2.657   6.583 -1.9605 -1.2629 -2.5344
13021SOL    HW239619   5.231   2.755   6.685  1.4350 -0.0052 -1.7747
13022SOL     OW39620   1.733   4.973   1.538  0.0005 -0.2800  0.8059
13022SOL    HW139621   1.638   4.973   1.531 -0.1305  0.4385  2.1496
13022SOL    HW239622   1.764   4.992   1.450 -1.0371 -2.0124  0.0150
13023SOL     OW39623   6.441   4.759   2.112 -0.3470 -0.6002  0.0069
13023SOL    HW139624   6.373   4.693   2.124 -2.7340  1.5378 -0.9733
13023SOL    HW239625   6.443   4.807   2.195 -2.8182  1.6854 -1.1277
13024SOL     OW39626   7.665   3.187   2.805  0.2309  0.0182 -0.1364
13024SOL    HW139627   7.755   3.191   2.772  0.0818  1.3244 -0.4143
13024SOL    HW239628   7.661   3.254   2.873 -0.6721  0.3347 -0.4897
13025SOL     OW39629   4.963   7.413   7.718  0.1865 -0.3311  0.2258
13025SOL    HW139630   4.934   7.341   7.773 -1.8095  0.1915 -0.0423
13025SOL    HW239631   4.978   7.486   7.778  0.6111 -0.5030  0.3305
13026SOL     OW39632   4.056   1.860   2.090  0.2037  0.5394  0.6856
13026SOL    HW139633   4.045   1.952   2.117  1.5003  1.5245 -1.7707
13026SOL    HW239634   4.070   1.865   1.995  1.7159 -2.0919  0.6775
13027SOL     OW39635   0.350   4.254   2.507 -0.3596  0.3589 -0.4283
13027SOL    HW139636   0.270   4.202   2.507 -0.5641  0.6662  0.0607
13027SOL    HW239637   0.418   4.194   2.478 -0.5593 -0.2278  0.3017
13028SOL     OW39638   5.368   3.976   2.184  0.1777  0.6572 -0.0515
13028SOL    HW139639   5.283   3.932   2.192  0.1051  1.1393  3.2109
13028SOL    HW239640   5.350   4.056   2.135 -1.3245  0.7983  0.6760
13029SOL     OW39641   0.452   6.107   6.344  0.5835 -0.2860  0.1293
13029SOL    HW139642   0.405   6.047   6.287 -0.2323  0.9891 -0.5927
13029SOL    HW239643   0.393   6.119   6.419  0.6028 -0.1505  0.1222
13030SOL     OW39644   2.169   2.075   7.351  0.1186 -0.1340 -0.2478
13030SOL    HW139645   2.180   2.076   7.256  0.9049 -2.3993 -0.2229
13030SOL    HW239646   2.122   2.156   7.370  1.0792  1.0185 -2.4100
13031SOL     OW39647   6.541   6.589   0.196  0.5490  0.1751 -0.6064
13031SOL    HW139648   6.594   6.656   0.239  0.0057  0.4270 -0.3193
13031SOL    HW239649   6.555   6.604   0.102 -0.1797  1.2184 -0.5730
13032SOL     OW39650   0.947   0.302   1.328 -0.0250  0.1319 -0.3710
13032SOL    HW139651   0.977   0.218   1.295  0.0803 -0.2118  0.5576
13032SOL    HW239652   0.923   0.352   1.250  2.0135  0.0544 -1.1156
13033SOL     OW39653   6.743   2.114   6.137 -0.3342 -0.0239  0.5303
13033SOL    HW139654   6.696   2.032   6.146 -0.8439 -0.3806 -3.3736
13033SOL    HW239655   6.834   2.092   6.156 -0.5916 -1.3170  0.3584
13034SOL     OW39656   4.563   4.854   5.840  0.0973 -0.3606  0.5220
13034SOL    HW139657   4.607   4.891   5.918 -2.0450 -1.8298  2.5660
13034SOL    HW239658   4.627   4.793   5.805  1.0261  0.1209  1.3018
13035SOL     OW39659   4.733   4.730   4.178  0.2093 -0.0160 -0.2448
13035SOL    HW139660   4.768   4.787   4.246  0.1801  1.9627 -1.7911
13035SOL    HW239661   4.811   4.699   4.131  0.1373  0.1414 -0.4662
13036SOL     OW39662   0.482   2.994   5.670  0.0345 -0.0464  0.3237
13036SOL    HW139663   0.400   3.011   5.715  0.4081 -0.2009  1.0859
13036SOL    HW239664   0.486   3.060   5.601 -0.8578 -0.2216  0.0907
13037SOL     OW39665   1.028   2.287   5.028 -0.2429 -0.6042 -0.2098
13037SOL    HW139666   0.956   2.279   4.966  0.5017  0.6288 -1.2962
13037SOL    HW239667   1.092   2.221   5.001  0.5188  0.5813 -1.4395
13038SOL     OW39668   1.316   5.518   4.333 -0.4723 -0.1949 -0.2051
13038SOL    HW139669   1.296   5.535   4.241  0.3695  0.2499 -0.3169
13038SOL    HW239670   1.252   5.569   4.382  0.5656  1.5365 -0.5484
13039SOL     OW39671   6.873   0.730   6.132  0.6447  0.6672 -0.2900
13039SOL    HW139672   6.889   0.735   6.038 -0.4750  1.4480 -0.4612
13039SOL    HW239673   6.778   0.723   6.139  0.7532  0.1627  0.7741
13040SOL     OW39674   6.827   7.484   4.513 -0.0044 -1.0007 -0.1991
13040SOL    HW139675   6.917   7.466   4.539 -0.5233 -2.5160  0.6607
13040SOL    HW239676   6.815   7.435   4.431 -0.4467 -2.0035  0.4407
13041SOL     OW39677   3.229   1.689   6.712  0.0205  0.2978  0.1312
13041SOL    HW139678   3.178   1.608   6.713 -1.2469  1.0420 -0.6086
13041SOL    HW239679   3.312   1.666   6.754 -1.1620 -0.8066  2.0435
13042SOL     OW39680   2.020   5.305   7.738  0.3270  0.0101 -0.0739
13042SOL    HW139681   2.000   5.217   7.769 -1.5058 -0.0878 -1.4048
13042SOL    HW239682   2.008   5.361   7.815  0.2553 -0.7255  0.4609
13043SOL     OW39683   3.296   0.958   3.481 -0.2266  0.3674 -0.0249
13043SOL    HW139684   3.302   1.045   3.443  1.4230  1.6184  2.7389
13043SOL    HW239685   3.230   0.966   3.550 -0.3451 -0.6750 -0.0048
13044SOL     OW39686   1.030   1.175   5.241 -0.3831 -0.0590  0.1369
13044SOL    HW139687   0.941   1.179   5.204 -0.5368 -0.6121  0.4470
13044SOL    HW239688   1.067   1.262   5.223 -1.1609  0.3431  0.4404
13045SOL     OW39689   4.309   3.727   6.576  0.3290 -0.0251  0.5491
13045SOL    HW139690   4.350   3.660   6.632  1.3497  0.5303  0.4835
13045SOL    HW239691   4.291   3.800   6.636  0.9197  0.3562  0.2694
13046SOL     OW39692   0.105   4.633   6.022 -0.1885 -0.4478 -0.1449
13046SOL    HW139693   0.088   4.545   6.054 -1.1390 -0.1771  0.1212
13046SOL    HW239694   0.065   4.635   5.935 -1.0628  0.0171  0.2527
13047SOL     OW39695   0.106   2.421   4.097 -0.4999 -0.2288  0.0863
13047SOL    HW139696   0.134   2.486   4.033  0.2326 -0.7688 -0.1590
13047SOL    HW239697   0.078   2.346   4.045 -0.0550 -0.6092  0.3772
13048SOL     OW39698   0.049   5.466   2.984 -0.2270  0.5675 -0.4343
13048SOL    HW139699   0.041   5.463   2.889  1.0653 -0.7006 -0.5377
13048SOL    HW239700   0.141   5.443   3.001  0.1405  2.8202  1.0416
13049SOL     OW39701   1.948   7.274   3.899  0.1579 -0.7018 -0.1009
13049SOL    HW139702   1.963   7.323   3.979 -1.4764 -0.3079  0.0116
13049SOL    HW239703   1.894   7.200   3.926 -0.9788 -0.2062 -0.9039
13050SOL     OW39704   6.297   2.296   0.451  0.2468 -0.2421 -0.2437
13050SOL    HW139705   6.325   2.228   0.389  0.8334  0.1204 -0.3833
13050SOL    HW239706   6.376   2.317   0.501 -0.3526 -0.9443  1.0418
13051SOL     OW39707   5.215   1.151   3.072  0.1597  0.2577 -0.1038
13051SOL    HW139708   5.290   1.101   3.105 -0.4665  0.9836  2.6806
13051SOL    HW239709   5.228   1.239   3.108 -1.4230  0.7081 -0.5795
13052SOL     OW39710   3.676   5.174   1.675 -0.0132 -0.3245 -0.1172
13052SOL    HW139711   3.716   5.220   1.601  1.8471  0.6887  1.4489
13052SOL    HW239712   3.728   5.095   1.686 -0.6646 -0.7823 -0.2307
13053SOL     OW39713   0.598   5.654   4.017  0.2648  0.0617  0.3162
13053SOL    HW139714   0.639   5.740   4.033 -0.1993  0.0442  1.7713
13053SOL    HW239715   0.648   5.617   3.944  2.0546  0.5815  1.1941
13054SOL     OW39716   1.639   2.375   3.703 -0.0692 -0.1332  0.5395
13054SOL    HW139717   1.598   2.408   3.624 -0.9475 -1.1410  0.5483
13054SOL    HW239718   1.725   2.417   3.706 -0.7772  1.3856  0.0831
13055SOL     OW39719   4.354   6.039   2.325 -0.1204  0.1127  0.2210
13055SOL    HW139720   4.272   5.992   2.309 -0.1208  0.1107  0.2266
13055SOL    HW239721   4.418   5.971   2.343 -0.0179  0.0921 -0.2200
13056SOL     OW39722   4.835   1.036   4.039 -0.2276  0.2037 -0.0279
13056SOL    HW139723   4.833   1.121   4.082 -0.6798  0.5720 -0.7648
13056SOL    HW239724   4.789   1.049   3.956  2.0540 -0.0595 -1.4275
13057SOL     OW39725   5.888   6.974   4.034  0.3556  0.6207  0.1218
13057SOL    HW139726   5.805   7.009   4.000  0.9759  1.2471 -0.8141
13057SOL    HW239727   5.933   6.940   3.956  1.3788  1.1537  0.4627
13058SOL     OW39728   0.412   3.875   3.463  0.3183  0.9751  0.1117
13058SOL    HW139729   0.316   3.874   3.456  0.4109 -0.3669 -1.9039
13058SOL    HW239730   0.441   3.927   3.388  1.1778  0.6729  0.2260
13059SOL     OW39731   5.283   0.295   7.106 -0.3205 -0.5990 -0.1088
13059SOL    HW139732   5.231   0.307   7.026  0.1805  0.2560 -0.3151
13059SOL    HW239733   5.228   0.332   7.175 -0.9571 -1.7632  0.0289
13060SOL     OW39734   0.344   7.564   2.439  0.2413 -0.0799 -0.1599
13060SOL    HW139735   0.358   7.631   2.506  0.7470 -1.4643  1.1798
13060SOL    HW239736   0.432   7.534   2.417 -0.0305 -1.1133  0.1224
13061SOL     OW39737   4.738   3.084   3.801 -0.2465  0.5059 -0.6546
13061SOL    HW139738   4.759   3.176   3.820  2.2028 -0.0605 -0.3415
13061SOL    HW239739   4.777   3.035   3.873 -0.3704 -0.8740 -1.4961
13062SOL     OW39740   2.534   1.012   5.283 -0.1783  0.0572  0.0308
13062SOL    HW139741   2.558   1.075   5.350 -1.8041  0.1636  0.5505
13062SOL    HW239742   2.442   1.030   5.264  0.2980  0.2064 -2.4441
13063SOL     OW39743   7.578   5.999   5.510  0.1329 -0.0639 -0.3596
13063SOL    HW139744   7.579   6.094   5.505  2.3126 -0.0728 -0.8346
13063SOL    HW239745   7.485   5.976   5.500 -0.9054  2.0988  2.6043
13064SOL     OW39746   4.670   1.831   5.121  0.3154  0.0983  0.1906
13064SOL    HW139747   4.685   1.741   5.094  0.4338  0.2728 -0.3242
13064SOL    HW239748   4.577   1.834   5.144 -0.0972  0.2557 -1.4099
13065SOL     OW39749   4.678   5.303   3.332  0.4426 -0.9151  0.3848
13065SOL    HW139750   4.648   5.391   3.354  0.6400 -0.8855  0.5410
13065SOL    HW239751   4.643   5.287   3.244  1.4041 -0.2079 -0.1478
13066SOL     OW39752   1.559   0.014   2.809 -0.6563 -0.0713 -1.0651
13066SOL    HW139753   1.610   0.085   2.770 -1.2750  0.3444 -1.1490
13066SOL    HW239754   1.587   0.011   2.900  0.8789 -1.1181 -1.5345
13067SOL     OW39755   7.264   1.100   6.185  0.1178 -0.1917 -0.2362
13067SOL    HW139756   7.210   1.172   6.216  1.5629  0.7546  0.1890
13067SOL    HW239757   7.292   1.055   6.264  0.7095 -0.0965 -0.3874
13068SOL     OW39758   1.666   6.040   0.801  0.2726 -0.2300  0.2071
13068SOL    HW139759   1.686   6.037   0.708 -1.9389 -0.0990 -0.3198
13068SOL    HW239760   1.619   5.958   0.818 -1.2123  0.6717  0.6851
13069SOL     OW39761   0.848   3.969   5.344  0.7787  0.3946  0.0372
13069SOL    HW139762   0.773   3.996   5.292  0.2171  1.4188  1.3184
13069SOL    HW239763   0.924   4.001   5.294  0.2827  0.9823 -0.3593
13070SOL     OW39764   1.390   4.456   1.439 -0.1330 -0.1572  0.3755
13070SOL    HW139765   1.369   4.387   1.377 -1.0215 -0.5605  1.1044
13070SOL    HW239766   1.462   4.504   1.398 -1.7135  0.5979 -1.7223
13071SOL     OW39767   1.651   7.725   1.637  0.3101  0.3039 -0.3476
13071SOL    HW139768   1.600   7.644   1.642  0.1339  0.4881  1.2562
13071SOL    HW239769   1.662   7.741   1.543 -0.2336 -1.2065 -0.6851
13072SOL     OW39770   5.719   6.253   6.544 -0.1523 -0.2644  0.0777
13072SOL    HW139771   5.769   6.295   6.474 -0.2844 -0.0948  0.0842
13072SOL    HW239772   5.633   6.235   6.505 -0.3428  0.1539  0.3030
13073SOL     OW39773   0.520   2.700   0.547 -0.5174 -0.1741  0.4088
13073SOL    HW139774   0.561   2.709   0.461  0.1152 -0.0433  0.7194
13073SOL    HW239775   0.593   2.687   0.608 -0.8862  0.6562  1.0549
13074SOL     OW39776   6.359   5.350   5.871  0.2795  0.0512  0.7938
13074SOL    HW139777   6.401   5.405   5.937  0.8016  2.1339 -1.1542
13074SOL    HW239778   6.429   5.294   5.837  0.0419 -0.9177  1.8512
13075SOL     OW39779   5.918   7.156   2.391  0.6851  0.1043 -0.4048
13075SOL    HW139780   5.831   7.117   2.401  0.9978 -0.5640 -0.1794
13075SOL    HW239781   5.925   7.218   2.463  0.3630  0.2235 -0.4746
13076SOL     OW39782   4.592   1.537   3.138  0.4597 -0.5126 -0.2345
13076SOL    HW139783   4.627   1.584   3.214 -0.9154  0.0204  0.1001
13076SOL    HW239784   4.606   1.445   3.159 -0.2390 -0.3871  0.8467
13077SOL     OW39785   5.719   6.979   2.520 -0.6161 -0.6891  0.1106
13077SOL    HW139786   5.624   6.981   2.516 -0.7584  0.9383  2.5950
13077SOL    HW239787   5.739   6.900   2.571 -0.8209  0.4164  1.9693
13078SOL     OW39788   1.761   1.165   6.108 -0.6705 -0.3561 -0.1604
13078SOL    HW139789   1.757   1.166   6.012 -1.2615  0.2218 -0.1357
13078SOL    HW239790   1.711   1.087   6.133  1.4963 -1.9334 -0.3733
13079SOL     OW39791   0.415   1.442   2.361  0.5628  0.0341  0.4357
13079SOL    HW139792   0.377   1.360   2.327  0.5898 -0.9957  2.6959
13079SOL    HW239793   0.509   1.433   2.345  0.7117 -0.9511  1.6801
13080SOL     OW39794   1.469   4.751   7.589  0.1905  0.0507  0.7034
13080SOL    HW139795   1.417   4.821   7.629  1.8620  0.5934  2.0871
13080SOL    HW239796   1.560   4.778   7.604  0.9336 -0.3642 -2.4652
13081SOL     OW39797   7.679   4.379   4.677 -0.6879 -0.1511  0.0225
13081SOL    HW139798   7.706   4.357   4.587 -0.1847  0.8570 -0.0810
13081SOL    HW239799   7.748   4.343   4.732  0.7015  2.0049 -0.2117
13082SOL     OW39800   2.568   4.295   6.139  0.1761  0.3017  0.4629
13082SOL    HW139801   2.604   4.370   6.092  0.4690 -0.7474 -1.0543
13082SOL    HW239802   2.496   4.265   6.084 -0.6466  0.1164  1.6080
13083SOL     OW39803   3.493   2.914   4.909 -0.1078  0.3244 -0.4016
13083SOL    HW139804   3.422   2.967   4.944  0.1596  1.1474 -1.0462
13083SOL    HW239805   3.467   2.895   4.819 -1.0273 -2.1860  0.3039
13084SOL     OW39806   3.082   1.806   7.553 -0.6128 -0.3621  0.0836
13084SOL    HW139807   3.108   1.818   7.462  1.5675  1.0089  0.8056
13084SOL    HW239808   3.052   1.892   7.581 -1.1944 -0.7556  0.7107
13085SOL     OW39809   3.218   0.082   3.495 -0.1275 -0.0723 -0.7395
13085SOL    HW139810   3.302   0.044   3.522  0.0738  0.9116  0.0785
13085SOL    HW239811   3.243   0.155   3.438 -0.4953 -0.7555 -1.8159
13086SOL     OW39812   6.869   4.654   6.929 -0.4484 -0.2009  0.2919
13086SOL    HW139813   6.775   4.659   6.948 -0.7223 -0.6309 -0.8701
13086SOL    HW239814   6.902   4.588   6.990 -0.6423  0.8368  1.5671
13087SOL     OW39815   2.367   1.987   6.686  0.2013  0.0496  0.4642
13087SOL    HW139816   2.445   1.978   6.741 -0.4167  0.6507  1.4754
13087SOL    HW239817   2.297   2.007   6.748 -1.0978 -2.1027 -0.2315
13088SOL     OW39818   1.921   7.314   6.366  0.0966  0.2835  0.0782
13088SOL    HW139819   1.951   7.249   6.429 -0.5788  0.6994  0.8405
13088SOL    HW239820   1.923   7.268   6.282 -1.0776 -0.9891  0.7001
13089SOL     OW39821   5.474   2.896   4.637  0.1640 -0.0931 -0.2197
13089SOL    HW139822   5.490   2.955   4.562  0.0491 -0.3227 -0.4265
13089SOL    HW239823   5.453   2.812   4.597 -1.2603  0.1085  0.0429
13090SOL     OW39824   6.622   5.092   5.267 -0.1717 -0.0389 -0.0532
13090SOL    HW139825   6.595   5.007   5.302 -0.6194  1.4845  3.7694
13090SOL    HW239826   6.540   5.137   5.246  0.0330 -0.1239 -1.1357
13091SOL     OW39827   6.929   1.876   3.701 -0.6295 -0.0699  0.0002
13091SOL    HW139828   6.868   1.947   3.721 -0.5640  0.9847 -2.9600
13091SOL    HW239829   7.014   1.920   3.696 -0.4490 -0.5085 -0.9249
13092SOL     OW39830   7.734   2.593   6.143 -0.3003 -0.3035  0.7765
13092SOL    HW139831   7.693   2.668   6.099  1.2452  0.8948  1.2997
13092SOL    HW239832   7.828   2.606   6.130  0.0355 -3.8214 -1.7854
13093SOL     OW39833   6.291   0.389   2.976  0.5984 -0.1263 -0.3046
13093SOL    HW139834   6.281   0.348   2.891 -2.2872  0.0578 -0.1572
13093SOL    HW239835   6.337   0.471   2.958  1.9478 -1.0619 -1.3119
13094SOL     OW39836   3.167   5.423   5.441 -0.0184  0.0170  0.3079
13094SOL    HW139837   3.138   5.472   5.518 -1.4586  0.3113 -0.3916
13094SOL    HW239838   3.262   5.434   5.440 -0.2144  2.1705  0.6025
13095SOL     OW39839   5.911   6.478   4.345  0.0415  0.2957  0.8582
13095SOL    HW139840   5.839   6.534   4.316 -0.5861 -0.7007  0.4507
13095SOL    HW239841   5.978   6.539   4.376 -1.1567  1.2291  1.7040
13096SOL     OW39842   0.232   5.272   3.480  0.2530  0.3738 -0.1296
13096SOL    HW139843   0.173   5.331   3.527  0.4764 -1.1040  2.1905
13096SOL    HW239844   0.295   5.244   3.547  0.8616 -1.5441 -1.4276
13097SOL     OW39845   0.540   2.350   1.151 -0.1354  0.6464  0.1600
13097SOL    HW139846   0.447   2.343   1.130  0.1086  1.5329 -1.3098
13097SOL    HW239847   0.567   2.260   1.169 -1.4623  0.4843  1.5374
13098SOL     OW39848   6.978   7.434   3.123 -0.2475 -0.2403  0.3218
13098SOL    HW139849   6.946   7.366   3.063  3.1061 -1.4881 -0.2333
13098SOL    HW239850   6.981   7.514   3.070 -1.2890 -0.3303  0.0997
13099SOL     OW39851   0.690   5.361   2.292  0.0923  0.2092 -0.2159
13099SOL    HW139852   0.691   5.284   2.236 -0.6498  0.1320 -0.1362
13099SOL    HW239853   0.619   5.344   2.355  0.8840  0.2992  0.7339
13100SOL     OW39854   3.903   2.841   3.846 -0.9251 -0.4401  0.0757
13100SOL    HW139855   3.991   2.804   3.844 -0.8482 -0.2614  0.1934
13100SOL    HW239856   3.848   2.771   3.810 -0.9017 -1.0242  1.1276
13101SOL     OW39857   1.795   2.461   4.042  0.2918  0.5134  0.5444
13101SOL    HW139858   1.769   2.547   4.072  1.5959  0.5398  1.6777
13101SOL    HW239859   1.879   2.475   3.998 -0.7923  0.2237 -1.8010
13102SOL     OW39860   5.011   0.304   1.546  0.6681 -0.1930 -0.1707
13102SOL    HW139861   5.042   0.232   1.600 -1.8567  0.2124  2.0371
13102SOL    HW239862   4.976   0.262   1.468  0.6950 -1.2001  0.3425
13103SOL     OW39863   6.783   4.264   3.429  0.6392  0.4994 -0.1079
13103SOL    HW139864   6.820   4.262   3.517  2.6090  1.1694 -0.8821
13103SOL    HW239865   6.796   4.175   3.396  0.3731  0.3906  0.0713
13104SOL     OW39866   3.900   4.560   7.354  0.2019  0.0992  0.6007
13104SOL    HW139867   3.973   4.526   7.302 -0.2740  1.1551 -0.8063
13104SOL    HW239868   3.854   4.481   7.385  0.3610 -0.5692 -0.7924
13105SOL     OW39869   7.745   4.144   1.716  0.1292 -0.3091 -0.2509
13105SOL    HW139870   7.742   4.085   1.792 -0.0240  0.6310  0.4858
13105SOL    HW239871   7.838   4.167   1.707 -0.1262  1.5936  1.2732
13106SOL     OW39872   1.044   5.304   4.131  0.1614 -0.1870 -0.2580
13106SOL    HW139873   1.098   5.226   4.139 -0.3145 -0.4624  0.3850
13106SOL    HW239874   0.999   5.311   4.215 -0.2514  0.4470 -0.5195
13107SOL     OW39875   6.786   5.885   1.246 -0.6354  0.3185  0.2896
13107SOL    HW139876   6.699   5.846   1.247 -0.6057  0.1364  2.7478
13107SOL    HW239877   6.787   5.944   1.321  0.7286  1.8818 -0.8699
13108SOL     OW39878   6.794   3.526   6.230  0.3700 -0.4556  0.5377
13108SOL    HW139879   6.866   3.481   6.275 -1.0172 -1.8168  1.4999
13108SOL    HW239880   6.783   3.478   6.148  0.4435 -0.3631  0.4739
13109SOL     OW39881   6.844   7.040   1.852 -0.3877 -0.1248  0.0550
13109SOL    HW139882   6.869   6.979   1.783 -0.6756 -1.4355  1.0610
13109SOL    HW239883   6.909   7.027   1.921  0.5538  1.9614 -0.3734
13110SOL     OW39884   1.454   7.634   5.760 -0.1965 -0.0677 -0.2368
13110SOL    HW139885   1.548   7.646   5.744 -0.1237 -1.4119 -0.9633
13110SOL    HW239886   1.451   7.580   5.839 -0.2831 -1.6025 -1.2567
13111SOL     OW39887   7.505   0.447   1.866  0.0661  0.3212 -0.0126
13111SOL    HW139888   7.463   0.453   1.952  0.3283 -2.6299  0.4298
13111SOL    HW239889   7.440   0.404   1.810 -0.1134  2.2269 -1.3813
13112SOL     OW39890   7.686   5.722   4.321  0.1913  0.2939 -0.0251
13112SOL    HW139891   7.726   5.669   4.391 -1.4063  0.0803  0.7794
13112SOL    HW239892   7.744   5.711   4.246  2.2141  0.8751  1.3773
13113SOL     OW39893   6.139   6.371   2.885  0.0327 -0.2788 -0.0025
13113SOL    HW139894   6.064   6.345   2.939  0.5125  0.7835  1.2260
13113SOL    HW239895   6.123   6.463   2.864  1.0296 -0.0151  0.3434
13114SOL     OW39896   0.318   0.706   1.764 -0.0066  0.4075  0.3036
13114SOL    HW139897   0.247   0.673   1.818 -0.0160 -1.2195 -0.6517
13114SOL    HW239898   0.398   0.673   1.805  0.0084 -0.4770 -0.4180
13115SOL     OW39899   0.635   5.158   2.114  0.2084 -0.2859 -0.4582
13115SOL    HW139900   0.551   5.114   2.122 -1.0077  2.0496  0.6410
13115SOL    HW239901   0.639   5.188   2.024 -1.0573  1.2068 -0.0536
13116SOL     OW39902   3.026   2.334   5.363 -0.0185  0.0444  0.7984
13116SOL    HW139903   2.983   2.419   5.371 -1.1639 -0.4938  0.5813
13116SOL    HW239904   2.965   2.281   5.312  0.7616 -0.8610  0.7747
13117SOL     OW39905   0.790   6.586   5.416 -0.0968  0.2943  0.0984
13117SOL    HW139906   0.811   6.540   5.497  1.1320  0.9516  0.1789
13117SOL    HW239907   0.778   6.677   5.442 -0.5619  0.3613 -0.3366
13118SOL     OW39908   5.553   4.732   6.105  0.4753 -0.4060  0.2291
13118SOL    HW139909   5.546   4.637   6.095  0.4473 -0.4677  0.8284
13118SOL    HW239910   5.508   4.751   6.187  0.7202  0.0921  0.2497
13119SOL     OW39911   0.266   6.336   3.810 -0.1419  0.2503  0.3227
13119SOL    HW139912   0.283   6.390   3.887  0.9532  0.9763 -0.3950
13119SOL    HW239913   0.353   6.305   3.783 -0.4302  0.4835 -0.9499
13120SOL     OW39914   3.252   4.091   6.728 -0.6799 -0.3224 -0.3088
13120SOL    HW139915   3.187   4.161   6.718  0.2252  0.3831 -1.4407
13120SOL    HW239916   3.310   4.121   6.797 -0.3502 -0.0010 -0.7255
13121SOL     OW39917   0.503   7.095   0.240  0.4822  0.6996 -0.2315
13121SOL    HW139918   0.536   7.181   0.216  1.7822 -0.1685 -1.7231
13121SOL    HW239919   0.429   7.080   0.180 -1.3389  1.7091  1.6229
13122SOL     OW39920   5.869   6.511   2.773 -0.9148  0.0023 -0.1222
13122SOL    HW139921   5.782   6.540   2.801  0.3857  1.0545  3.3488
13122SOL    HW239922   5.923   6.590   2.777  0.3135 -0.6716 -1.9768
13123SOL     OW39923   5.296   1.555   7.523 -0.4332 -0.0237 -0.3032
13123SOL    HW139924   5.335   1.623   7.577  0.6177  0.3599 -1.4864
13123SOL    HW239925   5.325   1.473   7.562 -0.7427  0.2231  0.4469
13124SOL     OW39926   6.304   4.718   4.162 -0.3171 -0.1543 -0.1859
13124SOL    HW139927   6.285   4.776   4.236 -1.1056  1.3076 -1.4931
13124SOL    HW239928   6.254   4.639   4.180 -0.1313 -0.0133  1.0606
13125SOL     OW39929   5.517   1.028   1.683 -0.0773  0.3731  0.4444
13125SOL    HW139930   5.508   1.096   1.750 -1.7563 -0.8975  1.6069
13125SOL    HW239931   5.443   1.043   1.624  0.0168  0.0665  0.2463
13126SOL     OW39932   4.258   5.521   1.050 -0.1269  0.2512 -0.8631
13126SOL    HW139933   4.255   5.609   1.087  1.2287 -0.0101 -0.0633
13126SOL    HW239934   4.256   5.462   1.125 -1.7531 -0.4474 -1.4173
13127SOL     OW39935   1.000   6.080   6.244  0.4409 -0.2435  0.0075
13127SOL    HW139936   0.957   6.106   6.325  0.0481  2.1017 -0.8478
13127SOL    HW239937   0.968   5.992   6.226  1.1490 -1.1637  2.7304
13128SOL     OW39938   1.765   5.141   1.055  0.2606  0.1559  0.3539
13128SOL    HW139939   1.674   5.172   1.058  0.2435  0.2827 -0.8651
13128SOL    HW239940   1.805   5.177   1.134 -0.2786  1.6643 -0.0173
13129SOL     OW39941   4.311   3.176   4.793  0.2122 -0.3581  0.4276
13129SOL    HW139942   4.291   3.083   4.781  2.2172 -0.5602 -2.1518
13129SOL    HW239943   4.226   3.218   4.803 -0.7106 -2.5518  3.0252
13130SOL     OW39944   4.206   3.363   6.796 -0.2978 -0.2542  0.4235
13130SOL    HW139945   4.230   3.349   6.705 -0.3216 -1.1196  0.5350
13130SOL    HW239946   4.194   3.457   6.805  0.1870 -0.1181 -0.3457
13131SOL     OW39947   6.144   4.472   5.368 -0.1933 -0.3290 -0.3223
13131SOL    HW139948   6.115   4.563   5.377  0.6616  0.3894 -3.6363
13131SOL    HW239949   6.218   4.465   5.428  0.6776  1.6767 -1.0654
13132SOL     OW39950   4.906   6.831   6.350  0.0962  0.4565 -0.4048
13132SOL    HW139951   4.892   6.876   6.434  0.7345 -1.7013  0.9267
13132SOL    HW239952   4.997   6.849   6.328 -0.4804  2.3278 -1.5234
13133SOL     OW39953   0.722   3.870   6.737 -0.4437  0.4701  0.1694
13133SOL    HW139954   0.810   3.856   6.702 -0.6486 -0.0922 -0.1265
13133SOL    HW239955   0.684   3.783   6.744 -0.1235  0.4436  2.5965
13134SOL     OW39956   4.053   0.970   5.570 -0.1867 -0.1088  0.0483
13134SOL    HW139957   4.088   1.059   5.573  1.3148 -0.6619 -0.4984
13134SOL    HW239958   3.961   0.982   5.543 -0.4358  1.3545  1.3851
13135SOL     OW39959   2.564   6.189   5.236 -0.6828  0.0672 -0.5052
13135SOL    HW139960   2.545   6.183   5.143  0.3712 -0.5871 -0.6949
13135SOL    HW239961   2.573   6.098   5.264  1.7212  0.2977 -0.3689
13136SOL     OW39962   5.276   0.916   5.180  0.2961  0.1763  0.4641
13136SOL    HW139963   5.317   1.001   5.163 -1.7128  1.3055  0.8332
13136SOL    HW239964   5.323   0.881   5.256  0.5435  1.4507  0.9232
13137SOL     OW39965   6.524   3.520   6.038 -0.7224  0.3223  0.2188
13137SOL    HW139966   6.499   3.430   6.061 -0.2178  0.3400  0.8703
13137SOL    HW239967   6.479   3.574   6.103  0.5848  0.3853  1.1089
13138SOL     OW39968   4.688   3.452   2.612  0.0576 -0.3135 -0.0929
13138SOL    HW139969   4.662   3.360   2.609 -2.1318  0.1945  1.0863
13138SOL    HW239970   4.608   3.500   2.592  0.9334  1.3520  0.2069
13139SOL     OW39971   6.644   2.246   1.485 -0.6408  0.1867  0.6249
13139SOL    HW139972   6.611   2.253   1.575 -0.6072  0.6747  0.6021
13139SOL    HW239973   6.722   2.301   1.484 -0.4081 -0.1472  0.4036
13140SOL     OW39974   0.784   2.268   6.325 -0.1760  0.5503  0.2754
13140SOL    HW139975   0.691   2.254   6.310  0.0080  1.4279 -2.1890
13140SOL    HW239976   0.798   2.362   6.307  1.4772  0.0140 -1.7309
13141SOL     OW39977   0.792   1.815   4.524  0.1185  0.3353 -0.1728
13141SOL    HW139978   0.757   1.728   4.541  1.3816 -0.1545  0.0282
13141SOL    HW239979   0.729   1.855   4.464 -1.2540 -0.1525  0.8805
13142SOL     OW39980   6.294   0.834   1.911  0.2939  0.7306  0.1367
13142SOL    HW139981   6.316   0.743   1.891 -2.9944 -0.3234  0.6341
13142SOL    HW239982   6.345   0.886   1.849  1.7606 -1.4619 -0.6176
13143SOL     OW39983   3.498   6.590   3.120  0.0671  0.0034 -0.4276
13143SOL    HW139984   3.470   6.504   3.089 -0.4875 -0.3392  0.9456
13143SOL    HW239985   3.533   6.634   3.042  0.1273 -1.3618 -1.1941
13144SOL     OW39986   3.826   5.362   3.087  0.1357  0.6273 -0.2371
13144SOL    HW139987   3.909   5.315   3.098 -0.3056 -0.3816 -1.0461
13144SOL    HW239988   3.772   5.333   3.159  0.6338  1.6804  0.5935
13145SOL     OW39989   7.282   2.006   2.164  0.3807  0.1278  0.1342
13145SOL    HW139990   7.366   2.003   2.119  0.2573 -0.3219 -0.0746
13145SOL    HW239991   7.244   1.919   2.149 -0.6622  0.7179 -0.8257
13146SOL     OW39992   4.714   1.579   2.793  0.1217 -0.5879 -0.7075
13146SOL    HW139993   4.763   1.496   2.800 -1.5031 -1.4581  1.2191
13146SOL    HW239994   4.624   1.552   2.778 -0.6739  0.7467  1.3209
13147SOL     OW39995   5.028   4.647   6.998 -0.2798 -0.8587 -0.1404
13147SOL    HW139996   5.012   4.741   6.992 -1.5743 -0.9161  1.4214
13147SOL    HW239997   5.112   4.640   7.043 -0.2182 -0.4416 -0.1829
13148SOL     OW39998   1.846   2.873   0.286 -0.7373  0.5692 -0.5071
13148SOL    HW139999   1.784   2.873   0.358 -1.6145  0.7860 -1.2419
13148SOL    HW240000   1.794   2.848   0.209  0.0800  0.7425 -1.1359
13149SOL     OW40001   3.675   5.077   3.069 -0.2134  0.2583  0.0559
13149SOL    HW140002   3.640   4.991   3.091 -0.5246  0.2878 -0.3137
13149SOL    HW240003   3.689   5.120   3.153 -0.2646 -0.0713  0.2331
13150SOL     OW40004   6.453   2.932   1.500 -0.3539 -0.0091  0.1734
13150SOL    HW140005   6.484   2.992   1.433  0.2557 -0.4810  0.0276
13150SOL    HW240006   6.456   2.845   1.459  0.6365 -0.3879  1.0046
13151SOL     OW40007   6.919   3.290   2.903  0.0461  0.0137 -0.1201
13151SOL    HW140008   7.008   3.256   2.903 -0.7393 -2.2395 -0.8978
13151SOL    HW240009   6.915   3.349   2.828  0.6743 -0.5545 -0.6126
13152SOL     OW40010   4.865   0.249   6.701  0.2478 -0.1556  0.2187
13152SOL    HW140011   4.816   0.313   6.753 -1.6465 -0.7626 -0.7279
13152SOL    HW240012   4.810   0.233   6.625  1.6045 -1.4643 -0.5402
13153SOL     OW40013   5.264   4.091   5.581  0.2574  0.6971  0.5328
13153SOL    HW140014   5.219   4.042   5.650  0.1722  1.1387  0.7884
13153SOL    HW240015   5.343   4.124   5.623  0.1083  1.1319  0.4727
13154SOL     OW40016   6.034   0.156   0.439 -0.2030  0.1435  0.2856
13154SOL    HW140017   6.045   0.242   0.479 -1.5413  0.1070  0.7980
13154SOL    HW240018   5.941   0.136   0.450  0.1784 -1.6362  0.7508
13155SOL     OW40019   0.331   4.404   0.969  0.5584 -0.2160 -0.1457
13155SOL    HW140020   0.355   4.471   0.905 -0.2405  0.7875  0.5483
13155SOL    HW240021   0.242   4.429   0.996 -0.2753 -2.3067 -0.7939
13156SOL     OW40022   5.715   6.073   0.803 -0.2595  0.1254 -0.0090
13156SOL    HW140023   5.804   6.110   0.802  0.4760 -0.8188  4.8090
13156SOL    HW240024   5.660   6.145   0.832 -0.6685  0.0419 -0.5656
13157SOL     OW40025   3.878   0.449   7.305 -0.3261  0.6599 -0.0791
13157SOL    HW140026   3.824   0.371   7.302 -0.5158  0.8019 -0.3328
13157SOL    HW240027   3.952   0.425   7.362  0.1576 -0.0397 -0.9881
13158SOL     OW40028   1.284   2.570   3.273  0.3491 -0.6083 -0.0975
13158SOL    HW140029   1.205   2.550   3.223  0.0916 -0.5555  0.2847
13158SOL    HW240030   1.309   2.486   3.312  0.8446 -0.7618 -0.7222
13159SOL     OW40031   4.765   7.055   5.241 -0.2337  0.1058 -0.5064
13159SOL    HW140032   4.852   7.093   5.225 -0.5159  1.2256  0.4764
13159SOL    HW240033   4.749   6.999   5.166  1.7032 -0.7932 -0.3070
13160SOL     OW40034   6.444   2.506   2.198 -0.0130  1.0000  0.4420
13160SOL    HW140035   6.396   2.496   2.280 -0.5854  0.1881  0.0172
13160SOL    HW240036   6.498   2.584   2.212  0.7631  0.2323  2.0111
13161SOL     OW40037   1.203   7.253   2.716  0.1307  0.0737  0.1194
13161SOL    HW140038   1.297   7.263   2.731  0.1857  1.4802 -0.9549
13161SOL    HW240039   1.172   7.201   2.790  1.9143 -1.3402 -0.0570
13162SOL     OW40040   6.903   1.935   2.505 -0.5069  0.4439 -0.2791
13162SOL    HW140041   6.938   2.021   2.527  0.6786  0.0714 -0.6567
13162SOL    HW240042   6.885   1.939   2.411  2.4663 -0.6398 -1.0133
13163SOL     OW40043   0.087   4.388   2.843 -0.2056  0.5734 -0.0563
13163SOL    HW140044   0.123   4.408   2.929 -0.8527 -1.1520  0.6660
13163SOL    HW240045   0.162   4.388   2.784  0.7408 -1.0571  1.0548
13164SOL     OW40046   0.085   7.130   1.779 -0.0829  0.3130  0.4088
13164SOL    HW140047   0.030   7.092   1.710 -0.3468  1.4757 -0.0385
13164SOL    HW240048   0.105   7.218   1.749  1.5519  0.1224  0.8569
13165SOL     OW40049   1.230   3.745   1.611 -0.5046  0.5735 -0.3875
13165SOL    HW140050   1.258   3.779   1.696  1.4607  2.1085 -1.5690
13165SOL    HW240051   1.161   3.682   1.633  0.4586  0.3090  2.3903
13166SOL     OW40052   1.195   3.769   4.464  0.3456  0.2039  0.1419
13166SOL    HW140053   1.105   3.736   4.463 -0.4778  2.3211 -1.3336
13166SOL    HW240054   1.239   3.721   4.394 -0.5163  1.2941 -1.1950
13167SOL     OW40055   2.742   3.760   1.328 -0.1541 -0.4221  0.2262
13167SOL    HW140056   2.752   3.764   1.423  1.7809  0.1282  0.0626
13167SOL    HW240057   2.704   3.845   1.305 -0.3627 -0.4442  0.4800
13168SOL     OW40058   0.389   5.896   1.349  0.2353  0.4039  0.2992
13168SOL    HW140059   0.373   5.873   1.257 -1.1981 -0.7777  0.8158
13168SOL    HW240060   0.358   5.821   1.399  2.2173  0.4565  1.7316
13169SOL     OW40061   5.039   0.038   2.582 -0.2841 -0.2716 -0.6726
13169SOL    HW140062   4.988   0.116   2.604 -0.2897  0.4741 -3.0446
13169SOL    HW240063   5.043  -0.012   2.664  0.6930  2.7215  1.2999
13170SOL     OW40064   6.627   6.432   5.766  0.2492  0.0307 -0.0554
13170SOL    HW140065   6.588   6.431   5.854  0.4601 -0.5064  0.0314
13170SOL    HW240066   6.589   6.356   5.722  0.5975 -0.0413 -0.2337
13171SOL     OW40067   3.197   4.995   1.493 -0.4192 -0.3254 -0.0744
13171SOL    HW140068   3.127   4.992   1.427 -0.8187  0.9472  0.2670
13171SOL    HW240069   3.278   4.996   1.442 -0.6652 -0.9387 -0.4948
13172SOL     OW40070   4.340   0.291   5.501  0.1365 -0.4915 -0.0638
13172SOL    HW140071   4.379   0.340   5.429 -0.6710 -1.8902 -1.5192
13172SOL    HW240072   4.294   0.219   5.458 -1.8944 -0.3480  1.7610
13173SOL     OW40073   3.395   6.487   3.468 -0.4290  0.3210 -0.1068
13173SOL    HW140074   3.485   6.455   3.466 -1.2568 -2.2085 -1.1309
13173SOL    HW240075   3.399   6.572   3.424  1.4759  0.4178  0.1479
13174SOL     OW40076   1.427   2.224   0.591 -0.3344 -0.0641  0.1265
13174SOL    HW140077   1.426   2.226   0.686  1.4996 -0.1121  0.1748
13174SOL    HW240078   1.357   2.163   0.567 -2.6889  1.9960  1.2959
13175SOL     OW40079   3.065   4.570   6.850 -0.0428 -0.3306  0.5473
13175SOL    HW140080   3.120   4.508   6.897 -0.0979 -0.2153  0.7672
13175SOL    HW240081   2.984   4.573   6.901  0.3468  0.7107  1.1321
13176SOL     OW40082   2.117   5.141   1.843  0.5107 -0.0336  0.2424
13176SOL    HW140083   2.099   5.226   1.885 -0.4714  0.7055 -1.5473
13176SOL    HW240084   2.210   5.143   1.823  0.6334  0.3338  0.8337
13177SOL     OW40085   0.739   4.698   1.652 -0.0408 -0.3748  0.4090
13177SOL    HW140086   0.649   4.699   1.619  0.4036  0.6000 -0.8875
13177SOL    HW240087   0.746   4.617   1.703 -2.1842  0.4464  2.1437
13178SOL     OW40088   2.271   1.437   7.510  1.0158 -0.0520  0.5115
13178SOL    HW140089   2.181   1.433   7.542  1.0008 -0.7888  0.4068
13178SOL    HW240090   2.292   1.530   7.507 -0.4417  0.2913 -1.3657
13179SOL     OW40091   4.982   4.292   1.406 -0.7886  0.0147  0.1538
13179SOL    HW140092   5.048   4.318   1.342 -1.3742  0.6758 -0.1970
13179SOL    HW240093   4.906   4.346   1.385 -1.9269 -1.6953 -0.3633
13180SOL     OW40094   3.274   0.781   7.059  0.3895  0.1360 -0.2699
13180SOL    HW140095   3.305   0.691   7.060  2.4713  0.7157  3.0307
13180SOL    HW240096   3.185   0.777   7.093  0.4740 -0.6767 -0.1406
13181SOL     OW40097   0.463   5.770   2.998  0.3812  0.4774  0.0023
13181SOL    HW140098   0.372   5.744   3.014  0.4956 -0.9850 -1.4545
13181SOL    HW240099   0.462   5.866   3.004 -0.9132  0.4105  1.5211
13182SOL     OW40100   1.342   2.779   3.449 -0.2181  0.5568 -0.7746
13182SOL    HW140101   1.307   2.693   3.425 -1.1520  1.0523 -1.2445
13182SOL    HW240102   1.269   2.824   3.491  0.0133  1.4007 -1.2503
13183SOL     OW40103   4.439   2.583   0.911  0.3038 -0.3118  1.0950
13183SOL    HW140104   4.459   2.615   0.998 -1.6582  1.1176  1.0829
13183SOL    HW240105   4.439   2.661   0.855 -1.1797 -0.7656  0.3903
13184SOL     OW40106   1.378   1.244   2.939  0.0971  0.6249 -0.0957
13184SOL    HW140107   1.415   1.316   2.889  1.2805  1.2510  1.5680
13184SOL    HW240108   1.301   1.281   2.982 -1.4930 -0.1708 -2.0891
13185SOL     OW40109   2.946   0.090   0.118 -0.8655  0.2277  0.3564
13185SOL    HW140110   3.015   0.024   0.129  0.7930  1.9397  0.8196
13185SOL    HW240111   2.865   0.043   0.138  0.3603 -1.2969  2.2230
13186SOL     OW40112   4.259   1.741   5.438 -0.7319  0.2920  0.4553
13186SOL    HW140113   4.171   1.738   5.401 -1.0053 -1.4203  1.1401
13186SOL    HW240114   4.245   1.759   5.531 -0.4445 -0.8245  0.7328
13187SOL     OW40115   1.178   2.125   3.463 -0.0833 -0.4059  0.1176
13187SOL    HW140116   1.085   2.134   3.442 -0.2123 -0.6472  0.5713
13187SOL    HW240117   1.200   2.036   3.438 -0.3458 -0.8446  1.3625
13188SOL     OW40118   0.336   7.449   3.348  0.2976 -0.0292  0.2292
13188SOL    HW140119   0.272   7.520   3.340  1.9993  1.5865  0.3593
13188SOL    HW240120   0.309   7.385   3.282 -0.8209  1.0997 -0.4422
13189SOL     OW40121   3.668   5.666   4.405  0.0483  0.0725  0.5823
13189SOL    HW140122   3.735   5.690   4.341 -0.2809  3.1129  1.2065
13189SOL    HW240123   3.588   5.708   4.373 -1.1198 -1.8193  0.8959
13190SOL     OW40124   2.472   6.834   5.163 -0.1021 -0.3394  0.3234
13190SOL    HW140125   2.502   6.746   5.188 -2.5190 -1.3161  0.0947
13190SOL    HW240126   2.422   6.819   5.083 -0.3394  1.3142  0.1437
13191SOL     OW40127   2.064   4.545   2.579 -0.2400  0.1853 -0.2415
13191SOL    HW140128   2.073   4.450   2.580  1.1997  0.2759 -1.3801
13191SOL    HW240129   2.115   4.575   2.655  1.5808  0.1565 -1.3879
13192SOL     OW40130   3.849   2.757   0.889  0.0089  0.2189  0.5568
13192SOL    HW140131   3.764   2.773   0.929  0.0734  1.1863  0.3404
13192SOL    HW240132   3.896   2.704   0.953 -0.2721  0.8336  1.2863
13193SOL     OW40133   4.029   6.709   4.084 -0.7901  0.2384 -0.0721
13193SOL    HW140134   4.052   6.773   4.016  1.3220  0.1249  0.4666
13193SOL    HW240135   4.113   6.680   4.119 -1.7796 -1.0233  1.3941
13194SOL     OW40136   3.498   2.011   4.645 -0.4058 -0.3430  0.2255
13194SOL    HW140137   3.507   2.095   4.602  0.3118 -1.2133 -1.4235
13194SOL    HW240138   3.462   2.031   4.732  2.0935  1.8979  0.8665
13195SOL     OW40139   5.798   5.138   2.431  0.1096 -0.2522 -0.2517
13195SOL    HW140140   5.725   5.093   2.388  0.9626 -0.5122 -1.4838
13195SOL    HW240141   5.846   5.180   2.359  1.4397 -0.4837  0.4627
13196SOL     OW40142   2.781   6.348   4.850 -0.7769  0.2798  0.3312
13196SOL    HW140143   2.720   6.421   4.836 -0.5090  1.0163  2.5696
13196SOL    HW240144   2.725   6.275   4.877 -0.9196  0.0516 -0.5598
13197SOL     OW40145   1.303   6.676   6.879 -0.2242  0.3228 -0.0180
13197SOL    HW140146   1.215   6.676   6.841 -0.2920  1.1414  0.1175
13197SOL    HW240147   1.321   6.585   6.900 -1.1457  0.1842  0.1894
13198SOL     OW40148   6.208   4.807   7.098 -0.0465  0.2775  0.3403
13198SOL    HW140149   6.228   4.742   7.030  0.5845 -0.3000  1.0567
13198SOL    HW240150   6.230   4.891   7.058  0.6402 -0.0856 -0.0719
13199SOL     OW40151   1.709   4.729   4.918 -0.1915 -0.0328  0.3407
13199SOL    HW140152   1.652   4.724   4.995  0.5809  1.7965  1.0980
13199SOL    HW240153   1.660   4.687   4.848 -0.8149 -1.9939  1.8854
13200SOL     OW40154   4.323   3.070   2.824 -0.3607 -0.4306 -0.5811
13200SOL    HW140155   4.382   3.087   2.897 -0.9110 -1.6413  0.1766
13200SOL    HW240156   4.254   3.137   2.833  0.9015  1.0839 -1.5614
13201SOL     OW40157   5.535   4.139   1.302 -0.6305 -0.1652  0.9298
13201SOL    HW140158   5.529   4.129   1.207 -1.1343  0.9679  0.8282
13201SOL    HW240159   5.506   4.055   1.337 -3.1105  0.2763  0.1249
13202SOL     OW40160   3.786   2.781   5.338  0.2486  0.0886 -0.0132
13202SOL    HW140161   3.771   2.697   5.295 -0.6445 -0.2155  0.8506
13202SOL    HW240162   3.807   2.759   5.428  1.1482  0.7564 -0.0433
13203SOL     OW40163   1.578   3.683   5.107 -0.3488 -0.1692 -0.3397
13203SOL    HW140164   1.601   3.762   5.156  1.6081  0.0715 -1.4977
13203SOL    HW240165   1.500   3.707   5.058 -0.6136  0.5601  0.4213
13204SOL     OW40166   4.035   0.997   7.663 -0.1398  0.0448 -0.2592
13204SOL    HW140167   4.028   0.911   7.705 -0.2918 -0.0606 -0.5024
13204SOL    HW240168   3.963   1.048   7.701  0.0754  0.1328  0.0396
13205SOL     OW40169   1.700   3.458   0.712  0.2906 -0.1070 -0.4485
13205SOL    HW140170   1.766   3.484   0.776 -0.9815  1.6109  0.2264
13205SOL    HW240171   1.717   3.365   0.698  1.5532 -0.1931  1.2358
13206SOL     OW40172   5.106   3.817   5.316 -0.5287  0.2194 -0.1402
13206SOL    HW140173   5.102   3.881   5.245  0.8694  0.1252 -0.3308
13206SOL    HW240174   5.121   3.733   5.273  0.7937  0.2223  0.2629
13207SOL     OW40175   3.663   6.847   1.773 -0.1684 -0.2990  0.2622
13207SOL    HW140176   3.701   6.900   1.702 -0.5645  0.3870  0.5525
13207SOL    HW240177   3.721   6.771   1.779  0.6138  0.2608  0.0564
13208SOL     OW40178   1.840   4.562   6.604 -0.4021  0.3445 -0.1069
13208SOL    HW140179   1.836   4.470   6.579 -1.4432  0.4001 -0.1705
13208SOL    HW240180   1.776   4.605   6.549  0.3220  1.1790 -0.3193
13209SOL     OW40181   2.287   4.186   5.704  0.0303 -0.5511 -0.3571
13209SOL    HW140182   2.374   4.211   5.673 -0.1897  0.0544 -0.5220
13209SOL    HW240183   2.283   4.217   5.794 -0.3210  0.2351 -0.6303
13210SOL     OW40184   4.603   1.682   3.373 -0.0662  0.0015 -0.1032
13210SOL    HW140185   4.683   1.635   3.393  0.1543 -0.4153 -1.8244
13210SOL    HW240186   4.626   1.774   3.386 -0.6904 -0.2262  3.9415
13211SOL     OW40187   2.363   1.395   1.954  0.2019 -0.4275  0.1111
13211SOL    HW140188   2.416   1.461   1.999 -0.1365 -1.1765  1.6952
13211SOL    HW240189   2.410   1.313   1.969  0.3794 -0.6375 -1.4458
13212SOL     OW40190   3.100   1.059   1.213  0.0572  0.0351 -0.3167
13212SOL    HW140191   3.107   1.038   1.306  1.0967  0.1210 -0.3635
13212SOL    HW240192   3.140   1.145   1.205 -1.4135  0.7294 -0.6192
13213SOL     OW40193   2.860   6.857   6.244 -0.2725  0.2479  0.4191
13213SOL    HW140194   2.782   6.894   6.203  0.2741  0.5879 -0.3405
13213SOL    HW240195   2.879   6.778   6.194  0.4743  0.7346 -0.0803
13214SOL     OW40196   6.997   3.456   4.181  0.8998  0.1954 -0.1406
13214SOL    HW140197   7.042   3.526   4.228  1.2964  0.6247 -1.1203
13214SOL    HW240198   6.906   3.461   4.211  0.6840  1.8406 -0.9536
13215SOL     OW40199   3.777   4.601   1.473 -0.8247 -0.0217  0.0723
13215SOL    HW140200   3.861   4.601   1.427 -0.9498 -0.9068 -0.1815
13215SOL    HW240201   3.799   4.614   1.565 -0.4716  0.4904 -0.0802
13216SOL     OW40202   5.626   0.674   3.454 -0.4136  0.5951  0.1002
13216SOL    HW140203   5.687   0.607   3.423 -1.9849 -0.7798 -0.1458
13216SOL    HW240204   5.565   0.688   3.382 -0.5676  1.7565  0.4278
13217SOL     OW40205   4.928   6.009   7.305  0.4131 -0.7965  0.1063
13217SOL    HW140206   4.930   5.979   7.214  2.7935 -0.9939  0.1620
13217SOL    HW240207   4.860   5.956   7.347 -0.7633 -0.6666 -1.5239
13218SOL     OW40208   1.935   6.842   2.356  0.0865  0.5059  0.0227
13218SOL    HW140209   1.943   6.881   2.269 -0.5375  0.5285 -0.0306
13218SOL    HW240210   1.877   6.767   2.344 -0.8713  1.1147  0.5879
13219SOL     OW40211   2.205   5.685   1.103  0.6231  0.1772  0.1883
13219SOL    HW140212   2.190   5.778   1.087  1.4848  0.5106  1.2046
13219SOL    HW240213   2.207   5.678   1.199 -2.1815 -1.3446  0.2583
13220SOL     OW40214   1.938   6.935   7.494  0.7109  0.0461 -0.2441
13220SOL    HW140215   1.851   6.949   7.456  1.2078  0.5658 -1.2535
13220SOL    HW240216   1.926   6.946   7.588 -0.7178 -1.9977 -0.1178
13221SOL     OW40217   1.567   3.764   5.392 -0.1028  0.1614  0.5282
13221SOL    HW140218   1.657   3.735   5.406  0.0674  0.4709  0.1110
13221SOL    HW240219   1.517   3.683   5.381  0.0434 -0.0214  1.2161
13222SOL     OW40220   0.866   2.258   7.350 -0.1822  0.0681  0.0769
13222SOL    HW140221   0.943   2.313   7.359  0.7324 -1.0174 -0.7893
13222SOL    HW240222   0.867   2.201   7.427  0.3021 -0.4279 -0.2877
13223SOL     OW40223   3.239   4.646   7.256 -0.7411 -0.1334 -0.6947
13223SOL    HW140224   3.286   4.661   7.174  0.7044 -1.7976 -0.2209
13223SOL    HW240225   3.198   4.730   7.276  0.3403  0.7933 -2.2060
13224SOL     OW40226   2.153   1.176   5.382  0.1472  0.1197  0.3477
13224SOL    HW140227   2.087   1.111   5.408 -0.0525  0.2069  0.0613
13224SOL    HW240228   2.217   1.174   5.453  0.2222 -0.4968  0.2746
13225SOL     OW40229   1.099   4.758   4.358 -0.1530 -0.3630  0.1600
13225SOL    HW140230   1.041   4.786   4.287  0.0189 -0.3290  0.0316
13225SOL    HW240231   1.069   4.670   4.381  1.2875 -1.3817 -1.5878
13226SOL     OW40232   3.310   3.743   2.032  0.2188  0.1121 -0.9011
13226SOL    HW140233   3.239   3.799   2.001 -0.9577  0.9135  2.7668
13226SOL    HW240234   3.267   3.661   2.056  1.6131 -1.8208 -4.2125
13227SOL     OW40235   6.473   4.452   2.308  0.4622  0.1577 -0.1091
13227SOL    HW140236   6.530   4.483   2.238 -0.1103 -1.3209 -1.2739
13227SOL    HW240237   6.494   4.359   2.316  1.2210  0.4671  2.3897
13228SOL     OW40238   2.650   1.737   2.993  0.6006 -0.3264 -0.4107
13228SOL    HW140239   2.629   1.662   3.050  0.4108 -0.2446 -0.3725
13228SOL    HW240240   2.712   1.789   3.045 -0.9023  0.6804  0.4734
13229SOL     OW40241   4.859   2.340   1.920 -0.5973 -0.5084  0.2706
13229SOL    HW140242   4.939   2.293   1.900 -0.6333 -1.1795  1.6248
13229SOL    HW240243   4.867   2.365   2.012 -1.9707 -0.6680  0.4645
13230SOL     OW40244   7.318   6.844   6.800 -0.3191 -0.1443 -0.6638
13230SOL    HW140245   7.257   6.824   6.728 -0.8844 -0.3312 -0.1453
13230SOL    HW240246   7.261   6.871   6.872  0.2634  0.4364 -0.4063
13231SOL     OW40247   6.711   0.559   2.696 -0.0262  0.2294 -0.1177
13231SOL    HW140248   6.747   0.626   2.639 -0.8390  0.2638 -0.6059
13231SOL    HW240249   6.785   0.502   2.717  0.3704  0.4599 -0.8654
13232SOL     OW40250   1.047   2.125   7.616  0.6748  0.2201 -0.0790
13232SOL    HW140251   0.952   2.119   7.628  0.7193 -1.5798 -0.3931
13232SOL    HW240252   1.064   2.078   7.534  2.0269 -1.1410  0.9357
13233SOL     OW40253   5.568   4.324   0.151  0.1663 -0.0730  0.3552
13233SOL    HW140254   5.553   4.248   0.208  2.5765  0.3020  1.6237
13233SOL    HW240255   5.486   4.373   0.154 -0.8959 -1.7829  0.7779
13234SOL     OW40256   7.157   7.283   0.102 -0.2901 -0.3641  0.0015
13234SOL    HW140257   7.125   7.320   0.185  0.1127 -1.9403  0.9174
13234SOL    HW240258   7.244   7.320   0.091 -1.2320  1.7270 -1.0190
13235SOL     OW40259   5.166   3.225   2.413 -0.3498 -0.4152  0.2248
13235SOL    HW140260   5.257   3.229   2.442 -0.2298  0.9534 -0.2877
13235SOL    HW240261   5.115   3.242   2.493 -0.1017  0.3853  0.2238
13236SOL     OW40262   6.236   2.841   3.535 -0.2298  0.0477  0.0956
13236SOL    HW140263   6.239   2.848   3.439  0.5884  1.4280  0.2037
13236SOL    HW240264   6.158   2.891   3.560  0.4933  1.1629  0.2326
13237SOL     OW40265   3.735   0.493   1.486  0.2041  0.0278  0.0716
13237SOL    HW140266   3.669   0.525   1.425  0.0341  2.2424  1.3270
13237SOL    HW240267   3.741   0.399   1.468 -1.6926  0.1616 -1.5488
13238SOL     OW40268   0.811   4.468   4.594 -0.2700 -0.0938 -0.1095
13238SOL    HW140269   0.765   4.552   4.584  1.1870  0.6268 -1.1318
13238SOL    HW240270   0.788   4.419   4.516  0.5840  0.2295 -0.5761
13239SOL     OW40271   7.458   2.282   5.354  0.1984 -0.5868 -0.1757
13239SOL    HW140272   7.462   2.352   5.419  1.5395 -0.3327 -0.4969
13239SOL    HW240273   7.378   2.300   5.305  0.7615  1.0326 -0.5678
13240SOL     OW40274   7.741   7.390   6.604  0.2462 -0.0342  0.4089
13240SOL    HW140275   7.781   7.425   6.684  0.5654 -0.1175  0.2896
13240SOL    HW240276   7.816   7.371   6.547  0.2484 -3.0526  1.2908
13241SOL     OW40277   5.099   6.513   2.780 -0.2877  0.1349 -0.1686
13241SOL    HW140278   5.118   6.607   2.777 -1.7335  0.4634 -0.0650
13241SOL    HW240279   5.160   6.474   2.717  0.4258  1.1180 -0.1124
13242SOL     OW40280   4.399   4.540   0.279  0.6592  0.4789  0.1697
13242SOL    HW140281   4.355   4.595   0.214 -1.7087 -0.3042  1.0047
13242SOL    HW240282   4.364   4.570   0.363  1.4662 -0.4624  0.8642
13243SOL     OW40283   0.778   4.732   2.653  0.2491  0.0676 -0.1381
13243SOL    HW140284   0.727   4.813   2.643 -2.8464 -1.8254 -1.3172
13243SOL    HW240285   0.768   4.708   2.745 -0.8592 -0.1475 -0.3014
13244SOL     OW40286   6.648   4.726   1.636 -0.0247 -0.4824 -0.1798
13244SOL    HW140287   6.684   4.754   1.552  0.2364  0.5792  0.2682
13244SOL    HW240288   6.596   4.801   1.666  0.6454 -0.4722  1.0294
13245SOL     OW40289   1.081   5.727   3.274 -0.0870  0.1864  0.1242
13245SOL    HW140290   1.003   5.775   3.301  0.3078  1.2237 -0.5368
13245SOL    HW240291   1.052   5.677   3.197 -0.6921 -1.2620  1.2381
13246SOL     OW40292   7.143   6.197   0.979  0.2784 -0.0831 -0.2433
13246SOL    HW140293   7.101   6.275   0.942  0.8633  0.4611  0.1990
13246SOL    HW240294   7.161   6.141   0.904 -0.6837 -0.0633 -0.5045
13247SOL     OW40295   4.995   0.076   1.712 -0.3782  0.0915  0.3971
13247SOL    HW140296   5.090   0.072   1.702 -0.1484  0.5123  2.0957
13247SOL    HW240297   4.982   0.121   1.796 -2.0652 -0.7672  0.6292
13248SOL     OW40298   5.627   2.505   0.220  0.2998 -0.2897  0.0588
13248SOL    HW140299   5.650   2.598   0.221 -0.3455 -0.1247  0.5858
13248SOL    HW240300   5.634   2.479   0.128  0.8670  0.1742 -0.0353
13249SOL     OW40301   0.293   7.474   5.474  0.7053  0.2033 -0.5026
13249SOL    HW140302   0.340   7.554   5.449  0.3091  0.1534 -1.4554
13249SOL    HW240303   0.204   7.487   5.442  0.0796  0.2129  1.1162
13250SOL     OW40304   4.914   4.094   3.880 -0.0679  0.5450  0.5067
13250SOL    HW140305   4.929   4.124   3.790  1.9556 -3.7495 -0.8499
13250SOL    HW240306   4.822   4.114   3.896 -1.1999 -0.5234 -3.4656
13251SOL     OW40307   3.911   7.608   0.917 -0.1565 -0.0962  0.0774
13251SOL    HW140308   3.888   7.515   0.907  0.1722 -0.2313  0.5480
13251SOL    HW240309   3.844   7.643   0.976 -0.5287  0.0701 -0.4356
13252SOL     OW40310   0.915   3.464   6.892 -0.3555 -0.0770  0.2653
13252SOL    HW140311   0.992   3.518   6.911 -0.6997  0.6563 -0.3523
13252SOL    HW240312   0.851   3.488   6.959 -0.0213 -0.7736  0.8513
13253SOL     OW40313   7.576   3.951   7.634  0.0305  0.3981  0.3862
13253SOL    HW140314   7.592   3.949   7.540 -0.6086 -1.6987  0.2700
13253SOL    HW240315   7.554   3.860   7.657  1.0675  0.6540  2.7220
13254SOL     OW40316   5.798   7.101   5.206 -0.7505  0.1300 -0.3384
13254SOL    HW140317   5.846   7.118   5.125 -1.2745  1.1489 -0.4424
13254SOL    HW240318   5.774   7.008   5.201  1.7404 -0.6220  0.0070
13255SOL     OW40319   6.426   7.612   0.068  0.4112  0.1848  0.0905
13255SOL    HW140320   6.343   7.580   0.033 -0.9872  1.0455  2.3864
13255SOL    HW240321   6.468   7.655  -0.007  0.4173 -3.0919 -1.9741
13256SOL     OW40322   6.795   1.732   7.467 -0.2069 -0.0222  0.3647
13256SOL    HW140323   6.759   1.821   7.469 -0.2136 -0.0060  2.8289
13256SOL    HW240324   6.790   1.707   7.375 -2.4000  1.6440 -0.0833
13257SOL     OW40325   6.725   5.728   3.728  0.1217 -0.4662  0.4164
13257SOL    HW140326   6.764   5.787   3.793  0.9291 -0.6755  0.1322
13257SOL    HW240327   6.653   5.686   3.774 -0.7492  1.0533  0.4999
13258SOL     OW40328   5.647   2.160   1.027 -0.4628  0.2133 -0.1501
13258SOL    HW140329   5.670   2.068   1.038  1.4157  0.6656  0.0796
13258SOL    HW240330   5.551   2.162   1.030 -0.5101 -1.6353  0.5161
13259SOL     OW40331   0.041   5.799   0.748  0.0336 -0.1185  0.2107
13259SOL    HW140332  -0.038   5.753   0.774 -0.4065 -0.8522 -2.1867
13259SOL    HW240333   0.113   5.742   0.776 -0.4575 -1.5597 -1.3680
13260SOL     OW40334   1.372   2.719   1.667  0.0073 -0.0393 -0.0814
13260SOL    HW140335   1.365   2.632   1.628  1.0431  0.0581 -0.5185
13260SOL    HW240336   1.296   2.767   1.633 -0.1264 -0.5314 -0.4782
13261SOL     OW40337   5.252   6.540   0.874  0.4668  0.1205 -0.1108
13261SOL    HW140338   5.188   6.475   0.902  0.8410 -0.9602 -1.6367
13261SOL    HW240339   5.319   6.539   0.943  0.5089 -1.1838 -0.1455
13262SOL     OW40340   2.730   7.029   2.530  0.4047  0.4633 -0.1384
13262SOL    HW140341   2.815   7.022   2.573  0.7673  3.3321 -0.1620
13262SOL    HW240342   2.673   7.067   2.596 -0.4577  0.0315 -0.6155
13263SOL     OW40343   2.391   1.345   7.257  0.2483 -0.9507  0.2985
13263SOL    HW140344   2.379   1.264   7.207  0.2687 -0.7613 -0.0171
13263SOL    HW240345   2.358   1.324   7.344 -0.4861 -1.0616  0.0043
13264SOL     OW40346   0.365   6.825   7.582 -0.0166 -0.6305  0.1999
13264SOL    HW140347   0.394   6.885   7.650  1.9106  1.0092 -1.9017
13264SOL    HW240348   0.442   6.772   7.562 -0.5375 -1.0751 -0.7092
13265SOL     OW40349   5.939   3.071   3.299 -0.3081  0.1586  0.6138
13265SOL    HW140350   5.844   3.077   3.299 -0.2894  0.6999  1.7903
13265SOL    HW240351   5.969   3.162   3.309  0.3407  0.0123  0.0903
13266SOL     OW40352   5.705   1.317   3.812  0.0967 -0.2590 -0.2758
13266SOL    HW140353   5.778   1.258   3.792  1.2566  0.4531  1.5700
13266SOL    HW240354   5.743   1.384   3.868 -1.9464  0.2739  0.5644
13267SOL     OW40355   4.720   4.864   1.390  0.1868 -0.0004 -0.0879
13267SOL    HW140356   4.764   4.948   1.375 -0.8322  0.8452  1.4751
13267SOL    HW240357   4.751   4.836   1.476 -0.3179 -0.7122 -0.1311
13268SOL     OW40358   4.560   0.414   7.133  0.1929  0.7097  0.6146
13268SOL    HW140359   4.492   0.430   7.199  0.6656  0.2644  1.2241
13268SOL    HW240360   4.517   0.360   7.066 -0.4428  1.6174  0.2785
13269SOL     OW40361   2.344   4.168   1.590 -0.6746  0.2299 -0.1539
13269SOL    HW140362   2.429   4.140   1.554 -0.1547  0.8010  0.6108
13269SOL    HW240363   2.338   4.123   1.674 -0.8236  0.7200  0.0978
13270SOL     OW40364   1.062   0.451   0.323  0.1759 -0.3279 -0.0267
13270SOL    HW140365   1.127   0.430   0.390  0.3890 -0.2545 -0.2057
13270SOL    HW240366   1.021   0.531   0.353  1.1871  0.4418 -0.6164
13271SOL     OW40367   3.574   5.312   2.374  0.0473  0.0283  0.0846
13271SOL    HW140368   3.507   5.354   2.320  0.6754  1.5697  0.4532
13271SOL    HW240369   3.630   5.384   2.403  1.5019 -1.1358  0.2976
13272SOL     OW40370   3.638   1.655   2.631 -0.6194 -0.1473 -0.3139
13272SOL    HW140371   3.583   1.659   2.709  0.4152  0.6483  0.3986
13272SOL    HW240372   3.721   1.619   2.663  0.0422  0.8205 -0.8955
13273SOL     OW40373   7.683   5.355   5.444 -0.0659  0.4350 -0.5612
13273SOL    HW140374   7.684   5.274   5.393  2.5830  0.2768 -0.3735
13273SOL    HW240375   7.626   5.336   5.519 -0.4760 -0.8114 -1.1616
13274SOL     OW40376   5.337   7.350   6.050 -0.0599 -0.2590 -0.2440
13274SOL    HW140377   5.354   7.358   6.143  1.0498  1.0003 -0.5194
13274SOL    HW240378   5.276   7.421   6.030  0.7367  0.3308 -0.6784
13275SOL     OW40379   0.667   6.294   4.435  0.1197  0.3375 -0.9016
13275SOL    HW140380   0.747   6.331   4.473  0.8148  0.4906 -2.4353
13275SOL    HW240381   0.620   6.370   4.401 -0.4464  0.1885 -0.4740
13276SOL     OW40382   3.428   5.802   5.192  0.1441  0.1060  0.4407
13276SOL    HW140383   3.420   5.799   5.287  0.9114  0.1405  0.5125
13276SOL    HW240384   3.474   5.885   5.175 -0.7393  0.5161 -0.0175
13277SOL     OW40385   4.021   2.884   5.201 -0.0721 -0.2563 -0.1946
13277SOL    HW140386   3.960   2.838   5.259 -2.6727  0.0030 -2.5423
13277SOL    HW240387   4.036   2.968   5.244 -1.2661 -0.3925  0.5306
13278SOL     OW40388   2.278   4.133   4.580  0.4361  0.5931  0.4066
13278SOL    HW140389   2.333   4.064   4.543 -0.2462  0.8972 -1.2793
13278SOL    HW240390   2.192   4.092   4.591 -0.0061  1.1764 -0.7180
13279SOL     OW40391   0.830   3.835   3.217  0.0843 -0.0455 -0.0327
13279SOL    HW140392   0.849   3.752   3.173  2.3171  0.2760  0.1910
13279SOL    HW240393   0.824   3.812   3.310  0.1521 -0.0321 -0.0251
13280SOL     OW40394   7.539   6.443   2.812 -0.2482  0.3795  0.4705
13280SOL    HW140395   7.559   6.384   2.885 -0.4193 -2.4813 -1.6663
13280SOL    HW240396   7.444   6.436   2.800 -0.2536  1.0057  0.0949
13281SOL     OW40397   6.443   6.017   4.949 -0.1098 -0.0527  0.1879
13281SOL    HW140398   6.500   6.092   4.936  0.6247 -0.6487 -0.1273
13281SOL    HW240399   6.500   5.941   4.937 -1.1777 -0.6898 -1.1569
13282SOL     OW40400   0.061   7.246   7.695 -0.3415  0.2000  0.0821
13282SOL    HW140401  -0.006   7.298   7.651  0.7884  0.1977 -1.7591
13282SOL    HW240402   0.089   7.183   7.629  1.7857  0.4964  0.6270
13283SOL     OW40403   6.076   3.534   4.295 -0.4991  0.0102 -0.0731
13283SOL    HW140404   6.094   3.619   4.336 -1.9446  1.1338 -1.6653
13283SOL    HW240405   6.017   3.554   4.223  0.9877 -2.0341 -1.9887
13284SOL     OW40406   6.208   7.164   5.304  0.2042 -0.1298 -0.1533
13284SOL    HW140407   6.121   7.188   5.271 -0.1203 -2.5752 -1.2578
13284SOL    HW240408   6.195   7.151   5.398 -0.6141 -0.4345 -0.3016
13285SOL     OW40409   7.331   1.566   0.521 -0.1627  0.0747 -0.3550
13285SOL    HW140410   7.389   1.573   0.445 -0.1477  0.2742 -0.3229
13285SOL    HW240411   7.327   1.472   0.539  1.0354  0.1438  0.3423
13286SOL     OW40412   3.838   5.773   4.227 -0.3287  0.1354  0.1744
13286SOL    HW140413   3.929   5.746   4.242 -0.3683  1.0039  2.4824
13286SOL    HW240414   3.841   5.821   4.144  1.2788 -0.0508  0.0813
13287SOL     OW40415   4.490   4.341   5.582  0.6650 -0.1194 -0.7999
13287SOL    HW140416   4.449   4.404   5.641  0.9898  0.0136 -0.7088
13287SOL    HW240417   4.418   4.303   5.532  0.1230 -1.8889  1.2109
13288SOL     OW40418   3.557   7.609   5.558  0.2875  0.1276 -0.0323
13288SOL    HW140419   3.469   7.571   5.553 -0.6920  2.1668  0.6752
13288SOL    HW240420   3.577   7.612   5.652  2.1765 -2.4789 -0.2569
13289SOL     OW40421   4.205   1.367   1.486 -0.2178  0.2027 -0.3046
13289SOL    HW140422   4.222   1.284   1.441  0.6661  0.6247 -0.7799
13289SOL    HW240423   4.120   1.355   1.527  0.3638 -1.3447  0.5525
13290SOL     OW40424   0.628   4.957   2.595  0.0071 -0.5021 -0.2932
13290SOL    HW140425   0.534   4.969   2.582  0.4668  0.1873 -4.1355
13290SOL    HW240426   0.665   5.045   2.587  1.0480 -0.7706  1.1008
13291SOL     OW40427   0.378   7.727   5.245 -0.1900 -0.0957  0.0843
13291SOL    HW140428   0.472   7.710   5.244 -0.2031 -0.7753  2.8802
13291SOL    HW240429   0.370   7.823   5.248  0.3776 -0.0267 -0.4983
13292SOL     OW40430   5.907   4.126   1.040  0.2803  0.5398  0.1071
13292SOL    HW140431   5.864   4.135   1.126  0.4370 -1.6044  0.4661
13292SOL    HW240432   5.982   4.185   1.045 -1.1962  2.5054  0.3802
13293SOL     OW40433   0.414   5.515   3.884 -0.2000  0.3720 -0.2185
13293SOL    HW140434   0.426   5.429   3.924  0.6851 -0.1053 -1.4223
13293SOL    HW240435   0.475   5.572   3.931  1.8436 -0.4799 -1.6504
13294SOL     OW40436   3.492   0.424   3.563 -0.1857  0.1569 -0.6961
13294SOL    HW140437   3.427   0.380   3.508 -0.4438  1.4952 -1.5013
13294SOL    HW240438   3.576   0.400   3.525 -0.3535  0.9024 -1.5774
13295SOL     OW40439   6.014   2.282   2.295 -0.0234  0.2519  0.7953
13295SOL    HW140440   6.043   2.202   2.340  0.4654  0.1611  0.3375
13295SOL    HW240441   6.088   2.305   2.238 -0.6696  0.2883 -0.0517
13296SOL     OW40442   4.017   4.389   2.065  0.1163 -0.1570 -0.2584
13296SOL    HW140443   3.990   4.333   1.992  0.9579  0.0072 -0.7061
13296SOL    HW240444   4.106   4.361   2.086 -0.9580 -1.9905  2.4583
13297SOL     OW40445   4.983   7.383   3.792  0.0848 -0.4663 -0.5813
13297SOL    HW140446   4.995   7.310   3.731 -0.1111 -0.2231 -0.9199
13297SOL    HW240447   4.890   7.379   3.816  0.1115 -0.4296 -0.4744
13298SOL     OW40448   5.714   7.469   0.961 -0.1790  0.2579  0.0807
13298SOL    HW140449   5.804   7.489   0.987  0.6102 -2.7590 -0.0445
13298SOL    HW240450   5.683   7.551   0.923  3.5329  0.6768 -2.6553
13299SOL     OW40451   6.930   4.927   1.601 -0.0644  0.0985  0.7063
13299SOL    HW140452   6.987   4.961   1.532  1.0669  0.3522  1.7368
13299SOL    HW240453   6.924   4.833   1.582 -2.0665  0.5594 -1.3342
13300SOL     OW40454   6.048   5.149   0.402 -0.0132 -0.1520  0.4057
13300SOL    HW140455   6.136   5.114   0.385 -0.1734 -0.0032 -0.8714
13300SOL    HW240456   6.002   5.137   0.319 -1.5207 -1.1245  1.3348
13301SOL     OW40457   7.571   5.217   0.113  0.0336  0.3490 -0.3940
13301SOL    HW140458   7.611   5.138   0.151  1.2473  1.0118 -0.2580
13301SOL    HW240459   7.568   5.198   0.019  0.0289  0.0089 -0.3288
13302SOL     OW40460   2.561   6.335   2.439 -0.0518  0.4318  0.6079
13302SOL    HW140461   2.550   6.286   2.358 -1.5798  0.5988  0.6940
13302SOL    HW240462   2.592   6.421   2.410 -2.5395  1.1956 -0.0362
13303SOL     OW40463   5.672   3.974   5.364 -0.5720 -0.2408  0.1420
13303SOL    HW140464   5.706   3.948   5.449 -1.1375  2.4524  1.2616
13303SOL    HW240465   5.577   3.975   5.374 -0.6357  0.3956 -0.4141
13304SOL     OW40466   5.087   4.523   2.933 -0.2692  0.9332 -0.0531
13304SOL    HW140467   5.180   4.544   2.934 -0.2307  0.8689  2.2259
13304SOL    HW240468   5.084   4.427   2.935 -0.3849  0.9442  0.3148
13305SOL     OW40469   4.673   2.293   2.174 -0.0718  0.3672  0.2326
13305SOL    HW140470   4.587   2.325   2.147 -0.0545  0.0378 -0.2287
13305SOL    HW240471   4.680   2.207   2.133  0.8362  0.7569 -0.4744
13306SOL     OW40472   2.909   1.081   2.972  0.5157 -0.3070  0.1695
13306SOL    HW140473   2.846   1.025   3.018  0.6263  1.9557  3.4355
13306SOL    HW240474   2.992   1.034   2.979  0.2338 -0.6987  1.0233
13307SOL     OW40475   2.688   5.680   4.917 -0.5266  0.2037 -0.5313
13307SOL    HW140476   2.767   5.661   4.866 -0.8294  0.6637 -1.1871
13307SOL    HW240477   2.618   5.633   4.872 -0.5380 -0.6923  0.3968
13308SOL     OW40478   3.694   1.289   6.380  0.1834 -1.0101  0.0982
13308SOL    HW140479   3.696   1.372   6.333  0.7538 -0.5057  0.9907
13308SOL    HW240480   3.635   1.234   6.329 -0.1111 -0.0974 -0.5652
13309SOL     OW40481   0.473   7.046   7.398  0.4729 -0.7344  0.4189
13309SOL    HW140482   0.499   6.957   7.373 -0.0200 -0.8839  0.4129
13309SOL    HW240483   0.526   7.067   7.475  1.2978 -0.6549 -0.1540
13310SOL     OW40484   1.961   3.759   3.969  0.2008  0.4518 -0.0034
13310SOL    HW140485   1.964   3.842   4.017 -0.8533  0.5792 -0.1249
13310SOL    HW240486   1.871   3.754   3.937 -0.4584 -1.8071  1.9034
13311SOL     OW40487   7.247   4.835   2.513 -0.7432  0.2196 -0.3456
13311SOL    HW140488   7.199   4.915   2.490 -1.2085 -0.1982 -0.8408
13311SOL    HW240489   7.287   4.855   2.598  1.0433  1.7964 -1.4827
13312SOL     OW40490   7.453   4.284   0.621 -0.2426 -0.1919  0.2501
13312SOL    HW140491   7.399   4.208   0.641 -1.8334  0.8476  0.1341
13312SOL    HW240492   7.392   4.346   0.580  0.8879  1.3019  0.7353
13313SOL     OW40493   7.234   6.377   3.208 -0.7340  0.2499  0.3262
13313SOL    HW140494   7.195   6.462   3.187  2.6772  1.8730 -0.2421
13313SOL    HW240495   7.230   6.328   3.127  3.0043  2.5075 -1.4889
13314SOL     OW40496   7.366   2.035   7.676  0.1292 -0.4038 -0.1883
13314SOL    HW140497   7.403   1.995   7.755 -0.8864  0.5591  0.8269
13314SOL    HW240498   7.410   1.991   7.603  1.1166 -1.3036  0.9123
13315SOL     OW40499   2.683   4.228   3.184 -0.4532  0.4778  0.7101
13315SOL    HW140500   2.677   4.175   3.264 -0.0101 -0.3823  0.1854
13315SOL    HW240501   2.775   4.220   3.157 -0.2011  2.0636  0.9738
13316SOL     OW40502   3.068   2.238   6.817 -0.4987  0.6063  0.3416
13316SOL    HW140503   3.087   2.199   6.902  0.0512 -0.1545 -0.1231
13316SOL    HW240504   3.047   2.164   6.761 -0.3590  1.0647 -0.3231
13317SOL     OW40505   3.123   4.174   7.372 -0.0377 -0.0528 -0.0861
13317SOL    HW140506   3.097   4.219   7.452  0.8650  1.3027 -0.5163
13317SOL    HW240507   3.075   4.219   7.303  0.0747 -0.4448 -0.4198
13318SOL     OW40508   7.144   3.321   0.041 -0.6365  0.6574 -0.1343
13318SOL    HW140509   7.224   3.354   0.081 -0.6895  1.3975 -0.6182
13318SOL    HW240510   7.133   3.374  -0.038 -0.9970 -0.1938 -0.6667
13319SOL     OW40511   6.597   3.940   7.427  0.3824  0.1104  0.9613
13319SOL    HW140512   6.547   3.895   7.358  0.2681 -0.6899  1.5511
13319SOL    HW240513   6.619   4.025   7.389  0.3490 -0.3251 -0.0821
13320SOL     OW40514   5.686   3.928   0.535 -0.7056 -0.0187  0.0931
13320SOL    HW140515   5.648   4.005   0.577  0.8915  0.6882  0.3143
13320SOL    HW240516   5.770   3.958   0.501  0.2837 -1.8483  0.8094
13321SOL     OW40517   6.748   5.599   7.685  1.0704 -0.0643  0.0665
13321SOL    HW140518   6.760   5.681   7.732  0.5446  1.5324 -2.3948
13321SOL    HW240519   6.666   5.563   7.719 -0.5856  2.2851 -1.2015
13322SOL     OW40520   1.772   7.741   5.071 -0.3394 -0.0502  0.7294
13322SOL    HW140521   1.691   7.790   5.084  0.6336  1.4625  1.3845
13322SOL    HW240522   1.808   7.775   4.990 -0.6732 -1.2050  0.0823
13323SOL     OW40523   0.946   5.798   6.520  0.0176  0.2427 -0.5137
13323SOL    HW140524   0.977   5.746   6.445 -0.8401 -0.6165 -0.2936
13323SOL    HW240525   1.007   5.872   6.524  0.3866  0.0410 -1.7462
13324SOL     OW40526   5.668   6.199   5.835  0.2881 -0.0756 -0.0575
13324SOL    HW140527   5.742   6.138   5.829  0.8382  0.6011 -0.2318
13324SOL    HW240528   5.698   6.279   5.793  0.3510  1.0539  1.9831
13325SOL     OW40529   2.674   4.263   4.274  0.7779 -0.3053  0.3193
13325SOL    HW140530   2.613   4.332   4.301 -0.8690 -1.7683  0.5798
13325SOL    HW240531   2.749   4.274   4.332  0.4986  1.1656  0.4468
13326SOL     OW40532   3.350   5.855   1.327  0.5178  0.0618 -0.3369
13326SOL    HW140533   3.377   5.780   1.272 -1.3872 -0.8201 -0.1651
13326SOL    HW240534   3.336   5.926   1.264 -2.2474 -1.1105 -1.1954
13327SOL     OW40535   0.139   5.809   5.762 -0.7085 -0.0641  0.3134
13327SOL    HW140536   0.104   5.755   5.691  0.5270 -4.5090  2.7019
13327SOL    HW240537   0.078   5.883   5.768 -2.2691 -0.7617 -3.6406
13328SOL     OW40538   2.709   2.742   6.421 -0.1564  0.2036  0.4887
13328SOL    HW140539   2.709   2.704   6.509 -3.0354 -1.2003  0.0124
13328SOL    HW240540   2.741   2.672   6.365 -3.0915 -0.8148 -0.0878
13329SOL     OW40541   2.857   1.474   2.078  0.2683  0.7323  0.1361
13329SOL    HW140542   2.860   1.378   2.075 -1.0432  0.6166  1.2259
13329SOL    HW240543   2.862   1.495   2.171  2.0427  1.8364 -0.1612
13330SOL     OW40544   5.028   0.803   5.132 -0.0462  0.1998  0.0951
13330SOL    HW140545   4.989   0.851   5.205  0.4208  0.2737  0.2971
13330SOL    HW240546   5.121   0.824   5.136 -0.2743  1.9921 -1.8297
13331SOL     OW40547   5.972   4.409   0.909 -0.0496 -0.6828 -0.3334
13331SOL    HW140548   6.033   4.451   0.849 -0.6696 -0.4867 -0.8370
13331SOL    HW240549   6.028   4.366   0.974  0.6288  1.8066  0.8641
13332SOL     OW40550   5.901   5.711   2.942 -0.3874 -0.3121  0.9389
13332SOL    HW140551   5.929   5.802   2.939  1.8198 -0.8700  2.2537
13332SOL    HW240552   5.863   5.694   2.856  1.4001  1.2002 -0.2124
13333SOL     OW40553   3.838   5.239   1.463 -0.4873 -0.0448  0.3593
13333SOL    HW140554   3.787   5.172   1.418  0.8098 -0.6747 -0.2259
13333SOL    HW240555   3.892   5.278   1.395 -0.9068  1.3267  0.7754
13334SOL     OW40556   1.607   1.339   6.520 -0.1242 -0.7118  0.0753
13334SOL    HW140557   1.660   1.331   6.599  0.8893  1.2850 -0.3347
13334SOL    HW240558   1.625   1.258   6.471  1.8855 -0.5055  0.3721
13335SOL     OW40559   6.544   7.414   4.704 -0.1505  0.0600 -0.5129
13335SOL    HW140560   6.541   7.429   4.609  0.2998 -1.3413 -0.7834
13335SOL    HW240561   6.570   7.498   4.741 -1.1081  0.8507 -1.5519
13336SOL     OW40562   3.891   5.879   5.081 -0.2920  0.1707  0.3133
13336SOL    HW140563   3.817   5.877   5.020  0.0946  0.7675 -0.1956
13336SOL    HW240564   3.957   5.821   5.042  0.0659  0.7726  0.0014
13337SOL     OW40565   0.183   5.766   3.338  0.7674 -0.1954 -0.4531
13337SOL    HW140566   0.090   5.760   3.359  0.3078 -1.6174 -2.6267
13337SOL    HW240567   0.187   5.761   3.243  3.1223 -1.2582 -0.3648
13338SOL     OW40568   2.446   6.198   6.519  0.0445 -0.2801 -0.4169
13338SOL    HW140569   2.516   6.134   6.504  0.2013 -0.0642 -0.6256
13338SOL    HW240570   2.407   6.172   6.602 -0.2276 -0.9486 -0.7446
13339SOL     OW40571   7.743   5.654   1.959  0.1130  0.9334 -0.0665
13339SOL    HW140572   7.692   5.573   1.958 -0.7123  1.3863  1.7451
13339SOL    HW240573   7.820   5.633   2.011  0.3589  1.0652 -0.3726
13340SOL     OW40574   2.441   3.328   5.477  0.2535  0.7100 -0.1077
13340SOL    HW140575   2.521   3.353   5.522  0.5913  1.6378 -1.1759
13340SOL    HW240576   2.469   3.312   5.387 -0.6655  0.4721 -0.3556
13341SOL     OW40577   0.200   3.164   0.278 -0.0816 -0.1257  0.0573
13341SOL    HW140578   0.255   3.125   0.346  1.7310  0.9215 -0.7311
13341SOL    HW240579   0.220   3.112   0.200  0.1166  0.5308 -0.3308
13342SOL     OW40580   5.529   5.381   1.010 -0.4703  0.0363  0.0009
13342SOL    HW140581   5.531   5.429   0.928 -0.3017 -0.1359 -0.0955
13342SOL    HW240582   5.570   5.441   1.073 -0.4659  0.1088 -0.0701
13343SOL     OW40583   2.271   6.255   2.679 -0.0587  0.0182  0.3281
13343SOL    HW140584   2.359   6.281   2.708 -0.6370  0.2359  1.9710
13343SOL    HW240585   2.212   6.313   2.726 -1.0760  1.3244 -2.3397
13344SOL     OW40586   5.668   0.000   5.672 -0.6222 -0.7582 -0.4902
13344SOL    HW140587   5.596  -0.061   5.689 -0.6785 -0.8244 -0.9645
13344SOL    HW240588   5.625   0.079   5.638 -0.5381 -0.4942  0.0015
13345SOL     OW40589   5.494   3.617   3.480  0.1552  0.1785  0.1049
13345SOL    HW140590   5.469   3.642   3.391  0.8868  1.5999  0.2655
13345SOL    HW240591   5.468   3.692   3.534  0.2985 -0.3996  0.9939
13346SOL     OW40592   7.369   5.973   7.075  0.4132  0.3200  0.3224
13346SOL    HW140593   7.334   5.888   7.103  0.7119  0.3871  0.9111
13346SOL    HW240594   7.383   6.022   7.156 -0.8018  1.3569 -0.0666
13347SOL     OW40595   0.971   6.364   4.541  0.2560  0.6822 -0.2863
13347SOL    HW140596   0.952   6.270   4.540  1.5223  0.3321  1.8609
13347SOL    HW240597   1.066   6.370   4.531  0.3505  1.6056  0.8484
13348SOL     OW40598   0.868   3.576   4.997  0.0277  0.1915  0.6364
13348SOL    HW140599   0.819   3.654   5.021  0.3641  0.3213  0.9084
13348SOL    HW240600   0.957   3.607   4.980 -0.6375  0.5091 -3.0348
13349SOL     OW40601   2.623   7.086   0.971  0.1721 -0.0837 -0.1656
13349SOL    HW140602   2.699   7.136   0.941  0.1307 -0.2586 -0.5588
13349SOL    HW240603   2.628   7.091   1.066  1.2035 -0.8916 -0.1577
13350SOL     OW40604   6.651   2.951   1.701  0.3428 -0.0132 -0.1012
13350SOL    HW140605   6.718   2.885   1.716  1.1879  0.4280 -1.6852
13350SOL    HW240606   6.606   2.922   1.621 -0.2850  0.5225  0.0529
13351SOL     OW40607   7.682   2.722   1.637  0.2442 -0.3466  0.2314
13351SOL    HW140608   7.729   2.709   1.555  0.2193 -0.3409  0.2164
13351SOL    HW240609   7.724   2.661   1.698  0.7673  0.1915  0.4163
13352SOL     OW40610   3.511   0.259   1.878  0.1551  0.1829  0.0079
13352SOL    HW140611   3.599   0.297   1.879  0.3223 -0.0149 -1.9508
13352SOL    HW240612   3.457   0.321   1.927  1.0897  1.1212 -0.1087
13353SOL     OW40613   3.571   7.010   2.304 -0.1995 -0.2738  0.3769
13353SOL    HW140614   3.480   7.038   2.292 -0.2696 -1.0355 -1.2201
13353SOL    HW240615   3.616   7.088   2.336 -1.0241  0.7173 -0.7582
13354SOL     OW40616   6.787   4.363   5.770  0.4198  0.2851  0.0497
13354SOL    HW140617   6.877   4.355   5.800  0.5678 -0.0774 -0.4860
13354SOL    HW240618   6.788   4.437   5.710  0.3122  0.4107  0.1987
13355SOL     OW40619   7.225   0.663   3.926  1.2252 -0.5686  0.3037
13355SOL    HW140620   7.176   0.605   3.984 -0.6798  0.6867  0.0450
13355SOL    HW240621   7.317   0.636   3.936  0.4474 -3.7759 -0.0279
13356SOL     OW40622   1.989   3.007   4.393  0.4960  0.4065  0.2258
13356SOL    HW140623   2.051   2.935   4.408 -1.1479 -1.2062 -0.2779
13356SOL    HW240624   2.041   3.086   4.400  2.1848 -0.7751  1.9798
13357SOL     OW40625   5.327   6.924   7.751 -0.2743  0.1836  0.1094
13357SOL    HW140626   5.303   7.015   7.771 -0.6179  0.2262 -0.4762
13357SOL    HW240627   5.405   6.932   7.696  0.5020  0.0758  1.1678
13358SOL     OW40628   2.789   6.623   5.081 -0.0985  0.8745 -0.4494
13358SOL    HW140629   2.828   6.679   5.148 -1.5047  0.7042  0.5489
13358SOL    HW240630   2.838   6.541   5.086  1.1343  1.5393 -1.0540
13359SOL     OW40631   1.951   5.625   0.763  0.3734  0.8660 -0.6255
13359SOL    HW140632   2.003   5.701   0.790  0.4242 -0.3207  3.2631
13359SOL    HW240633   1.861   5.647   0.790  0.1065  0.1642 -0.9252
13360SOL     OW40634   0.175   7.073   7.179  0.1187  0.0074  0.8999
13360SOL    HW140635   0.154   7.119   7.261  1.1417 -0.0886  1.2306
13360SOL    HW240636   0.202   7.142   7.119  1.0491 -0.0817  1.2005
13361SOL     OW40637   1.779   6.980   1.883  0.1247 -0.4760 -0.0238
13361SOL    HW140638   1.788   7.074   1.898  0.5973 -0.6119  0.5691
13361SOL    HW240639   1.693   6.971   1.842 -0.7788  0.0289  1.6668
13362SOL     OW40640   1.303   1.617   6.627 -0.0298 -0.0733  0.1564
13362SOL    HW140641   1.233   1.556   6.602 -1.0738  0.7934  0.8499
13362SOL    HW240642   1.278   1.699   6.584  0.1672  0.4320  0.9972
13363SOL     OW40643   0.995   5.312   3.636 -0.2564 -0.1625 -0.5456
13363SOL    HW140644   1.068   5.253   3.614  1.3865  1.4064  0.4077
13363SOL    HW240645   0.993   5.376   3.565 -0.8744 -0.3232 -0.6786
13364SOL     OW40646   2.122   2.002   5.213  0.0592  0.1779  0.1264
13364SOL    HW140647   2.124   1.912   5.179  0.6394  0.0187  0.5592
13364SOL    HW240648   2.114   1.992   5.307  1.9291  0.5130  0.3701
13365SOL     OW40649   5.137   4.589   0.806 -0.2109 -0.3554 -0.1457
13365SOL    HW140650   5.186   4.671   0.795  0.4638 -0.7254  0.0512
13365SOL    HW240651   5.194   4.522   0.767 -0.9021 -0.6892 -0.6007
13366SOL     OW40652   2.162   6.645   5.977 -0.0460  0.0756  0.0308
13366SOL    HW140653   2.132   6.662   5.887 -0.4726 -0.5260  0.0485
13366SOL    HW240654   2.120   6.562   6.000  1.9058 -0.9880 -0.0477
13367SOL     OW40655   2.680   5.045   1.077  0.1310 -0.3180 -0.0401
13367SOL    HW140656   2.648   5.076   1.162  0.2406 -0.1733 -0.0516
13367SOL    HW240657   2.739   4.972   1.098  1.3423  0.6702  0.1095
13368SOL     OW40658   2.271   3.656   4.979  0.0441 -0.3222  0.7770
13368SOL    HW140659   2.217   3.578   4.963 -0.5318  0.0137  1.0350
13368SOL    HW240660   2.354   3.636   4.937 -0.4976 -0.5940 -0.2054
13369SOL     OW40661   1.628   6.282   6.757  0.3445  0.9846 -0.2796
13369SOL    HW140662   1.654   6.239   6.675 -0.3669  1.0538 -0.5481
13369SOL    HW240663   1.569   6.220   6.800 -1.6518  2.1136 -1.2373
13370SOL     OW40664   5.603   6.812   4.088  0.4671 -0.0467 -0.0679
13370SOL    HW140665   5.644   6.759   4.020  2.3417  0.0488  0.9390
13370SOL    HW240666   5.638   6.779   4.170  1.7154  2.6838  0.6248
13371SOL     OW40667   2.782   0.865   3.216 -0.2658 -0.5455  0.9317
13371SOL    HW140668   2.802   0.782   3.173 -0.0802 -0.5848  1.0933
13371SOL    HW240669   2.867   0.908   3.228 -0.5313  0.7444 -1.2732
13372SOL     OW40670   4.493   4.076   3.364  0.7884  1.6064  0.7065
13372SOL    HW140671   4.572   4.112   3.324  1.4880  0.3511  0.9164
13372SOL    HW240672   4.487   3.987   3.331 -1.0907  1.9555 -0.0547
13373SOL     OW40673   2.499   3.692   3.997  0.1605  0.0141  0.4682
13373SOL    HW140674   2.408   3.682   3.970  0.1865  0.9296  0.0041
13373SOL    HW240675   2.550   3.647   3.929  0.2379  2.4455 -1.1942
13374SOL     OW40676   7.155   4.265   1.428  0.0938 -0.1103 -0.0934
13374SOL    HW140677   7.072   4.273   1.475 -0.1241  0.9702 -0.6281
13374SOL    HW240678   7.131   4.237   1.340  0.3359 -0.1619 -0.1448
13375SOL     OW40679   2.686   2.725   0.190 -0.0079 -0.1973  0.4836
13375SOL    HW140680   2.749   2.794   0.168 -1.6443  0.9357 -0.8829
13375SOL    HW240681   2.710   2.652   0.132  1.0226 -0.3830  1.1219
13376SOL     OW40682   6.384   2.390   3.263 -0.4520  0.4615 -0.4735
13376SOL    HW140683   6.300   2.395   3.307 -0.2098 -1.3693  0.2770
13376SOL    HW240684   6.438   2.456   3.307 -1.5004  1.8241 -1.1223
13377SOL     OW40685   7.309   3.235   6.747 -0.1993 -0.1730  0.1145
13377SOL    HW140686   7.405   3.233   6.747 -0.1623  1.1753 -0.4763
13377SOL    HW240687   7.286   3.311   6.800 -0.8856  0.8184 -1.5512
13378SOL     OW40688   2.088   7.226   7.642 -0.2229  0.5501  0.2096
13378SOL    HW140689   1.994   7.246   7.647 -0.8852 -2.0098 -0.1241
13378SOL    HW240690   2.107   7.181   7.724  0.1142 -0.9214 -0.6308
13379SOL     OW40691   0.481   1.691   6.996 -0.2117 -0.0580  0.3678
13379SOL    HW140692   0.485   1.707   7.091 -0.2008 -0.6004  0.4624
13379SOL    HW240693   0.519   1.770   6.957  1.3562 -0.5391  0.8661
13380SOL     OW40694   1.928   1.724   2.788  0.0119  0.0326  0.0031
13380SOL    HW140695   1.835   1.719   2.765  0.0761  1.9979 -0.9338
13380SOL    HW240696   1.936   1.671   2.867 -1.5279 -1.6670 -0.9085
13381SOL     OW40697   2.009   4.363   4.126 -0.2469 -0.4358  0.3713
13381SOL    HW140698   2.083   4.348   4.185 -1.6829  0.6679  2.5859
13381SOL    HW240699   2.042   4.429   4.064  1.8131 -2.7762 -1.2397
13382SOL     OW40700   2.359   6.036   2.008 -0.6808 -0.5450  0.2256
13382SOL    HW140701   2.436   5.990   2.039 -2.0055 -1.5728  2.2216
13382SOL    HW240702   2.393   6.106   1.953  1.5393 -2.3288 -0.8444
13383SOL     OW40703   3.349   4.801   3.698 -0.1459  0.2015  0.2201
13383SOL    HW140704   3.396   4.743   3.638 -0.9401  0.6240 -0.8568
13383SOL    HW240705   3.265   4.817   3.654 -0.5813  0.8652  1.2604
13384SOL     OW40706   1.937   1.509   2.081  0.3971 -0.1889  0.6672
13384SOL    HW140707   1.898   1.445   2.021  1.2503 -0.4435  0.3757
13384SOL    HW240708   1.981   1.457   2.148 -1.1082  0.0835  1.9357
13385SOL     OW40709   5.370   1.067   6.036 -0.1049 -0.7157  0.0791
13385SOL    HW140710   5.296   1.064   5.975  1.9396  0.3941 -2.6410
13385SOL    HW240711   5.404   0.977   6.037  0.7795 -0.4420 -1.7438
13386SOL     OW40712   3.109   0.401   0.999  0.4401 -0.6872 -0.1061
13386SOL    HW140713   3.164   0.479   0.997  1.0374 -1.0947 -1.8406
13386SOL    HW240714   3.109   0.374   1.090  0.5432  1.0998  0.4625
13387SOL     OW40715   7.362   3.606   6.353 -0.1245 -0.0956 -0.0686
13387SOL    HW140716   7.360   3.519   6.313 -0.4754  0.1160 -0.5143
13387SOL    HW240717   7.366   3.588   6.447 -0.6708 -0.5930 -0.1353
13388SOL     OW40718   6.568   7.372   0.690 -0.6304  0.1535  0.4954
13388SOL    HW140719   6.543   7.439   0.627  0.0743 -1.0698 -1.1677
13388SOL    HW240720   6.647   7.406   0.732  0.1215  0.1233 -0.8212
13389SOL     OW40721   4.332   0.977   7.029 -0.2511 -0.7288  0.2510
13389SOL    HW140722   4.348   0.935   7.114 -1.7241 -1.0336  0.4059
13389SOL    HW240723   4.416   1.014   7.005  0.5529 -1.8863  1.1557
13390SOL     OW40724   5.170   7.030   3.263  0.3307 -0.5858  0.3393
13390SOL    HW140725   5.122   7.112   3.277  0.3938 -0.5892  0.5755
13390SOL    HW240726   5.179   7.023   3.168 -2.3382 -1.8268  0.0784
13391SOL     OW40727   5.037   7.600   2.771  0.6998 -0.3991 -0.0880
13391SOL    HW140728   4.973   7.536   2.742 -0.5755 -1.1997  3.8624
13391SOL    HW240729   5.122   7.561   2.753  0.1077 -0.5551 -2.8881
13392SOL     OW40730   4.527   3.756   2.070 -0.3288  0.1615 -0.0524
13392SOL    HW140731   4.478   3.838   2.082  1.1232  1.3106 -1.4817
13392SOL    HW240732   4.593   3.758   2.139 -0.1902  0.2798 -0.1881
13393SOL     OW40733   7.396   6.182   2.553 -0.1127 -0.6211  0.5650
13393SOL    HW140734   7.433   6.249   2.496 -3.3858  0.3435 -0.6567
13393SOL    HW240735   7.349   6.232   2.620 -1.0387 -1.6958  0.7394
13394SOL     OW40736   2.720   1.497   1.818  0.1673 -0.4601  0.4239
13394SOL    HW140737   2.786   1.528   1.755  0.7184 -1.5978  0.4238
13394SOL    HW240738   2.763   1.505   1.903 -0.6463  1.2599  0.7232
13395SOL     OW40739   3.954   3.232   2.151  0.1252 -0.4443 -0.3481
13395SOL    HW140740   4.032   3.218   2.098  1.6863  0.9800  1.4303
13395SOL    HW240741   3.960   3.165   2.220 -0.6675 -0.8108 -0.6161
13396SOL     OW40742   4.958   2.768   3.600  0.1181  0.5327 -0.2243
13396SOL    HW140743   4.890   2.732   3.658  0.6523  0.2965  0.2610
13396SOL    HW240744   4.935   2.860   3.590 -0.2206  0.4759  0.0093
13397SOL     OW40745   5.503   5.218   4.510 -0.0320  0.3225 -0.3430
13397SOL    HW140746   5.436   5.252   4.570  0.6879  1.0157  0.0744
13397SOL    HW240747   5.517   5.288   4.447 -0.7376 -0.3762 -1.3183
13398SOL     OW40748   0.232   7.134   7.505 -0.1740 -0.0773  0.2111
13398SOL    HW140749   0.227   7.220   7.465 -0.2154  0.5836  1.5620
13398SOL    HW240750   0.312   7.095   7.469  0.6058  1.0882  0.6141
13399SOL     OW40751   0.846   2.298   0.581  0.5364  0.0822 -0.3501
13399SOL    HW140752   0.861   2.286   0.675 -0.8089 -1.5713 -0.2979
13399SOL    HW240753   0.750   2.295   0.572  0.5625  1.8307 -1.5976
13400SOL     OW40754   4.470   7.648   5.914  0.1861 -0.0999 -0.5251
13400SOL    HW140755   4.550   7.689   5.883  0.8863 -0.4650  0.7327
13400SOL    HW240756   4.491   7.555   5.920 -0.3208 -0.2035 -0.1843
13401SOL     OW40757   6.950   6.957   5.726  0.0464  0.0803 -0.4859
13401SOL    HW140758   6.959   7.036   5.778 -1.4246 -0.2725  0.3944
13401SOL    HW240759   7.033   6.911   5.736  0.4352  0.8918  0.0802
13402SOL     OW40760   4.469   3.551   0.191 -0.3938  0.3697 -0.5136
13402SOL    HW140761   4.428   3.508   0.266 -1.2680  1.2521 -0.4747
13402SOL    HW240762   4.535   3.608   0.230 -0.8884  0.8717 -0.4159
13403SOL     OW40763   4.913   6.970   2.003 -0.4878 -0.6068 -0.6053
13403SOL    HW140764   4.819   6.952   1.998 -0.5220 -0.2197 -1.4798
13403SOL    HW240765   4.955   6.887   1.979 -0.5407 -1.5785  2.3158
13404SOL     OW40766   6.777   1.063   5.805  0.3344 -0.1536  0.1963
13404SOL    HW140767   6.794   1.088   5.896  0.4363  0.7811 -0.0654
13404SOL    HW240768   6.714   0.991   5.811  0.8891 -0.5924  1.0258
13405SOL     OW40769   0.402   5.731   5.775 -0.0281 -0.2312 -0.8854
13405SOL    HW140770   0.311   5.759   5.775  0.2116  0.5712 -1.0270
13405SOL    HW240771   0.452   5.809   5.800  0.4043 -1.3976  2.3934
13406SOL     OW40772   0.685   1.451   1.291  0.1786 -0.1482 -0.8922
13406SOL    HW140773   0.704   1.534   1.248  2.8359  0.0503  0.4510
13406SOL    HW240774   0.619   1.474   1.357  0.6027  0.8463 -0.7858
13407SOL     OW40775   4.470   0.451   0.501  0.1692 -0.2616  0.5849
13407SOL    HW140776   4.554   0.494   0.517 -0.4832  1.5704 -0.6811
13407SOL    HW240777   4.405   0.511   0.537 -0.7399 -0.4872 -0.6293
13408SOL     OW40778   1.134   6.425   7.201  0.3474  0.0263  0.1193
13408SOL    HW140779   1.101   6.401   7.288 -0.5329 -0.7120 -0.3981
13408SOL    HW240780   1.065   6.479   7.164  0.9619  0.7928  0.0771
13409SOL     OW40781   1.325   6.957   2.487 -0.4990 -1.1676  0.0803
13409SOL    HW140782   1.392   6.919   2.430 -0.4363 -1.7592  0.5366
13409SOL    HW240783   1.267   6.883   2.507 -1.1189 -0.7258 -0.0665
13410SOL     OW40784   5.758   1.494   3.109  0.0118  0.1367 -0.1507
13410SOL    HW140785   5.773   1.471   3.018  1.1683 -1.2656  0.3697
13410SOL    HW240786   5.680   1.444   3.134 -0.0868  0.2398 -0.2460
13411SOL     OW40787   2.802   5.048   0.073  0.2079  0.1120 -0.1071
13411SOL    HW140788   2.791   5.034  -0.021  1.2253 -1.5819 -0.0207
13411SOL    HW240789   2.847   4.969   0.104  2.1406  1.6885  1.3641
13412SOL     OW40790   4.123   6.138   6.345  0.8682 -0.0872 -0.0119
13412SOL    HW140791   4.216   6.160   6.340  0.5543  1.4910  0.7453
13412SOL    HW240792   4.121   6.053   6.389  1.9711 -0.4533 -0.6356
13413SOL     OW40793   0.040   4.909   4.309 -0.4433  0.0265  0.2428
13413SOL    HW140794   0.106   4.847   4.340 -1.9288 -1.5585  0.4407
13413SOL    HW240795   0.026   4.885   4.217 -0.4550  0.6212  0.0841
13414SOL     OW40796   6.085   0.123   1.876  0.2241  0.0052 -0.7686
13414SOL    HW140797   6.030   0.088   1.806  1.2968  0.4242 -1.8737
13414SOL    HW240798   6.093   0.052   1.939 -3.4425  0.6477  0.6617
13415SOL     OW40799   6.356   2.788   6.539  0.1998 -0.0315  0.0228
13415SOL    HW140800   6.295   2.843   6.588  0.6134 -0.4399  1.0302
13415SOL    HW240801   6.361   2.829   6.453 -1.0573  0.3247  0.0991
13416SOL     OW40802   5.721   6.982   1.038  0.3958 -0.0508  0.2713
13416SOL    HW140803   5.708   7.063   1.088  0.0012 -0.5494  1.0029
13416SOL    HW240804   5.776   7.007   0.964 -1.2046  1.2642 -0.5198
13417SOL     OW40805   4.621   7.181   0.097 -0.1597 -0.3157 -0.0486
13417SOL    HW140806   4.714   7.186   0.117 -0.2791  0.3051  0.3689
13417SOL    HW240807   4.618   7.160   0.003  0.4074  0.8709 -0.3485
13418SOL     OW40808   5.351   6.877   3.700 -0.0758 -0.1075  0.5929
13418SOL    HW140809   5.327   6.836   3.617  1.7786  1.2338 -0.6723
13418SOL    HW240810   5.379   6.805   3.756  2.4037 -0.7499 -1.3199
13419SOL     OW40811   0.526   5.537   1.701 -0.0050  0.0931  0.1830
13419SOL    HW140812   0.510   5.627   1.730  1.2419  0.4321 -0.1125
13419SOL    HW240813   0.621   5.533   1.688 -0.0970 -1.1482 -0.2063
13420SOL     OW40814   4.394   0.246   5.040 -0.7941 -0.3341  0.0473
13420SOL    HW140815   4.331   0.309   5.005  0.5243  0.6510 -0.6309
13420SOL    HW240816   4.413   0.277   5.129 -1.3883 -0.7421  0.3233
13421SOL     OW40817   1.122   3.640   6.856 -0.4487 -0.0418  0.0076
13421SOL    HW140818   1.115   3.715   6.914 -0.9875 -0.8723  1.0393
13421SOL    HW240819   1.215   3.616   6.859 -0.4273  0.0773  0.3093
13422SOL     OW40820   0.874   0.466   1.126  0.4895  0.0274 -0.0978
13422SOL    HW140821   0.876   0.415   1.045  1.0720 -3.7024  2.0532
13422SOL    HW240822   0.788   0.508   1.127  0.4731  0.1907 -2.5660
13423SOL     OW40823   1.199   6.273   5.420  0.2044 -0.3369  0.3227
13423SOL    HW140824   1.240   6.187   5.407  0.1279 -0.3131 -0.0825
13423SOL    HW240825   1.202   6.286   5.515  2.4970  0.3225  0.2296
13424SOL     OW40826   5.296   1.775   0.479 -0.1548  0.1859  0.2047
13424SOL    HW140827   5.309   1.771   0.384 -0.2007  1.1104  0.1547
13424SOL    HW240828   5.307   1.867   0.502 -0.6516  0.0583  1.0279
13425SOL     OW40829   2.196   1.004   4.675  0.0533 -0.6128 -0.2101
13425SOL    HW140830   2.217   0.948   4.750  1.2955  0.2937  0.1447
13425SOL    HW240831   2.230   0.956   4.600 -2.4228 -2.1949 -0.4264
13426SOL     OW40832   2.854   0.917   4.342 -0.0746  0.0920  0.1607
13426SOL    HW140833   2.791   0.849   4.366 -0.5670  0.7210  0.6534
13426SOL    HW240834   2.849   0.921   4.246 -0.2205 -0.3870  0.1445
13427SOL     OW40835   2.208   2.680   2.302 -0.1627 -0.1164 -0.3482
13427SOL    HW140836   2.192   2.677   2.208  0.5744  2.1452 -0.5940
13427SOL    HW240837   2.301   2.700   2.310  0.1120 -1.6498  0.9247
13428SOL     OW40838   4.620   0.941   1.599  0.8857 -0.2416 -0.6532
13428SOL    HW140839   4.674   0.961   1.675  2.9982 -1.0695 -1.8638
13428SOL    HW240840   4.601   1.026   1.560  0.6634  0.1088  0.1869
13429SOL     OW40841   3.082   4.010   4.747  0.3376  0.0722 -0.3878
13429SOL    HW140842   3.079   3.940   4.812  0.3790 -0.6741 -1.1719
13429SOL    HW240843   3.152   4.067   4.776  0.9034 -0.6964 -0.2016
13430SOL     OW40844   3.334   4.388   0.838  0.1197  0.2911 -0.4088
13430SOL    HW140845   3.371   4.301   0.822 -2.1565 -0.5255 -1.5836
13430SOL    HW240846   3.307   4.385   0.930 -0.7911 -0.6061 -0.6885
13431SOL     OW40847   5.213   6.470   6.070 -0.0679 -0.2056 -0.2613
13431SOL    HW140848   5.145   6.496   6.132 -1.1940 -1.1596 -1.0372
13431SOL    HW240849   5.180   6.388   6.033  0.7438  0.1516 -1.8457
13432SOL     OW40850   2.794   4.324   0.946 -0.1420 -0.0783 -0.7279
13432SOL    HW140851   2.707   4.360   0.964 -0.2819 -0.7220 -0.0383
13432SOL    HW240852   2.847   4.400   0.920 -0.6775  0.4671 -0.2653
13433SOL     OW40853   0.236   5.161   2.880 -0.3926  0.0955  0.1550
13433SOL    HW140854   0.233   5.240   2.934 -1.0132 -0.7883  1.4643
13433SOL    HW240855   0.146   5.148   2.851  0.0569  0.9744 -1.7650
13434SOL     OW40856   7.720   6.149   2.415  0.5377  0.4657 -0.1861
13434SOL    HW140857   7.640   6.161   2.365  0.4687 -2.6959 -1.0116
13434SOL    HW240858   7.697   6.176   2.504 -1.2644  0.1637 -0.5316
13435SOL     OW40859   2.751   0.535   3.397  0.4043 -0.4262 -0.3475
13435SOL    HW140860   2.805   0.575   3.329 -0.3700  1.5963  0.1311
13435SOL    HW240861   2.667   0.518   3.353  0.0240  0.5397 -0.0151
13436SOL     OW40862   4.695   5.206   7.710 -0.1508 -0.1912 -0.1204
13436SOL    HW140863   4.755   5.133   7.726 -0.5744 -0.7222 -0.9059
13436SOL    HW240864   4.749   5.284   7.721  0.2217 -0.6034  1.0790
13437SOL     OW40865   2.787   2.577   3.035 -0.0680 -0.0346  0.9897
13437SOL    HW140866   2.751   2.607   2.952 -1.1317 -0.1408  1.3900
13437SOL    HW240867   2.712   2.574   3.094  0.3965 -1.3673  1.5608
13438SOL     OW40868   5.341   5.769   6.960  0.2548  0.3801 -0.6233
13438SOL    HW140869   5.271   5.834   6.966  0.4260  0.4547  1.2555
13438SOL    HW240870   5.364   5.766   6.867 -1.0924  1.5690 -1.0220
13439SOL     OW40871   2.442   0.444   6.432  0.0356  0.9125 -0.0002
13439SOL    HW140872   2.464   0.404   6.348 -0.0350 -1.6205  1.1080
13439SOL    HW240873   2.484   0.530   6.429 -0.8005  1.3488 -2.9967
13440SOL     OW40874   6.160   2.932   6.316  0.6702 -0.0496  0.4784
13440SOL    HW140875   6.113   2.851   6.330 -1.6462  1.1572  0.1478
13440SOL    HW240876   6.120   2.970   6.238  0.7915  1.9852  1.3354
13441SOL     OW40877   3.056   7.735   0.561 -0.6448 -0.0234 -0.0777
13441SOL    HW140878   3.020   7.814   0.600  1.0456  1.0704 -0.6265
13441SOL    HW240879   3.126   7.708   0.620  1.3476  1.1525 -1.7345
13442SOL     OW40880   4.474   7.454   7.532 -0.0983 -0.3350 -0.5161
13442SOL    HW140881   4.480   7.546   7.558  1.1938  0.2913 -2.7575
13442SOL    HW240882   4.403   7.419   7.585 -0.8278  2.0318  0.2047
13443SOL     OW40883   7.379   5.730   3.071 -0.2259  0.3811 -0.7039
13443SOL    HW140884   7.415   5.644   3.091 -1.3682  0.0160 -0.1155
13443SOL    HW240885   7.391   5.740   2.977  0.6312 -0.0797 -0.6521
13444SOL     OW40886   3.374   4.978   0.460  0.5026  0.3047  0.1887
13444SOL    HW140887   3.289   4.961   0.500  0.3362 -0.3643 -0.4185
13444SOL    HW240888   3.405   4.891   0.432  0.8842  0.6676 -0.5551
13445SOL     OW40889   0.182   0.366   3.883  0.6005 -0.5503 -0.0017
13445SOL    HW140890   0.117   0.415   3.831  0.7950  0.1034  0.3541
13445SOL    HW240891   0.151   0.276   3.880 -2.0592  0.1109  2.5929
13446SOL     OW40892   1.688   7.342   2.498  0.1462 -0.1558  0.0618
13446SOL    HW140893   1.654   7.375   2.581  0.0793  2.3831 -0.8849
13446SOL    HW240894   1.706   7.420   2.446  1.0432 -1.6236 -2.0068
13447SOL     OW40895   0.214   6.049   1.690  0.2570 -0.0389  0.0399
13447SOL    HW140896   0.309   6.035   1.682  0.6204  1.0703  1.8471
13447SOL    HW240897   0.193   6.018   1.778 -1.3372 -1.4309 -0.7763
13448SOL     OW40898   5.335   2.875   2.304 -0.1306 -0.0118 -0.0797
13448SOL    HW140899   5.316   2.781   2.303 -0.1052 -0.0186  0.0291
13448SOL    HW240900   5.422   2.882   2.263 -0.0801 -0.0482  0.0207
13449SOL     OW40901   7.388   6.080   6.038  0.5109 -0.6269  0.4052
13449SOL    HW140902   7.427   6.160   6.074 -1.1359  0.3531  0.1413
13449SOL    HW240903   7.414   6.080   5.946 -0.0237  0.0011  0.2399
13450SOL     OW40904   0.193   0.903   4.254 -0.1589  0.2978  0.9755
13450SOL    HW140905   0.151   0.897   4.340 -0.3661  1.5202  0.9773
13450SOL    HW240906   0.150   0.977   4.212  3.8601  3.5921  2.0840
13451SOL     OW40907   2.325   5.038   0.523 -0.4236 -0.0778 -0.1947
13451SOL    HW140908   2.231   5.058   0.519 -0.1240  1.3315 -0.7432
13451SOL    HW240909   2.340   4.982   0.448 -0.8686 -0.5112  0.0332
13452SOL     OW40910   3.443   5.730   6.000  0.2055 -0.1806 -0.2947
13452SOL    HW140911   3.351   5.712   5.982 -0.0853 -0.1308  1.0349
13452SOL    HW240912   3.472   5.783   5.925 -0.8948 -0.0284 -0.6382
13453SOL     OW40913   0.011   3.318   5.967 -0.7591 -0.0298 -0.0620
13453SOL    HW140914  -0.029   3.393   5.924 -0.4270 -0.0702 -0.4505
13453SOL    HW240915   0.103   3.320   5.938 -0.9473 -1.0919 -0.8037
13454SOL     OW40916   5.241   3.577   5.900 -0.1560 -0.1017 -0.0930
13454SOL    HW140917   5.270   3.511   5.964  1.0242  0.5203  0.0360
13454SOL    HW240918   5.296   3.653   5.917 -0.5453  0.4405 -1.1750
13455SOL     OW40919   0.314   1.630   2.838  0.2562 -0.6446 -0.1035
13455SOL    HW140920   0.385   1.599   2.895  0.2258 -0.9776 -0.2463
13455SOL    HW240921   0.352   1.628   2.750 -0.0469 -1.1752 -0.2264
13456SOL     OW40922   1.981   6.817   3.483  0.2784 -0.2401 -0.2273
13456SOL    HW140923   2.003   6.894   3.431  1.0852 -0.0219  0.4097
13456SOL    HW240924   2.048   6.814   3.551 -0.8997 -0.3649  0.9704
13457SOL     OW40925   6.541   2.381   0.531 -0.3923 -0.0228  0.0248
13457SOL    HW140926   6.557   2.428   0.449  1.4110 -1.4931 -0.5230
13457SOL    HW240927   6.561   2.444   0.600 -3.1814  1.6648 -0.5617
13458SOL     OW40928   1.737   1.841   1.924 -0.1511  0.0593 -0.0850
13458SOL    HW140929   1.664   1.875   1.976 -1.1408 -1.0754 -0.7135
13458SOL    HW240930   1.733   1.746   1.936 -0.2472 -0.2073 -2.0183
13459SOL     OW40931   6.783   3.665   5.706 -0.4620 -0.7934 -0.7393
13459SOL    HW140932   6.829   3.616   5.774  1.1543  0.2678 -1.0038
13459SOL    HW240933   6.827   3.750   5.705 -2.8097  0.4808 -0.6751
13460SOL     OW40934   5.001   3.067   1.399 -0.1262  0.2600  0.1501
13460SOL    HW140935   5.022   3.023   1.481 -2.0913 -1.5061 -0.2117
13460SOL    HW240936   4.943   3.006   1.353  1.2521  0.9744 -2.7689
13461SOL     OW40937   6.176   5.228   2.368  0.2814 -0.0740  0.5978
13461SOL    HW140938   6.249   5.230   2.307  0.0746 -0.4883  0.3298
13461SOL    HW240939   6.201   5.164   2.434  1.9571  2.6538  2.8379
13462SOL     OW40940   6.311   6.925   1.510  0.0647  0.6248 -0.2160
13462SOL    HW140941   6.318   7.020   1.512  0.2157  0.6150 -0.2589
13462SOL    HW240942   6.399   6.895   1.486 -0.2600  0.5183 -1.3274
13463SOL     OW40943   2.362   6.189   1.029  0.5612  0.3140 -0.3006
13463SOL    HW140944   2.339   6.279   1.050 -0.6131 -0.2212  0.9163
13463SOL    HW240945   2.304   6.136   1.085 -0.6314 -1.2275 -2.8224
13464SOL     OW40946   4.800   1.624   5.800  0.0981 -0.0679 -0.1152
13464SOL    HW140947   4.785   1.534   5.772  0.1917 -0.2740  0.4868
13464SOL    HW240948   4.809   1.619   5.895  1.0300  0.4549 -0.1604
13465SOL     OW40949   5.338   0.270   1.766  0.0843 -0.5686  0.0574
13465SOL    HW140950   5.310   0.191   1.720  0.6157 -0.6901 -0.0735
13465SOL    HW240951   5.345   0.243   1.858  2.5160 -1.3751 -0.2666
13466SOL     OW40952   2.680   2.161   4.801  0.5073 -0.4098 -0.1279
13466SOL    HW140953   2.658   2.194   4.714 -0.5677 -1.2920 -0.2119
13466SOL    HW240954   2.759   2.108   4.788  0.0819 -0.9182 -0.6585
13467SOL     OW40955   4.168   5.205   2.904  0.0606  0.4052 -0.1807
13467SOL    HW140956   4.151   5.294   2.872  2.9730  0.7606 -1.0021
13467SOL    HW240957   4.103   5.151   2.860 -2.2565  2.1253  0.8721
13468SOL     OW40958   3.165   5.885   0.376  0.3354 -0.6555  0.0218
13468SOL    HW140959   3.245   5.927   0.343  0.2196 -0.0935  0.4531
13468SOL    HW240960   3.197   5.813   0.430  0.5447 -0.7077 -0.1699
13469SOL     OW40961   5.817   4.592   7.070  0.1807  0.2718 -0.2626
13469SOL    HW140962   5.795   4.627   6.984  0.1014 -0.3977 -0.5184
13469SOL    HW240963   5.783   4.657   7.132 -0.9229  0.1170 -0.6972
13470SOL     OW40964   5.631   6.164   2.934  0.1967  0.5925 -0.4969
13470SOL    HW140965   5.587   6.080   2.946 -0.6719  1.2357  1.3623
13470SOL    HW240966   5.570   6.216   2.882 -1.3151  1.3963  1.8578
13471SOL     OW40967   6.797   2.864   4.843  0.0921  0.8248  0.2965
13471SOL    HW140968   6.781   2.927   4.913  0.2867  0.7169  0.4397
13471SOL    HW240969   6.758   2.904   4.765 -2.5182 -0.2376  0.9473
13472SOL     OW40970   5.655   3.232   1.965  0.0212  0.0585 -0.0836
13472SOL    HW140971   5.610   3.253   1.883 -1.1800 -0.9899  0.2844
13472SOL    HW240972   5.649   3.137   1.972  0.9455  0.0471  0.7703
13473SOL     OW40973   3.427   2.327   0.785 -0.4093 -0.2584  0.1098
13473SOL    HW140974   3.467   2.378   0.856 -0.1491 -0.5860  0.2002
13473SOL    HW240975   3.499   2.276   0.749 -0.2412  0.8764 -1.2684
13474SOL     OW40976   2.060   1.993   0.158 -0.2516 -0.1335 -0.6282
13474SOL    HW140977   2.154   2.011   0.153  0.3538 -2.3976  0.9464
13474SOL    HW240978   2.040   1.941   0.080  0.2723 -1.2784 -0.0267
13475SOL     OW40979   7.039   2.635   2.567  0.1929 -0.3490  0.0643
13475SOL    HW140980   6.975   2.588   2.512  0.4526 -2.4632  1.4409
13475SOL    HW240981   6.986   2.675   2.636  0.0744  0.6238 -0.5665
13476SOL     OW40982   1.493   3.946   7.698 -0.4455 -0.4173  1.0564
13476SOL    HW140983   1.514   3.972   7.609 -1.2411 -0.1739  0.9291
13476SOL    HW240984   1.508   3.851   7.700 -1.2671 -0.5678  0.4064
13477SOL     OW40985   5.791   2.867   7.143 -0.2107 -0.2005  0.4095
13477SOL    HW140986   5.697   2.872   7.163 -0.4694 -1.0216 -0.5193
13477SOL    HW240987   5.834   2.902   7.221 -1.3101  0.9682  0.5187
13478SOL     OW40988   5.976   1.447   1.084  0.8547  0.5889 -0.0661
13478SOL    HW140989   5.920   1.507   1.135  0.1049 -0.3092  0.2008
13478SOL    HW240990   6.032   1.406   1.150  2.0467  1.6725 -0.3624
13479SOL     OW40991   0.126   1.423   5.219 -0.8051  0.7095  0.0909
13479SOL    HW140992   0.078   1.466   5.148 -0.3027  1.1329  0.0012
13479SOL    HW240993   0.088   1.335   5.224 -0.2246  0.3528 -1.3238
13480SOL     OW40994   5.425   2.425   6.651  0.3759  0.8623  1.1149
13480SOL    HW140995   5.342   2.435   6.605  0.4001  2.8469  1.4016
13480SOL    HW240996   5.472   2.506   6.632  2.4028 -0.3522  0.6987
13481SOL     OW40997   6.444   5.981   6.215  0.3878 -0.3468 -0.7223
13481SOL    HW140998   6.426   6.034   6.292  0.0854 -1.5547  0.0630
13481SOL    HW240999   6.518   5.926   6.239 -2.1313 -3.6271  0.2800
13482SOL     OW41000   6.014   5.975   2.091 -0.9081  0.0870 -0.4640
13482SOL    HW141001   6.000   5.885   2.063  0.7220 -0.3967  0.2047
13482SOL    HW241002   6.091   6.004   2.043 -0.8583  0.8087  0.0309
13483SOL     OW41003   2.589   3.662   6.677 -0.5808  0.1864 -0.5513
13483SOL    HW141004   2.662   3.606   6.702  0.5567  1.2258 -1.4037
13483SOL    HW241005   2.560   3.628   6.592 -0.4066  0.4063 -0.6993
13484SOL     OW41006   3.128   0.972   0.961  0.1557  0.2892  0.4806
13484SOL    HW141007   3.220   0.993   0.974  0.3556 -1.2303  1.8355
13484SOL    HW241008   3.091   0.966   1.049 -0.8586 -0.6493  0.0341
13485SOL     OW41009   3.198   0.571   0.738  0.1390 -0.0311  0.1006
13485SOL    HW141010   3.259   0.556   0.810  1.4747 -0.7317 -1.1335
13485SOL    HW241011   3.185   0.666   0.738  1.7666  0.2136 -0.0228
13486SOL     OW41012   3.736   6.741   3.549 -0.0200 -0.2136  0.1349
13486SOL    HW141013   3.709   6.792   3.625  0.7119 -1.1865  1.0933
13486SOL    HW241014   3.727   6.650   3.577 -0.6610 -0.6269 -1.2953
13487SOL     OW41015   6.231   5.403   4.789  0.1737 -0.1458 -0.2157
13487SOL    HW141016   6.186   5.335   4.739  0.4273 -0.2144 -0.3563
13487SOL    HW241017   6.321   5.372   4.795 -0.4753 -1.8217  3.1643
13488SOL     OW41018   1.139   3.518   3.338 -0.2160 -0.4923 -0.8300
13488SOL    HW141019   1.068   3.456   3.325  0.7993 -1.5228 -1.8027
13488SOL    HW241020   1.218   3.468   3.318  0.8186  0.5184  0.5372
13489SOL     OW41021   6.983   2.560   2.865  0.0952  0.1036 -0.1358
13489SOL    HW141022   7.042   2.508   2.810 -1.3890 -0.8205 -0.8906
13489SOL    HW241023   6.977   2.644   2.820 -0.1843 -0.2465 -0.7602
13490SOL     OW41024   7.689   2.395   1.984 -0.5557 -0.0141  0.8615
13490SOL    HW141025   7.706   2.387   2.078  2.3573  0.8102  0.4864
13490SOL    HW241026   7.621   2.462   1.977 -0.4743  0.2407  2.3370
13491SOL     OW41027   2.018   7.513   3.172 -0.6185 -0.3870 -0.0448
13491SOL    HW141028   2.001   7.459   3.249 -0.6177 -0.9309 -0.4221
13491SOL    HW241029   2.013   7.452   3.098  3.0257 -0.6671 -0.2289
13492SOL     OW41030   2.037   4.653   4.443 -0.2205 -0.7354 -0.3489
13492SOL    HW141031   2.025   4.570   4.489 -0.6851 -0.7264 -0.4490
13492SOL    HW241032   1.958   4.703   4.462  0.0792 -0.2914 -0.2466
13493SOL     OW41033   7.133   4.342   1.897  0.6247  0.1748  0.1260
13493SOL    HW141034   7.073   4.361   1.970  1.2114  2.1376  0.1457
13493SOL    HW241035   7.211   4.393   1.917  0.7258  0.9169 -1.9823
13494SOL     OW41036   6.231   4.596   1.598  0.7728  0.2638 -0.7290
13494SOL    HW141037   6.226   4.518   1.543  1.2294 -1.8620  2.0162
13494SOL    HW241038   6.322   4.600   1.626  1.0198  2.4959 -1.6527
13495SOL     OW41039   2.750   1.198   5.754 -0.5231 -0.3568  0.4032
13495SOL    HW141040   2.659   1.230   5.752 -0.2246  0.5011  0.2237
13495SOL    HW241041   2.803   1.276   5.741  0.2109 -1.0435 -0.8273
13496SOL     OW41042   5.587   1.993   6.737 -0.1393 -0.5194  1.1879
13496SOL    HW141043   5.630   2.078   6.736 -0.8543 -0.1219  2.0812
13496SOL    HW241044   5.657   1.930   6.752  0.5208 -0.1941 -0.3479
13497SOL     OW41045   4.517   1.368   7.563  0.6318  0.0785  0.4516
13497SOL    HW141046   4.607   1.398   7.552  1.0609 -0.3638  2.3325
13497SOL    HW241047   4.516   1.281   7.523  0.7909  0.4559 -0.3783
13498SOL     OW41048   6.235   0.836   7.644  0.2718 -0.4544 -0.5472
13498SOL    HW141049   6.312   0.889   7.624 -1.0970  1.7168 -0.3132
13498SOL    HW241050   6.165   0.899   7.660 -1.4590 -2.3426 -0.2313
13499SOL     OW41051   0.924   2.609   0.081 -0.4015  0.3843 -0.4120
13499SOL    HW141052   0.962   2.664   0.150  0.8943  0.6598 -1.3166
13499SOL    HW241053   0.861   2.666   0.038 -1.2514  0.1997  0.5509
13500SOL     OW41054   5.086   5.902   6.382 -0.1175  0.0349  0.4850
13500SOL    HW141055   5.071   5.915   6.475  0.4807  1.6140  0.3912
13500SOL    HW241056   5.006   5.934   6.340  0.4243  1.3560  0.3834
13501SOL     OW41057   3.687   1.910   1.921 -0.2275  0.3595  0.0642
13501SOL    HW141058   3.769   1.937   1.881  0.2411  0.1239  0.8458
13501SOL    HW241059   3.668   1.976   1.987 -0.0747 -0.1669  0.6529
13502SOL     OW41060   3.060   3.369   7.199  0.0438 -0.0684  0.4853
13502SOL    HW141061   3.034   3.348   7.288 -0.4740 -1.6736 -0.0055
13502SOL    HW241062   3.154   3.348   7.195 -0.0153 -0.3359  0.5446
13503SOL     OW41063   7.648   3.225   2.130  0.2093  0.2434 -0.5905
13503SOL    HW141064   7.635   3.302   2.186 -0.3232  0.6579 -1.2651
13503SOL    HW241065   7.614   3.252   2.045  1.1936 -0.3181 -1.1663
13504SOL     OW41066   4.185   2.207   5.287 -0.7880  0.0191  0.1190
13504SOL    HW141067   4.271   2.247   5.281 -0.2509 -0.3792  3.2551
13504SOL    HW241068   4.193   2.124   5.241  0.9437 -0.5828  1.4143
13505SOL     OW41069   3.561   1.199   3.451  0.3814 -0.5715 -0.3593
13505SOL    HW141070   3.548   1.183   3.544  0.6970  0.6506 -0.0963
13505SOL    HW241071   3.473   1.206   3.415  0.2614 -0.7940 -0.1167
13506SOL     OW41072   2.648   2.205   6.781 -0.7395  0.1809 -0.6398
13506SOL    HW141073   2.617   2.127   6.826  0.9950 -0.3172 -0.2426
13506SOL    HW241074   2.712   2.244   6.841  1.0782 -0.0870 -2.3077
13507SOL     OW41075   0.651   0.585   1.555 -0.2059 -0.1916 -0.2799
13507SOL    HW141076   0.559   0.601   1.533  0.1442 -0.6521 -2.2047
13507SOL    HW241077   0.700   0.652   1.507  0.3460  3.2391  4.3415
13508SOL     OW41078   2.492   5.320   1.062 -0.0533 -0.1853 -0.4581
13508SOL    HW141079   2.549   5.356   0.994  1.8652 -2.5969 -0.2875
13508SOL    HW241080   2.551   5.304   1.136 -1.2702 -1.2972  0.3147
13509SOL     OW41081   5.664   4.419   1.471 -0.5326  0.1280  0.0536
13509SOL    HW141082   5.625   4.498   1.435  1.2291  1.5513  1.0742
13509SOL    HW241083   5.686   4.442   1.562  3.7238 -0.0204 -0.7143
13510SOL     OW41084   7.179   1.977   1.047  0.2717 -0.4314 -0.1333
13510SOL    HW141085   7.268   1.942   1.044  1.1028  1.5270 -0.0173
13510SOL    HW241086   7.164   2.013   0.960 -0.4013 -0.7264 -0.1464
13511SOL     OW41087   6.776   4.285   0.588  0.2850  0.0277  0.0334
13511SOL    HW141088   6.684   4.309   0.583  0.2989 -0.0786 -1.3888
13511SOL    HW241089   6.814   4.343   0.654 -0.6504  0.5610  0.1101
13512SOL     OW41090   6.914   2.907   7.235 -0.0012  0.1888  0.7661
13512SOL    HW141091   6.882   2.840   7.295 -0.7811  1.5814  1.9946
13512SOL    HW241092   6.921   2.986   7.290  5.5990  0.1179  0.6851
13513SOL     OW41093   5.986   3.342   6.716  0.4667 -0.1523 -0.0283
13513SOL    HW141094   6.008   3.427   6.755  2.6753 -0.5026 -0.4068
13513SOL    HW241095   6.002   3.278   6.785 -0.2521 -0.3577 -0.0448
13514SOL     OW41096   5.203   7.601   3.269  0.0841 -0.1422  0.4251
13514SOL    HW141097   5.216   7.544   3.345 -0.3977  1.5581  1.8315
13514SOL    HW241098   5.260   7.677   3.285 -0.5682  0.5836 -0.5640
13515SOL     OW41099   7.180   3.147   0.410  0.1720  0.1478 -0.1941
13515SOL    HW141100   7.264   3.155   0.365  1.7575  4.2079  2.8665
13515SOL    HW241101   7.184   3.062   0.454  2.6227  0.1214 -0.3160
13516SOL     OW41102   7.307   1.218   2.082 -0.5838 -0.4687  0.7014
13516SOL    HW141103   7.306   1.282   2.010  0.5455 -0.6817  0.4789
13516SOL    HW241104   7.329   1.269   2.159 -0.1600 -0.5010  0.6056
13517SOL     OW41105   7.369   5.548   5.033  0.1363 -0.3332 -0.0681
13517SOL    HW141106   7.453   5.573   5.073 -0.2122  1.3119 -0.2881
13517SOL    HW241107   7.394   5.494   4.959  1.1338  1.3455 -1.0218
13518SOL     OW41108   6.212   6.465   2.219  0.2189 -0.1013 -0.4140
13518SOL    HW141109   6.224   6.476   2.124  0.9603 -0.2943 -0.3469
13518SOL    HW241110   6.129   6.418   2.227 -0.2257  0.5776 -0.9366
13519SOL     OW41111   2.916   1.241   2.512 -0.5015  0.5125 -0.1985
13519SOL    HW141112   2.946   1.305   2.577 -0.5885  1.2895 -0.9089
13519SOL    HW241113   2.966   1.262   2.433  0.4652 -1.1831 -0.0700
13520SOL     OW41114   5.390   1.333   3.930 -0.6977 -0.5465  0.3129
13520SOL    HW141115   5.481   1.344   3.958 -0.5809  0.3061 -0.3457
13520SOL    HW241116   5.354   1.268   3.990  0.1088 -0.2675  1.1318
13521SOL     OW41117   7.267   0.151   5.465  1.0790  0.2622 -0.2537
13521SOL    HW141118   7.287   0.130   5.374 -0.6406  2.1278 -1.1361
13521SOL    HW241119   7.267   0.247   5.468 -1.8552  0.3227  0.9384
13522SOL     OW41120   3.325   5.724   5.429  0.4317  0.2347 -0.1627
13522SOL    HW141121   3.350   5.631   5.429  0.0460  0.1267 -0.6131
13522SOL    HW241122   3.232   5.723   5.451 -0.3826  0.2603 -3.1463
13523SOL     OW41123   4.092   4.389   5.660 -0.0295  0.1250 -0.0341
13523SOL    HW141124   4.084   4.313   5.717 -1.7971  0.5699  0.3657
13523SOL    HW241125   4.045   4.365   5.580 -0.3671  0.6882 -0.0150
13524SOL     OW41126   0.090   6.320   4.368 -0.2215 -0.5666  0.7823
13524SOL    HW141127   0.099   6.227   4.352 -0.4843 -0.2153 -1.6903
13524SOL    HW241128   0.180   6.350   4.387  0.1306 -1.0333 -0.1247
13525SOL     OW41129   4.311   2.932   1.771  0.1275  0.3135  0.0395
13525SOL    HW141130   4.349   2.979   1.845  3.1491  0.2904 -1.3376
13525SOL    HW241131   4.322   2.840   1.792 -1.3075  0.2336  0.5802
13526SOL     OW41132   0.605   3.279   4.156  0.0005 -0.2202  0.4817
13526SOL    HW141133   0.593   3.237   4.070 -0.6221  0.1415  0.3865
13526SOL    HW241134   0.517   3.282   4.193  0.1602  0.2945  0.8191
13527SOL     OW41135   3.643   2.802   1.056  0.8479  0.2586  0.1322
13527SOL    HW141136   3.623   2.773   1.145 -0.4857 -1.4605 -0.6655
13527SOL    HW241137   3.580   2.872   1.039 -0.8779 -1.3596 -0.4128
13528SOL     OW41138   6.985   3.192   7.115 -0.1006  0.4234 -0.1680
13528SOL    HW141139   7.078   3.170   7.110 -0.4551 -1.0110 -1.0179
13528SOL    HW241140   6.966   3.192   7.209  0.4145 -0.8750 -0.0438
13529SOL     OW41141   4.168   0.975   2.538 -0.3052  0.4576 -0.1253
13529SOL    HW141142   4.118   1.055   2.525 -0.5790  0.1741 -0.8840
13529SOL    HW241143   4.253   1.004   2.571 -0.4925  1.0403 -0.1587
13530SOL     OW41144   6.582   0.667   2.273  0.1961 -0.2464 -0.7206
13530SOL    HW141145   6.521   0.608   2.229 -0.5655 -0.6997  0.8838
13530SOL    HW241146   6.528   0.722   2.328  0.9539  1.6362 -1.7522
13531SOL     OW41147   3.982   0.690   4.225  0.0415  0.2265  0.2622
13531SOL    HW141148   3.931   0.770   4.219 -0.1921 -0.0361 -2.4681
13531SOL    HW241149   4.071   0.717   4.201 -0.5897 -0.6720 -3.8264
13532SOL     OW41150   5.329   0.442   7.570 -0.0720  0.0322 -0.2716
13532SOL    HW141151   5.370   0.466   7.653  0.2593  0.8738 -0.6634
13532SOL    HW241152   5.400   0.448   7.506 -0.6256  0.7701 -0.8335
13533SOL     OW41153   2.964   3.104   4.558  0.4238  0.3464  0.1288
13533SOL    HW141154   2.891   3.166   4.550  0.3382  0.2387  0.0772
13533SOL    HW241155   2.962   3.076   4.649 -0.9796 -1.3461 -0.3762
13534SOL     OW41156   6.926   3.243   1.074 -0.1836 -0.2487 -0.3411
13534SOL    HW141157   6.992   3.193   1.026 -0.2898  0.2427 -1.0215
13534SOL    HW241158   6.931   3.210   1.164  1.7479  0.5097 -0.1225
13535SOL     OW41159   6.610   2.740   2.207  0.4208 -0.3614  0.3964
13535SOL    HW141160   6.703   2.737   2.182  0.5775  0.8517  0.7425
13535SOL    HW241161   6.564   2.762   2.126  0.6630  0.9993  0.5985
13536SOL     OW41162   5.596   7.099   7.266 -0.4812  0.2771 -0.1664
13536SOL    HW141163   5.602   7.171   7.203  0.1252 -0.0392 -0.4726
13536SOL    HW241164   5.518   7.051   7.240 -1.3605  1.2729  0.5269
13537SOL     OW41165   5.477   6.402   5.289  0.2440 -0.0533  0.1184
13537SOL    HW141166   5.552   6.413   5.230  2.2541 -0.3665  2.4558
13537SOL    HW241167   5.441   6.490   5.298 -0.3484 -0.0638 -1.8215
13538SOL     OW41168   6.178   3.442   0.566  0.6093  0.2505  0.2357
13538SOL    HW141169   6.233   3.519   0.578  2.5957 -0.9187 -0.7827
13538SOL    HW241170   6.227   3.388   0.504 -0.8831 -1.6760  0.6550
13539SOL     OW41171   7.440   4.661   6.917 -0.3522  0.4185  0.2198
13539SOL    HW141172   7.507   4.729   6.902  0.3631  0.0329  1.5311
13539SOL    HW241173   7.359   4.699   6.882  0.3826  1.2114 -0.6952
13540SOL     OW41174   4.987   2.693   2.926  0.5068 -0.0652  0.5831
13540SOL    HW141175   5.046   2.652   2.988 -0.4659 -2.4516  0.0343
13540SOL    HW241176   4.978   2.784   2.957  4.5360  0.5020  0.5452
13541SOL     OW41177   0.814   5.471   6.768  0.2948  0.3326  0.0513
13541SOL    HW141178   0.809   5.376   6.756 -1.4281  0.2040  1.5131
13541SOL    HW241179   0.905   5.493   6.745  1.0300 -1.8068  0.7025
13542SOL     OW41180   7.511   2.605   1.968  0.8115  0.1747  0.1651
13542SOL    HW141181   7.431   2.560   1.943  3.0952 -2.9476 -2.3255
13542SOL    HW241182   7.501   2.694   1.935 -1.3681 -0.2915 -0.5420
13543SOL     OW41183   1.482   3.213   3.902  0.4424  0.1288  0.1028
13543SOL    HW141184   1.519   3.189   3.987 -0.0012  1.8449  0.8310
13543SOL    HW241185   1.485   3.309   3.902 -2.5053  0.2878 -0.4793
13544SOL     OW41186   3.791   5.153   2.305 -0.0843  0.0865  0.2134
13544SOL    HW141187   3.726   5.191   2.364  0.0507  1.2538 -0.3618
13544SOL    HW241188   3.763   5.180   2.217  1.4121  1.0230 -0.0130
13545SOL     OW41189   0.597   4.801   5.457 -0.0574 -0.1067 -0.2351
13545SOL    HW141190   0.639   4.791   5.542 -0.2009 -0.8864 -0.2472
13545SOL    HW241191   0.668   4.784   5.394  0.1501  0.8852 -0.2859
13546SOL     OW41192   0.341   2.490   6.572  0.0324  0.0902 -0.0864
13546SOL    HW141193   0.297   2.469   6.490  1.3277  1.7550 -1.2671
13546SOL    HW241194   0.434   2.483   6.552  0.3727 -0.8938  1.6672
13547SOL     OW41195   1.095   7.354   3.717 -0.3863 -0.1755 -0.5068
13547SOL    HW141196   1.074   7.307   3.636  0.5772  2.3533 -2.3529
13547SOL    HW241197   1.013   7.357   3.766 -0.9052 -2.0595 -1.1827
13548SOL     OW41198   0.604   0.262   0.266  0.1311  0.3324  0.2585
13548SOL    HW141199   0.602   0.298   0.355 -2.6795  2.2491 -0.4227
13548SOL    HW241200   0.686   0.294   0.230  0.4685  1.0929  1.6030
13549SOL     OW41201   4.436   2.617   2.279 -0.4657  0.1470  0.3334
13549SOL    HW141202   4.527   2.647   2.271 -0.8299  0.9030 -1.5710
13549SOL    HW241203   4.424   2.603   2.373  0.9312  2.2754  0.9163
13550SOL     OW41204   7.751   3.935   3.849 -0.3120  0.0223 -0.0281
13550SOL    HW141205   7.744   3.985   3.931  2.9926 -1.4396  1.3173
13550SOL    HW241206   7.713   3.849   3.870 -0.5674  0.0304 -0.4409
13551SOL     OW41207   7.259   3.842   7.563 -0.2233  0.1874 -0.8378
13551SOL    HW141208   7.272   3.914   7.502 -1.6140  0.4375 -0.8885
13551SOL    HW241209   7.164   3.825   7.560  0.0036 -1.3624 -0.5181
13552SOL     OW41210   7.476   1.741   1.703  0.2459 -0.5665  0.2046
13552SOL    HW141211   7.437   1.730   1.790 -1.2190 -0.6198 -0.4359
13552SOL    HW241212   7.552   1.682   1.704 -1.0339 -2.2892  0.7036
13553SOL     OW41213   2.437   2.716   4.543 -0.1250 -0.0683 -0.1201
13553SOL    HW141214   2.460   2.628   4.510  0.2652 -0.2587  0.6320
13553SOL    HW241215   2.386   2.699   4.622  2.2920  0.3353  1.6340
13554SOL     OW41216   4.998   6.132   5.804 -0.3007 -0.0381 -0.2615
13554SOL    HW141217   5.003   6.039   5.826 -0.0824 -0.7752 -2.9876
13554SOL    HW241218   4.924   6.138   5.743 -0.5670  1.6602  0.1932
13555SOL     OW41219   4.763   0.157   5.460  0.2555  0.0737 -0.3576
13555SOL    HW141220   4.854   0.182   5.471 -0.2606  1.0773  2.6212
13555SOL    HW241221   4.713   0.235   5.485 -1.4454 -0.4167 -2.0052
13556SOL     OW41222   7.390   4.019   4.089 -0.1595  1.1041 -0.7265
13556SOL    HW141223   7.324   4.006   4.022  0.5943  1.6085 -1.5945
13556SOL    HW241224   7.432   3.933   4.099 -2.6484  0.0277  1.7802
13557SOL     OW41225   5.408   6.123   5.788  0.0663  0.4403 -0.2406
13557SOL    HW141226   5.414   6.065   5.864  0.2319 -0.4714 -0.9355
13557SOL    HW241227   5.482   6.183   5.798  0.9669 -0.6040 -0.4315
13558SOL     OW41228   7.408   4.674   4.796 -0.2846  0.5839  0.3202
13558SOL    HW141229   7.403   4.689   4.891  0.6645  0.4176  0.4136
13558SOL    HW241230   7.409   4.579   4.787  1.9103  0.5545  0.3337
13559SOL     OW41231   4.079   4.441   0.077 -0.1065  0.1193  0.1360
13559SOL    HW141232   4.116   4.516   0.030  0.5337 -0.8899 -1.0199
13559SOL    HW241233   4.049   4.382   0.009 -0.9162 -0.5475  1.0387
13560SOL     OW41234   2.638   6.018   6.523 -0.4470 -0.2953  0.6576
13560SOL    HW141235   2.643   5.923   6.507  1.7378  0.2398 -2.8669
13560SOL    HW241236   2.727   6.043   6.547 -0.6771  1.0561  0.1707
13561SOL     OW41237   4.859   3.074   4.413  0.4747 -0.1119  0.6409
13561SOL    HW141238   4.919   3.147   4.398  0.7407 -0.1166  1.6298
13561SOL    HW241239   4.856   3.064   4.508 -0.2436 -0.8250  0.5553
13562SOL     OW41240   3.834   6.626   1.754  0.2198 -0.7486  0.1889
13562SOL    HW141241   3.916   6.675   1.748 -0.2111  0.2551  1.8842
13562SOL    HW241242   3.856   6.538   1.722  1.9769 -0.5381  0.7296
13563SOL     OW41243   1.751   1.985   0.820  0.1636 -0.2204  0.3474
13563SOL    HW141244   1.716   2.068   0.851 -0.7545 -0.9686  1.3881
13563SOL    HW241245   1.678   1.924   0.826  0.6649 -0.9995 -0.9097
13564SOL     OW41246   3.792   1.633   1.913 -0.0812  0.0369  0.3975
13564SOL    HW141247   3.835   1.709   1.951 -1.3322  1.0849 -0.1883
13564SOL    HW241248   3.709   1.667   1.879  0.0041 -1.2837 -1.2562
13565SOL     OW41249   0.473   2.357   7.424 -0.2523  0.2635  0.1726
13565SOL    HW141250   0.421   2.437   7.436 -1.5945 -0.3256 -1.3223
13565SOL    HW241251   0.516   2.370   7.339 -0.8797 -0.7807 -0.3263
13566SOL     OW41252   7.666   5.833   0.292  0.5908  0.1953  0.0192
13566SOL    HW141253   7.589   5.819   0.348  1.6465  0.9223  1.7365
13566SOL    HW241254   7.732   5.774   0.327  0.9657 -0.1334 -1.1957
13567SOL     OW41255   2.016   5.773   3.389 -0.2053  0.0078  0.4681
13567SOL    HW141256   2.076   5.720   3.337 -0.2365  0.9720 -0.5663
13567SOL    HW241257   2.062   5.856   3.403 -1.8231  1.3568 -1.6390
13568SOL     OW41258   4.694   5.608   5.161 -0.2470  0.0508 -0.5973
13568SOL    HW141259   4.675   5.574   5.073  0.4235  0.8583 -1.0814
13568SOL    HW241260   4.656   5.544   5.221 -0.2495 -0.7958 -1.4754
13569SOL     OW41261   4.772   1.642   3.972 -0.1071 -0.2601 -0.2412
13569SOL    HW141262   4.705   1.629   4.038  0.1278 -1.7611 -0.2588
13569SOL    HW241263   4.809   1.728   3.991 -0.0210 -0.6663  1.6104
13570SOL     OW41264   6.618   6.223   4.956 -0.3363 -0.2402  0.0677
13570SOL    HW141265   6.607   6.314   4.927 -1.0952 -0.0453  0.9156
13570SOL    HW241266   6.712   6.206   4.947 -0.1672  0.6686  0.0272
13571SOL     OW41267   5.951   0.433   6.897 -0.1335  0.1460  0.4516
13571SOL    HW141268   6.034   0.429   6.849  0.6813 -1.5127  1.8763
13571SOL    HW241269   5.974   0.407   6.986 -2.0277  0.7053  1.1421
13572SOL     OW41270   1.633   1.776   2.202  0.1256 -0.1637 -0.0002
13572SOL    HW141271   1.576   1.843   2.164 -2.1999 -1.4313  1.0846
13572SOL    HW241272   1.693   1.825   2.258  0.4270  1.2520 -1.4755
13573SOL     OW41273   0.465   0.339   0.747  0.0146  0.3069  0.4153
13573SOL    HW141274   0.383   0.302   0.779  1.1839 -1.3800  1.7128
13573SOL    HW241275   0.516   0.262   0.719  1.1782  1.2941 -0.2686
13574SOL     OW41276   6.026   2.175   0.437 -0.1781 -0.0738  0.2412
13574SOL    HW141277   5.978   2.253   0.464  0.4254  0.4099 -0.0467
13574SOL    HW241278   6.118   2.201   0.441 -0.0256 -0.1843 -1.6087
13575SOL     OW41279   6.411   6.019   5.766  0.0112 -0.3648 -0.9814
13575SOL    HW141280   6.496   5.991   5.800 -0.6720 -1.3881 -0.0452
13575SOL    HW241281   6.383   6.090   5.824 -0.0244 -0.4050 -0.9495
13576SOL     OW41282   7.372   3.000   0.557 -0.0413  0.7163 -0.1628
13576SOL    HW141283   7.350   2.921   0.508 -0.5834  0.9316 -0.2798
13576SOL    HW241284   7.448   2.976   0.608 -0.6785 -0.1355  0.4191
13577SOL     OW41285   7.419   2.434   5.588  0.2183 -0.2827  0.1357
13577SOL    HW141286   7.423   2.371   5.660 -2.1340  0.1162  0.7008
13577SOL    HW241287   7.446   2.517   5.627  1.5133 -0.5499 -0.1459
13578SOL     OW41288   7.249   6.569   2.378 -0.4548 -0.5360  0.2145
13578SOL    HW141289   7.264   6.545   2.286  1.5593  0.2852  0.2837
13578SOL    HW241290   7.251   6.665   2.379 -0.4995 -0.5343  1.1137
13579SOL     OW41291   7.648   1.494   0.903  0.3515  0.5423 -0.0872
13579SOL    HW141292   7.576   1.527   0.849 -1.5415  1.3637  2.7291
13579SOL    HW241293   7.628   1.401   0.915 -0.6883  0.8914  1.1863
13580SOL     OW41294   3.667   0.666   2.223  0.1885  0.7518  0.8785
13580SOL    HW141295   3.606   0.596   2.246 -0.6192  1.7151  1.7768
13580SOL    HW241296   3.752   0.634   2.250 -0.2407  0.2957  1.7225
13581SOL     OW41297   4.652   1.526   0.293  0.1339  0.3958  0.0143
13581SOL    HW141298   4.611   1.584   0.357 -1.4154  0.1710 -0.7356
13581SOL    HW241299   4.631   1.565   0.208 -0.7738 -1.1128 -0.4944
13582SOL     OW41300   2.248   6.096   7.746 -0.2224 -0.3640 -0.0706
13582SOL    HW141301   2.212   6.089   7.657 -0.9845 -2.4531  0.3454
13582SOL    HW241302   2.221   6.015   7.789 -0.0301  0.6931  2.1556
13583SOL     OW41303   6.337   2.740   0.267 -0.3165 -0.0294  0.3307
13583SOL    HW141304   6.376   2.797   0.201 -0.9095  0.9654  0.8135
13583SOL    HW241305   6.267   2.792   0.305 -0.3128 -0.7735  1.4034
13584SOL     OW41306   6.571   4.153   3.964 -0.0856 -0.3689  0.5419
13584SOL    HW141307   6.642   4.091   3.952 -0.3511 -0.7749  1.0579
13584SOL    HW241308   6.585   4.219   3.896  0.5762 -0.6350  0.4189
13585SOL     OW41309   6.147   2.807   5.728  0.1794  0.1896  0.9774
13585SOL    HW141310   6.103   2.855   5.798  0.5599  1.2605  0.5042
13585SOL    HW241311   6.237   2.796   5.760  0.2883  0.4578  0.7599
13586SOL     OW41312   6.052   0.670   6.243 -0.2232  0.1354  0.1622
13586SOL    HW141313   5.986   0.654   6.175  0.8051 -2.1637 -0.4134
13586SOL    HW241314   6.056   0.765   6.251 -2.3755  0.3958 -0.9872
13587SOL     OW41315   2.715   1.052   1.217 -0.0887  0.1319 -0.2760
13587SOL    HW141316   2.708   0.965   1.179  1.0127  0.4780 -1.3257
13587SOL    HW241317   2.803   1.082   1.196 -0.5259  1.6121 -0.1847
13588SOL     OW41318   3.251   1.588   7.617 -0.2755 -0.2822  0.0319
13588SOL    HW141319   3.193   1.663   7.606 -1.8536 -1.4099  0.3411
13588SOL    HW241320   3.236   1.559   7.707 -2.2803 -2.9821 -1.0518
13589SOL     OW41321   5.466   3.674   5.072  0.9282 -0.3866 -0.1234
13589SOL    HW141322   5.465   3.769   5.076  0.1408 -0.3509 -0.8892
13589SOL    HW241323   5.559   3.650   5.082  1.1557  0.4627 -0.1613
13590SOL     OW41324   0.830   1.440   6.427  0.1901 -0.3772  0.5383
13590SOL    HW141325   0.827   1.527   6.387 -2.3197 -0.4395  0.4389
13590SOL    HW241326   0.903   1.395   6.383  0.7163  1.2273 -0.3019
13591SOL     OW41327   5.169   1.379   1.858  0.3286  1.3565 -0.5385
13591SOL    HW141328   5.205   1.290   1.860  0.2557  1.3096  2.3991
13591SOL    HW241329   5.075   1.367   1.873  0.3210  1.9215 -0.1172
13592SOL     OW41330   3.747   7.535   6.216 -0.3189 -0.0144  0.2334
13592SOL    HW141331   3.716   7.596   6.283  0.9258  0.9538 -0.0322
13592SOL    HW241332   3.705   7.452   6.237 -0.9583  0.5933  1.4363
13593SOL     OW41333   4.285   4.188   5.474 -0.2204  0.3842  0.1125
13593SOL    HW141334   4.198   4.212   5.444  0.2170  0.9285 -0.7469
13593SOL    HW241335   4.273   4.105   5.520 -1.1803  0.4484 -0.0191
13594SOL     OW41336   1.366   4.927   0.037 -0.4404 -0.5522 -0.0924
13594SOL    HW141337   1.393   4.877   0.115 -1.3461  1.0460  1.3007
13594SOL    HW241338   1.407   5.013   0.048  0.3984 -0.6485 -2.0278
13595SOL     OW41339   3.927   0.908   1.425  0.1880  0.4527 -0.6357
13595SOL    HW141340   3.992   0.848   1.389  1.2084  0.8993  0.3966
13595SOL    HW241341   3.977   0.966   1.483 -1.2780  0.0567  1.1311
13596SOL     OW41342   4.456   2.197   0.935 -0.1913 -0.5776  0.4679
13596SOL    HW141343   4.404   2.223   1.011  0.5653 -0.3906  0.9332
13596SOL    HW241344   4.418   2.114   0.907 -1.3832  0.0567  0.1695
13597SOL     OW41345   3.606   3.825   7.238  0.2460  0.0563  0.2319
13597SOL    HW141346   3.538   3.839   7.171  0.1816 -0.1776  0.2495
13597SOL    HW241347   3.681   3.874   7.205 -1.1872  4.0893  2.2743
13598SOL     OW41348   1.514   0.136   4.460 -0.2037  0.3784  0.4459
13598SOL    HW141349   1.470   0.116   4.378 -1.8775  1.8851  0.9040
13598SOL    HW241350   1.607   0.136   4.438 -0.2991 -3.1464 -0.5091
13599SOL     OW41351   4.658   3.057   0.824 -0.3922 -0.4046  0.2961
13599SOL    HW141352   4.576   3.085   0.865  0.0014  0.1534  0.7245
13599SOL    HW241353   4.693   3.137   0.784 -0.2231 -0.7085 -0.1641
13600SOL     OW41354   1.164   7.267   4.035  0.1633  0.1386  1.0780
13600SOL    HW141355   1.164   7.362   4.026  1.2921  0.0133 -0.5322
13600SOL    HW241356   1.097   7.250   4.101  1.3528  2.1720  2.9582
13601SOL     OW41357   1.363   0.355   6.040  0.3055  0.1451  0.1682
13601SOL    HW141358   1.270   0.365   6.017  0.4166  0.6157 -0.0958
13601SOL    HW241359   1.391   0.275   5.995 -0.5609 -1.3717  2.1560
13602SOL     OW41360   3.109   1.324   7.173 -0.6338  0.1563  0.3260
13602SOL    HW141361   3.088   1.285   7.088  1.6867  1.6706 -1.0415
13602SOL    HW241362   3.202   1.307   7.186 -0.4142  1.9004  1.4560
13603SOL     OW41363   2.342   3.273   5.043  0.1422  0.1518  0.6100
13603SOL    HW141364   2.291   3.337   4.993  0.7760  1.1324  1.1819
13603SOL    HW241365   2.409   3.325   5.087  0.0086 -0.7575  1.9613
13604SOL     OW41366   1.112   6.007   6.611 -0.1395  0.1509 -0.1982
13604SOL    HW141367   1.059   6.071   6.563 -0.8740  0.7316  1.3345
13604SOL    HW241368   1.084   6.015   6.702  2.5568  0.4439  0.7028
13605SOL     OW41369   0.200   5.580   5.071 -0.0798 -0.3531 -0.1986
13605SOL    HW141370   0.175   5.536   5.152 -0.6173  0.0589 -0.1329
13605SOL    HW241371   0.296   5.585   5.075 -0.0416 -1.1508 -0.0270
13606SOL     OW41372   2.249   2.584   4.027 -0.2122 -0.3331 -0.3138
13606SOL    HW141373   2.295   2.655   4.072 -0.6112 -1.1523  1.4870
13606SOL    HW241374   2.316   2.543   3.973  0.8263 -0.5475  1.0764
13607SOL     OW41375   3.625   0.811   4.566 -0.2860 -0.7110 -0.2074
13607SOL    HW141376   3.587   0.851   4.488  0.1549  0.7289  0.2835
13607SOL    HW241377   3.703   0.862   4.584 -1.2084  0.0445  2.0825
13608SOL     OW41378   1.262   5.580   1.672  0.0207  0.0559 -0.3582
13608SOL    HW141379   1.252   5.629   1.754 -0.2929  0.3672 -0.5810
13608SOL    HW241380   1.357   5.571   1.661  0.0672  0.1177 -0.0257
13609SOL     OW41381   1.326   0.012   1.088 -0.1186 -0.0008  0.0017
13609SOL    HW141382   1.410  -0.026   1.061  0.0655  0.5568 -0.2303
13609SOL    HW241383   1.265  -0.061   1.088 -0.3189  0.0596 -2.6931
13610SOL     OW41384   2.532   3.748   2.938 -0.8061  0.3412 -0.5505
13610SOL    HW141385   2.560   3.834   2.969  0.6512 -0.4835  0.5595
13610SOL    HW241386   2.445   3.735   2.977 -2.3668  2.4137 -3.0040
13611SOL     OW41387   2.872   6.084   0.336  0.4866 -0.1472 -0.5112
13611SOL    HW141388   2.878   6.150   0.405 -3.7209 -1.4368  1.4095
13611SOL    HW241389   2.961   6.052   0.326  1.8913  2.5887  1.7495
13612SOL     OW41390   5.740   3.326   7.599 -0.4946 -0.3435 -0.2917
13612SOL    HW141391   5.757   3.255   7.661 -0.4746  0.3388  0.5006
13612SOL    HW241392   5.646   3.339   7.603 -0.2796  1.0018  1.0811
13613SOL     OW41393   5.663   6.609   6.876  0.2106  0.7900 -0.0520
13613SOL    HW141394   5.744   6.570   6.911  0.4227  0.1302 -1.2441
13613SOL    HW241395   5.595   6.581   6.937  1.2602  4.2013  3.0514
13614SOL     OW41396   7.232   3.886   0.884  0.1645  0.5194  0.9164
13614SOL    HW141397   7.244   3.834   0.963  0.8543  0.9097  1.0799
13614SOL    HW241398   7.192   3.826   0.821  0.6124 -0.1032  1.2171
13615SOL     OW41399   4.422   6.521   1.734  0.3432  0.1707 -0.2177
13615SOL    HW141400   4.336   6.548   1.702  0.5412 -0.9606 -1.8387
13615SOL    HW241401   4.403   6.459   1.804 -0.1487  0.3477 -0.1907
13616SOL     OW41402   1.369   7.202   7.254 -0.1800 -0.0239 -0.4668
13616SOL    HW141403   1.438   7.197   7.321  1.3095  0.2255 -1.8991
13616SOL    HW241404   1.289   7.178   7.300  1.0809 -1.7850  0.9612
13617SOL     OW41405   0.093   5.657   4.098 -0.3270  0.6340  0.6497
13617SOL    HW141406   0.034   5.582   4.085  0.4792  0.2651 -1.3881
13617SOL    HW241407   0.089   5.704   4.014  0.2779  2.0850  1.4047
13618SOL     OW41408   3.314   6.580   2.328  0.1545 -0.4287  0.2536
13618SOL    HW141409   3.361   6.502   2.299 -2.0610 -1.6859 -0.2096
13618SOL    HW241410   3.303   6.569   2.422  2.0487  0.6467  0.6497
13619SOL     OW41411   5.804   3.173   0.115 -0.4474  0.0371 -0.4747
13619SOL    HW141412   5.723   3.160   0.165  0.4433 -1.5280  0.6484
13619SOL    HW241413   5.809   3.096   0.058 -0.1051  0.4796 -1.0486
13620SOL     OW41414   2.879   5.584   7.065  0.7399 -0.3563  0.2695
13620SOL    HW141415   2.925   5.511   7.022  2.3937  0.0811  1.1948
13620SOL    HW241416   2.948   5.630   7.113 -0.4018  1.3948  0.2983
13621SOL     OW41417   0.959   7.348   0.876  0.6265  0.4135  0.3468
13621SOL    HW141418   1.027   7.291   0.912 -0.7202 -0.6060  1.3717
13621SOL    HW241419   0.963   7.335   0.782  0.8715 -0.7653  0.5087
13622SOL     OW41420   6.049   5.071   7.214 -0.0897 -0.1975 -0.0157
13622SOL    HW141421   6.035   5.152   7.264 -1.6452 -1.5139  1.8198
13622SOL    HW241422   6.109   5.097   7.144 -1.4924  2.8351 -0.2613
13623SOL     OW41423   4.248   4.313   5.137  0.5903  0.0755 -0.5134
13623SOL    HW141424   4.224   4.265   5.058  0.0855 -0.6193  0.0438
13623SOL    HW241425   4.202   4.267   5.207 -0.4888  1.7786 -0.0292
13624SOL     OW41426   3.050   3.265   1.989  0.1399 -0.6866  0.8092
13624SOL    HW141427   3.143   3.283   2.004  0.5191  0.7433 -2.3328
13624SOL    HW241428   3.049   3.184   1.939 -0.1298  0.0647 -0.4496
13625SOL     OW41429   2.022   3.392   6.046 -0.1415 -0.0614 -0.1945
13625SOL    HW141430   2.051   3.447   5.973 -1.0250 -0.9927 -1.2871
13625SOL    HW241431   2.007   3.306   6.006 -2.0158 -0.2374  0.8140
13626SOL     OW41432   2.291   4.261   0.961 -0.3806  0.0265  0.8081
13626SOL    HW141433   2.351   4.202   0.915 -1.6152 -0.0492 -0.8018
13626SOL    HW241434   2.215   4.208   0.981 -1.3219  0.9119 -0.2513
13627SOL     OW41435   2.300   0.589   3.988  0.0770  0.5825 -0.7180
13627SOL    HW141436   2.385   0.632   3.997  1.1757 -1.5646 -0.1028
13627SOL    HW241437   2.252   0.613   4.067  0.9115  0.1597 -0.0793
13628SOL     OW41438   5.963   2.704   4.492 -0.0334  0.0949  0.4130
13628SOL    HW141439   6.030   2.764   4.459 -0.7237  1.0851  0.7626
13628SOL    HW241440   5.894   2.761   4.525 -0.6283 -0.8988  0.9384
13629SOL     OW41441   1.872   6.350   6.849 -0.1031 -0.3884 -0.2453
13629SOL    HW141442   1.931   6.284   6.814  2.9730  1.4991  0.9256
13629SOL    HW241443   1.790   6.338   6.801  1.8017 -1.9851 -3.4211
13630SOL     OW41444   1.551   7.030   3.884  0.0064 -0.3082 -0.0453
13630SOL    HW141445   1.619   7.083   3.925 -0.4851  0.7231 -0.5464
13630SOL    HW241446   1.505   6.989   3.958  1.5624 -1.5625  0.2905
13631SOL     OW41447   1.698   5.536   6.078 -0.4826  0.2962  0.2123
13631SOL    HW141448   1.700   5.488   5.995  1.0151  0.6854 -0.0164
13631SOL    HW241449   1.717   5.470   6.144  0.3768  0.3381  0.0194
13632SOL     OW41450   2.348   3.868   7.211 -0.1757  0.3893 -0.9172
13632SOL    HW141451   2.322   3.919   7.134 -2.6055 -0.6161 -0.8450
13632SOL    HW241452   2.338   3.777   7.183 -1.5395  0.0094  0.6947
13633SOL     OW41453   5.482   0.934   0.385  0.1782 -0.1606  0.0373
13633SOL    HW141454   5.575   0.959   0.376  0.6636 -0.7143  2.6013
13633SOL    HW241455   5.434   1.014   0.364  1.1156 -0.2435 -2.7221
13634SOL     OW41456   5.323   6.419   4.040  0.0013  0.0644 -0.3909
13634SOL    HW141457   5.282   6.353   4.096  0.2680  2.0497  2.2803
13634SOL    HW241458   5.409   6.382   4.020  0.0910 -0.4988  0.9211
13635SOL     OW41459   3.428   1.276   2.709 -0.0019 -0.1178 -0.5846
13635SOL    HW141460   3.434   1.344   2.641 -0.7600  0.2252 -0.3205
13635SOL    HW241461   3.335   1.264   2.722  0.1222  0.6224  1.1899
13636SOL     OW41462   3.099   1.420   3.723  0.0409  0.3869 -0.3150
13636SOL    HW141463   3.092   1.382   3.635 -0.1074 -0.9306  0.2277
13636SOL    HW241464   3.187   1.396   3.752 -0.9492 -1.9063  1.0311
13637SOL     OW41465   6.799   1.200   6.041 -0.1757 -0.0150 -0.1476
13637SOL    HW141466   6.884   1.244   6.048  0.7859 -1.3353 -2.3296
13637SOL    HW241467   6.776   1.179   6.132  0.1243  3.3034  0.8325
13638SOL     OW41468   5.727   6.693   4.294  0.5969 -0.3577  0.0903
13638SOL    HW141469   5.699   6.756   4.361 -1.0780  0.6827 -1.4772
13638SOL    HW241470   5.794   6.740   4.244  0.1860 -0.2475 -0.3635
13639SOL     OW41471   6.151   5.596   3.056 -0.8104 -0.1076  0.5145
13639SOL    HW141472   6.094   5.673   3.050 -0.6493 -0.0672 -3.1288
13639SOL    HW241473   6.239   5.632   3.052 -0.7257 -0.3292 -2.8384
13640SOL     OW41474   2.630   5.282   4.834  0.3058 -0.1757 -0.3525
13640SOL    HW141475   2.646   5.223   4.908 -0.0006  0.0725 -0.0822
13640SOL    HW241476   2.572   5.349   4.870  0.8079  0.3980 -0.6027
13641SOL     OW41477   0.107   5.960   6.957 -0.3340 -0.5284  0.2271
13641SOL    HW141478   0.074   6.048   6.939 -1.3472 -1.1074 -0.9397
13641SOL    HW241479   0.028   5.905   6.956  0.2935 -1.4540  0.8373
13642SOL     OW41480   1.014   6.346   6.142  0.3382 -0.3797  0.3715
13642SOL    HW141481   0.995   6.255   6.163 -0.3056 -0.8470 -1.9788
13642SOL    HW241482   0.950   6.396   6.192 -1.5609 -1.4439 -0.8909
13643SOL     OW41483   7.712   4.892   4.045  0.1567 -0.0516  0.0531
13643SOL    HW141484   7.673   4.823   3.991  1.3849  0.3901 -1.4824
13643SOL    HW241485   7.750   4.953   3.982  1.9367  0.3301  1.4198
13644SOL     OW41486   4.198   1.611   4.253 -0.4184 -0.4892  0.3206
13644SOL    HW141487   4.127   1.585   4.194 -0.7933 -2.0854  1.3892
13644SOL    HW241488   4.154   1.634   4.335  0.2045 -0.2188  0.5836
13645SOL     OW41489   7.167   2.156   0.738 -0.5523  0.7867  0.4773
13645SOL    HW141490   7.152   2.220   0.808 -2.0878  1.1913 -0.1686
13645SOL    HW241491   7.134   2.200   0.659  0.0030 -0.1331 -0.2849
13646SOL     OW41492   0.779   5.283   4.977  0.5876  0.1723 -0.0237
13646SOL    HW141493   0.832   5.363   4.976  1.0274 -0.1120  0.0155
13646SOL    HW241494   0.724   5.291   5.055 -1.2741  1.6322 -1.3904
13647SOL     OW41495   1.143   1.856   6.976 -0.1271  0.2140  0.0107
13647SOL    HW141496   1.162   1.850   7.070  0.7090 -2.2506 -0.2450
13647SOL    HW241497   1.048   1.848   6.969 -0.0845 -0.9127  0.5922
13648SOL     OW41498   0.669   1.415   4.990 -0.5523 -0.0568 -0.2746
13648SOL    HW141499   0.666   1.368   4.906  0.4539 -0.9199  0.1459
13648SOL    HW241500   0.738   1.481   4.978 -0.7890  0.1917 -0.2960
13649SOL     OW41501   3.308   5.500   6.713 -0.1164 -0.3824  0.2336
13649SOL    HW141502   3.253   5.530   6.641  0.8650  0.5730 -0.1516
13649SOL    HW241503   3.377   5.449   6.671  0.1515 -0.2857  0.5521
13650SOL     OW41504   6.291   5.411   6.665 -0.2670 -0.4449 -0.0036
13650SOL    HW141505   6.207   5.369   6.644 -0.1162 -0.1203 -1.3567
13650SOL    HW241506   6.270   5.504   6.673  0.1642 -0.1389 -1.8635
13651SOL     OW41507   5.030   1.995   7.197 -0.1117 -0.0559 -0.3411
13651SOL    HW141508   5.101   1.947   7.242 -3.3638 -3.0251  2.2579
13651SOL    HW241509   5.033   2.083   7.234  2.1739 -0.0706 -0.3647
13652SOL     OW41510   2.699   3.293   6.440 -0.0279  0.3954  0.3461
13652SOL    HW141511   2.695   3.263   6.530 -0.2639  0.8822  0.5035
13652SOL    HW241512   2.791   3.291   6.417  0.0032 -0.0138  0.4980
13653SOL     OW41513   1.265   6.944   4.554  0.2623  0.1207 -0.2460
13653SOL    HW141514   1.255   7.030   4.512  2.4172  0.5293 -0.0347
13653SOL    HW241515   1.296   6.964   4.642  0.3463 -0.8627 -0.0419
13654SOL     OW41516   5.138   6.425   4.717 -0.0037 -0.2808  0.0457
13654SOL    HW141517   5.180   6.430   4.631  0.4965 -0.5690  0.2693
13654SOL    HW241518   5.210   6.423   4.779 -0.3302 -1.4234  0.4039
13655SOL     OW41519   1.413   3.584   6.863  0.3161  0.1761  0.1811
13655SOL    HW141520   1.443   3.501   6.900  0.2976 -0.1216 -0.4479
13655SOL    HW241521   1.465   3.651   6.908  1.4579 -0.2828 -0.4036
13656SOL     OW41522   1.674   7.271   4.038 -0.6541  0.3964 -0.5000
13656SOL    HW141523   1.592   7.321   4.043 -0.3945  0.7131  1.1547
13656SOL    HW241524   1.743   7.336   4.052 -0.1850 -0.0477 -0.6983
13657SOL     OW41525   4.890   2.395   2.646  0.4341 -0.0355  0.6372
13657SOL    HW141526   4.811   2.436   2.613 -0.5666 -2.0147  0.4544
13657SOL    HW241527   4.870   2.375   2.737  0.4463 -1.1373  0.4116
13658SOL     OW41528   4.785   1.343   1.707  0.1831 -0.1014 -0.5681
13658SOL    HW141529   4.701   1.297   1.706 -0.5248  1.0214  1.5967
13658SOL    HW241530   4.845   1.282   1.750 -0.4911  0.4928  1.3130
13659SOL     OW41531   1.578   4.028   7.442 -0.6617  0.1184  0.3368
13659SOL    HW141532   1.658   4.013   7.391  0.9224  0.5169  2.5705
13659SOL    HW241533   1.558   4.121   7.428  0.2163  0.4213  1.0008
13660SOL     OW41534   1.117   2.658   6.206 -0.7771  0.2859  0.3818
13660SOL    HW141535   1.175   2.681   6.278 -2.3617  0.3733  1.7031
13660SOL    HW241536   1.165   2.681   6.127  0.4404  1.5849  1.4514
13661SOL     OW41537   7.685   4.541   5.396  0.0662 -0.1819 -0.8723
13661SOL    HW141538   7.722   4.626   5.422  2.2577 -1.2771 -0.2187
13661SOL    HW241539   7.698   4.485   5.472  1.5486 -1.9475 -2.3443
13662SOL     OW41540   3.366   1.668   4.231  0.2312 -0.6247 -0.3617
13662SOL    HW141541   3.415   1.725   4.290 -0.3148  0.1812 -0.6853
13662SOL    HW241542   3.286   1.646   4.279  0.2012 -0.7074 -0.4480
13663SOL     OW41543   2.787   1.531   1.311 -0.7116 -0.2084  0.5377
13663SOL    HW141544   2.828   1.522   1.225  0.5164 -1.5735  1.2039
13663SOL    HW241545   2.777   1.625   1.323  2.5070  0.2754  0.3826
13664SOL     OW41546   1.224   3.232   4.215 -0.5694  0.1876 -0.2006
13664SOL    HW141547   1.271   3.166   4.266  0.1830 -0.4449 -1.6309
13664SOL    HW241548   1.137   3.195   4.203  0.5104 -1.8370 -3.0174
13665SOL     OW41549   3.429   3.982   7.558 -0.0867 -0.4790 -0.0318
13665SOL    HW141550   3.422   4.077   7.556  0.1318 -0.4103  1.2976
13665SOL    HW241551   3.343   3.951   7.528 -0.8135  0.1712  1.2902
13666SOL     OW41552   7.160   4.535   5.594 -0.4341  0.2954  0.4099
13666SOL    HW141553   7.225   4.464   5.599 -1.3692 -0.5585  0.6152
13666SOL    HW241554   7.141   4.555   5.685 -0.1321  0.8586  0.3504
13667SOL     OW41555   3.182   1.393   6.749 -0.2267 -0.3064 -0.0043
13667SOL    HW141556   3.124   1.320   6.770 -1.5655  0.2270 -1.5970
13667SOL    HW241557   3.221   1.370   6.664 -0.9348  0.9165 -0.7040
13668SOL     OW41558   5.428   5.980   6.025 -0.3219 -0.4070 -0.5021
13668SOL    HW141559   5.473   5.896   6.030  1.8151  0.5898 -1.6005
13668SOL    HW241560   5.448   6.022   6.109 -1.6453 -1.0575  0.1744
13669SOL     OW41561   1.664   0.520   5.864  0.0192  0.1608  0.0091
13669SOL    HW141562   1.753   0.494   5.887  0.0218  0.2166  0.0636
13669SOL    HW241563   1.633   0.568   5.941  1.0997  3.1205 -1.2530
13670SOL     OW41564   6.981   6.201   6.195 -0.3567  0.0478  0.9865
13670SOL    HW141565   7.047   6.195   6.264  2.3864  1.6189 -1.2598
13670SOL    HW241566   7.023   6.162   6.118 -1.7148  1.7622 -0.7435
13671SOL     OW41567   1.571   1.324   4.000  0.5965  0.6027  0.0304
13671SOL    HW141568   1.486   1.299   3.965  0.5593  0.0495  0.5052
13671SOL    HW241569   1.551   1.387   4.069  0.7170  2.4998 -1.5521
13672SOL     OW41570   1.751   6.887   0.926  0.2700 -0.4313  0.1732
13672SOL    HW141571   1.825   6.852   0.976  0.2938  0.3536  0.6969
13672SOL    HW241572   1.789   6.910   0.841  1.4946  3.2083  1.5285
13673SOL     OW41573   6.344   0.110   6.103  0.4165  0.0418  0.2379
13673SOL    HW141574   6.355   0.016   6.118 -0.0522 -0.1528 -0.5753
13673SOL    HW241575   6.270   0.115   6.042  0.2634  0.9539  0.4947
13674SOL     OW41576   5.750   2.118   0.566 -0.6915  0.0912 -0.3558
13674SOL    HW141577   5.827   2.089   0.615  0.2299  1.0154 -1.2011
13674SOL    HW241578   5.714   2.189   0.619 -1.6878 -1.1121  0.6341
13675SOL     OW41579   4.380   7.673   5.643 -0.4627  0.0095  0.0100
13675SOL    HW141580   4.475   7.676   5.635 -0.4556 -0.0237  0.0745
13675SOL    HW241581   4.364   7.669   5.738 -0.5093 -0.6048 -0.0190
13676SOL     OW41582   4.485   6.264   2.282  0.0904 -0.0407  0.1639
13676SOL    HW141583   4.528   6.236   2.201  1.6282 -2.5074  1.7205
13676SOL    HW241584   4.417   6.198   2.297 -0.1078  0.3374  0.9603
13677SOL     OW41585   7.687   1.096   4.617 -0.2715 -0.1360 -0.1472
13677SOL    HW141586   7.643   1.083   4.701  0.0431 -1.1120 -0.1242
13677SOL    HW241587   7.686   1.190   4.604 -3.0365 -0.1279 -0.4838
13678SOL     OW41588   5.661   0.569   2.284 -0.1187 -0.1319 -0.3718
13678SOL    HW141589   5.594   0.550   2.218 -0.6032  0.7722 -0.1481
13678SOL    HW241590   5.661   0.492   2.341  1.5417 -1.7524 -2.3917
13679SOL     OW41591   2.666   1.632   7.462 -0.2208  0.2650 -0.3404
13679SOL    HW141592   2.656   1.565   7.531 -2.0387  0.9280  0.0868
13679SOL    HW241593   2.592   1.618   7.404  0.7406  0.3775 -1.6448
13680SOL     OW41594   2.466   2.273   1.285  0.6644  0.3580 -0.3726
13680SOL    HW141595   2.374   2.297   1.275  0.7612  0.9711  0.1557
13680SOL    HW241596   2.507   2.350   1.325  1.4934  0.2569 -1.0028
13681SOL     OW41597   7.399   5.396   4.785  0.0262 -0.0455 -0.4753
13681SOL    HW141598   7.317   5.394   4.736 -0.1480  0.9772 -0.2503
13681SOL    HW241599   7.438   5.310   4.771 -0.8427 -0.3607 -0.9976
13682SOL     OW41600   6.300   6.126   6.032 -0.0411 -0.5268  0.2505
13682SOL    HW141601   6.373   6.103   6.089  0.0815 -0.2996  0.1856
13682SOL    HW241602   6.222   6.100   6.081  0.0312  0.2989  0.8114
13683SOL     OW41603   5.134   7.067   7.317 -0.4377 -0.6001 -0.3544
13683SOL    HW141604   5.138   7.119   7.237  0.8005 -0.2699 -0.1043
13683SOL    HW241605   5.156   7.129   7.386 -0.5136 -1.1070  0.1331
13684SOL     OW41606   5.789   4.340   3.084 -0.0062 -0.0320 -0.1535
13684SOL    HW141607   5.848   4.383   3.022  0.0270 -0.6583 -0.5591
13684SOL    HW241608   5.702   4.372   3.060  0.0533  0.0762 -0.2260
13685SOL     OW41609   0.321   5.398   3.007 -0.0982 -0.4175  0.3743
13685SOL    HW141610   0.386   5.369   2.944 -1.4605 -0.4767 -1.0741
13685SOL    HW241611   0.372   5.434   3.080  1.5454  0.7951 -1.2838
13686SOL     OW41612   5.454   0.867   5.381  0.2556 -0.2670 -0.6372
13686SOL    HW141613   5.447   0.780   5.421  0.4521  0.6563  1.6061
13686SOL    HW241614   5.543   0.896   5.402  0.5177  0.1199 -2.1799
13687SOL     OW41615   5.043   6.381   4.204 -0.0180 -0.3580 -0.1489
13687SOL    HW141616   5.059   6.345   4.291  2.7064  0.3318 -0.2549
13687SOL    HW241617   5.079   6.316   4.144  1.3649  0.6757 -0.5143
13688SOL     OW41618   0.598   3.199   2.195 -0.4003 -0.0985  0.0921
13688SOL    HW141619   0.675   3.226   2.245  0.5457 -2.1278 -0.1556
13688SOL    HW241620   0.593   3.262   2.123  2.0275 -0.8017 -0.7969
13689SOL     OW41621   3.758   5.149   6.631  0.1712 -0.0245 -0.4171
13689SOL    HW141622   3.708   5.199   6.695  1.2363 -0.1407  0.5491
13689SOL    HW241623   3.783   5.213   6.564  0.3279  0.4310  0.0744
13690SOL     OW41624   0.445   1.444   5.849 -0.0368  0.1982 -0.6298
13690SOL    HW141625   0.440   1.437   5.754 -0.6648 -0.6779 -0.5551
13690SOL    HW241626   0.507   1.375   5.875  0.3182  0.5922 -0.4165
13691SOL     OW41627   1.885   6.508   3.819  0.0964 -0.6361 -0.1399
13691SOL    HW141628   1.974   6.472   3.821 -0.2431 -1.6989 -1.7465
13691SOL    HW241629   1.851   6.482   3.733 -0.9184  1.8452 -0.5703
13692SOL     OW41630   0.883   1.742   2.129 -0.2268 -0.2690 -0.4243
13692SOL    HW141631   0.843   1.673   2.076  1.5999 -0.5051 -1.5880
13692SOL    HW241632   0.911   1.808   2.066  0.7077  0.1182  0.3617
13693SOL     OW41633   3.933   6.980   5.559 -0.1959 -0.1330  0.5218
13693SOL    HW141634   3.987   6.902   5.549  0.2907  0.4056 -1.7878
13693SOL    HW241635   3.854   6.960   5.508 -0.5223  0.5060  0.7697
13694SOL     OW41636   5.925   3.093   4.820 -0.2360  0.1729  0.1432
13694SOL    HW141637   5.968   3.130   4.743  1.6581  1.0853  1.5489
13694SOL    HW241638   5.873   3.021   4.786  0.8497  0.2911 -1.9489
13695SOL     OW41639   5.448   4.101   4.293  0.2043 -0.5919  0.2772
13695SOL    HW141640   5.479   4.149   4.370  0.6597  1.4552 -1.0815
13695SOL    HW241641   5.525   4.096   4.236 -0.9356  1.2319 -1.5708
13696SOL     OW41642   5.142   3.217   5.517 -0.5028  0.2636  0.5809
13696SOL    HW141643   5.212   3.258   5.569 -0.2654 -0.3630  0.7666
13696SOL    HW241644   5.061   3.253   5.554 -0.3097  0.3158  0.9595
13697SOL     OW41645   0.621   5.016   3.261 -0.0300  0.0198 -0.1491
13697SOL    HW141646   0.547   4.982   3.310 -0.0843  0.3627  0.0119
13697SOL    HW241647   0.683   5.045   3.329 -0.6428  1.6808 -0.2431
13698SOL     OW41648   1.308   0.526   6.783 -0.4729 -0.6793 -0.2314
13698SOL    HW141649   1.294   0.447   6.837  1.4246  0.6189  2.3864
13698SOL    HW241650   1.335   0.593   6.846 -0.4702  1.6617 -2.5754
13699SOL     OW41651   2.507   2.204   0.029 -0.3315 -0.2064 -0.6659
13699SOL    HW141652   2.445   2.273   0.007 -0.7787 -0.7841 -1.2474
13699SOL    HW241653   2.478   2.172   0.114  0.1923  0.6609 -0.1408
13700SOL     OW41654   4.871   3.299   2.970 -0.2497 -0.2240  0.0351
13700SOL    HW141655   4.919   3.217   2.966  0.4123  0.1886 -0.7602
13700SOL    HW241656   4.888   3.341   2.886  2.5446  2.4582  1.7437
13701SOL     OW41657   4.355   2.175   5.847 -0.9683  0.0885  0.3032
13701SOL    HW141658   4.409   2.204   5.773 -1.1650 -0.2403  0.0229
13701SOL    HW241659   4.355   2.249   5.908  1.2749 -0.5203  1.1608
13702SOL     OW41660   6.815   6.441   5.000 -0.0943 -0.3862  0.1216
13702SOL    HW141661   6.751   6.431   5.070  1.0011 -1.6178  0.9937
13702SOL    HW241662   6.887   6.489   5.040 -0.1306  0.3155 -0.6297
13703SOL     OW41663   6.919   1.081   3.176  0.5031 -0.2671 -0.3464
13703SOL    HW141664   7.008   1.072   3.210 -0.1381 -0.8953  1.2982
13703SOL    HW241665   6.915   1.021   3.102  1.3570 -0.4571 -0.2503
13704SOL     OW41666   4.136   6.569   1.760  0.0568  0.2164  0.0495
13704SOL    HW141667   4.079   6.499   1.792  0.8288 -0.9156 -0.9133
13704SOL    HW241668   4.172   6.609   1.839  2.2153 -2.7310  0.7765
13705SOL     OW41669   7.466   5.328   2.359  0.2059 -0.4840  0.1245
13705SOL    HW141670   7.428   5.296   2.440 -0.5069 -1.9908 -0.7748
13705SOL    HW241671   7.422   5.279   2.290  0.9288  0.6252 -1.1788
13706SOL     OW41672   3.351   0.528   2.913  0.5304  0.0374 -0.0116
13706SOL    HW141673   3.291   0.596   2.883 -1.0227 -0.7648  1.1760
13706SOL    HW241674   3.410   0.514   2.838 -1.5207 -0.0079 -1.7119
13707SOL     OW41675   6.710   3.243   4.855  0.2247 -0.2026 -0.3032
13707SOL    HW141676   6.657   3.284   4.786  1.8334  0.8463 -0.9881
13707SOL    HW241677   6.702   3.302   4.930  2.8333  1.7408 -1.4042
13708SOL     OW41678   0.491   6.477   1.978  0.1404  0.2704 -0.2503
13708SOL    HW141679   0.571   6.425   1.981 -0.1001 -0.0595  0.4233
13708SOL    HW241680   0.453   6.457   1.893  0.6533  0.2571 -0.4842
13709SOL     OW41681   3.123   3.605   3.192  0.6957  0.2290  0.1092
13709SOL    HW141682   3.030   3.590   3.203  0.5012  0.6829 -0.7561
13709SOL    HW241683   3.166   3.540   3.247 -0.1078 -1.7612 -1.4915
13710SOL     OW41684   1.128   3.579   0.218 -0.0094 -0.1219 -0.0246
13710SOL    HW141685   1.206   3.633   0.217  0.2612 -0.5162 -0.2846
13710SOL    HW241686   1.067   3.627   0.274  0.2512  0.4138 -0.1880
13711SOL     OW41687   4.202   5.351   1.996 -0.1730 -0.0185 -0.8129
13711SOL    HW141688   4.145   5.275   2.008  0.7861 -0.9689 -2.0413
13711SOL    HW241689   4.288   5.322   2.027 -0.3017  1.4272  1.1031
13712SOL     OW41690   4.552   5.685   1.607 -0.1678 -0.4464  0.2979
13712SOL    HW141691   4.493   5.734   1.664  0.4535  2.5066 -1.3752
13712SOL    HW241692   4.634   5.677   1.656 -0.7052 -1.0819  1.1138
13713SOL     OW41693   5.189   4.102   0.223  0.6811 -0.2368  0.4679
13713SOL    HW141694   5.173   4.042   0.296  0.5197 -1.4184 -0.5001
13713SOL    HW241695   5.102   4.137   0.201  0.4936 -1.0386 -0.1062
13714SOL     OW41696   4.078   3.221   6.033  0.7445  0.0985  0.5461
13714SOL    HW141697   4.171   3.227   6.014  0.9351 -2.6700  0.2272
13714SOL    HW241698   4.040   3.299   5.994  2.8788  1.1652  0.4790
13715SOL     OW41699   7.590   6.050   3.894 -0.3002 -0.0949 -0.0702
13715SOL    HW141700   7.597   5.955   3.899  0.1586 -0.0350  0.5456
13715SOL    HW241701   7.668   6.078   3.847 -0.1864  0.0137  0.1823
13716SOL     OW41702   3.051   1.171   6.942  0.2874 -0.1269 -0.2088
13716SOL    HW141703   3.033   1.177   6.848  0.0041  0.4758 -0.1205
13716SOL    HW241704   3.086   1.083   6.954 -0.2542 -0.4299 -0.7814
13717SOL     OW41705   3.927   5.295   3.454 -0.2799 -0.2442 -0.2994
13717SOL    HW141706   3.917   5.388   3.474 -0.0707 -0.0731 -0.9681
13717SOL    HW241707   3.972   5.293   3.370 -0.5741 -0.9472 -0.4509
13718SOL     OW41708   6.193   7.229   6.640  0.6631 -0.6038  0.0277
13718SOL    HW141709   6.220   7.312   6.679  0.5818 -0.9347  0.8076
13718SOL    HW241710   6.102   7.218   6.667  0.7743 -1.1035  0.2189
13719SOL     OW41711   1.790   1.117   5.223 -0.2758 -0.2564  0.8681
13719SOL    HW141712   1.849   1.130   5.149 -1.3295  0.3612  0.1066
13719SOL    HW241713   1.710   1.081   5.184 -1.0750  0.6596  1.6038
13720SOL     OW41714   0.912   7.631   7.501 -0.3056  0.4707 -0.0438
13720SOL    HW141715   0.849   7.633   7.573  0.6630  0.0727  0.8356
13720SOL    HW241716   0.979   7.694   7.526  0.2612  0.0116 -0.3774
13721SOL     OW41717   5.806   0.278   6.719 -0.2074 -0.3766 -0.2685
13721SOL    HW141718   5.841   0.328   6.792  0.2737 -0.4773 -0.4288
13721SOL    HW241719   5.786   0.192   6.757 -1.7715  0.1509  0.1954
13722SOL     OW41720   6.331   1.982   3.225  0.5156 -0.2641  0.1882
13722SOL    HW141721   6.399   2.047   3.210 -0.0570  0.8749  2.2395
13722SOL    HW241722   6.255   2.032   3.255 -0.4293 -1.7340  0.3787
13723SOL     OW41723   2.041   3.535   6.375 -0.2826 -0.6667  0.1102
13723SOL    HW141724   1.985   3.556   6.300  0.9678 -1.5410 -1.1268
13723SOL    HW241725   2.058   3.619   6.417 -1.8730 -0.2869  0.0810
13724SOL     OW41726   3.041   2.587   0.249  0.1142  0.0854 -0.3408
13724SOL    HW141727   2.969   2.557   0.193 -0.3699  2.4066 -1.0832
13724SOL    HW241728   3.052   2.679   0.226  0.9767  0.7290  2.3084
13725SOL     OW41729   4.605   0.083   5.065  0.1916  0.2571 -0.1211
13725SOL    HW141730   4.555   0.163   5.047  1.5026  1.4511  1.2693
13725SOL    HW241731   4.689   0.098   5.023  0.0560 -0.9549 -0.8875
13726SOL     OW41732   0.905   3.765   0.938 -0.2554 -0.3518  0.2238
13726SOL    HW141733   0.866   3.789   0.854 -2.1461  0.3322  1.2361
13726SOL    HW241734   0.997   3.747   0.918 -0.3872  0.9300 -1.7835
13727SOL     OW41735   5.708   1.622   1.233 -0.4013 -0.0584  0.6351
13727SOL    HW141736   5.772   1.691   1.216 -0.9841  0.0596 -1.3661
13727SOL    HW241737   5.690   1.628   1.327  1.0166  1.2025  0.8613
13728SOL     OW41738   2.860   0.376   6.863  0.3960  0.3195 -0.0233
13728SOL    HW141739   2.840   0.282   6.869 -1.3636  0.5142 -1.7725
13728SOL    HW241740   2.893   0.388   6.774 -0.2096  1.4640 -0.1170
13729SOL     OW41741   7.635   2.524   7.175  0.5684  0.1336 -0.2838
13729SOL    HW141742   7.683   2.483   7.246  1.1690  0.7289 -0.3321
13729SOL    HW241743   7.581   2.591   7.217  0.6463  0.2373 -0.3477
13730SOL     OW41744   5.043   1.641   0.446  0.2440 -0.0164 -0.3684
13730SOL    HW141745   5.128   1.685   0.454  0.4097 -0.3502 -0.3098
13730SOL    HW241746   5.022   1.646   0.352  0.2793  0.1545 -0.3677
13731SOL     OW41747   0.362   3.952   7.443 -0.1194  0.1184 -0.1794
13731SOL    HW141748   0.366   4.031   7.498  1.1562 -0.3184  0.4052
13731SOL    HW241749   0.360   3.879   7.505 -1.6597 -0.3380 -0.7099
13732SOL     OW41750   6.894   2.060   6.498  0.1021  0.2765 -0.2249
13732SOL    HW141751   6.907   2.067   6.592  0.5129 -0.5320 -0.2123
13732SOL    HW241752   6.978   2.027   6.464 -0.5639 -1.0654 -0.6503
13733SOL     OW41753   7.208   6.649   5.619 -0.0974 -0.5861 -0.2792
13733SOL    HW141754   7.129   6.615   5.578  0.4458 -2.1380 -0.1204
13733SOL    HW241755   7.177   6.706   5.689 -1.0373  0.7323 -1.7101
13734SOL     OW41756   0.153   4.663   5.204 -0.0517  0.1018 -0.5308
13734SOL    HW141757   0.138   4.681   5.111 -2.4058  0.6028 -0.0977
13734SOL    HW241758   0.100   4.585   5.223 -1.4571  1.3260  0.8629
13735SOL     OW41759   2.241   3.644   0.028  0.2214  0.1256 -0.0460
13735SOL    HW141760   2.150   3.613   0.028  0.0021  0.7658 -0.0409
13735SOL    HW241761   2.272   3.625   0.117 -0.2036  0.7597  0.2461
13736SOL     OW41762   3.522   3.616   2.158  0.2876  0.0873 -0.0879
13736SOL    HW141763   3.464   3.689   2.137 -1.5060 -2.0163 -3.0925
13736SOL    HW241764   3.475   3.567   2.225  0.0311  0.0131 -0.3216
13737SOL     OW41765   2.585   1.948   6.863 -0.6248 -0.1237  0.4432
13737SOL    HW141766   2.553   1.868   6.904 -1.6189  0.2491  0.4256
13737SOL    HW241767   2.680   1.939   6.864 -0.7238 -1.4470  0.1588
13738SOL     OW41768   6.033   6.845   0.389  0.2700  0.2548  0.3079
13738SOL    HW141769   6.064   6.804   0.309 -0.0308  0.2451  0.1944
13738SOL    HW241770   6.101   6.909   0.411  0.5238  0.0081  0.2415
13739SOL     OW41771   0.668   6.216   0.368  0.0638  0.1525 -0.5441
13739SOL    HW141772   0.642   6.166   0.291  0.4757 -0.7420 -0.1172
13739SOL    HW241773   0.672   6.307   0.337  1.5836 -0.3383 -1.9608
13740SOL     OW41774   5.409   0.974   4.439  0.4162  0.4391  0.0911
13740SOL    HW141775   5.464   0.934   4.371 -0.8566 -0.1944 -0.6085
13740SOL    HW241776   5.436   0.932   4.520  1.6622  0.8862 -0.0748
13741SOL     OW41777   2.772   7.710   4.752 -0.1776  0.1819  0.6482
13741SOL    HW141778   2.853   7.736   4.709 -0.1544  0.2221  0.7156
13741SOL    HW241779   2.791   7.625   4.791 -0.5531 -0.4051 -0.4075
13742SOL     OW41780   3.199   4.919   5.031  0.0150  1.0353  0.4277
13742SOL    HW141781   3.181   4.991   4.970  0.7447  0.7158 -0.1746
13742SOL    HW241782   3.262   4.955   5.093  1.9119  0.3642 -1.0292
13743SOL     OW41783   4.488   5.212   5.684 -0.0380  0.3793 -0.6040
13743SOL    HW141784   4.506   5.136   5.629  1.3175 -0.2376  0.6318
13743SOL    HW241785   4.467   5.175   5.770 -1.0331  1.3627 -0.4015
13744SOL     OW41786   0.137   6.024   0.870 -0.2394 -0.0641  0.0771
13744SOL    HW141787   0.127   5.950   0.811  1.9790  0.5950 -1.2435
13744SOL    HW241788   0.186   6.089   0.819 -0.0947  1.3849  1.9481
13745SOL     OW41789   2.652   6.631   6.306 -0.5251  0.1286  0.2006
13745SOL    HW141790   2.738   6.638   6.265 -0.4400  0.1107  0.3758
13745SOL    HW241791   2.623   6.542   6.284 -0.0145 -0.2634  1.0858
13746SOL     OW41792   4.456   2.229   6.289 -0.1625  0.2877  0.3744
13746SOL    HW141793   4.431   2.282   6.365  0.2098  1.7373 -0.4661
13746SOL    HW241794   4.545   2.201   6.308  0.3582  1.6057  0.0136
13747SOL     OW41795   4.953   4.294   0.186  0.0209 -0.1878  0.0738
13747SOL    HW141796   4.876   4.237   0.194 -0.8481  0.8561 -0.5061
13747SOL    HW241797   4.952   4.347   0.266  1.1187 -1.2924  0.8541
13748SOL     OW41798   5.660   2.063   3.159 -0.1598 -0.1662  0.0953
13748SOL    HW141799   5.744   2.101   3.136 -0.4582  0.3060 -0.2059
13748SOL    HW241800   5.681   1.973   3.186  0.4331 -0.0578 -0.0056
13749SOL     OW41801   4.641   6.040   1.123  0.1463 -0.8263  0.3858
13749SOL    HW141802   4.552   6.029   1.090  0.1371 -1.9313  0.7480
13749SOL    HW241803   4.682   5.954   1.111  1.3957 -0.1509 -0.4304
13750SOL     OW41804   4.410   6.367   1.168  0.4117 -0.2673 -0.6312
13750SOL    HW141805   4.440   6.362   1.077 -0.4453 -1.8393 -0.8730
13750SOL    HW241806   4.388   6.276   1.191 -0.3690  0.2456  0.8071
13751SOL     OW41807   7.662   5.671   2.575 -0.2532  0.6708  0.2431
13751SOL    HW141808   7.637   5.746   2.629  0.0468 -0.4493  2.0278
13751SOL    HW241809   7.580   5.624   2.559 -0.3746  1.1171 -0.4948
13752SOL     OW41810   2.625   5.793   2.699 -0.2364  0.7103  0.2146
13752SOL    HW141811   2.693   5.859   2.712  0.1794  0.6014 -1.2244
13752SOL    HW241812   2.644   5.725   2.765  0.9248  0.7834 -0.0190
13753SOL     OW41813   7.284   2.725   5.584  0.3202  0.4337  0.1598
13753SOL    HW141814   7.218   2.678   5.634 -0.6907  1.0929 -0.5033
13753SOL    HW241815   7.367   2.697   5.621 -0.3111 -0.6923  0.7828
13754SOL     OW41816   7.169   4.350   3.875 -0.0078 -0.8873  0.3700
13754SOL    HW141817   7.182   4.397   3.957  0.9779  0.3775 -0.4851
13754SOL    HW241818   7.090   4.297   3.891 -3.3546  3.4967  0.3689
13755SOL     OW41819   2.621   1.204   6.214 -0.2710  0.1132 -0.2659
13755SOL    HW141820   2.661   1.174   6.296 -1.6776 -0.6829  0.1549
13755SOL    HW241821   2.671   1.159   6.146  1.9673  1.9787 -0.0174
13756SOL     OW41822   3.565   4.808   6.722  0.1054 -0.1093  0.0518
13756SOL    HW141823   3.523   4.891   6.746  1.2035  0.0171  1.7167
13756SOL    HW241824   3.501   4.741   6.744  0.2547  0.1588  1.4083
13757SOL     OW41825   6.302   5.401   3.309 -0.0712  0.0223 -0.5093
13757SOL    HW141826   6.347   5.317   3.315 -0.6352 -0.1608  2.3095
13757SOL    HW241827   6.372   5.466   3.302  0.5576 -0.4365  1.2086
13758SOL     OW41828   2.486   6.696   0.706 -0.4670 -0.2334  0.2850
13758SOL    HW141829   2.515   6.670   0.619 -0.0005 -0.0169  0.3699
13758SOL    HW241830   2.466   6.789   0.697  2.3998  0.5711  1.0635
13759SOL     OW41831   3.913   3.844   0.731 -0.1618  0.0097  0.0865
13759SOL    HW141832   3.974   3.876   0.664  0.4668 -0.5176  0.3881
13759SOL    HW241833   3.908   3.750   0.715 -0.9774  0.0591  0.0159
13760SOL     OW41834   1.334   4.512   4.251 -0.0001  0.1657 -0.4064
13760SOL    HW141835   1.301   4.588   4.202 -0.3071  1.1191  1.1755
13760SOL    HW241836   1.256   4.476   4.294  0.3897 -0.0545  0.1314
13761SOL     OW41837   4.599   4.856   1.132 -0.4374 -0.2397 -0.0804
13761SOL    HW141838   4.649   4.874   1.212 -0.4106 -1.5645  0.2268
13761SOL    HW241839   4.530   4.795   1.161 -1.8259  1.0284 -0.6268
13762SOL     OW41840   6.114   2.609   1.370 -0.0608  0.0823 -0.3712
13762SOL    HW141841   6.035   2.652   1.403 -0.2904 -0.8085  0.3187
13762SOL    HW241842   6.143   2.663   1.298 -1.7853  0.0007 -1.1867
13763SOL     OW41843   4.137   2.705   1.080  0.1229  0.0800 -0.1953
13763SOL    HW141844   4.141   2.620   1.123  0.1857  0.4127  0.4690
13763SOL    HW241845   4.133   2.768   1.152 -0.4365  0.6118 -0.6796
13764SOL     OW41846   0.457   5.539   5.190  0.0339  0.2059 -0.0747
13764SOL    HW141847   0.445   5.600   5.263 -0.7567 -1.2133  1.0242
13764SOL    HW241848   0.525   5.479   5.219  0.5393  0.3059 -0.9994
13765SOL     OW41849   2.693   6.786   7.485  0.7354  0.2832  0.1975
13765SOL    HW141850   2.771   6.749   7.526  0.8045 -0.1019 -0.2734
13765SOL    HW241851   2.620   6.748   7.533  0.8216  0.1158  0.1962
13766SOL     OW41852   4.291   1.274   4.499 -0.1495 -0.2565 -0.1531
13766SOL    HW141853   4.345   1.208   4.455  0.1951  0.5335 -0.9585
13766SOL    HW241854   4.345   1.354   4.497 -0.7428  0.1649  0.3814
13767SOL     OW41855   0.934   2.945   2.095  0.6512  0.2039  0.2595
13767SOL    HW141856   1.021   2.956   2.132  1.2669 -0.9306 -0.7605
13767SOL    HW241857   0.874   2.963   2.167  1.7028  1.4606  0.8625
13768SOL     OW41858   5.279   1.459   5.223 -0.6179  0.0024 -0.0540
13768SOL    HW141859   5.242   1.480   5.137 -0.7265 -2.3998 -0.6652
13768SOL    HW241860   5.294   1.364   5.220  0.9683  0.1213  1.9832
13769SOL     OW41861   3.081   3.360   6.025  0.4817  0.0573 -0.1552
13769SOL    HW141862   3.093   3.413   6.104 -1.6758 -0.6664  0.7209
13769SOL    HW241863   3.032   3.418   5.966  0.3059 -0.1000 -0.1636
13770SOL     OW41864   1.754   3.704   6.519 -0.0792  0.0743 -0.5570
13770SOL    HW141865   1.703   3.782   6.541  1.4198  0.7381  0.8140
13770SOL    HW241866   1.727   3.681   6.431 -1.4104  1.4542 -0.5414
13771SOL     OW41867   5.181   3.943   0.467  0.3689 -0.1131  0.2399
13771SOL    HW141868   5.166   4.022   0.518 -0.6167 -0.2522  0.1892
13771SOL    HW241869   5.249   3.896   0.514  0.9126  0.7322  0.3099
13772SOL     OW41870   3.802   3.089   7.419  0.2768  0.4400 -0.0481
13772SOL    HW141871   3.836   3.158   7.476 -0.0297  0.0869  0.5772
13772SOL    HW241872   3.829   3.115   7.331  1.4123  0.6162  0.3284
13773SOL     OW41873   7.700   2.368   2.259  0.1864 -0.2777 -0.0745
13773SOL    HW141874   7.679   2.286   2.305 -0.2227  0.0018  0.2509
13773SOL    HW241875   7.646   2.434   2.303  2.3401  0.6329  1.3474
13774SOL     OW41876   1.364   3.503   1.888  0.0297 -0.4642 -0.2323
13774SOL    HW141877   1.343   3.447   1.813 -0.6440 -0.8726  0.2400
13774SOL    HW241878   1.279   3.522   1.928  0.3927 -0.4586  0.5635
13775SOL     OW41879   0.959   1.906   3.338 -0.3216  0.1508 -0.2426
13775SOL    HW141880   0.888   1.842   3.329  0.6121 -1.0321  0.4522
13775SOL    HW241881   1.023   1.862   3.395  1.5306  0.6998 -1.8096
13776SOL     OW41882   4.184   0.334   6.222 -0.7075  0.6503  0.5817
13776SOL    HW141883   4.102   0.290   6.243 -1.1769  0.7610 -0.8757
13776SOL    HW241884   4.165   0.427   6.234 -0.6072  0.6438  0.8050
13777SOL     OW41885   7.602   6.421   1.341 -0.0487 -0.2127  0.0530
13777SOL    HW141886   7.537   6.490   1.354  0.5067  0.4748 -0.6628
13777SOL    HW241887   7.642   6.409   1.427 -0.4222  0.0884  0.2703
13778SOL     OW41888   3.274   2.325   7.450 -0.2200  0.1207  0.5401
13778SOL    HW141889   3.252   2.276   7.530 -1.0818  0.3271  0.4421
13778SOL    HW241890   3.349   2.278   7.413  0.6847  0.4660  1.8645
13779SOL     OW41891   4.581   1.108   1.237 -0.2971  0.1861  0.1044
13779SOL    HW141892   4.653   1.049   1.259  0.7780  1.3225 -0.2206
13779SOL    HW241893   4.513   1.051   1.201  0.7636 -0.8337 -0.3693
13780SOL     OW41894   4.546   5.478   5.732  0.2171  0.6091 -0.7198
13780SOL    HW141895   4.635   5.461   5.763 -0.4231  0.1809  0.9625
13780SOL    HW241896   4.512   5.392   5.706 -0.1611  0.5485 -0.0557
13781SOL     OW41897   5.348   5.295   5.825 -0.3508  0.7825 -0.1238
13781SOL    HW141898   5.261   5.328   5.845 -0.6774  0.3861 -0.8729
13781SOL    HW241899   5.406   5.370   5.843 -0.7670  0.8731  0.9169
13782SOL     OW41900   2.984   5.924   1.042  0.2519 -0.1436  0.2258
13782SOL    HW141901   3.046   5.989   1.077 -1.4793  1.2529  0.8624
13782SOL    HW241902   3.026   5.840   1.059  1.5905  0.7030  1.4099
13783SOL     OW41903   4.726   4.388   5.418 -0.0031 -0.3243  0.7880
13783SOL    HW141904   4.660   4.391   5.488  0.3968  0.9693  1.1276
13783SOL    HW241905   4.746   4.480   5.400 -0.7641 -0.5812 -1.6775
13784SOL     OW41906   0.174   1.237   2.449  0.3441 -0.1954 -0.0517
13784SOL    HW141907   0.131   1.160   2.411  0.8066 -0.9314  0.8961
13784SOL    HW241908   0.268   1.219   2.439  0.4664  0.8191 -0.9376
13785SOL     OW41909   0.565   2.555   6.427  0.0966 -0.2046  0.7634
13785SOL    HW141910   0.579   2.573   6.334 -2.8425  4.1077  0.8779
13785SOL    HW241911   0.615   2.623   6.472 -1.3147 -0.0300  2.1253
13786SOL     OW41912   6.323   6.721   2.968 -0.3988  0.0085 -0.0092
13786SOL    HW141913   6.350   6.635   2.937 -0.3584 -0.6661  1.7908
13786SOL    HW241914   6.384   6.742   3.039 -1.4875  0.7125  0.7520
13787SOL     OW41915   6.067   7.674   2.716  0.3662  0.1018 -0.5088
13787SOL    HW141916   6.048   7.582   2.698  0.3295  0.0320 -0.1274
13787SOL    HW241917   6.148   7.672   2.766  0.9249  0.3474 -1.4000
13788SOL     OW41918   5.265   4.967   7.411  0.3484 -0.3051  0.0227
13788SOL    HW141919   5.340   4.997   7.463 -0.5966  0.2878  1.0821
13788SOL    HW241920   5.303   4.948   7.325  2.0494 -1.7776  1.0134
13789SOL     OW41921   2.035   3.726   3.694 -0.6387 -0.2770 -0.0675
13789SOL    HW141922   2.069   3.638   3.702 -0.2083 -0.1138 -0.0909
13789SOL    HW241923   1.974   3.735   3.767 -0.9856 -0.7284 -0.2976
13790SOL     OW41924   4.456   2.112   0.395 -0.0522 -0.3789  0.9348
13790SOL    HW141925   4.546   2.128   0.367 -0.1053 -0.5405  0.6674
13790SOL    HW241926   4.448   2.159   0.478  0.0719  0.1902  0.6273
13791SOL     OW41927   6.355   6.386   3.068  0.1653  0.3792 -0.4803
13791SOL    HW141928   6.285   6.378   3.003 -0.7855 -2.2047  0.7302
13791SOL    HW241929   6.406   6.306   3.059  1.4084  1.0241  0.4424
13792SOL     OW41930   0.205   7.198   3.541  0.3845 -0.4446  0.6065
13792SOL    HW141931   0.297   7.168   3.539  0.0727 -1.4236 -0.1546
13792SOL    HW241932   0.211   7.293   3.541  1.4131 -0.4965  0.9121
13793SOL     OW41933   6.156   4.134   2.421 -0.3421 -0.2664  0.2836
13793SOL    HW141934   6.226   4.092   2.471  1.8175  2.1824 -0.5137
13793SOL    HW241935   6.120   4.200   2.481  0.9014  1.2996 -0.6181
13794SOL     OW41936   0.650   6.640   3.824  0.3910  0.0208  0.3028
13794SOL    HW141937   0.684   6.618   3.738  0.7534  0.8352  0.2267
13794SOL    HW241938   0.649   6.557   3.872  3.4626  0.0711  0.6541
13795SOL     OW41939   2.025   3.939   1.674  0.1269 -0.1758  0.7023
13795SOL    HW141940   1.996   3.854   1.640  1.4565 -0.1760 -0.5201
13795SOL    HW241941   1.945   3.990   1.684 -0.5184 -0.9897 -0.1970
13796SOL     OW41942   0.463   0.945   0.966 -0.0670 -0.2745 -0.1049
13796SOL    HW141943   0.397   0.899   1.017  0.8202 -1.1166  0.3221
13796SOL    HW241944   0.469   0.896   0.884 -0.1669 -0.0347 -0.2564
13797SOL     OW41945   6.780   5.427   5.332 -0.3022  0.1471 -0.3138
13797SOL    HW141946   6.752   5.426   5.424 -1.6086  0.2369 -0.6898
13797SOL    HW241947   6.699   5.419   5.283  0.4858 -1.1014 -1.4564
13798SOL     OW41948   3.912   1.674   7.229  0.3070  0.0339  0.2628
13798SOL    HW141949   3.906   1.650   7.137 -0.2051 -0.8726  0.5204
13798SOL    HW241950   3.821   1.688   7.256  0.5623  2.3019  0.1360
13799SOL     OW41951   4.751   5.783   4.282 -0.1045 -0.6131 -0.3325
13799SOL    HW141952   4.746   5.691   4.255 -1.0604 -0.6245 -0.1277
13799SOL    HW241953   4.665   5.803   4.316  1.1417 -0.7377  3.2892
13800SOL     OW41954   1.478   5.200   6.968  0.2395 -0.4394 -0.5187
13800SOL    HW141955   1.427   5.141   7.023 -0.7498 -1.1397 -2.1152
13800SOL    HW241956   1.535   5.247   7.029  0.1814 -2.1580  0.9242
13801SOL     OW41957   3.442   1.245   0.802  0.1841 -0.0520  0.4011
13801SOL    HW141958   3.402   1.200   0.876 -0.7720 -0.0441 -0.0856
13801SOL    HW241959   3.409   1.335   0.808 -1.7106 -0.5506 -1.2220
13802SOL     OW41960   0.435   4.968   0.016  0.0134  0.5438 -0.1505
13802SOL    HW141961   0.501   5.036   0.028 -0.3087  0.8851 -0.2939
13802SOL    HW241962   0.483   4.886   0.026  0.6204  0.7714 -1.0328
13803SOL     OW41963   2.848   2.395   3.245 -0.5174 -0.6394 -0.3554
13803SOL    HW141964   2.891   2.328   3.193  1.0772  0.5228 -0.5969
13803SOL    HW241965   2.763   2.407   3.203  0.9416  0.7200 -3.1906
13804SOL     OW41966   3.481   0.352   4.207  0.1663  0.4775 -0.0732
13804SOL    HW141967   3.493   0.293   4.132 -0.1699  1.8027 -1.2188
13804SOL    HW241968   3.399   0.397   4.188  0.6456  1.6398  0.5252
13805SOL     OW41969   2.934   6.644   7.574  0.4309 -0.3728  0.0047
13805SOL    HW141970   3.016   6.661   7.621  0.6177 -2.5439  0.6017
13805SOL    HW241971   2.959   6.588   7.501 -0.5440 -1.4059  0.4295
13806SOL     OW41972   0.467   5.269   7.579 -0.8194  0.8127 -0.1199
13806SOL    HW141973   0.499   5.237   7.663  1.0173  3.1069  0.1675
13806SOL    HW241974   0.372   5.275   7.590 -1.0447 -2.3891  0.4398
13807SOL     OW41975   3.898   2.419   7.110 -0.1717 -0.0733  0.1585
13807SOL    HW141976   3.823   2.464   7.148 -0.2003 -0.8475  1.0359
13807SOL    HW241977   3.891   2.329   7.140 -0.5378 -0.9062 -2.2146
13808SOL     OW41978   0.283   0.244   2.802  0.2819 -0.2050  0.2467
13808SOL    HW141979   0.316   0.304   2.869 -0.8488 -1.3647  1.9043
13808SOL    HW241980   0.189   0.237   2.820 -0.0036 -0.7575 -1.3090
13809SOL     OW41981   7.039   5.498   1.442  0.4013  0.1428  0.1219
13809SOL    HW141982   6.977   5.570   1.433 -1.1456 -1.2419 -0.8538
13809SOL    HW241983   7.070   5.482   1.353 -1.7326 -2.4063 -0.2798
13810SOL     OW41984   4.657   2.701   0.448 -0.1927  0.1743 -0.3358
13810SOL    HW141985   4.654   2.658   0.533  3.9223 -1.0943 -0.6250
13810SOL    HW241986   4.667   2.794   0.469 -0.9398  0.0838  0.4793
13811SOL     OW41987   1.990   1.785   3.850 -0.0663 -0.2943 -0.0108
13811SOL    HW141988   1.924   1.841   3.890  0.0882 -0.1448  0.0323
13811SOL    HW241989   2.074   1.825   3.874  0.0983 -1.2548  1.1170
13812SOL     OW41990   0.366   0.633   4.597  0.2312 -0.0347  0.1250
13812SOL    HW141991   0.363   0.704   4.662  1.2498  0.0561  0.0970
13812SOL    HW241992   0.329   0.557   4.642 -1.7170  0.7145 -0.1350
13813SOL     OW41993   0.102   3.692   2.575 -0.3057  0.1558 -0.6550
13813SOL    HW141994   0.036   3.760   2.585  0.1418  0.5350 -0.2644
13813SOL    HW241995   0.103   3.647   2.660  0.6482  0.7987 -0.3119
13814SOL     OW41996   0.686   2.989   4.665 -0.1848  0.1462  0.1959
13814SOL    HW141997   0.592   2.986   4.645 -0.5464 -0.6138  1.8212
13814SOL    HW241998   0.701   3.079   4.694 -0.5997  0.0593  0.6994
13815SOL     OW41999   2.282   4.973   3.301 -0.0829 -0.2067 -0.3254
13815SOL    HW142000   2.337   4.957   3.378 -2.0601  0.4011  1.3165
13815SOL    HW242001   2.197   4.935   3.324 -0.7321 -0.0301 -2.2414
13816SOL     OW42002   3.790   4.502   3.462 -0.3328  0.5092 -0.1367
13816SOL    HW142003   3.701   4.527   3.489  0.2915  2.4878  0.2725
13816SOL    HW242004   3.843   4.514   3.541  0.1586 -1.6607 -0.0965
13817SOL     OW42005   7.632   5.578   4.694 -0.2390 -0.5018 -0.0070
13817SOL    HW142006   7.565   5.514   4.716 -0.9192  0.3803  0.5223
13817SOL    HW242007   7.589   5.663   4.703  1.1701  0.1320  1.2539
13818SOL     OW42008   5.910   7.200   0.884  0.1755 -0.0078  0.2501
13818SOL    HW142009   5.920   7.205   0.979  0.3407  0.4915  0.2137
13818SOL    HW242010   5.857   7.277   0.862  0.9669  0.4345 -0.1619
13819SOL     OW42011   1.459   2.475   7.063  0.5087  0.1180  0.0559
13819SOL    HW142012   1.523   2.543   7.044 -0.5906  0.8011 -1.3389
13819SOL    HW242013   1.390   2.487   6.999  0.2963 -2.3855 -0.3044
13820SOL     OW42014   6.805   3.040   0.697  0.4776 -0.3623 -0.1442
13820SOL    HW142015   6.815   3.071   0.607 -0.6490  1.5565  0.3300
13820SOL    HW242016   6.710   3.043   0.713  0.8258  2.8515  2.1903
13821SOL     OW42017   3.530   1.601   1.767  0.1128  0.4299 -0.3617
13821SOL    HW142018   3.494   1.568   1.850  1.2439  0.4668  0.1606
13821SOL    HW242019   3.455   1.638   1.722 -0.6167 -0.0333  0.4342
13822SOL     OW42020   4.358   6.859   3.661 -0.5468  0.1665 -0.4224
13822SOL    HW142021   4.430   6.836   3.720 -0.8454  1.4673  0.5122
13822SOL    HW242022   4.395   6.925   3.603 -1.3118  1.9683  1.0298
13823SOL     OW42023   2.529   6.351   2.702 -0.1379  0.2390 -0.0164
13823SOL    HW142024   2.522   6.443   2.725 -0.3132  0.1710  0.2052
13823SOL    HW242025   2.531   6.350   2.606 -1.8105  0.3694 -0.0755
13824SOL     OW42026   6.836   3.198   6.220  0.0920 -0.0798 -0.0250
13824SOL    HW142027   6.915   3.248   6.199  0.0360  0.4222  0.9356
13824SOL    HW242028   6.860   3.145   6.296 -0.0868 -0.9467 -0.5594
13825SOL     OW42029   7.488   4.516   7.145 -0.3986 -0.6072  0.4919
13825SOL    HW142030   7.487   4.554   7.057 -0.7199  1.2449  1.2489
13825SOL    HW242031   7.399   4.527   7.178 -0.4095 -1.7321  0.8764
13826SOL     OW42032   3.737   4.233   4.444  0.2546  0.6185 -0.2871
13826SOL    HW142033   3.648   4.219   4.477  1.2937 -3.7408  1.3341
13826SOL    HW242034   3.790   4.248   4.523  1.4330 -0.3006 -0.8782
13827SOL     OW42035   2.085   3.290   3.297 -0.7870 -0.9420 -0.7430
13827SOL    HW142036   2.003   3.311   3.341 -1.5015 -2.3856 -1.3381
13827SOL    HW242037   2.060   3.278   3.205 -0.0314 -2.0817 -0.8118
13828SOL     OW42038   5.620   7.357   0.054 -0.3732  0.2559  0.1225
13828SOL    HW142039   5.626   7.261   0.053 -0.4872  0.2377  0.8610
13828SOL    HW242040   5.621   7.380   0.147  0.3648  1.0205 -0.0683
13829SOL     OW42041   0.586   1.174   0.856  0.7630  0.4004  0.2620
13829SOL    HW142042   0.523   1.104   0.873 -1.2094  2.0354  0.1389
13829SOL    HW242043   0.667   1.129   0.835 -0.5716 -1.8484 -0.4105
13830SOL     OW42044   4.474   5.244   2.048  0.0235 -0.7292 -0.5239
13830SOL    HW142045   4.526   5.177   2.091  2.0466  1.2826  0.3758
13830SOL    HW242046   4.490   5.231   1.955 -0.4046 -2.0447 -0.4402
13831SOL     OW42047   5.848   4.242   0.694 -0.6078  0.3917 -0.4282
13831SOL    HW142048   5.875   4.309   0.756  2.6181  0.3926 -1.6176
13831SOL    HW242049   5.827   4.290   0.614  0.4849  0.1300 -0.8972
13832SOL     OW42050   1.601   4.274   1.621 -0.7001 -0.6116 -0.0613
13832SOL    HW142051   1.632   4.353   1.666  3.5290 -2.1711  0.2620
13832SOL    HW242052   1.508   4.270   1.642 -0.5177  2.7087  2.3068
13833SOL     OW42053   1.398   2.069   6.348 -0.6221  0.1434  0.2790
13833SOL    HW142054   1.421   2.011   6.421 -0.4445  0.1726  0.2474
13833SOL    HW242055   1.327   2.024   6.303  0.1716 -0.5286 -0.3270
13834SOL     OW42056   1.167   7.625   5.986 -0.1627  0.1283 -0.7369
13834SOL    HW142057   1.179   7.535   6.014  0.3709  0.6371  0.8019
13834SOL    HW242058   1.129   7.619   5.898  1.1157 -1.5832 -1.2294
13835SOL     OW42059   0.290   6.605   6.480  0.1210 -0.2653 -0.6705
13835SOL    HW142060   0.263   6.696   6.463 -0.3894 -0.1222  0.7606
13835SOL    HW242061   0.364   6.591   6.421 -0.5335  0.6888 -1.7607
13836SOL     OW42062   5.799   3.884   1.885  0.2099 -0.4314  0.2491
13836SOL    HW142063   5.884   3.921   1.907  0.7501 -1.5646  0.1309
13836SOL    HW242064   5.812   3.842   1.800 -0.3254 -1.0512  0.4652
13837SOL     OW42065   3.914   2.280   3.854 -0.4043  0.1574 -0.3183
13837SOL    HW142066   3.833   2.269   3.905 -0.0883 -0.1842  0.1265
13837SOL    HW242067   3.887   2.327   3.776 -1.1033 -0.2533 -0.3386
13838SOL     OW42068   0.291   7.527   4.152  0.2483  0.3552 -0.4961
13838SOL    HW142069   0.365   7.555   4.098 -1.0923  0.6346 -2.2785
13838SOL    HW242070   0.317   7.549   4.241  2.2131  0.6328 -1.0891
13839SOL     OW42071   7.566   6.261   5.496  0.5242  0.3509  0.3114
13839SOL    HW142072   7.513   6.329   5.454  0.4065 -0.3704 -0.7603
13839SOL    HW242073   7.656   6.290   5.486  0.4902  0.2414 -0.3769
13840SOL     OW42074   0.597   1.753   7.543 -0.3058 -0.1175  0.4989
13840SOL    HW142075   0.535   1.680   7.551  1.0355 -1.3019  0.5300
13840SOL    HW242076   0.576   1.811   7.617 -0.8142 -0.9276  1.0042
13841SOL     OW42077   3.653   4.929   4.411  1.3608  0.0303  0.3312
13841SOL    HW142078   3.645   4.951   4.503  1.2542  0.6953  0.1642
13841SOL    HW242079   3.651   5.013   4.365  1.7121 -0.2733 -0.2550
13842SOL     OW42080   5.163   1.550   5.822 -0.0417  0.3993 -0.4370
13842SOL    HW142081   5.167   1.466   5.776 -2.0185  0.1532 -0.2697
13842SOL    HW242082   5.124   1.610   5.759 -1.0818  0.5126  0.2898
13843SOL     OW42083   7.300   6.175   0.088 -0.3480  0.0891  0.2499
13843SOL    HW142084   7.253   6.092   0.085 -0.9843  0.4760 -2.0980
13843SOL    HW242085   7.335   6.179   0.177 -2.7402 -1.3214  1.3667
13844SOL     OW42086   0.584   7.121   2.824 -0.2452  1.0223 -0.4441
13844SOL    HW142087   0.631   7.069   2.890 -1.5466 -0.9927 -1.0317
13844SOL    HW242088   0.511   7.160   2.871  0.1293  1.4954 -0.2368
13845SOL     OW42089   0.925   2.210   1.453  1.1593 -0.0408  0.0308
13845SOL    HW142090   0.853   2.232   1.394  0.5362  2.2214  1.4840
13845SOL    HW242091   0.942   2.117   1.438 -0.9412 -0.2331 -1.5399
13846SOL     OW42092   2.176   3.561   3.434 -0.6081  0.0409  0.1355
13846SOL    HW142093   2.164   3.481   3.384  4.5659 -0.6291 -0.5924
13846SOL    HW242094   2.166   3.535   3.526  0.6966 -1.4481 -0.1123
13847SOL     OW42095   7.052   0.712   1.324  0.0938  0.2180 -0.2320
13847SOL    HW142096   7.021   0.785   1.272  0.7346 -0.4235 -1.5580
13847SOL    HW242097   7.029   0.634   1.273 -1.2272 -0.5847  1.4792
13848SOL     OW42098   7.529   2.899   3.805 -0.4610 -0.2166  0.5528
13848SOL    HW142099   7.437   2.888   3.780 -0.5130  0.2316  0.5374
13848SOL    HW242100   7.550   2.989   3.780  0.7703 -1.1077 -1.9319
13849SOL     OW42101   2.293   7.659   2.878  0.0063 -0.1717 -0.2612
13849SOL    HW142102   2.353   7.674   2.951  1.2316 -1.1006 -1.0347
13849SOL    HW242103   2.281   7.564   2.877 -2.2023  0.0573  0.4087
13850SOL     OW42104   6.856   6.841   5.987  0.7252  0.2175 -0.1648
13850SOL    HW142105   6.833   6.918   6.040  1.7683  0.2297  0.2862
13850SOL    HW242106   6.868   6.876   5.899 -1.0960  0.1847 -0.4604
13851SOL     OW42107   5.532   1.906   0.923 -0.0155 -0.0853 -0.3530
13851SOL    HW142108   5.464   1.917   0.856 -0.0758 -0.6813 -0.3888
13851SOL    HW242109   5.486   1.917   1.006 -0.1682 -0.5449 -0.3757
13852SOL     OW42110   3.646   3.249   6.157  0.6554  0.2884 -0.2649
13852SOL    HW142111   3.624   3.308   6.085  0.1489 -0.1599 -0.4800
13852SOL    HW242112   3.593   3.280   6.231  1.4430  0.9752  0.0378
13853SOL     OW42113   4.254   4.221   4.581  0.0661 -0.4126  0.3284
13853SOL    HW142114   4.223   4.279   4.651 -0.4956 -1.6560  1.1476
13853SOL    HW242115   4.194   4.239   4.508 -1.4002 -1.3629  1.2432
13854SOL     OW42116   4.045   0.325   3.971 -0.4114  0.1352 -0.6166
13854SOL    HW142117   4.032   0.376   4.051  0.5747  0.6294 -0.7462
13854SOL    HW242118   4.055   0.235   4.001 -1.3730  0.1219 -0.3079
13855SOL     OW42119   3.365   3.419   0.022  0.2547  0.3204  0.1679
13855SOL    HW142120   3.423   3.349  -0.009 -0.6253  0.4184 -1.9356
13855SOL    HW242121   3.284   3.406  -0.027 -0.2400  2.2946  0.3551
13856SOL     OW42122   1.501   6.164   0.082  0.4939 -0.7967 -0.0985
13856SOL    HW142123   1.514   6.193  -0.009 -1.2475 -0.4688 -0.2680
13856SOL    HW242124   1.586   6.128   0.108  0.8355 -1.5466 -2.0872
13857SOL     OW42125   0.137   6.642   4.510  0.0482 -0.5885 -0.1163
13857SOL    HW142126   0.193   6.668   4.436 -0.9288 -1.5454 -1.2240
13857SOL    HW242127   0.158   6.550   4.524 -0.1065 -0.5273  0.5071
13858SOL     OW42128   3.280   0.707   1.220 -0.2960  0.4189 -0.4050
13858SOL    HW142129   3.300   0.799   1.240  1.3617  0.3660 -1.6367
13858SOL    HW242130   3.199   0.690   1.267  1.5569  1.2329  3.5272
13859SOL     OW42131   5.915   5.103   0.153 -0.3132 -0.3451  0.2122
13859SOL    HW142132   5.845   5.047   0.119 -1.4320  1.1252 -0.0096
13859SOL    HW242133   5.893   5.191   0.121 -0.4828  0.8453  3.2354
13860SOL     OW42134   4.852   5.633   7.072 -0.0687  0.4172 -0.4260
13860SOL    HW142135   4.921   5.568   7.062 -0.5036 -0.3219  0.9873
13860SOL    HW242136   4.810   5.610   7.155 -0.9358  1.8570 -0.4300
13861SOL     OW42137   1.054   5.592   6.092 -0.5088  0.7603  0.0036
13861SOL    HW142138   1.148   5.577   6.083 -0.1951  0.7936  2.4742
13861SOL    HW242139   1.024   5.612   6.003  1.4280 -1.1878 -1.1777
13862SOL     OW42140   6.343   4.215   6.915  0.3866 -0.1126  0.2421
13862SOL    HW142141   6.305   4.157   6.981  0.0630 -0.1119  0.0584
13862SOL    HW242142   6.437   4.206   6.926  0.3995 -2.0152 -0.9505
13863SOL     OW42143   1.198   2.523   1.493 -0.4746  0.3979  0.8977
13863SOL    HW142144   1.250   2.575   1.432  0.5157 -0.3889  1.0415
13863SOL    HW242145   1.109   2.525   1.457  0.4051 -1.6173 -1.6930
13864SOL     OW42146   3.761   4.625   4.742 -0.9349 -0.2187  0.6685
13864SOL    HW142147   3.794   4.710   4.771  1.6783 -0.9741  0.2302
13864SOL    HW242148   3.746   4.635   4.648  0.4681 -0.4855  0.3883
13865SOL     OW42149   3.208   2.282   4.172  0.9368  0.6095 -0.0914
13865SOL    HW142150   3.283   2.228   4.194  1.6073  1.4599 -0.2443
13865SOL    HW242151   3.190   2.333   4.251 -0.8293 -1.0756  0.6790
13866SOL     OW42152   4.530   6.700   0.477  0.2641 -0.4269 -0.1807
13866SOL    HW142153   4.537   6.793   0.456  0.1517  0.1803  2.1493
13866SOL    HW242154   4.610   6.680   0.527  1.0817 -2.0308 -1.9931
13867SOL     OW42155   0.013   0.642   6.222 -0.2806 -0.5713  0.2762
13867SOL    HW142156   0.075   0.621   6.291  1.7279 -0.8058 -1.4908
13867SOL    HW242157   0.011   0.564   6.166 -2.0123 -0.4757  0.1446
13868SOL     OW42158   7.404   2.417   3.071  0.6368 -0.1644 -0.2090
13868SOL    HW142159   7.331   2.434   3.130  1.4158  1.6930  0.2918
13868SOL    HW242160   7.364   2.371   2.997 -0.7756 -0.4102  0.6595
13869SOL     OW42161   4.650   5.544   1.965  1.1581  0.4429 -0.0435
13869SOL    HW142162   4.697   5.580   2.040  3.1499 -1.8311 -0.0451
13869SOL    HW242163   4.687   5.589   1.889  0.0069  1.8846  0.2169
13870SOL     OW42164   6.447   3.350   7.610  0.5033 -0.2873  0.4896
13870SOL    HW142165   6.428   3.266   7.568 -0.1587 -0.0974  0.3884
13870SOL    HW242166   6.440   3.414   7.539  0.3645 -0.0779  0.6910
13871SOL     OW42167   5.248   0.927   7.241  0.0544 -0.2331 -0.9479
13871SOL    HW142168   5.329   0.929   7.292 -0.7542  0.3614  0.3741
13871SOL    HW242169   5.272   0.962   7.156  0.8725  1.5304 -0.0530
13872SOL     OW42170   3.052   2.175   2.156 -0.5252 -0.3703 -0.2283
13872SOL    HW142171   2.983   2.197   2.093 -0.9103  2.7800  1.1296
13872SOL    HW242172   3.009   2.180   2.241  0.6328 -1.8487  0.4865
13873SOL     OW42173   5.769   4.339   1.712 -0.4494 -0.3242 -0.2739
13873SOL    HW142174   5.686   4.291   1.709 -0.4165 -0.4424  0.5191
13873SOL    HW242175   5.761   4.394   1.790 -0.6917  1.3473 -1.4447
13874SOL     OW42176   6.357   1.796   7.677 -0.1967 -0.0336 -0.2356
13874SOL    HW142177   6.413   1.838   7.613  1.5685 -1.3161  0.4088
13874SOL    HW242178   6.329   1.714   7.636 -1.3458  0.4145 -0.4042
13875SOL     OW42179   0.797   2.658   3.508 -0.1483 -0.1065 -0.4555
13875SOL    HW142180   0.873   2.601   3.521 -1.0332 -1.3343 -0.5158
13875SOL    HW242181   0.755   2.663   3.594 -1.6921 -1.9505 -1.0418
13876SOL     OW42182   5.754   0.289   2.843 -0.4170  0.8150  0.2094
13876SOL    HW142183   5.845   0.308   2.866 -0.2424 -0.8455  1.0211
13876SOL    HW242184   5.703   0.342   2.904 -0.0040  1.5799 -0.0988
13877SOL     OW42185   6.931   7.718   5.888 -0.4497  0.4183  0.1031
13877SOL    HW142186   6.983   7.725   5.808  1.5597 -1.1726  1.1593
13877SOL    HW242187   6.996   7.718   5.959 -2.0606  0.3921  1.6526
13878SOL     OW42188   3.363   3.414   6.873  0.4725 -0.6654  0.1891
13878SOL    HW142189   3.366   3.375   6.961 -0.0115  2.2551  1.6231
13878SOL    HW242190   3.277   3.454   6.868  0.2789 -1.2715 -1.8916
13879SOL     OW42191   4.565   7.332   1.855 -0.3382  0.9006  0.3576
13879SOL    HW142192   4.514   7.375   1.786  0.0336  1.8495  0.6651
13879SOL    HW242193   4.538   7.240   1.851 -0.2036  0.9024 -1.1651
13880SOL     OW42194   0.792   6.365   5.242 -0.1406 -0.3472  0.1153
13880SOL    HW142195   0.834   6.447   5.269 -1.9630  0.2031  1.5536
13880SOL    HW242196   0.825   6.299   5.303 -0.4174 -0.1748  0.4564
13881SOL     OW42197   5.059   6.172   3.685 -0.2310  0.6960 -0.3756
13881SOL    HW142198   5.043   6.081   3.710 -0.4838  1.2730  1.7479
13881SOL    HW242199   4.989   6.221   3.728  1.9205  2.2811  1.6179
13882SOL     OW42200   4.551   2.866   3.764 -0.3944  0.1851 -0.3836
13882SOL    HW142201   4.632   2.918   3.763 -0.8203  0.8502 -0.9088
13882SOL    HW242202   4.581   2.775   3.765  0.3617  0.4205 -0.9143
13883SOL     OW42203   5.042   6.648   5.352 -0.1643 -0.6499  0.0861
13883SOL    HW142204   5.013   6.632   5.262 -0.4387 -0.0307  0.0561
13883SOL    HW242205   5.042   6.562   5.394 -1.2716 -0.7736 -0.1483
13884SOL     OW42206   5.743   3.629   5.076 -0.3606 -0.3611 -0.1098
13884SOL    HW142207   5.787   3.702   5.120 -2.8363  0.9194  0.4589
13884SOL    HW242208   5.751   3.556   5.137  0.8914 -0.1804 -0.0242
13885SOL     OW42209   4.078   1.762   0.205 -0.7106  0.1707 -0.1743
13885SOL    HW142210   4.099   1.765   0.298  1.1655 -1.3539 -0.4811
13885SOL    HW242211   4.036   1.677   0.192 -1.5019  0.6171 -0.6440
13886SOL     OW42212   2.977   0.180   5.307 -0.2238  0.4624 -0.2002
13886SOL    HW142213   2.908   0.182   5.241 -0.0087 -0.9278 -0.4973
13886SOL    HW242214   2.934   0.205   5.389 -1.2637 -1.0878 -0.2423
13887SOL     OW42215   3.771   3.567   3.060 -0.2643  0.0456 -0.0267
13887SOL    HW142216   3.767   3.520   2.977 -1.0647  1.0517 -0.5864
13887SOL    HW242217   3.707   3.523   3.116 -1.1006  0.5153 -0.5874
13888SOL     OW42218   3.268   6.013   5.241  0.8758 -0.2600  0.0307
13888SOL    HW142219   3.358   6.045   5.237  0.8398 -0.3106 -2.3619
13888SOL    HW242220   3.276   5.918   5.242  0.8605 -0.2632 -0.0876
13889SOL     OW42221   4.220   1.044   0.240  0.7620  0.0071  0.2540
13889SOL    HW142222   4.235   1.005   0.154 -0.2728  2.1033 -0.9513
13889SOL    HW242223   4.308   1.057   0.276  1.3103  0.8449 -1.3237
13890SOL     OW42224   3.162   3.296   0.685  0.4934  0.4407  0.0903
13890SOL    HW142225   3.091   3.253   0.639 -0.5221  0.8293  1.2456
13890SOL    HW242226   3.227   3.314   0.617 -0.7318  0.5731 -1.0922
13891SOL     OW42227   5.460   2.436   5.621  0.4066 -0.2770 -0.2871
13891SOL    HW142228   5.517   2.373   5.576 -0.0382 -1.5895  0.9053
13891SOL    HW242229   5.519   2.505   5.652  0.8630  0.1011 -1.8983
13892SOL     OW42230   2.924   2.931   4.806 -0.0673 -0.1664  0.1005
13892SOL    HW142231   2.866   2.901   4.736 -1.2094 -0.3138  1.0883
13892SOL    HW242232   2.993   2.864   4.810 -0.2060 -0.3593 -0.6133
13893SOL     OW42233   4.710   1.351   6.509 -0.1151  0.4033  0.4258
13893SOL    HW142234   4.726   1.265   6.469  1.3970  0.8583 -0.0131
13893SOL    HW242235   4.676   1.404   6.437  0.6436  0.6500  0.2396
13894SOL     OW42236   3.425   1.823   4.011  0.3717 -0.1222 -0.1496
13894SOL    HW142237   3.362   1.841   3.942  1.8393  1.4658 -1.1680
13894SOL    HW242238   3.376   1.774   4.077 -1.9335  1.1367 -0.8415
13895SOL     OW42239   1.272   2.684   6.001 -0.1198 -0.2161  0.2639
13895SOL    HW142240   1.274   2.750   5.932 -1.2747  1.0713  1.3756
13895SOL    HW242241   1.362   2.680   6.033 -0.1598  1.4915  0.7120
13896SOL     OW42242   6.478   2.461   4.935  0.1754  0.0700 -0.0360
13896SOL    HW142243   6.469   2.369   4.908  0.3205  0.3832 -1.2017
13896SOL    HW242244   6.528   2.501   4.864  0.8475  0.8668  0.8746
13897SOL     OW42245   5.296   3.672   1.997 -0.4108 -0.5572 -0.5271
13897SOL    HW142246   5.391   3.666   2.003 -0.5224 -2.3597 -0.1754
13897SOL    HW242247   5.277   3.657   1.904 -0.3022  1.2996 -0.8947
13898SOL     OW42248   3.570   4.792   7.373 -0.4896  0.1673  0.2914
13898SOL    HW142249   3.525   4.869   7.338 -1.8783 -0.4946  0.5259
13898SOL    HW242250   3.635   4.769   7.307  0.5131  1.9881  0.5836
13899SOL     OW42251   4.659   2.222   7.301  0.1898  0.2311  0.1192
13899SOL    HW142252   4.664   2.304   7.251 -1.6766  0.5615  0.3928
13899SOL    HW242253   4.630   2.249   7.388 -1.5812 -0.7929 -0.1130
13900SOL     OW42254   0.794   4.473   3.385 -0.0214  0.0987 -0.5638
13900SOL    HW142255   0.829   4.507   3.303 -0.5355  3.2411  0.3757
13900SOL    HW242256   0.711   4.519   3.396  0.4574  0.5067  2.1021
13901SOL     OW42257   2.081   1.027   4.364  0.3642 -0.3222 -0.6156
13901SOL    HW142258   2.013   1.042   4.299  0.0730  1.0907  0.0004
13901SOL    HW242259   2.035   0.987   4.438  0.6873 -1.8808 -1.2030
13902SOL     OW42260   0.286   3.783   6.192  0.1840 -0.1842 -0.0770
13902SOL    HW142261   0.314   3.694   6.214 -1.4067 -0.5483  0.6287
13902SOL    HW242262   0.323   3.799   6.106  0.4807 -1.5447 -0.2264
13903SOL     OW42263   1.310   1.069   1.129  0.2600  0.5547 -0.1553
13903SOL    HW142264   1.330   1.163   1.130  0.3206  0.5543 -0.8778
13903SOL    HW242265   1.235   1.060   1.188  0.1975  1.0715 -0.1469
13904SOL     OW42266   1.348   3.591   2.707  0.4357  0.2653  0.2943
13904SOL    HW142267   1.397   3.555   2.633  0.5665  2.5675 -0.8282
13904SOL    HW242268   1.289   3.656   2.668 -0.4976  0.5626  2.0766
13905SOL     OW42269   1.225   2.288   7.737  0.6787  0.1271  0.6222
13905SOL    HW142270   1.160   2.296   7.807  1.7637 -1.1662  1.8254
13905SOL    HW242271   1.188   2.223   7.678  0.5930 -0.1460  0.9705
13906SOL     OW42272   4.092   6.194   4.803 -0.1930  0.2620  0.1923
13906SOL    HW142273   4.142   6.143   4.739 -1.2159 -0.2527 -0.2306
13906SOL    HW242274   4.117   6.156   4.887  0.5546  0.4002  0.0419
13907SOL     OW42275   3.843   4.844   2.756 -0.2283 -0.0732  0.8292
13907SOL    HW142276   3.776   4.780   2.734 -1.9564  1.3319  1.7211
13907SOL    HW242277   3.848   4.901   2.680  2.0990 -1.7843 -0.4217
13908SOL     OW42278   4.502   5.144   6.165 -0.0066  0.0832 -0.8827
13908SOL    HW142279   4.527   5.236   6.155  2.3592 -0.3082  0.7126
13908SOL    HW242280   4.486   5.133   6.258 -1.1504 -0.9742 -1.1641
13909SOL     OW42281   5.255   1.637   3.375  0.0873 -0.1726 -0.0272
13909SOL    HW142282   5.184   1.692   3.407  0.5018 -0.5028  1.5185
13909SOL    HW242283   5.334   1.689   3.392  0.3884 -0.7595  0.3752
13910SOL     OW42284   0.700   6.784   6.046  0.3460 -0.2360 -0.0822
13910SOL    HW142285   0.711   6.875   6.072 -1.6169 -0.1596  0.5971
13910SOL    HW242286   0.608   6.777   6.020  0.6192 -1.8750 -0.7370
13911SOL     OW42287   0.795   4.111   2.602  0.0307 -0.1822 -0.1099
13911SOL    HW142288   0.729   4.043   2.596 -0.2808  0.2208 -1.9362
13911SOL    HW242289   0.748   4.188   2.634 -0.2653 -0.0615 -0.8215
13912SOL     OW42290   4.327   7.114   2.867  0.3957 -0.6110  0.2983
13912SOL    HW142291   4.387   7.041   2.858  1.3166  0.3276 -1.8970
13912SOL    HW242292   4.316   7.147   2.778 -1.0233  1.1122  1.0497
13913SOL     OW42293   7.736   2.114   0.213  0.2210  0.0724 -0.3242
13913SOL    HW142294   7.705   2.094   0.301  1.2512  0.4726  0.1480
13913SOL    HW242295   7.828   2.138   0.225  0.6809 -0.9047 -1.6347
13914SOL     OW42296   3.366   4.283   7.260  0.0681  0.1222 -0.1308
13914SOL    HW142297   3.349   4.357   7.318  0.3580  1.2747 -1.4512
13914SOL    HW242298   3.292   4.224   7.273  0.8433 -0.3830  2.4549
13915SOL     OW42299   6.042   7.256   2.023  0.4082 -0.1602 -0.1842
13915SOL    HW142300   6.090   7.313   2.084 -0.1730 -0.0762  0.2087
13915SOL    HW242301   6.094   7.176   2.019 -0.9991 -1.4014  2.8074
13916SOL     OW42302   4.300   5.981   1.472  0.2071 -0.0798  0.0706
13916SOL    HW142303   4.239   5.947   1.538  0.2246 -0.6653 -0.2101
13916SOL    HW242304   4.355   6.042   1.520 -0.5184  0.3633  0.3569
13917SOL     OW42305   1.547   6.152   1.410  0.1999  0.2544  0.3117
13917SOL    HW142306   1.601   6.228   1.429 -0.5082  0.7086  0.5350
13917SOL    HW242307   1.457   6.185   1.408 -0.0854 -0.5013  0.0345
13918SOL     OW42308   2.868   1.683   5.532  0.3397 -0.4168  0.3278
13918SOL    HW142309   2.814   1.651   5.605 -1.4395  2.4663  0.4326
13918SOL    HW242310   2.856   1.618   5.463 -2.2865 -0.5756  0.8189
13919SOL     OW42311   7.297   3.546   3.910  0.1159 -0.5048 -0.1654
13919SOL    HW142312   7.315   3.596   3.830 -0.8420 -3.4002 -2.3707
13919SOL    HW242313   7.213   3.503   3.893 -0.3182 -0.9694  2.6043
13920SOL     OW42314   3.815   3.818   5.508  0.3095 -0.2732 -0.1649
13920SOL    HW142315   3.784   3.866   5.585  1.6105 -0.2790  0.3949
13920SOL    HW242316   3.755   3.842   5.438  0.7114  1.8757  0.1828
13921SOL     OW42317   6.384   4.510   6.094 -0.2971  0.7174 -0.3578
13921SOL    HW142318   6.359   4.433   6.044  0.6500 -0.6595  1.2091
13921SOL    HW242319   6.389   4.580   6.029  0.6450 -0.9367 -2.1748
13922SOL     OW42320   3.890   6.421   6.059  0.3365 -0.8471  0.3007
13922SOL    HW142321   3.834   6.345   6.042  0.3701 -1.2671  1.9481
13922SOL    HW242322   3.971   6.384   6.094  1.4352 -0.2011 -1.4239
13923SOL     OW42323   3.623   7.606   3.627 -0.2429  0.2370 -0.2935
13923SOL    HW142324   3.711   7.629   3.599  0.1899  0.2096  0.9809
13923SOL    HW242325   3.568   7.677   3.596  0.5466  1.2712  0.6109
13924SOL     OW42326   5.924   5.568   6.545 -0.0475  0.3254 -0.1634
13924SOL    HW142327   6.002   5.604   6.587 -0.2920  1.1062 -0.3568
13924SOL    HW242328   5.952   5.483   6.512  1.1973  1.2158 -1.5864
13925SOL     OW42329   5.472   6.780   4.719 -0.0033  0.1614  0.1604
13925SOL    HW142330   5.470   6.691   4.684 -0.5814  0.3248 -0.2337
13925SOL    HW242331   5.560   6.789   4.757  1.2540  0.4970 -2.6134
13926SOL     OW42332   0.726   3.404   3.276  0.0474  1.0663  0.3026
13926SOL    HW142333   0.728   3.477   3.337 -0.3427  0.3725  1.1692
13926SOL    HW242334   0.660   3.344   3.312  1.6589 -0.5798  0.6603
13927SOL     OW42335   1.740   3.070   6.403 -0.3419  0.3969  0.0674
13927SOL    HW142336   1.661   3.086   6.351 -0.6013  0.6109  0.5257
13927SOL    HW242337   1.802   3.136   6.373  0.4187 -1.0776 -1.8126
13928SOL     OW42338   2.455   4.021   6.627 -0.2751  0.4039 -0.2848
13928SOL    HW142339   2.438   4.048   6.537  1.4455  2.0748 -0.1616
13928SOL    HW242340   2.502   3.937   6.618 -0.8845  0.1230 -0.9000
13929SOL     OW42341   1.350   3.594   7.282 -0.0324  0.1784 -0.2192
13929SOL    HW142342   1.263   3.556   7.269 -1.1196  3.0274 -2.0241
13929SOL    HW242343   1.334   3.686   7.300  2.6117  0.5752  0.5386
13930SOL     OW42344   3.025   7.368   6.227  0.0904  0.2155  0.3360
13930SOL    HW142345   2.937   7.392   6.198  0.0448 -0.7237 -0.3602
13930SOL    HW242346   3.011   7.295   6.288  0.3628  0.2139  0.3958
13931SOL     OW42347   2.742   5.208   2.379  0.2218 -0.3702  0.5305
13931SOL    HW142348   2.818   5.214   2.437  0.4927 -3.5993  0.7312
13931SOL    HW242349   2.717   5.115   2.382 -3.7089  0.4816  0.3882
13932SOL     OW42350   2.395   2.928   3.441  0.1413 -0.3452  0.3619
13932SOL    HW142351   2.307   2.903   3.410  0.0448  0.3638  0.0531
13932SOL    HW242352   2.391   3.023   3.452  0.4101 -0.4777  1.8303
13933SOL     OW42353   3.534   7.350   6.033  0.5664  0.7833 -0.0431
13933SOL    HW142354   3.452   7.308   6.059  0.6144 -0.5663 -1.8655
13933SOL    HW242355   3.600   7.314   6.092 -0.0873  1.8196  1.3855
13934SOL     OW42356   6.008   1.807   5.534 -0.1589  0.3082  0.4331
13934SOL    HW142357   5.934   1.811   5.473 -0.1240  1.0632  0.4333
13934SOL    HW242358   6.054   1.890   5.521  0.0162  0.3484  1.2793
13935SOL     OW42359   2.596   3.814   0.947  0.8442 -0.4194  0.1115
13935SOL    HW142360   2.525   3.794   1.007  2.0117  1.8650  2.4416
13935SOL    HW242361   2.554   3.821   0.861 -1.5426 -0.2508  1.2140
13936SOL     OW42362   6.537   7.512   4.130  0.0513  0.3158  0.5314
13936SOL    HW142363   6.509   7.420   4.129  1.3499 -0.1218 -1.2436
13936SOL    HW242364   6.615   7.513   4.186 -0.1324  0.4048  0.7888
13937SOL     OW42365   6.554   4.461   6.782 -0.1758 -0.3836  0.1743
13937SOL    HW142366   6.579   4.414   6.702 -1.7598  0.5495 -0.9206
13937SOL    HW242367   6.458   4.458   6.782 -0.2225  0.3953  1.5968
13938SOL     OW42368   0.616   5.096   0.436  0.0719  0.1325 -0.1557
13938SOL    HW142369   0.622   5.146   0.518  0.1866  1.0749 -0.7177
13938SOL    HW242370   0.526   5.109   0.407 -0.3337 -1.2200  0.4263
13939SOL     OW42371   2.888   5.546   0.775  0.5205  0.3612 -0.7641
13939SOL    HW142372   2.841   5.482   0.722 -0.3092  0.8105 -0.6047
13939SOL    HW242373   2.853   5.534   0.864  1.1610  0.2883 -0.5193
13940SOL     OW42374   3.624   5.232   2.819  0.4484  0.2912  0.0574
13940SOL    HW142375   3.654   5.193   2.901 -1.1793 -1.5526 -0.1758
13940SOL    HW242376   3.577   5.162   2.774 -0.4299  1.8270 -1.5434
13941SOL     OW42377   1.313   5.752   6.825 -0.1746  0.8880  0.3973
13941SOL    HW142378   1.371   5.676   6.818  0.0385  1.0934 -0.0714
13941SOL    HW242379   1.347   5.815   6.762 -0.2066  1.4780  0.9605
13942SOL     OW42380   7.534   2.029   2.054 -0.6462 -0.0006  0.0379
13942SOL    HW142381   7.584   1.950   2.077 -1.7820 -0.8433 -0.3057
13942SOL    HW242382   7.584   2.069   1.983 -0.7990 -1.1992 -0.7677
13943SOL     OW42383   6.877   4.416   6.091  0.4612  0.0788 -0.2531
13943SOL    HW142384   6.841   4.504   6.104 -0.9113 -0.2380 -1.6364
13943SOL    HW242385   6.809   4.357   6.127  0.3400 -0.4766 -1.3505
13944SOL     OW42386   3.420   1.797   0.409 -0.3545  0.2494 -0.1886
13944SOL    HW142387   3.514   1.780   0.418 -0.2566  0.4743 -0.7394
13944SOL    HW242388   3.378   1.728   0.460  0.0819 -0.6062 -0.9509
13945SOL     OW42389   4.480   5.806   6.766 -0.2447  0.0701  0.0509
13945SOL    HW142390   4.516   5.890   6.796  0.8177 -0.1789 -0.4888
13945SOL    HW242391   4.556   5.756   6.736 -0.8549 -1.1167  0.4096
13946SOL     OW42392   2.365   1.961   0.192 -0.6235  0.5444 -0.3409
13946SOL    HW142393   2.459   1.944   0.180 -0.9775 -1.8591 -0.1732
13946SOL    HW242394   2.343   1.916   0.274 -2.0108  0.6626 -0.6337
13947SOL     OW42395   4.020   5.303   4.401  0.4117 -0.0823  0.0881
13947SOL    HW142396   3.938   5.343   4.430 -0.0307 -2.2639  2.2721
13947SOL    HW242397   4.062   5.274   4.482  2.2006 -1.1241 -1.1315
13948SOL     OW42398   4.188   5.632   6.690 -0.4295  0.3764 -0.4600
13948SOL    HW142399   4.208   5.557   6.747 -1.9899  0.6185  0.4728
13948SOL    HW242400   4.173   5.593   6.604  0.5124 -0.1634 -0.3994
13949SOL     OW42401   7.721   5.006   6.619 -0.5133  0.9352  0.1470
13949SOL    HW142402   7.727   5.051   6.535 -1.6103  0.6524 -0.0908
13949SOL    HW242403   7.798   4.949   6.620 -0.7184  0.6179 -0.8680
13950SOL     OW42404   3.942   7.723   6.141 -0.0756  0.0717  0.0689
13950SOL    HW142405   4.014   7.661   6.129  0.8586  1.0297  0.5782
13950SOL    HW242406   3.865   7.668   6.155 -0.2056 -1.1120 -3.9810
13951SOL     OW42407   1.340   6.402   4.199  0.2473  0.2576 -0.7528
13951SOL    HW142408   1.383   6.480   4.165 -1.7115  1.3809 -0.7990
13951SOL    HW242409   1.287   6.433   4.272 -1.4699 -0.7698 -1.4924
13952SOL     OW42410   0.145   1.400   3.010  0.5676 -0.1479  0.1841
13952SOL    HW142411   0.104   1.450   2.939 -0.7068 -0.6020  0.5677
13952SOL    HW242412   0.214   1.349   2.967  0.1068 -0.0880 -0.6510
13953SOL     OW42413   0.843   3.924   3.675  0.3575 -0.1004 -0.7245
13953SOL    HW142414   0.777   3.983   3.711 -0.4108 -0.6574 -1.1840
13953SOL    HW242415   0.926   3.971   3.685  0.1689 -0.1673  1.6042
13954SOL     OW42416   3.195   5.765   2.003  0.1196  0.1452 -0.3028
13954SOL    HW142417   3.199   5.671   2.022  0.1807  0.6238  2.5196
13954SOL    HW242418   3.283   5.786   1.971  0.8769 -0.4213  1.2582
13955SOL     OW42419   0.823   3.246   0.175  0.3217  0.1362  0.3233
13955SOL    HW142420   0.866   3.201   0.102  0.7564  0.4257  0.3952
13955SOL    HW242421   0.837   3.339   0.157 -0.4857  0.2432  0.2245
13956SOL     OW42422   5.062   5.909   5.233  0.0600  0.7246  0.2986
13956SOL    HW142423   5.090   5.983   5.287  1.5305  0.9050 -0.6671
13956SOL    HW242424   5.102   5.924   5.148 -1.1104 -0.2643 -0.4629
13957SOL     OW42425   0.378   1.757   5.032 -0.8306 -0.0192  0.1079
13957SOL    HW142426   0.348   1.729   4.946 -0.6034 -0.6129  0.2217
13957SOL    HW242427   0.460   1.711   5.046  0.1985  1.6242 -0.2183
13958SOL     OW42428   4.077   4.480   6.052  0.4257 -0.5922 -0.6127
13958SOL    HW142429   4.163   4.441   6.036  0.3097 -1.8404  1.4546
13958SOL    HW242430   4.095   4.561   6.100  0.5365  0.8058 -2.8546
13959SOL     OW42431   3.928   4.383   2.825  0.2824  0.0340  0.2099
13959SOL    HW142432   3.874   4.353   2.752  0.7073  0.4789 -0.3031
13959SOL    HW242433   3.926   4.479   2.818 -0.2998  0.1023  1.2512
13960SOL     OW42434   2.379   3.065   5.601 -0.4284  0.0475  0.1439
13960SOL    HW142435   2.376   3.157   5.627  0.2405  0.3480 -0.7876
13960SOL    HW242436   2.377   3.016   5.683  1.3598  0.9528  0.7657
13961SOL     OW42437   0.288   2.292   1.531 -0.0418 -0.4213 -0.0006
13961SOL    HW142438   0.355   2.247   1.481  0.2991 -1.4443  1.3275
13961SOL    HW242439   0.260   2.229   1.597 -0.6517  0.7936  0.9487
13962SOL     OW42440   4.611   6.960   2.545  0.5952 -0.1243  0.0952
13962SOL    HW142441   4.692   7.003   2.573 -0.3267  1.9594 -0.2073
13962SOL    HW242442   4.541   7.014   2.582 -0.6741 -1.6787  0.0711
13963SOL     OW42443   4.146   4.742   1.066  0.1952 -0.1040 -0.1627
13963SOL    HW142444   4.211   4.733   1.136 -0.6511 -0.5637  0.5959
13963SOL    HW242445   4.126   4.836   1.065  0.5594 -0.0259 -0.0989
13964SOL     OW42446   1.617   2.660   4.610 -0.0888  0.2694 -0.2541
13964SOL    HW142447   1.648   2.721   4.544 -0.0581 -0.8783 -1.3308
13964SOL    HW242448   1.681   2.588   4.610 -0.6639 -0.2644  0.2420
13965SOL     OW42449   2.116   4.978   1.305  0.0528 -0.4147 -0.8186
13965SOL    HW142450   2.175   4.928   1.360 -1.5729  0.3987  1.8870
13965SOL    HW242451   2.139   5.070   1.322 -0.5630 -0.1449 -1.3727
13966SOL     OW42452   7.321   1.473   4.210  0.1230 -0.6029 -0.5849
13966SOL    HW142453   7.370   1.398   4.175  1.2191  0.3776 -1.2499
13966SOL    HW242454   7.367   1.550   4.175 -0.1336  0.4066  1.1860
13967SOL     OW42455   2.704   3.389   4.119 -0.0902 -0.6548  0.2200
13967SOL    HW142456   2.774   3.385   4.185 -2.2625 -1.8005  2.6464
13967SOL    HW242457   2.636   3.443   4.159 -0.3849  1.1206 -2.4097
13968SOL     OW42458   0.092   4.791   0.349 -0.0139  0.1451 -0.7352
13968SOL    HW142459   0.125   4.819   0.435 -1.6630  1.3975 -0.4667
13968SOL    HW242460   0.171   4.767   0.300  1.1116  1.0590  0.5556
13969SOL     OW42461   3.404   1.959   7.325 -0.5016  0.3166 -0.8809
13969SOL    HW142462   3.355   2.021   7.271 -0.4428  1.9780  0.8567
13969SOL    HW242463   3.338   1.896   7.355 -1.1979  1.2786 -0.3181
13970SOL     OW42464   3.129   7.548   5.395  0.1894 -0.0159 -0.4786
13970SOL    HW142465   3.049   7.495   5.390  0.2057 -0.0797 -0.1191
13970SOL    HW242466   3.099   7.633   5.428  0.3665 -0.2714  0.3669
13971SOL     OW42467   1.522   0.190   6.281 -0.2448  0.0645  0.1404
13971SOL    HW142468   1.546   0.189   6.189  1.5918  0.7665  0.5747
13971SOL    HW242469   1.479   0.274   6.293  0.8021  0.6101  0.1982
13972SOL     OW42470   4.030   5.167   3.740 -0.0292 -0.0035 -0.0576
13972SOL    HW142471   4.074   5.187   3.658 -0.3235 -0.1809 -0.2596
13972SOL    HW242472   3.981   5.087   3.723 -3.0053  1.8331 -0.8379
13973SOL     OW42473   1.942   0.287   7.736  0.2694  0.4258  0.2607
13973SOL    HW142474   1.925   0.227   7.663 -0.0580 -0.0943  0.7620
13973SOL    HW242475   1.864   0.281   7.791  0.1563  1.4394  0.2400
13974SOL     OW42476   6.581   3.009   4.934 -0.2785  0.1560 -0.2858
13974SOL    HW142477   6.494   3.031   4.901  0.5476  3.6808 -0.5312
13974SOL    HW242478   6.640   3.064   4.882  1.8364 -0.2019  1.6227
13975SOL     OW42479   1.518   1.691   7.032  0.3560  0.0205 -0.3221
13975SOL    HW142480   1.587   1.669   7.095  1.4115 -0.4707 -1.5915
13975SOL    HW242481   1.508   1.786   7.040  1.6172  0.1963 -0.5014
13976SOL     OW42482   3.727   2.539   1.321  0.6495  0.0766  0.1090
13976SOL    HW142483   3.791   2.604   1.293  2.1538 -0.9511  0.9757
13976SOL    HW242484   3.661   2.589   1.369  0.4946  1.2370 -1.2491
13977SOL     OW42485   3.347   5.843   2.235  0.2341 -0.4720  0.4291
13977SOL    HW142486   3.437   5.834   2.204  0.1407  2.3584 -0.9851
13977SOL    HW242487   3.297   5.784   2.180  0.9200 -0.1757 -0.5385
13978SOL     OW42488   7.278   5.723   5.706  0.1076  0.4433  0.3393
13978SOL    HW142489   7.220   5.799   5.709  0.5536  0.7528  1.7164
13978SOL    HW242490   7.356   5.750   5.754  1.3117 -0.0675 -1.2602
13979SOL     OW42491   3.616   4.725   5.014 -0.3506 -0.1479  0.3641
13979SOL    HW142492   3.550   4.662   5.043 -1.5204  1.3794  1.1443
13979SOL    HW242493   3.581   4.763   4.934 -0.4254  0.6680  0.7780
13980SOL     OW42494   3.356   2.695   3.577 -0.1841 -0.5832 -0.0896
13980SOL    HW142495   3.322   2.611   3.545 -0.9119  0.0669 -1.0874
13980SOL    HW242496   3.322   2.759   3.515  2.6020  0.1657 -0.9770
13981SOL     OW42497   2.556   1.690   6.989  0.0573  0.3886 -0.0142
13981SOL    HW142498   2.644   1.673   6.956 -0.1527  1.9892 -1.6212
13981SOL    HW242499   2.567   1.706   7.082  1.5085  0.7386 -0.2227
13982SOL     OW42500   3.338   7.106   4.300  0.2481 -0.1189 -0.2677
13982SOL    HW142501   3.417   7.130   4.348  0.2594 -1.1324  0.2542
13982SOL    HW242502   3.278   7.180   4.313 -0.1349 -0.7490  2.1965
13983SOL     OW42503   7.141   3.351   1.507  0.1006  0.0361 -0.8306
13983SOL    HW142504   7.104   3.426   1.460  1.9383  0.0399 -2.3826
13983SOL    HW242505   7.097   3.353   1.592 -0.5857  2.3205 -1.1475
13984SOL     OW42506   1.237   0.958   0.822 -0.5708  0.2466  0.3130
13984SOL    HW142507   1.173   0.887   0.829  1.6526 -1.8557  0.8562
13984SOL    HW242508   1.254   0.984   0.912  1.1320 -1.0089  0.3985
13985SOL     OW42509   3.178   6.805   2.974  0.6088 -0.3784 -0.0365
13985SOL    HW142510   3.267   6.838   2.988  0.8773 -0.4663 -1.3724
13985SOL    HW242511   3.123   6.860   3.030  1.4318  0.1462  0.2774
13986SOL     OW42512   3.570   4.908   5.240 -0.7965  0.4015  0.1101
13986SOL    HW142513   3.562   4.846   5.168 -0.5290  0.7592 -0.2287
13986SOL    HW242514   3.485   4.951   5.244 -0.8591  0.2804  0.1062
13987SOL     OW42515   5.435   0.429   0.077 -0.1372  0.1922 -0.0338
13987SOL    HW142516   5.492   0.419   0.153  0.1537 -0.1443 -0.2897
13987SOL    HW242517   5.426   0.341   0.042 -1.7247  0.0634  0.6340
13988SOL     OW42518   2.746   3.523   5.079 -1.0476 -0.2179 -0.1975
13988SOL    HW142519   2.819   3.526   5.018 -1.3963 -0.1087 -0.6144
13988SOL    HW242520   2.755   3.602   5.132  0.8195 -1.6191  1.7364
13989SOL     OW42521   5.912   3.682   4.606 -0.5175 -0.2877  0.3787
13989SOL    HW142522   5.912   3.743   4.680 -1.3167  1.2705 -0.8399
13989SOL    HW242523   5.821   3.652   4.601 -0.2430 -1.1798  0.6363
13990SOL     OW42524   0.636   2.390   3.450 -0.0453 -0.0438 -0.6717
13990SOL    HW142525   0.689   2.380   3.529 -0.2056 -0.4498 -0.6139
13990SOL    HW242526   0.583   2.468   3.467  0.9671  0.7374 -0.9869
13991SOL     OW42527   6.966   1.393   6.999 -1.0768  0.1619  0.3092
13991SOL    HW142528   6.936   1.359   7.082  1.6367 -1.3127  0.8144
13991SOL    HW242529   6.997   1.482   7.019 -1.1123  0.0828  0.7203
13992SOL     OW42530   1.636   2.726   5.809 -0.3749  0.3785  0.3301
13992SOL    HW142531   1.609   2.717   5.718 -0.6044 -0.1413  0.4450
13992SOL    HW242532   1.573   2.789   5.846 -1.5108 -0.8742  0.6113
13993SOL     OW42533   4.610   5.476   4.942 -0.4825 -0.3197 -0.2518
13993SOL    HW142534   4.571   5.396   4.907  0.4532 -0.4951 -0.9317
13993SOL    HW242535   4.700   5.474   4.912  0.0944  0.0220  1.3764
13994SOL     OW42536   3.666   2.395   2.557 -0.3621 -0.2435  0.0938
13994SOL    HW142537   3.612   2.419   2.483  2.1258  1.4184 -1.3098
13994SOL    HW242538   3.608   2.345   2.614 -2.8981  0.1506 -1.9868
13995SOL     OW42539   5.894   1.296   2.239  0.2428 -0.0511  0.1323
13995SOL    HW142540   5.815   1.274   2.288 -1.5993  0.7864 -2.2698
13995SOL    HW242541   5.907   1.223   2.179  1.1338 -0.0381  0.2953
13996SOL     OW42542   5.341   6.523   2.953 -0.2184 -0.1629 -0.2794
13996SOL    HW142543   5.367   6.449   3.008 -0.5100  0.6770  1.0198
13996SOL    HW242544   5.258   6.496   2.914  0.0582 -0.8214 -0.4303
13997SOL     OW42545   7.471   3.052   6.238 -0.0385  0.2722  0.2552
13997SOL    HW142546   7.522   3.132   6.246 -0.3119  0.3329  1.6194
13997SOL    HW242547   7.533   2.982   6.258  0.4074  0.0416 -1.7252
13998SOL     OW42548   7.532   5.410   3.144  0.7444  0.4284  0.0441
13998SOL    HW142549   7.608   5.445   3.099  0.2380  2.1100  0.4054
13998SOL    HW242550   7.549   5.317   3.152  1.6870  0.3990 -1.9246
13999SOL     OW42551   2.924   1.634   4.618  0.2550  0.1414 -0.0990
13999SOL    HW142552   2.836   1.672   4.607 -0.2428 -0.9382  0.0448
13999SOL    HW242553   2.913   1.542   4.593  1.8020  0.4254 -2.1214
14000SOL     OW42554   0.847   0.403   6.209 -0.2057  0.2560 -0.4061
14000SOL    HW142555   0.841   0.495   6.233 -0.3554  0.0423  0.4158
14000SOL    HW242556   0.935   0.377   6.236 -0.4402 -0.0347  0.1041
14001SOL     OW42557   1.549   0.093   5.957  0.3359  0.0799  0.3088
14001SOL    HW142558   1.482   0.067   6.020 -0.7247  0.7385 -0.5014
14001SOL    HW242559   1.549   0.022   5.892  1.1003 -0.3727  0.7866
14002SOL     OW42560   5.532   6.467   2.136  0.1313  0.2157 -0.0597
14002SOL    HW142561   5.587   6.542   2.115  0.5792 -0.4752 -1.4384
14002SOL    HW242562   5.527   6.468   2.232 -1.7695  3.2984 -0.0445
14003SOL     OW42563   0.677   7.151   7.020  0.0471  0.0492 -0.3158
14003SOL    HW142564   0.719   7.068   7.000  1.9676  1.0433 -0.6859
14003SOL    HW242565   0.668   7.194   6.935 -3.9278 -0.9761 -0.6364
14004SOL     OW42566   5.653   5.031   3.357 -0.8630  0.3448 -0.1835
14004SOL    HW142567   5.666   5.061   3.267  1.2423  1.0038  0.2938
14004SOL    HW242568   5.644   5.111   3.408 -1.3476 -0.0094  0.2994
14005SOL     OW42569   5.804   3.834   0.901 -0.5259 -0.4039 -0.6902
14005SOL    HW142570   5.859   3.791   0.836 -0.0192  0.0131 -0.5473
14005SOL    HW242571   5.843   3.921   0.911 -0.7526 -0.3789 -0.0109
14006SOL     OW42572   1.182   7.007   7.624  0.8035  0.5382  0.3088
14006SOL    HW142573   1.153   7.034   7.537 -0.0625  0.0262  0.4335
14006SOL    HW242574   1.186   6.912   7.620 -0.8404  0.3913  1.3035
14007SOL     OW42575   1.957   2.623   1.848 -0.1070 -0.0227 -0.4811
14007SOL    HW142576   1.882   2.656   1.799  0.7451  1.0327 -1.1190
14007SOL    HW242577   1.936   2.532   1.866 -1.1890  0.0399 -1.3458
14008SOL     OW42578   5.885   3.909   3.920  0.4810  0.2009  0.1781
14008SOL    HW142579   5.855   3.935   3.832 -1.7894 -2.5725  0.0184
14008SOL    HW242580   5.932   3.827   3.906 -0.0528 -0.3656  1.5816
14009SOL     OW42581   3.953   6.992   6.572 -0.0907 -0.3936  0.0045
14009SOL    HW142582   4.041   7.026   6.557 -1.1926  2.4571 -0.5668
14009SOL    HW242583   3.967   6.898   6.589  3.0032 -0.0858 -0.1428
14010SOL     OW42584   3.322   2.872   3.370 -0.1294  0.5785 -0.2522
14010SOL    HW142585   3.322   2.806   3.301 -0.4575 -2.0099  2.0530
14010SOL    HW242586   3.412   2.904   3.374  0.8843 -2.1447  0.6193
14011SOL     OW42587   7.472   1.026   2.692  0.2526  0.2116 -0.1673
14011SOL    HW142588   7.497   1.101   2.638  1.7944 -0.1366  0.0228
14011SOL    HW242589   7.411   0.976   2.638 -1.6246  2.0685  0.0523
14012SOL     OW42590   2.797   7.570   0.484  0.0659  0.4551 -0.5042
14012SOL    HW142591   2.827   7.505   0.420  0.4895 -0.3639  0.5176
14012SOL    HW242592   2.877   7.606   0.521 -0.1024  2.4411 -1.8567
14013SOL     OW42593   0.635   2.994   7.484 -0.3526  0.1197 -0.3259
14013SOL    HW142594   0.716   3.039   7.508  1.0404 -2.1275 -0.4929
14013SOL    HW242595   0.587   3.057   7.430  1.6014  1.2989 -0.7598
14014SOL     OW42596   5.247   5.064   3.184 -0.1444  0.9903 -0.5834
14014SOL    HW142597   5.267   5.115   3.105 -1.7530  2.2505 -0.2289
14014SOL    HW242598   5.239   5.129   3.253 -0.2537  0.0403  0.3229
14015SOL     OW42599   6.145   4.415   3.291 -0.3663 -0.8149 -0.1505
14015SOL    HW142600   6.062   4.431   3.247  0.0697 -2.3375 -1.6399
14015SOL    HW242601   6.138   4.325   3.322  1.6656 -1.9534 -2.6739
14016SOL     OW42602   0.399   3.560   5.789  0.3107  0.2509  0.0818
14016SOL    HW142603   0.322   3.537   5.737 -0.4718  0.2608  1.2004
14016SOL    HW242604   0.461   3.595   5.725  0.4418 -2.2380 -1.2543
14017SOL     OW42605   5.262   7.210   2.434  0.2675 -0.5000  0.1377
14017SOL    HW142606   5.186   7.266   2.416  0.4410 -0.3094 -0.0066
14017SOL    HW242607   5.290   7.181   2.347  0.7709 -0.0295  0.1387
14018SOL     OW42608   3.788   3.035   1.173 -0.2067  0.2239  0.5338
14018SOL    HW142609   3.816   3.050   1.083  0.3477  2.2672  1.0108
14018SOL    HW242610   3.699   3.071   1.177  0.0796  0.8889  0.9992
14019SOL     OW42611   6.762   2.516   7.576  0.3508  0.1635  0.1271
14019SOL    HW142612   6.777   2.443   7.637  1.0335 -1.4020 -1.8129
14019SOL    HW242613   6.676   2.499   7.538 -0.7400  1.9353  1.6097
14020SOL     OW42614   1.500   7.687   2.470 -0.2505 -0.1427 -0.0689
14020SOL    HW142615   1.421   7.671   2.419 -2.2073  0.7861  2.4488
14020SOL    HW242616   1.509   7.783   2.470 -1.0875  0.0024  2.2807
14021SOL     OW42617   6.654   0.193   1.333 -0.1109  0.0407 -0.3658
14021SOL    HW142618   6.644   0.185   1.428  0.4845  1.6631 -0.1263
14021SOL    HW242619   6.747   0.180   1.318 -0.1284  0.2371 -0.6582
14022SOL     OW42620   5.595   6.332   6.064 -0.1271 -0.0048  0.0023
14022SOL    HW142621   5.525   6.374   6.014  0.1906  1.0811  0.4522
14022SOL    HW242622   5.632   6.268   6.003  0.4703  1.5121 -1.2971
14023SOL     OW42623   0.560   6.380   0.708  0.0219  0.3421  0.1470
14023SOL    HW142624   0.637   6.324   0.713 -0.8600 -0.8271  1.2319
14023SOL    HW242625   0.505   6.353   0.781 -1.3624  1.2528 -0.4980
14024SOL     OW42626   4.742   0.831   6.458 -0.6970  0.2340  0.3694
14024SOL    HW142627   4.695   0.784   6.388  0.1088 -0.4550  0.2659
14024SOL    HW242628   4.834   0.815   6.439 -0.4372  0.9724  0.9710
14025SOL     OW42629   1.043   6.496   2.936  0.1046 -0.1477  0.0733
14025SOL    HW142630   1.080   6.501   3.024  0.4926 -1.5077  0.0089
14025SOL    HW242631   1.056   6.405   2.909 -0.7075  0.0506 -1.0898
14026SOL     OW42632   2.590   2.586   3.587  0.1870 -0.3042 -0.2577
14026SOL    HW142633   2.678   2.550   3.593 -0.3433 -1.7193 -0.5406
14026SOL    HW242634   2.599   2.666   3.536  1.3642 -0.2085  0.0880
14027SOL     OW42635   5.134   6.883   0.380  0.0369 -0.3643 -0.2043
14027SOL    HW142636   5.140   6.978   0.367  1.6111  0.1168  2.9775
14027SOL    HW242637   5.217   6.849   0.349  0.5715 -0.2709  1.0477
14028SOL     OW42638   4.222   1.610   1.699 -0.2203  0.1655 -0.0227
14028SOL    HW142639   4.145   1.660   1.673  1.2587  2.1965 -0.6978
14028SOL    HW242640   4.223   1.613   1.795 -0.4248  1.0203 -0.0443
14029SOL     OW42641   2.599   0.170   3.445 -0.0625  0.9536  0.2561
14029SOL    HW142642   2.652   0.154   3.367  0.8023  0.3664  0.9449
14029SOL    HW242643   2.511   0.187   3.412  0.1527  0.0618 -0.8021
14030SOL     OW42644   2.855   6.616   2.915 -0.0066  0.2147 -0.3583
14030SOL    HW142645   2.854   6.526   2.881 -0.2695  0.1106 -0.0799
14030SOL    HW242646   2.916   6.613   2.988 -0.4269  0.1310 -0.0038
14031SOL     OW42647   1.987   3.650   5.207 -0.2994  0.7099 -0.1579
14031SOL    HW142648   1.903   3.617   5.237 -0.8571  2.3202  0.1104
14031SOL    HW242649   2.047   3.576   5.219 -1.3753 -0.0196  0.9497
14032SOL     OW42650   0.983   6.746   3.179  0.1423 -0.5556  0.3664
14032SOL    HW142651   0.955   6.677   3.239  0.4050 -1.1945 -0.2252
14032SOL    HW242652   0.927   6.735   3.102 -1.8507  1.7617  1.3719
14033SOL     OW42653   4.485   4.970   0.397 -0.2097 -0.4512  1.0330
14033SOL    HW142654   4.397   4.934   0.411 -0.7769  0.2065 -0.5679
14033SOL    HW242655   4.471   5.064   0.388  0.5452 -0.4217  0.0251
14034SOL     OW42656   3.593   3.198   3.180 -0.1171 -0.1860 -0.2592
14034SOL    HW142657   3.631   3.111   3.169 -2.3390 -1.3110  0.2961
14034SOL    HW242658   3.636   3.234   3.258  1.1682 -0.5632 -0.7764
14035SOL     OW42659   3.159   6.537   1.594 -0.5778 -0.4067 -0.3160
14035SOL    HW142660   3.253   6.521   1.607 -0.4312  1.1445  0.8380
14035SOL    HW242661   3.151   6.633   1.593 -2.1087 -0.5134 -0.7716
14036SOL     OW42662   1.244   1.044   2.580  0.3301  0.2855  0.0435
14036SOL    HW142663   1.337   1.060   2.567  0.3327 -0.5043 -1.0507
14036SOL    HW242664   1.219   0.986   2.508 -1.2820  1.4445 -0.3722
14037SOL     OW42665   4.045   6.771   6.710 -0.1273 -0.3703  0.1119
14037SOL    HW142666   4.117   6.834   6.715 -0.9819  0.7511 -1.1870
14037SOL    HW242667   4.034   6.741   6.801 -1.1738  3.0491  1.2787
14038SOL     OW42668   1.794   3.630   0.227 -0.3743 -0.5986 -0.1665
14038SOL    HW142669   1.759   3.663   0.144 -2.0532 -0.6667  0.4661
14038SOL    HW242670   1.878   3.591   0.204  0.1703  1.2120 -1.4737
14039SOL     OW42671   6.161   4.503   0.258  0.0061  0.7232 -0.0690
14039SOL    HW142672   6.087   4.448   0.235 -1.0052  1.4394  1.3360
14039SOL    HW242673   6.205   4.521   0.174 -2.0266  1.1681 -1.1049
14040SOL     OW42674   1.923   0.248   7.252 -0.3401  0.2848  0.2855
14040SOL    HW142675   1.947   0.333   7.215  0.8164 -1.2816 -2.9102
14040SOL    HW242676   1.837   0.229   7.213  0.4795 -0.9925 -0.9775
14041SOL     OW42677   7.201   1.401   6.207 -0.7919 -0.0653  1.1233
14041SOL    HW142678   7.251   1.438   6.279 -1.6240 -1.4740  2.4851
14041SOL    HW242679   7.110   1.404   6.237 -0.9949 -2.1374  0.8304
14042SOL     OW42680   3.519   3.018   0.911 -0.1972  0.7266 -0.1837
14042SOL    HW142681   3.491   3.108   0.931 -0.1668  0.5079  0.8797
14042SOL    HW242682   3.438   2.967   0.910 -0.2950  0.8571 -1.4457
14043SOL     OW42683   5.894   7.472   5.804  0.1092  0.5295  0.3082
14043SOL    HW142684   5.980   7.475   5.847  0.4497  1.2793 -0.3929
14043SOL    HW242685   5.908   7.420   5.725  0.2894  1.8140 -0.5431
14044SOL     OW42686   4.041   3.489   4.809 -0.0966  0.1197  0.1462
14044SOL    HW142687   4.079   3.542   4.738 -0.2061  0.3535  0.2593
14044SOL    HW242688   4.063   3.399   4.786 -0.1789  0.1882 -0.2174
14045SOL     OW42689   4.344   2.346   4.750 -0.4390 -0.2057  0.6041
14045SOL    HW142690   4.282   2.281   4.781  0.4035 -0.2548  2.3451
14045SOL    HW242691   4.293   2.426   4.742 -1.0249 -0.5716  0.6480
14046SOL     OW42692   3.788   5.603   1.713  0.1264 -0.2408 -0.2008
14046SOL    HW142693   3.794   5.551   1.633 -0.9860 -0.6860 -0.0063
14046SOL    HW242694   3.867   5.581   1.762  1.0264  0.3399 -1.3415
14047SOL     OW42695   5.047   6.717   1.989 -0.1689 -0.1215  0.0774
14047SOL    HW142696   5.021   6.658   2.060 -2.1487  2.4848  1.6701
14047SOL    HW242697   5.074   6.658   1.918 -0.0409 -2.8645  2.2543
14048SOL     OW42698   6.997   3.659   5.958 -0.1163  0.1572  0.0735
14048SOL    HW142699   6.972   3.602   5.885  1.7466  1.1319 -1.4371
14048SOL    HW242700   7.014   3.599   6.031 -0.4791 -0.9966 -0.7621
14049SOL     OW42701   0.402   5.150   0.301  0.2865 -0.2927 -0.5943
14049SOL    HW142702   0.368   5.239   0.299 -1.7959 -1.0106  0.2486
14049SOL    HW242703   0.425   5.131   0.210  2.7486  1.7302 -0.5210
14050SOL     OW42704   0.558   2.867   1.920  0.0232 -0.6333  0.0681
14050SOL    HW142705   0.600   2.783   1.937 -2.0108 -2.0545 -1.4366
14050SOL    HW242706   0.505   2.884   1.998 -1.1133 -1.8224 -0.4006
14051SOL     OW42707   7.666   2.326   0.999  0.1524 -0.0391 -0.2067
14051SOL    HW142708   7.694   2.314   0.909  1.9607  1.2551  0.1285
14051SOL    HW242709   7.630   2.241   1.025 -0.8605 -0.2791 -2.2608
14052SOL     OW42710   0.709   7.706   1.155  0.2592 -0.8915  0.8412
14052SOL    HW142711   0.653   7.744   1.088  2.4399  1.9783  0.4286
14052SOL    HW242712   0.680   7.747   1.237  2.4132  1.7647  0.4378
14053SOL     OW42713   1.185   5.087   1.371 -0.2173 -0.4677  0.0908
14053SOL    HW142714   1.132   5.011   1.349 -1.2677  0.0199  0.8483
14053SOL    HW242715   1.224   5.065   1.456  0.3671 -0.6089 -0.2130
14054SOL     OW42716   6.144   0.517   0.283 -0.4033  0.6681 -0.0220
14054SOL    HW142717   6.049   0.511   0.294 -0.2442 -1.3205  0.5884
14054SOL    HW242718   6.171   0.429   0.256  1.4136  0.8736  0.9599
14055SOL     OW42719   5.104   3.913   1.940 -0.2244 -0.3080 -0.7356
14055SOL    HW142720   5.173   3.854   1.970  0.2065  0.1546 -0.8087
14055SOL    HW242721   5.022   3.873   1.971  0.1512 -0.2252  0.4113
14056SOL     OW42722   6.646   5.657   2.689 -0.1068 -0.3013 -0.3039
14056SOL    HW142723   6.642   5.752   2.689 -1.1028 -0.1941  3.0825
14056SOL    HW242724   6.559   5.629   2.661 -0.3936 -0.1257  0.3845
14057SOL     OW42725   1.634   2.964   0.768 -0.6247 -0.4405  0.1418
14057SOL    HW142726   1.551   2.977   0.722 -0.5421  0.1106  0.1438
14057SOL    HW242727   1.672   2.886   0.726 -1.3214 -0.9350  0.4129
14058SOL     OW42728   1.964   2.411   5.411  0.4481  0.8581  0.3301
14058SOL    HW142729   1.913   2.489   5.388 -0.8336  0.1721  0.7345
14058SOL    HW242730   1.953   2.352   5.336  0.0233  0.4172  0.7290
14059SOL     OW42731   5.179   6.257   6.520  0.0215  0.3357 -0.2802
14059SOL    HW142732   5.219   6.170   6.530  0.0461  0.0545 -2.4725
14059SOL    HW242733   5.247   6.317   6.549  0.0996 -0.3425  1.0308
14060SOL     OW42734   6.468   6.415   6.540  0.2953 -0.4573  0.1573
14060SOL    HW142735   6.406   6.482   6.511  0.3305  0.4000  1.9529
14060SOL    HW242736   6.425   6.373   6.614  0.8542 -1.5310 -0.1078
14061SOL     OW42737   4.238   5.240   5.853 -0.4335 -0.1782 -0.5102
14061SOL    HW142738   4.303   5.187   5.899 -1.7118  0.9533  2.8893
14061SOL    HW242739   4.178   5.176   5.815 -0.0919 -1.1889  0.5910
14062SOL     OW42740   2.610   0.030   0.572 -0.1813  0.0818  0.2274
14062SOL    HW142741   2.629  -0.058   0.605  1.4622  0.0337 -0.7385
14062SOL    HW242742   2.594   0.018   0.479  0.6116  0.8417 -0.0263
14063SOL     OW42743   3.261   5.623   0.428  0.0331 -0.1251  0.4388
14063SOL    HW142744   3.356   5.620   0.418  0.0623  1.1271  0.2250
14063SOL    HW242745   3.243   5.564   0.501  0.9116 -0.7856  0.1405
14064SOL     OW42746   1.078   6.915   1.311  0.0369 -0.0758 -0.1705
14064SOL    HW142747   1.054   6.881   1.225 -2.7451 -1.5267  1.0359
14064SOL    HW242748   1.040   7.003   1.314 -1.5287 -0.7192  0.1463
14065SOL     OW42749   6.006   7.383   2.903 -0.3659  0.3408  0.1869
14065SOL    HW142750   6.003   7.287   2.903  0.5008  0.2992  0.6157
14065SOL    HW242751   5.919   7.410   2.932 -0.8115 -0.3013 -0.5129
14066SOL     OW42752   5.161   5.650   5.722  0.1035  0.0434  0.7159
14066SOL    HW142753   5.141   5.559   5.699 -1.2149  0.4452  0.1685
14066SOL    HW242754   5.154   5.652   5.818 -0.3398 -0.3322  0.6968
14067SOL     OW42755   6.946   4.309   4.745  0.9848  0.4665  0.1624
14067SOL    HW142756   6.893   4.288   4.821 -0.1721 -0.4212 -0.8529
14067SOL    HW242757   7.036   4.312   4.778  0.6426 -1.1278  1.3359
14068SOL     OW42758   3.610   4.379   6.212  0.1029 -0.0317 -0.2006
14068SOL    HW142759   3.672   4.425   6.156  0.1234  2.0395  1.4035
14068SOL    HW242760   3.664   4.333   6.276  0.0556  1.2186  0.7783
14069SOL     OW42761   5.118   2.243   0.122  0.2714  0.0960 -0.0904
14069SOL    HW142762   5.137   2.310   0.187 -2.5605  1.2044 -0.2623
14069SOL    HW242763   5.140   2.284   0.038 -0.4518  0.4133 -0.1260
14070SOL     OW42764   0.139   5.059   7.294 -0.3591  0.0094  0.1634
14070SOL    HW142765   0.064   5.104   7.335  0.7647 -0.0068  2.3997
14070SOL    HW242766   0.214   5.113   7.317  0.4366 -0.3227 -1.5091
14071SOL     OW42767   4.862   4.552   1.300  1.1820 -0.6972  0.1770
14071SOL    HW142768   4.901   4.574   1.215 -0.8815  1.2632 -0.3485
14071SOL    HW242769   4.889   4.622   1.359  0.6359 -0.7516  0.4995
14072SOL     OW42770   2.333   2.245   3.896 -0.1848 -0.3744  0.3717
14072SOL    HW142771   2.337   2.242   3.992 -0.8355 -1.9102  0.3799
14072SOL    HW242772   2.362   2.333   3.874 -1.4451  0.5216  2.0522
14073SOL     OW42773   2.250   3.887   6.348  0.4155  0.1098 -0.0753
14073SOL    HW142774   2.155   3.879   6.360  0.2637  1.8168  0.0778
14073SOL    HW242775   2.267   3.981   6.356  2.0946 -0.1509 -0.3419
14074SOL     OW42776   5.057   3.576   2.113 -0.6360 -0.2434  0.1750
14074SOL    HW142777   5.139   3.611   2.077 -1.4805 -1.3440 -3.2002
14074SOL    HW242778   5.071   3.481   2.114 -1.3160 -0.3450  1.1394
14075SOL     OW42779   0.825   4.208   4.747  0.2750 -0.3508  0.1059
14075SOL    HW142780   0.822   4.302   4.768  0.2497 -0.7553  2.0559
14075SOL    HW242781   0.733   4.181   4.746  0.3052 -0.4499 -0.0077
14076SOL     OW42782   5.628   1.852   2.933  0.0211  0.1790  0.1693
14076SOL    HW142783   5.596   1.942   2.934  0.5643  0.3821  1.4464
14076SOL    HW242784   5.693   1.850   2.863  0.3056  0.9019  0.4081
14077SOL     OW42785   1.898   3.576   1.700  0.3514  0.4008  0.3343
14077SOL    HW142786   1.962   3.513   1.731 -0.5694  0.3847  2.4212
14077SOL    HW242787   1.829   3.523   1.659  1.0947  0.3323 -0.8541
14078SOL     OW42788   6.051   3.197   5.624  0.3742 -0.1611 -0.1062
14078SOL    HW142789   5.991   3.217   5.696  1.3864  2.6714  0.0792
14078SOL    HW242790   5.994   3.173   5.551 -0.7635 -1.0670  1.0448
14079SOL     OW42791   5.911   6.010   2.862 -0.2436  0.3904 -0.1589
14079SOL    HW142792   5.977   6.063   2.818 -0.3400  1.4991  0.9863
14079SOL    HW242793   5.893   6.057   2.943 -1.7307 -0.4163  0.0015
14080SOL     OW42794   2.601   5.191   2.890 -0.0556 -0.4873 -0.3355
14080SOL    HW142795   2.548   5.237   2.826  0.7198 -0.6144 -1.0912
14080SOL    HW242796   2.679   5.246   2.900  0.9040 -1.6128 -1.2889
14081SOL     OW42797   5.961   5.142   0.954  0.3193 -0.2423  0.4939
14081SOL    HW142798   5.930   5.106   1.037 -2.7954  0.5193 -0.1949
14081SOL    HW242799   6.054   5.161   0.969 -0.1198 -0.0949  3.7967
14082SOL     OW42800   1.832   4.156   0.001 -0.2977  0.2604 -0.2827
14082SOL    HW142801   1.906   4.099  -0.016 -0.7497 -0.5946  0.4855
14082SOL    HW242802   1.850   4.195   0.087  0.7599  2.5472 -1.4587
14083SOL     OW42803   5.796   1.242   7.433  0.4366  0.2279 -0.3003
14083SOL    HW142804   5.814   1.276   7.521  1.8342 -1.7143  0.2556
14083SOL    HW242805   5.709   1.275   7.411  0.1506  0.9608  1.7201
14084SOL     OW42806   3.355   1.019   6.744 -0.5452 -0.2214  0.3252
14084SOL    HW142807   3.394   0.999   6.659  0.1461 -2.4454  1.0756
14084SOL    HW242808   3.269   0.978   6.741 -0.6593  0.0053  0.5491
14085SOL     OW42809   5.570   2.162   6.469  0.0806  0.4794 -0.0384
14085SOL    HW142810   5.602   2.174   6.559  0.8491 -0.5344 -0.1616
14085SOL    HW242811   5.564   2.067   6.458 -1.0543  0.6151 -0.7067
14086SOL     OW42812   3.338   4.789   2.828  0.0435 -0.0564 -0.1665
14086SOL    HW142813   3.258   4.748   2.796 -0.1274  0.5090 -0.4901
14086SOL    HW242814   3.315   4.821   2.915  0.2131 -0.7368  0.1346
14087SOL     OW42815   3.765   4.368   6.759 -0.0032 -0.0412 -0.1669
14087SOL    HW142816   3.819   4.328   6.690 -0.7659 -0.2357 -0.6670
14087SOL    HW242817   3.744   4.455   6.725 -1.1317 -0.4616 -0.6187
14088SOL     OW42818   4.307   2.125   4.231 -0.1722  0.6665  0.2339
14088SOL    HW142819   4.255   2.084   4.300 -1.0276  2.2587  0.5986
14088SOL    HW242820   4.242   2.156   4.167  0.4822  0.8402 -0.3635
14089SOL     OW42821   5.808   5.319   4.896  0.0124 -0.1220  0.2173
14089SOL    HW142822   5.717   5.349   4.900 -0.4711 -1.1100 -1.8037
14089SOL    HW242823   5.804   5.227   4.922  0.8611  0.3975  2.4257
14090SOL     OW42824   2.221   5.782   4.146 -0.3249 -0.0394 -0.5953
14090SOL    HW142825   2.211   5.786   4.051  0.4844  2.1583 -0.6383
14090SOL    HW242826   2.153   5.841   4.180  1.0281  1.2349  0.0062
14091SOL     OW42827   4.284   6.009   4.688 -0.6534 -0.6173 -0.1382
14091SOL    HW142828   4.306   6.005   4.596  0.8714 -0.0064  0.1764
14091SOL    HW242829   4.367   6.027   4.733 -1.3291 -1.0246  1.3613
14092SOL     OW42830   0.779   3.694   5.822  0.1940  0.0277 -0.0909
14092SOL    HW142831   0.695   3.698   5.778  1.0554  0.5005 -1.7564
14092SOL    HW242832   0.806   3.785   5.831  1.3890 -0.1758 -1.3408
14093SOL     OW42833   2.428   5.707   0.351 -0.3214 -0.0098 -0.2459
14093SOL    HW142834   2.496   5.747   0.296 -0.2815 -0.2826 -0.3996
14093SOL    HW242835   2.415   5.620   0.313  0.3667 -0.5622  0.7345
14094SOL     OW42836   0.407   4.758   5.048  0.1005  0.2892 -0.5332
14094SOL    HW142837   0.392   4.769   4.954 -1.1914 -0.6508 -0.4575
14094SOL    HW242838   0.324   4.783   5.089  0.5632  0.4225  0.3437
14095SOL     OW42839   1.416   4.964   5.934 -0.3670  0.5939 -0.3376
14095SOL    HW142840   1.427   4.980   6.028  1.5713  0.0501 -0.4386
14095SOL    HW242841   1.396   4.871   5.928 -1.3873  0.8011 -0.4399
14096SOL     OW42842   6.704   0.929   0.175 -0.0371  0.2172  0.5314
14096SOL    HW142843   6.757   0.881   0.238  0.9449 -0.6352 -0.8712
14096SOL    HW242844   6.763   0.996   0.140 -0.0339 -0.3607 -0.6220
14097SOL     OW42845   7.530   6.100   4.882  0.5945 -0.0006 -0.4413
14097SOL    HW142846   7.463   6.127   4.944 -0.7583 -0.1592 -1.7716
14097SOL    HW242847   7.491   6.026   4.835  2.0806 -0.7207 -0.6014
14098SOL     OW42848   1.378   3.684   0.172  0.4285 -0.4469  0.1125
14098SOL    HW142849   1.433   3.613   0.205  2.9047  1.6137  0.7030
14098SOL    HW242850   1.429   3.764   0.188 -0.6455  1.2203 -3.6296
14099SOL     OW42851   5.368   0.001   6.625 -0.4435 -0.7060 -0.2974
14099SOL    HW142852   5.457   0.034   6.613 -0.7271 -0.3280 -1.4614
14099SOL    HW242853   5.346  -0.042   6.542 -1.4011 -0.6572 -0.0873
14100SOL     OW42854   7.728   3.759   5.633  0.0353  0.3663  0.1733
14100SOL    HW142855   7.718   3.851   5.611 -0.3781  0.5844  1.2270
14100SOL    HW242856   7.650   3.737   5.683 -0.5034 -0.9183 -1.1527
14101SOL     OW42857   3.014   2.175   4.805 -0.0184 -0.2217  0.4047
14101SOL    HW142858   3.053   2.121   4.873  0.7642 -0.4422 -0.1894
14101SOL    HW242859   3.016   2.120   4.727  2.3128  1.1292 -0.6272
14102SOL     OW42860   2.016   5.176   2.491 -0.2294 -0.3289 -0.2567
14102SOL    HW142861   2.026   5.148   2.400 -2.2969 -0.4728 -0.4866
14102SOL    HW242862   2.076   5.251   2.500  0.1857 -0.4678 -1.6548
14103SOL     OW42863   5.514   0.162   3.086 -0.3218  0.2211  0.1367
14103SOL    HW142864   5.589   0.129   3.135 -0.3213  0.1685  0.1005
14103SOL    HW242865   5.482   0.086   3.037 -0.9112  0.0386  0.7870
14104SOL     OW42866   1.213   7.110   0.992 -0.6088  0.1873  0.2513
14104SOL    HW142867   1.227   7.019   1.018 -0.3650  0.3515  0.7175
14104SOL    HW242868   1.291   7.134   0.942 -1.9549 -0.7474 -2.4830
14105SOL     OW42869   7.239   4.593   4.539 -0.0385  0.1274  0.1931
14105SOL    HW142870   7.259   4.570   4.629  0.7016  0.7520  0.1904
14105SOL    HW242871   7.311   4.556   4.488 -0.9407 -1.0804 -0.2776
14106SOL     OW42872   6.425   4.149   4.714  0.4701 -0.0606  0.1741
14106SOL    HW142873   6.438   4.233   4.669  2.4148 -0.0780  0.6377
14106SOL    HW242874   6.422   4.172   4.807 -0.0911 -0.3995  0.2430
14107SOL     OW42875   3.996   7.424   1.604  0.2555  0.0324  0.6243
14107SOL    HW142876   3.951   7.508   1.590  1.3235  0.4312 -0.6314
14107SOL    HW242877   3.930   7.368   1.646 -1.1308  0.8570 -0.3636
14108SOL     OW42878   5.917   4.716   2.050  0.0003  0.2487  0.9955
14108SOL    HW142879   5.957   4.722   1.963  2.3264  0.5276  1.9908
14108SOL    HW242880   5.880   4.803   2.065  1.5654  0.9412  1.1094
14109SOL     OW42881   3.383   1.875   0.110  0.2848  0.0038  0.4029
14109SOL    HW142882   3.356   1.964   0.088  0.9393  0.2787  0.6899
14109SOL    HW242883   3.436   1.885   0.189  0.4923 -0.6214  0.3493
14110SOL     OW42884   6.976   2.755   1.157  0.9503  0.5328 -0.3957
14110SOL    HW142885   6.929   2.808   1.093  1.0443 -1.2135 -1.9764
14110SOL    HW242886   6.943   2.785   1.242 -2.5421 -0.1053 -1.3931
14111SOL     OW42887   3.218   0.426   4.102  0.3367  0.1673 -0.4418
14111SOL    HW142888   3.189   0.344   4.141  0.3916 -0.3313 -1.4109
14111SOL    HW242889   3.187   0.422   4.012  0.6186  1.0744 -0.5942
14112SOL     OW42890   5.586   2.355   3.979 -0.2825  0.3307  0.1602
14112SOL    HW142891   5.562   2.430   4.033 -0.4284  0.9645 -0.7525
14112SOL    HW242892   5.675   2.332   4.007 -1.3380 -1.1743  2.6193
14113SOL     OW42893   0.747   5.861   6.853  0.7233  0.3157 -0.3774
14113SOL    HW142894   0.786   5.892   6.771 -1.1571  2.4917 -0.5607
14113SOL    HW242895   0.655   5.888   6.847 -0.3171 -2.5118  1.0037
14114SOL     OW42896   2.435   0.864   0.279  0.5392 -0.6220 -0.1786
14114SOL    HW142897   2.440   0.818   0.196 -0.6010  1.2472 -1.3604
14114SOL    HW242898   2.465   0.952   0.259  1.5859 -0.5003  1.7393
14115SOL     OW42899   2.341   6.163   6.871 -0.5156 -0.2527 -0.1894
14115SOL    HW142900   2.386   6.243   6.900 -1.8376  0.3645  0.2149
14115SOL    HW242901   2.249   6.189   6.863 -0.7192 -1.3051 -1.6891
14116SOL     OW42902   5.434   1.619   2.997 -0.9892 -0.6037  0.2193
14116SOL    HW142903   5.429   1.569   3.078  0.9513  1.1071  1.4866
14116SOL    HW242904   5.523   1.653   2.995 -1.9511  2.1596 -0.9121
14117SOL     OW42905   4.622   4.182   7.603 -0.0862  0.4577 -0.2323
14117SOL    HW142906   4.714   4.159   7.592 -0.4425 -1.0674 -0.3176
14117SOL    HW242907   4.582   4.102   7.638 -1.5281  0.8037 -1.0127
14118SOL     OW42908   5.440   6.209   3.435  0.7962  0.4685  0.2537
14118SOL    HW142909   5.439   6.198   3.530  1.3429  0.3119  0.2441
14118SOL    HW242910   5.528   6.183   3.408  0.7946  0.9539 -0.2447
14119SOL     OW42911   4.123   4.145   5.815  0.6110 -0.3403  0.1111
14119SOL    HW142912   4.154   4.115   5.901  1.7043  1.2003  0.2956
14119SOL    HW242913   4.186   4.107   5.753  0.4400 -0.5793  0.0803
14120SOL     OW42914   0.023   2.348   5.452 -0.0814  0.0781 -0.4343
14120SOL    HW142915   0.010   2.280   5.387 -0.2194  0.5098 -0.8647
14120SOL    HW242916  -0.026   2.318   5.528  0.4824 -0.6650 -0.3482
14121SOL     OW42917   1.051   4.491   1.029  0.5581 -0.0355  0.0682
14121SOL    HW142918   1.044   4.396   1.015 -0.8636 -0.2696  2.0952
14121SOL    HW242919   0.996   4.529   0.960 -2.5354 -0.9451  1.8454
14122SOL     OW42920   2.511   3.419   5.203 -0.0299  0.3535 -0.2676
14122SOL    HW142921   2.459   3.490   5.242  0.5932 -0.2431  1.8010
14122SOL    HW242922   2.595   3.460   5.182 -0.0986  0.5154 -0.2299
14123SOL     OW42923   1.198   0.821   3.282  0.5546  0.4152 -0.0510
14123SOL    HW142924   1.257   0.786   3.215 -0.2299  0.3227 -0.7132
14123SOL    HW242925   1.179   0.910   3.252  1.9656  1.1997  1.2471
14124SOL     OW42926   6.242   1.163   4.504 -0.4656  0.6574  0.3323
14124SOL    HW142927   6.309   1.185   4.569 -0.3071 -2.2825  1.3066
14124SOL    HW242928   6.288   1.112   4.437 -1.0749  1.7281 -0.9650
14125SOL     OW42929   3.260   3.709   4.505 -0.2560 -0.1782 -0.4248
14125SOL    HW142930   3.219   3.652   4.569  0.3952  1.0082  1.0975
14125SOL    HW242931   3.329   3.655   4.466 -0.1767 -0.6829  0.4065
14126SOL     OW42932   2.563   3.587   3.750 -0.4841 -0.4536  0.0517
14126SOL    HW142933   2.569   3.570   3.656 -1.9476  0.8374 -0.3053
14126SOL    HW242934   2.533   3.504   3.787  3.2057 -2.0716 -0.0868
14127SOL     OW42935   2.895   6.297   6.031 -1.4909  0.4978  0.0312
14127SOL    HW142936   2.816   6.343   6.000  0.5702  3.6638 -1.0652
14127SOL    HW242937   2.931   6.255   5.952 -0.2299  2.1940 -0.3584
14128SOL     OW42938   3.847   4.080   4.717 -0.7755  0.3006  0.3056
14128SOL    HW142939   3.855   4.175   4.720  0.6078  0.4232 -3.0112
14128SOL    HW242940   3.937   4.048   4.721 -1.1211 -0.7572 -0.0091
14129SOL     OW42941   3.194   3.212   3.097 -0.7984 -0.1604  0.1787
14129SOL    HW142942   3.245   3.173   3.026 -0.5873 -0.8773  0.7089
14129SOL    HW242943   3.130   3.268   3.053 -1.1971 -1.2108 -0.6259
14130SOL     OW42944   4.513   5.869   5.220  0.6212  0.1554 -0.2316
14130SOL    HW142945   4.543   5.930   5.288  0.4083  0.4416 -0.3924
14130SOL    HW242946   4.586   5.809   5.208  0.4455 -0.2672  0.6749
14131SOL     OW42947   4.375   6.972   0.218  0.6383  0.1380  0.1968
14131SOL    HW142948   4.318   6.896   0.205  1.0122  0.0188 -0.8497
14131SOL    HW242949   4.458   6.946   0.179  0.9570  0.8724  0.3676
14132SOL     OW42950   3.172   3.565   4.019 -0.3333 -0.1258 -0.8839
14132SOL    HW142951   3.116   3.627   4.066  1.8029  0.8111  0.5766
14132SOL    HW242952   3.112   3.496   3.990 -2.1032  0.2644  1.5268
14133SOL     OW42953   2.198   0.715   1.805  0.2603 -0.1010  0.6874
14133SOL    HW142954   2.197   0.649   1.735  1.2419 -0.0882  0.6555
14133SOL    HW242955   2.223   0.667   1.883  1.5851  0.3303  0.5462
14134SOL     OW42956   7.686   0.782   6.863  0.7112  0.1839 -0.2893
14134SOL    HW142957   7.660   0.697   6.897  0.9120 -0.4637 -1.6957
14134SOL    HW242958   7.766   0.765   6.813  0.7834  1.1985 -0.5505
14135SOL     OW42959   1.677   2.281   4.691  0.1045  0.2645 -0.0239
14135SOL    HW142960   1.733   2.359   4.687  1.8186 -0.9466 -1.5010
14135SOL    HW242961   1.614   2.292   4.619  0.2017  0.4075 -0.0871
14136SOL     OW42962   6.896   4.542   4.623  0.2575  0.2215 -0.0430
14136SOL    HW142963   6.974   4.589   4.591  0.1013  1.0360  0.7541
14136SOL    HW242964   6.932   4.465   4.667  0.5271 -0.2896 -1.0968
14137SOL     OW42965   5.904   1.281   6.551  0.1398 -0.6760 -0.2806
14137SOL    HW142966   5.867   1.249   6.633  0.1107 -0.5405 -0.2410
14137SOL    HW242967   5.854   1.360   6.531  0.5122 -0.4016 -0.1427
14138SOL     OW42968   1.585   5.208   6.488 -0.4751  0.1367 -0.2533
14138SOL    HW142969   1.646   5.156   6.540 -0.6268 -2.4015 -2.4098
14138SOL    HW242970   1.629   5.220   6.404 -1.1147  2.2177 -0.3448
14139SOL     OW42971   4.161   6.207   6.668 -0.1964 -0.2301  0.7685
14139SOL    HW142972   4.146   6.286   6.719 -0.4581  0.0733  0.2337
14139SOL    HW242973   4.238   6.226   6.615 -1.5023  0.5310 -0.9861
14140SOL     OW42974   0.497   2.295   6.369  0.5738 -0.0158  0.1083
14140SOL    HW142975   0.520   2.380   6.406 -0.7951  0.4647 -0.0938
14140SOL    HW242976   0.478   2.240   6.446  0.0898  0.2748  0.2000
14141SOL     OW42977   3.983   7.509   4.883  0.1806  0.3071 -0.0129
14141SOL    HW142978   4.026   7.460   4.813 -0.5353  0.7434 -0.7766
14141SOL    HW242979   4.054   7.549   4.932  0.6854  0.0557 -0.5325
14142SOL     OW42980   2.571   7.660   1.041  0.4452  0.3139 -0.1067
14142SOL    HW142981   2.645   7.680   0.985  0.1345 -0.1751 -0.7050
14142SOL    HW242982   2.494   7.670   0.984 -0.0281  1.7024  0.7341
14143SOL     OW42983   7.348   1.742   5.805  0.0040 -0.2015 -0.4206
14143SOL    HW142984   7.323   1.664   5.855  2.6904 -1.7860 -1.2943
14143SOL    HW242985   7.371   1.709   5.719  0.6465  1.6662 -1.0229
14144SOL     OW42986   2.417   2.438   4.799  0.2213 -0.0448 -0.4117
14144SOL    HW142987   2.401   2.349   4.831 -0.1438 -0.2396 -1.1100
14144SOL    HW242988   2.378   2.495   4.866 -0.7964 -0.4543 -0.6272
14145SOL     OW42989   2.738   3.711   1.598  0.4601  0.0625 -0.1396
14145SOL    HW142990   2.693   3.627   1.608 -2.9593  1.8774  1.3178
14145SOL    HW242991   2.738   3.749   1.686  1.8953  1.6397 -0.7497
14146SOL     OW42992   6.585   1.242   2.780 -0.5833  0.1280 -0.1671
14146SOL    HW142993   6.504   1.190   2.778  0.2012 -1.1438 -1.7423
14146SOL    HW242994   6.653   1.179   2.756  1.2704  0.5807  3.2999
14147SOL     OW42995   4.832   5.286   2.565  0.2030  0.4632 -0.3861
14147SOL    HW142996   4.818   5.269   2.472  1.7033  1.8972 -0.9316
14147SOL    HW242997   4.819   5.202   2.607 -1.3627 -0.0454 -1.7653
14148SOL     OW42998   1.764   1.111   5.495 -0.8033  0.2862  0.4123
14148SOL    HW142999   1.850   1.071   5.502 -1.7161 -1.5723  2.0335
14148SOL    HW243000   1.753   1.130   5.402  0.9061 -0.4462  0.0380
14149SOL     OW43001   1.797   6.694   7.229  0.0988 -0.4549 -0.3727
14149SOL    HW143002   1.786   6.607   7.190 -0.3765  0.2000 -1.7536
14149SOL    HW243003   1.785   6.755   7.157 -0.9797  0.8425  0.8363
14150SOL     OW43004   6.587   6.139   3.330 -0.0760 -0.1417  0.3023
14150SOL    HW143005   6.577   6.198   3.405 -0.1668 -1.0291  1.0136
14150SOL    HW243006   6.592   6.052   3.369 -0.8163 -0.6889 -0.7719
14151SOL     OW43007   4.818   1.532   2.452 -0.3057  0.2603 -0.3449
14151SOL    HW143008   4.783   1.610   2.496 -1.4970  0.1498 -1.0421
14151SOL    HW243009   4.911   1.532   2.474 -0.5080  1.2215  0.6395
14152SOL     OW43010   3.012   0.064   2.296 -0.0600 -0.6079 -0.5723
14152SOL    HW143011   3.087   0.109   2.257  0.3590 -1.1123 -0.3551
14152SOL    HW243012   2.954   0.045   2.222 -1.5434  2.5926 -0.4257
14153SOL     OW43013   2.567   1.977   3.529  0.6276 -0.3952  0.0347
14153SOL    HW143014   2.474   1.998   3.521  0.1462 -2.2343  0.4913
14153SOL    HW243015   2.601   1.987   3.441  0.1547  0.9205 -0.0198
14154SOL     OW43016   0.868   0.704   5.278 -0.1620  0.3397 -0.5181
14154SOL    HW143017   0.917   0.689   5.358  0.1228 -1.4573 -0.9822
14154SOL    HW243018   0.901   0.788   5.245  1.5489 -0.1189 -0.0602
14155SOL     OW43019   7.168   2.472   0.303 -0.3385  0.2425 -0.4889
14155SOL    HW143020   7.086   2.436   0.271 -0.3998  0.5982 -0.7248
14155SOL    HW243021   7.144   2.522   0.381 -0.3867  0.5751 -0.7141
14156SOL     OW43022   0.261   0.230   6.747 -0.1805  0.1862 -0.0505
14156SOL    HW143023   0.248   0.243   6.653  0.1880  0.7014 -0.0323
14156SOL    HW243024   0.191   0.281   6.788 -0.2271  0.1124 -0.0373
14157SOL     OW43025   5.780   7.082   6.421  0.1299 -0.1042 -0.1247
14157SOL    HW143026   5.823   6.997   6.420  0.7112  0.1852  0.0293
14157SOL    HW243027   5.788   7.113   6.511 -1.0258 -0.3553  0.0798
14158SOL     OW43028   0.158   4.808   7.377 -0.3510 -0.3755 -0.1753
14158SOL    HW143029   0.162   4.898   7.345 -0.2731 -1.2546 -2.8669
14158SOL    HW243030   0.247   4.791   7.409  0.0164  0.0589 -0.9388
14159SOL     OW43031   6.196   2.905   4.400 -0.3188  0.2398 -0.4821
14159SOL    HW143032   6.241   2.963   4.339  1.5932  0.8717  1.4280
14159SOL    HW243033   6.262   2.839   4.424 -0.8353  0.2978  1.2478
14160SOL     OW43034   1.357   0.772   0.240 -0.0367  0.2844 -0.1690
14160SOL    HW143035   1.264   0.753   0.225  0.4684 -0.8584 -2.2354
14160SOL    HW243036   1.392   0.793   0.154  2.1423 -1.8842  0.0632
14161SOL     OW43037   1.677   4.983   0.252 -0.3556 -0.0237 -0.0608
14161SOL    HW143038   1.670   4.887   0.254 -0.7846 -0.0225 -0.9147
14161SOL    HW243039   1.638   5.011   0.334  1.5009 -0.6515  1.0980
14162SOL     OW43040   4.550   6.538   5.198 -0.1524 -0.4144 -0.6097
14162SOL    HW143041   4.594   6.482   5.134  1.1082  0.6754 -0.7518
14162SOL    HW243042   4.477   6.486   5.230  1.9177 -2.8300  0.5156
14163SOL     OW43043   0.810   0.646   6.313  0.2187 -0.0881 -0.3593
14163SOL    HW143044   0.896   0.679   6.287 -0.6390  2.4620 -0.2401
14163SOL    HW243045   0.748   0.696   6.259 -1.2351 -1.2284  0.1789
14164SOL     OW43046   1.972   6.736   1.056 -0.0427  0.0110 -0.0890
14164SOL    HW143047   1.985   6.642   1.071  2.2461  0.1519 -0.8202
14164SOL    HW243048   1.974   6.775   1.143  1.3739 -0.3930  0.0755
14165SOL     OW43049   5.723   6.836   1.417  0.5986 -0.2160 -0.0270
14165SOL    HW143050   5.636   6.813   1.449  1.2283  0.3127  2.2213
14165SOL    HW243051   5.716   6.929   1.394 -0.0290 -0.7450 -2.2499
14166SOL     OW43052   2.606   7.185   7.625  0.1035  0.1486  0.3501
14166SOL    HW143053   2.560   7.158   7.545  0.5536  2.4897 -0.7955
14166SOL    HW243054   2.689   7.136   7.623  0.7992  1.3032 -1.5044
14167SOL     OW43055   6.729   0.111   5.159  0.0931 -0.3900 -0.6862
14167SOL    HW143056   6.824   0.105   5.170 -0.0019  1.4491  1.9607
14167SOL    HW243057   6.705   0.027   5.120  2.7432 -1.0418 -1.1615
14168SOL     OW43058   0.188   7.439   6.392 -0.1598 -0.7800  0.6693
14168SOL    HW143059   0.169   7.450   6.299  0.4120 -0.8950  0.5350
14168SOL    HW243060   0.258   7.373   6.395  1.3494  0.7745  1.0442
14169SOL     OW43061   1.211   6.493   5.212 -0.5190 -0.1406  0.1873
14169SOL    HW143062   1.198   6.400   5.233 -0.4084 -0.3280 -0.5229
14169SOL    HW243063   1.240   6.492   5.121  3.9675  0.2545  1.3683
14170SOL     OW43064   4.020   6.239   1.224  0.3577 -0.1637  0.6268
14170SOL    HW143065   3.979   6.324   1.205  0.1406 -0.2035  0.8963
14170SOL    HW243066   3.968   6.204   1.297  1.6000  0.3156  1.7893
14171SOL     OW43067   6.490   4.517   1.638  0.2852 -0.6034  0.2298
14171SOL    HW143068   6.508   4.463   1.715  2.5392 -1.0206 -0.5323
14171SOL    HW243069   6.539   4.598   1.653 -2.7281  1.2065  1.1752
14172SOL     OW43070   0.382   7.001   6.919  0.2702 -0.2598  0.1580
14172SOL    HW143071   0.429   7.074   6.960 -2.0149 -0.0612  2.7587
14172SOL    HW243072   0.426   6.923   6.952  0.3610 -0.0678  0.5028
14173SOL     OW43073   6.805   5.308   2.142 -0.3927 -0.4411  0.4019
14173SOL    HW143074   6.730   5.345   2.189 -0.4141  0.8422 -0.5949
14173SOL    HW243075   6.768   5.276   2.059  0.2836  1.0383 -0.4987
14174SOL     OW43076   5.227   4.719   4.367 -0.0441  0.3537  0.3413
14174SOL    HW143077   5.245   4.645   4.426 -3.3134  0.1992  1.3620
14174SOL    HW243078   5.271   4.794   4.408 -0.5826 -0.1563  1.9272
14175SOL     OW43079   4.504   0.801   3.973  0.4545  0.0705  0.4239
14175SOL    HW143080   4.579   0.832   3.921  0.7834 -0.2628  0.6878
14175SOL    HW243081   4.538   0.723   4.018 -0.2800 -0.5275 -0.0424
14176SOL     OW43082   6.243   0.823   2.668  0.3359 -0.4519 -0.3285
14176SOL    HW143083   6.243   0.913   2.702 -1.1332 -0.7036  0.4140
14176SOL    HW243084   6.154   0.792   2.682  1.3725 -2.8884  1.6700
14177SOL     OW43085   5.180   1.000   5.836 -0.0649  0.0441  0.2335
14177SOL    HW143086   5.132   1.079   5.811 -0.3301 -0.1645  0.0772
14177SOL    HW243087   5.114   0.943   5.877 -0.2320 -0.7660 -1.1071
14178SOL     OW43088   0.885   5.097   7.751  0.0999 -0.0892 -0.2298
14178SOL    HW143089   0.926   5.181   7.735  0.0714  0.1894  1.0199
14178SOL    HW243090   0.928   5.064   7.831 -1.6109 -0.0950  0.7354
14179SOL     OW43091   7.179   3.247   5.979  0.1834 -0.3058  0.1135
14179SOL    HW143092   7.227   3.247   5.896 -2.0235  0.4928 -1.2299
14179SOL    HW243093   7.131   3.164   5.979 -0.2892 -0.0322  0.3181
14180SOL     OW43094   3.377   0.974   5.365  0.0743  0.7122 -0.1356
14180SOL    HW143095   3.391   0.886   5.328  1.7098  0.6824  0.4950
14180SOL    HW243096   3.411   1.033   5.298  2.0403  0.7001  0.7925
14181SOL     OW43097   4.018   5.946   2.034 -0.4512  0.3162  0.3415
14181SOL    HW143098   3.947   6.009   2.046 -0.1807  0.6737  0.0717
14181SOL    HW243099   3.978   5.873   1.987 -0.1150  1.5168 -1.9002
14182SOL     OW43100   1.816   5.373   3.523 -0.3722  0.4563  0.4729
14182SOL    HW143101   1.897   5.333   3.489 -0.7829  0.9898 -1.1969
14182SOL    HW243102   1.756   5.373   3.449 -1.6751  0.7438  1.4963
14183SOL     OW43103   4.532   4.972   5.585 -0.2777 -0.6337  0.0927
14183SOL    HW143104   4.486   4.899   5.544 -1.6606 -1.0422  2.2255
14183SOL    HW243105   4.529   4.953   5.679 -0.4521  2.0133  0.6948
14184SOL     OW43106   2.296   1.017   2.470 -0.3632  0.1365  0.3700
14184SOL    HW143107   2.229   1.081   2.493 -1.8109 -1.7519  1.7041
14184SOL    HW243108   2.371   1.041   2.526 -1.4767 -0.3084  2.1243
14185SOL     OW43109   1.557   4.193   0.091  0.0833 -0.0018  0.0041
14185SOL    HW143110   1.493   4.127   0.064  0.3675 -0.0022 -0.6928
14185SOL    HW243111   1.637   4.168   0.045  0.4439  0.3050  0.4521
14186SOL     OW43112   5.612   4.684   4.419  0.4798  0.5596  0.1465
14186SOL    HW143113   5.707   4.696   4.410  0.5703 -0.1875  0.0364
14186SOL    HW243114   5.601   4.643   4.504  0.2235  0.9267  0.2934
14187SOL     OW43115   1.503   3.731   3.389 -0.4775 -0.6623  0.1819
14187SOL    HW143116   1.465   3.667   3.329  2.3162 -3.0271  0.7223
14187SOL    HW243117   1.462   3.712   3.474 -0.9017 -0.5365  0.0093
14188SOL     OW43118   1.781   3.174   5.548  0.4141  0.3754  0.0597
14188SOL    HW143119   1.825   3.154   5.630  2.5431  0.5688 -0.9641
14188SOL    HW243120   1.739   3.092   5.522  3.9276 -1.2519 -1.0645
14189SOL     OW43121   3.398   6.695   0.629  0.0168 -0.5718 -1.0066
14189SOL    HW143122   3.318   6.643   0.628 -0.9542  0.7695  0.8975
14189SOL    HW243123   3.438   6.677   0.714  1.5910 -0.9496 -1.7912
14190SOL     OW43124   5.450   0.478   5.992 -0.1762 -0.4400 -0.5892
14190SOL    HW143125   5.407   0.396   6.016 -1.2508  0.7699  2.0681
14190SOL    HW243126   5.535   0.451   5.957 -0.0180 -2.6855  1.2776
14191SOL     OW43127   6.738   7.425   0.377  0.4404  0.2997  0.0417
14191SOL    HW143128   6.790   7.346   0.363  0.2724 -0.2957  2.3641
14191SOL    HW243129   6.658   7.409   0.327  0.8187 -0.5523 -0.3241
14192SOL     OW43130   1.470   6.155   3.169 -0.0330 -0.4966 -0.2084
14192SOL    HW143131   1.429   6.220   3.225 -0.2166 -0.8523  0.0745
14192SOL    HW243132   1.509   6.092   3.229  1.3029  0.0530 -0.4671
14193SOL     OW43133   5.595   6.283   2.481  0.3783  0.1079  0.1931
14193SOL    HW143134   5.687   6.259   2.474  0.6845  1.2255  0.1210
14193SOL    HW243135   5.568   6.248   2.566  1.3387  1.1462  0.9688
14194SOL     OW43136   4.140   5.232   5.302 -0.0767 -0.1263  0.0061
14194SOL    HW143137   4.186   5.311   5.273  1.3598 -1.4669 -1.5764
14194SOL    HW243138   4.100   5.197   5.222 -1.0237 -0.8121  0.7620
14195SOL     OW43139   3.876   7.077   3.135  0.3729  0.4191  0.1462
14195SOL    HW143140   3.948   7.111   3.188  1.3106 -0.0231 -0.8164
14195SOL    HW243141   3.843   7.002   3.184 -0.6383  1.6588  1.4723
14196SOL     OW43142   2.691   2.797   1.075  0.1924  0.0881  0.4307
14196SOL    HW143143   2.618   2.768   1.019 -0.9814  1.8933  0.9340
14196SOL    HW243144   2.747   2.847   1.016  1.8099 -2.3808 -0.2613
14197SOL     OW43145   3.150   2.553   5.115  0.4421 -0.3882 -0.1001
14197SOL    HW143146   3.082   2.553   5.183 -1.3656 -0.3538 -1.8136
14197SOL    HW243147   3.141   2.638   5.072 -0.3480 -1.4112 -2.0913
14198SOL     OW43148   3.722   3.856   2.994  0.2896  0.3821 -0.3067
14198SOL    HW143149   3.754   3.796   3.061 -0.3425  2.0868  1.6400
14198SOL    HW243150   3.780   3.843   2.920  2.8181  0.3502  1.5573
14199SOL     OW43151   0.835   0.712   6.916 -0.2189 -0.1108  0.1192
14199SOL    HW143152   0.752   0.667   6.930  1.2625 -3.3071 -0.3685
14199SOL    HW243153   0.824   0.760   6.834 -1.4126 -1.0216 -0.2796
14200SOL     OW43154   7.152   6.689   0.122 -0.3297  0.3014 -0.4960
14200SOL    HW143155   7.241   6.700   0.087 -0.2467  1.4931  0.0413
14200SOL    HW243156   7.146   6.596   0.144  1.3989  0.4919  1.0302
14201SOL     OW43157   5.261   3.391   0.718 -1.0400 -0.6672  0.0351
14201SOL    HW143158   5.281   3.465   0.776  0.3471 -1.5200  0.7207
14201SOL    HW243159   5.205   3.334   0.771 -1.7758 -0.3120 -0.3491
14202SOL     OW43160   4.813   6.421   6.608  0.4008  0.3277 -0.2971
14202SOL    HW143161   4.872   6.485   6.569  0.5642  1.3757  1.5370
14202SOL    HW243162   4.847   6.336   6.579  0.5832  1.0069 -2.2296
14203SOL     OW43163   2.233   4.905   1.995  0.0732  0.0590 -0.1306
14203SOL    HW143164   2.173   4.979   1.982 -2.2273 -1.1940  2.2831
14203SOL    HW243165   2.248   4.870   1.907 -3.2601  0.1491 -0.8599
14204SOL     OW43166   3.659   3.282   1.713  0.3169 -0.4999  0.4085
14204SOL    HW143167   3.580   3.334   1.722  0.3860 -0.2538 -0.3687
14204SOL    HW243168   3.724   3.327   1.767  0.2610 -0.0228  0.0769
14205SOL     OW43169   4.001   2.958   0.648  0.2850 -0.2063 -0.4174
14205SOL    HW143170   3.914   2.987   0.673  0.2097  0.2261 -1.1459
14205SOL    HW243171   3.987   2.902   0.571  0.7703  1.3204 -1.6712
14206SOL     OW43172   4.068   7.371   7.084  0.0066  0.3381 -0.0503
14206SOL    HW143173   4.112   7.410   7.008 -0.2214  0.0495 -0.3304
14206SOL    HW243174   4.135   7.369   7.152  0.5945 -0.6090 -0.6370
14207SOL     OW43175   0.264   0.254   6.452 -0.2099 -0.3286 -0.4107
14207SOL    HW143176   0.172   0.280   6.452  0.1706  1.0695 -0.1873
14207SOL    HW243177   0.264   0.169   6.407 -1.1718  1.2617 -3.7655
14208SOL     OW43178   2.170   0.498   3.382 -0.5686  0.0578 -0.3255
14208SOL    HW143179   2.202   0.469   3.297 -1.3356 -0.1433 -0.5520
14208SOL    HW243180   2.079   0.471   3.384 -1.0225  1.5137 -0.1152
14209SOL     OW43181   0.856   1.835   3.607 -0.2109 -0.3239 -0.1510
14209SOL    HW143182   0.949   1.830   3.630 -0.2602 -0.8659 -0.0505
14209SOL    HW243183   0.840   1.927   3.589  0.0797 -0.0501  0.9474
14210SOL     OW43184   3.685   4.889   0.192 -0.5030  0.6715 -0.2062
14210SOL    HW143185   3.734   4.808   0.182 -1.0546  0.3796 -0.6067
14210SOL    HW243186   3.601   4.872   0.147 -0.9771  1.1507  0.4823
14211SOL     OW43187   6.196   7.641   4.130  0.0183  0.1747 -0.1275
14211SOL    HW143188   6.259   7.711   4.111  0.2772  0.2599  0.9560
14211SOL    HW243189   6.235   7.563   4.092  0.9961  0.1485  0.8595
14212SOL     OW43190   2.615   3.986   3.041 -0.5438  0.2148  0.6875
14212SOL    HW143191   2.594   4.074   3.072  0.7401  1.0431 -0.6511
14212SOL    HW243192   2.707   3.973   3.065 -0.2050 -0.0276 -0.6665
14213SOL     OW43193   0.409   1.980   3.056  0.4199 -0.5337 -0.2464
14213SOL    HW143194   0.423   1.971   2.961  0.2455  0.6972 -0.4125
14213SOL    HW243195   0.446   1.900   3.093  0.1794 -1.1980 -1.3801
14214SOL     OW43196   4.096   6.687   7.600  0.3845 -0.1768  0.0004
14214SOL    HW143197   4.181   6.721   7.630  0.8283 -1.4247  0.2023
14214SOL    HW243198   4.050   6.662   7.680 -1.3915  3.0401  0.1704
14215SOL     OW43199   2.048   1.721   0.868  0.7237 -0.2990  0.0464
14215SOL    HW143200   2.014   1.706   0.956  2.6924  0.6513  1.0284
14215SOL    HW243201   2.097   1.641   0.848  0.1763 -0.5650 -0.2590
14216SOL     OW43202   2.507   1.305   5.752 -0.3306 -0.1233  0.1827
14216SOL    HW143203   2.477   1.387   5.712 -0.3608 -0.5039 -0.5970
14216SOL    HW243204   2.461   1.301   5.836  0.2045  0.9942  0.5426
14217SOL     OW43205   6.592   0.155   3.907  0.3236  0.3548  0.1264
14217SOL    HW143206   6.550   0.115   3.831 -2.7943  1.5410  1.0903
14217SOL    HW243207   6.607   0.246   3.880  0.4165  0.4448  0.4856
14218SOL     OW43208   3.022   0.604   7.485 -0.3904  0.0501  0.8893
14218SOL    HW143209   3.065   0.617   7.400  0.1290  3.3322  1.5071
14218SOL    HW243210   3.069   0.662   7.544 -3.8373  1.6951  2.2685
14219SOL     OW43211   4.978   1.321   4.711  0.5781 -1.0412 -0.3833
14219SOL    HW143212   4.925   1.255   4.666 -1.4845  1.0150 -1.2218
14219SOL    HW243213   4.967   1.302   4.804 -1.2395 -1.0328 -0.5560
14220SOL     OW43214   1.617   3.429   3.524 -0.1744  0.9870  0.4888
14220SOL    HW143215   1.594   3.506   3.576 -2.1810  0.3887  0.5752
14220SOL    HW243216   1.570   3.357   3.566  1.8076 -0.3763  0.5386
14221SOL     OW43217   2.572   0.680   5.910  0.0935 -0.2778  0.4147
14221SOL    HW143218   2.518   0.606   5.939 -0.3013 -0.4338 -0.6787
14221SOL    HW243219   2.651   0.641   5.874  0.4255 -0.1038  0.9475
14222SOL     OW43220   1.404   1.948   5.984  0.2326  0.3623 -0.2251
14222SOL    HW143221   1.345   1.906   6.045  0.9648 -2.1398 -1.1265
14222SOL    HW243222   1.348   1.976   5.911 -0.2139  0.7115  0.2424
14223SOL     OW43223   3.884   0.006   1.949 -0.4551 -0.1684 -0.2950
14223SOL    HW143224   3.859   0.075   1.887 -0.4303  1.2121  1.1363
14223SOL    HW243225   3.962  -0.033   1.912  0.7518  1.9921 -0.2300
14224SOL     OW43226   3.749   5.563   1.367 -0.0098 -0.3807 -0.1327
14224SOL    HW143227   3.689   5.516   1.425  1.1380 -0.2873  1.1748
14224SOL    HW243228   3.763   5.503   1.293 -0.7340 -0.9145  0.1561
14225SOL     OW43229   6.338   2.139   4.493 -0.1602 -0.0097 -0.2997
14225SOL    HW143230   6.364   2.141   4.401  0.7715 -0.2453 -0.0466
14225SOL    HW243231   6.416   2.110   4.540 -0.1852  1.4795  0.7237
14226SOL     OW43232   4.668   6.483   3.589  0.2134 -0.3317  0.3287
14226SOL    HW143233   4.740   6.545   3.598  0.8115 -1.1480  1.4430
14226SOL    HW243234   4.601   6.517   3.649  0.3895 -0.5448  0.6497
14227SOL     OW43235   6.190   0.936   6.838  0.0729  0.1790 -0.0329
14227SOL    HW143236   6.130   0.864   6.860  1.6439 -0.7848  1.3206
14227SOL    HW243237   6.145   1.015   6.870 -0.7295 -0.4409  0.4187
14228SOL     OW43238   1.491   4.420   5.834  0.0977  0.0012 -0.0082
14228SOL    HW143239   1.552   4.348   5.830  0.7196  0.5676 -2.1093
14228SOL    HW243240   1.437   4.411   5.755  0.3089  1.8963 -0.4286
14229SOL     OW43241   6.656   2.486   2.789 -0.2043  0.3742 -0.3407
14229SOL    HW143242   6.725   2.421   2.795 -0.5007  0.0778 -0.0993
14229SOL    HW243243   6.596   2.465   2.861 -0.6683  0.4842 -0.6842
14230SOL     OW43244   2.546   4.319   2.956 -0.2199 -0.0472 -0.6311
14230SOL    HW143245   2.584   4.288   3.038 -0.1242 -0.3127 -0.7774
14230SOL    HW243246   2.459   4.280   2.953 -0.7489  1.0502  0.0010
14231SOL     OW43247   5.943   4.909   0.564 -0.4619 -0.5236 -0.5314
14231SOL    HW143248   5.906   4.988   0.603 -0.3338  0.2199 -1.8579
14231SOL    HW243249   6.037   4.916   0.581 -0.6420 -1.4234  1.0926
14232SOL     OW43250   3.341   6.084   2.365 -0.1747  0.1579  0.3133
14232SOL    HW143251   3.322   6.006   2.314 -2.0929  0.2224  0.8601
14232SOL    HW243252   3.426   6.066   2.406  2.1944  0.6827 -3.8832
14233SOL     OW43253   2.067   0.441   6.961  0.7043 -0.0436 -0.7552
14233SOL    HW143254   2.082   0.412   6.870  1.7272  2.7749 -1.5752
14233SOL    HW243255   2.155   0.456   6.996  0.2708  0.0487  0.3342
14234SOL     OW43256   0.580   1.956   1.532  0.4732 -0.2141  0.1458
14234SOL    HW143257   0.491   1.927   1.549  0.6541 -1.1309 -0.4202
14234SOL    HW243258   0.629   1.929   1.610  1.3317 -4.5436 -1.5993
14235SOL     OW43259   3.820   5.940   7.477 -0.2869  0.6789  0.3077
14235SOL    HW143260   3.787   5.975   7.394  3.0338  1.2343 -0.9393
14235SOL    HW243261   3.821   6.015   7.536  0.9233  1.2590 -0.4083
14236SOL     OW43262   7.260   7.443   0.840 -0.4516  0.3273  0.4056
14236SOL    HW143263   7.245   7.522   0.892  0.7938  1.1733 -0.4441
14236SOL    HW243264   7.189   7.384   0.864 -0.9040  1.3612  1.7318
14237SOL     OW43265   6.170   2.595   6.712 -0.1904  0.1915  0.2735
14237SOL    HW143266   6.263   2.617   6.707 -0.3337  0.9868  0.9744
14237SOL    HW243267   6.124   2.675   6.687 -0.7500  1.4574  4.5482
14238SOL     OW43268   6.115   6.248   0.273 -0.1039 -0.3658  0.0779
14238SOL    HW143269   6.133   6.199   0.353  1.8776 -0.4929 -0.3934
14238SOL    HW243270   6.187   6.312   0.267 -0.3808 -0.1541 -1.4384
14239SOL     OW43271   6.641   0.456   5.084 -0.7188  0.1968  0.5703
14239SOL    HW143272   6.641   0.500   4.999 -0.5965  0.1423  0.5412
14239SOL    HW243273   6.574   0.388   5.076  0.7193 -1.1924 -0.2161
14240SOL     OW43274   5.068   1.672   7.422 -0.1720 -0.2663 -0.1057
14240SOL    HW143275   5.152   1.637   7.452 -0.4609 -1.3230 -0.4570
14240SOL    HW243276   5.020   1.594   7.392 -1.3769  0.2819  0.3526
14241SOL     OW43277   5.226   1.208   4.119  0.5881  0.3038  0.6206
14241SOL    HW143278   5.256   1.144   4.183 -0.1788  1.8493  2.6358
14241SOL    HW243279   5.150   1.167   4.077 -1.0642  0.4836  3.1850
14242SOL     OW43280   5.237   1.118   2.497  0.1124 -0.2528  0.8552
14242SOL    HW143281   5.177   1.165   2.439 -0.7100 -1.7979  0.3966
14242SOL    HW243282   5.279   1.186   2.548  0.2786  1.1061 -0.9988
14243SOL     OW43283   5.188   0.788   1.772  0.4104 -0.0578 -0.2776
14243SOL    HW143284   5.107   0.758   1.814 -1.6182  2.0089 -2.3706
14243SOL    HW243285   5.195   0.733   1.694  0.9863 -0.1623 -0.1511
14244SOL     OW43286   6.264   7.213   1.545 -0.5263 -0.1830 -0.3839
14244SOL    HW143287   6.314   7.260   1.611  1.0350  0.3139 -1.8495
14244SOL    HW243288   6.173   7.220   1.574  0.2049 -1.7508  2.7591
14245SOL     OW43289   3.554   7.588   3.238 -0.1976  0.1105 -0.4621
14245SOL    HW143290   3.642   7.619   3.257 -0.4568 -0.0822  1.1410
14245SOL    HW243291   3.540   7.612   3.146  0.7046  2.0916 -0.1429
14246SOL     OW43292   0.115   4.773   1.032 -0.3160 -0.0824  0.1747
14246SOL    HW143293   0.065   4.798   0.954  2.7143 -0.5128 -2.1471
14246SOL    HW243294   0.082   4.687   1.056  0.1570 -1.0232 -2.2037
14247SOL     OW43295   0.485   4.149   4.584  0.0306 -0.7305  0.5658
14247SOL    HW143296   0.482   4.055   4.600  1.0640 -0.7475  0.6911
14247SOL    HW243297   0.496   4.187   4.671  0.1551 -0.5266  0.4613
14248SOL     OW43298   4.418   1.694   0.688 -0.1745 -0.0408 -0.5996
14248SOL    HW143299   4.454   1.616   0.646 -1.2650  0.5095 -2.7042
14248SOL    HW243300   4.495   1.748   0.709  0.4736 -0.8683 -0.7963
14249SOL     OW43301   6.018   0.738   4.674 -0.6427 -0.0895  0.6726
14249SOL    HW143302   6.086   0.722   4.609 -2.6700 -0.6456 -1.4626
14249SOL    HW243303   6.048   0.815   4.722  2.3931 -1.5142  1.2369
14250SOL     OW43304   5.685   1.207   1.126  0.1068 -0.2705 -0.1539
14250SOL    HW143305   5.650   1.259   1.198  1.6748 -0.1890  0.5699
14250SOL    HW243306   5.758   1.259   1.092  0.0074 -0.7697 -1.1674
14251SOL     OW43307   5.135   1.914   5.446  0.2152 -0.1263  1.1310
14251SOL    HW143308   5.044   1.892   5.427  0.1904  1.2805 -0.6684
14251SOL    HW243309   5.183   1.833   5.434 -0.6383 -0.5947  0.8205
14252SOL     OW43310   2.587   2.494   1.358  0.1464 -0.3553 -0.6467
14252SOL    HW143311   2.585   2.569   1.418  0.9571 -0.0690 -0.9739
14252SOL    HW243312   2.636   2.525   1.282 -0.0563 -1.0219 -1.0565
14253SOL     OW43313   1.466   1.982   2.067 -0.1071  0.8175 -0.1437
14253SOL    HW143314   1.372   1.967   2.076  0.1851  0.0574  2.8828
14253SOL    HW243315   1.486   2.046   2.135  1.6545  0.4551 -0.2783
14254SOL     OW43316   3.598   4.117   7.247 -0.1956 -0.8200 -0.3418
14254SOL    HW143317   3.579   4.036   7.294 -0.6226 -1.4197 -1.5225
14254SOL    HW243318   3.526   4.176   7.270  0.5743 -0.4376  1.2240
14255SOL     OW43319   6.496   3.326   3.676  0.1881  0.0481 -0.0025
14255SOL    HW143320   6.468   3.313   3.585  1.0661  1.1557 -0.4639
14255SOL    HW243321   6.444   3.400   3.706  1.1361  0.8106 -0.1990
14256SOL     OW43322   4.143   0.308   5.734 -0.1147 -0.5090 -0.1533
14256SOL    HW143323   4.168   0.238   5.795  1.6250  0.4739  0.3424
14256SOL    HW243324   4.189   0.287   5.653  1.0786  0.4219  0.2421
14257SOL     OW43325   7.479   6.672   3.881  0.2237 -0.1720  0.3309
14257SOL    HW143326   7.570   6.695   3.861  0.0303 -0.1701 -0.5849
14257SOL    HW243327   7.448   6.626   3.803 -1.3375  2.0681 -0.4665
14258SOL     OW43328   5.957   2.902   2.869 -1.1362 -0.2007 -1.0550
14258SOL    HW143329   5.996   2.912   2.956 -0.8236 -1.0813 -1.0875
14258SOL    HW243330   5.863   2.914   2.883 -1.0515  0.0374 -0.6641
14259SOL     OW43331   6.831   0.884   4.975 -0.1765 -0.0930 -0.3309
14259SOL    HW143332   6.796   0.858   5.061  0.8295 -1.0012 -0.1723
14259SOL    HW243333   6.766   0.944   4.940 -0.5662  0.3759  1.1166
14260SOL     OW43334   2.261   4.099   3.810  0.1934  0.3991  0.2384
14260SOL    HW143335   2.173   4.112   3.774  0.2597  1.3334  0.3834
14260SOL    HW243336   2.250   4.106   3.905  0.0515 -1.8760  0.4442
14261SOL     OW43337   6.117   1.977   4.618 -0.1961 -0.0289  0.1645
14261SOL    HW143338   6.169   2.020   4.550  0.4352 -1.3687 -0.2536
14261SOL    HW243339   6.051   1.927   4.569 -0.3194 -0.2776  0.5829
14262SOL     OW43340   0.583   6.032   1.156  0.0639  0.3018  0.0805
14262SOL    HW143341   0.627   6.028   1.241 -1.1580  0.0597  0.7247
14262SOL    HW243342   0.503   6.082   1.172  0.5019  1.4821 -1.2570
14263SOL     OW43343   6.008   2.171   1.943 -0.3107  0.2721  1.2141
14263SOL    HW143344   6.084   2.145   1.891 -1.1930 -0.3559  0.2032
14263SOL    HW243345   6.034   2.253   1.985  0.5215  0.6495  0.0026
14264SOL     OW43346   0.807   3.249   4.362  0.2336 -0.2170  0.2683
14264SOL    HW143347   0.890   3.233   4.318  0.2666 -1.6616  0.7938
14264SOL    HW243348   0.741   3.241   4.293  0.4659 -0.0664  0.0299
14265SOL     OW43349   1.768   2.736   7.619  0.2589  0.9230  0.3172
14265SOL    HW143350   1.684   2.777   7.640  0.2263  0.0760  2.1226
14265SOL    HW243351   1.744   2.648   7.590  0.4844  0.9341  0.1020
14266SOL     OW43352   2.096   4.827   4.116  0.0371 -0.1257 -0.2003
14266SOL    HW143353   2.164   4.875   4.067  0.2507 -0.6808 -0.4549
14266SOL    HW243354   2.114   4.735   4.098  1.2684 -0.4796  2.4210
14267SOL     OW43355   1.013   1.109   3.684 -0.0555  0.2506  0.6778
14267SOL    HW143356   0.936   1.126   3.631  0.8805  2.5169 -0.0780
14267SOL    HW243357   1.081   1.166   3.647  1.5782 -0.5777  2.2227
14268SOL     OW43358   6.673   2.360   5.730 -0.4706  0.0124  0.2092
14268SOL    HW143359   6.590   2.351   5.777 -0.5205  0.3041  0.1778
14268SOL    HW243360   6.696   2.453   5.738 -1.4349  0.5192 -1.9125
14269SOL     OW43361   5.643   1.475   3.412 -0.4456 -0.3700 -0.7924
14269SOL    HW143362   5.678   1.389   3.388 -2.1732 -1.9185  1.7137
14269SOL    HW243363   5.705   1.510   3.475 -0.4854 -0.4423 -0.7138
14270SOL     OW43364   0.374   3.726   6.702 -0.1068 -0.1023  0.0483
14270SOL    HW143365   0.448   3.712   6.762  1.1019 -1.4146 -1.6712
14270SOL    HW243366   0.355   3.819   6.711  1.8552  0.3196  0.4463
14271SOL     OW43367   2.971   1.780   1.143  0.3673 -0.7379 -0.5630
14271SOL    HW143368   2.962   1.871   1.168  5.0900  0.0788 -0.8990
14271SOL    HW243369   2.996   1.782   1.051  0.2182 -2.4366 -0.6851
14272SOL     OW43370   4.967   2.445   3.971  0.3781 -0.4805 -0.2355
14272SOL    HW143371   4.918   2.499   3.910 -2.3850 -1.6205  0.8342
14272SOL    HW243372   5.020   2.508   4.021  0.4343  0.7403 -1.7706
14273SOL     OW43373   0.269   1.742   3.594  0.0135 -0.4522  0.2010
14273SOL    HW143374   0.226   1.659   3.574  0.1978 -0.3772 -0.5230
14273SOL    HW243375   0.198   1.803   3.611 -0.1199 -0.9100  1.4261
14274SOL     OW43376   6.537   5.963   3.759 -0.0056 -0.2470  0.1582
14274SOL    HW143377   6.506   6.038   3.809 -0.2881 -1.3210  1.6716
14274SOL    HW243378   6.628   5.951   3.787  0.4038  0.1716 -0.9119
14275SOL     OW43379   6.845   1.187   4.342 -0.0121 -0.7891  0.0777
14275SOL    HW143380   6.866   1.280   4.351  0.8166 -0.6435 -2.5081
14275SOL    HW243381   6.903   1.156   4.272 -2.4867 -2.4640 -1.3806
14276SOL     OW43382   4.268   1.408   2.743  0.1579 -0.1055 -0.5363
14276SOL    HW143383   4.207   1.473   2.777 -0.0054 -0.9892  0.9454
14276SOL    HW243384   4.243   1.326   2.786  1.8564 -0.6663 -0.5205
14277SOL     OW43385   0.541   4.756   6.797  0.3653 -0.5598 -0.4865
14277SOL    HW143386   0.507   4.818   6.862  1.9777  0.6303 -0.7166
14277SOL    HW243387   0.505   4.672   6.824 -0.4603  0.1884  0.8903
14278SOL     OW43388   0.578   7.403   3.960 -0.2474  0.0110  0.2829
14278SOL    HW143389   0.534   7.426   3.878 -0.3607  4.0605  1.2581
14278SOL    HW243390   0.528   7.329   3.995 -1.7631 -0.1635 -2.0478
14279SOL     OW43391   0.280   7.275   5.659  0.1337 -0.3683 -0.5577
14279SOL    HW143392   0.283   7.347   5.596 -0.9100 -0.8570 -1.1908
14279SOL    HW243393   0.195   7.284   5.701 -0.4784 -1.8537 -1.4103
14280SOL     OW43394   6.292   2.412   4.358 -0.0075  0.6623 -0.3674
14280SOL    HW143395   6.229   2.383   4.292 -1.0321  0.4290  0.6832
14280SOL    HW243396   6.329   2.330   4.393 -1.2278  0.6657  1.0019
14281SOL     OW43397   3.185   2.738   2.706  0.0817  0.0542 -0.3330
14281SOL    HW143398   3.126   2.784   2.766  1.5751  1.4741  0.1336
14281SOL    HW243399   3.220   2.666   2.759  0.4554  0.5647  0.1366
14282SOL     OW43400   1.579   5.175   0.561  0.0018  0.2754  0.1214
14282SOL    HW143401   1.487   5.150   0.547  0.0338  0.2222  0.0131
14282SOL    HW243402   1.580   5.211   0.650 -0.1638  0.4645  0.0478
14283SOL     OW43403   6.151   0.499   2.455 -0.9121  0.5528 -0.2148
14283SOL    HW143404   6.197   0.508   2.539  1.0516 -1.0315 -1.0281
14283SOL    HW243405   6.089   0.428   2.469 -0.0826 -0.1975 -0.2707
14284SOL     OW43406   5.205   3.853   4.858 -0.0377  0.1695 -0.2398
14284SOL    HW143407   5.140   3.898   4.913 -0.6884 -2.3640  1.2052
14284SOL    HW243408   5.214   3.767   4.897  3.8864  0.2070 -0.6975
14285SOL     OW43409   7.222   1.806   0.630  0.3946  0.2590 -0.2679
14285SOL    HW143410   7.240   1.714   0.609  1.2553  0.3065  0.2489
14285SOL    HW243411   7.295   1.854   0.592  0.8586  0.5571  0.9665
14286SOL     OW43412   2.115   0.598   6.416 -0.1956 -0.1454 -0.2070
14286SOL    HW143413   2.029   0.586   6.375 -0.0968  1.0786 -0.8107
14286SOL    HW243414   2.178   0.590   6.344  0.0210  1.3423 -0.2160
14287SOL     OW43415   2.581   5.177   4.183 -0.4060 -0.7135  0.1936
14287SOL    HW143416   2.627   5.093   4.186 -2.2199 -1.9703 -2.7092
14287SOL    HW243417   2.587   5.211   4.273  0.5542 -3.8372  1.4509
14288SOL     OW43418   1.918   6.028   5.894  0.7896 -0.4079  0.4459
14288SOL    HW143419   1.953   5.995   5.977  1.9459 -1.3734 -0.3812
14288SOL    HW243420   1.980   6.096   5.867  0.3882 -0.0568  0.4008
14289SOL     OW43421   5.607   6.440   4.093 -0.1598  0.1921  0.1980
14289SOL    HW143422   5.655   6.506   4.043  1.4349 -0.7703  0.4057
14289SOL    HW243423   5.608   6.362   4.038 -1.6476  0.1755  0.1506
14290SOL     OW43424   4.965   2.992   1.033  0.3116  0.3897 -0.5073
14290SOL    HW143425   4.926   3.076   1.007  1.8220  0.7928 -1.6100
14290SOL    HW243426   4.899   2.952   1.090 -0.3032  2.4897  0.3831
14291SOL     OW43427   6.538   4.189   2.331 -0.4691  0.6235  0.5960
14291SOL    HW143428   6.506   4.121   2.272 -2.4476  0.5100  1.7055
14291SOL    HW243429   6.522   4.154   2.419 -0.5367  2.0907  1.1975
14292SOL     OW43430   6.064   7.564   1.944  0.8781 -0.1242  0.1332
14292SOL    HW143431   6.133   7.608   1.993  0.4233  0.2070  0.4926
14292SOL    HW243432   6.015   7.516   2.010 -0.5633  1.4070  0.2514
14293SOL     OW43433   1.694   6.089   2.653  0.0568 -0.3968  0.2284
14293SOL    HW143434   1.727   6.134   2.575  2.3773 -0.3181  1.1780
14293SOL    HW243435   1.649   6.157   2.703 -0.1328 -0.1135 -0.3140
14294SOL     OW43436   2.442   2.850   6.390 -0.2691  0.0417 -0.3526
14294SOL    HW143437   2.397   2.862   6.473  0.6621 -1.0482  0.3515
14294SOL    HW243438   2.526   2.811   6.414  0.4766  0.7314 -1.7275
14295SOL     OW43439   3.269   0.418   0.021  0.2504  0.4734  0.3462
14295SOL    HW143440   3.198   0.396  -0.039 -0.5404  0.9857  1.0662
14295SOL    HW243441   3.341   0.444  -0.036  0.3313 -1.3267 -0.4364
14296SOL     OW43442   4.874   0.879   5.372  0.3144 -0.1271  0.1599
14296SOL    HW143443   4.917   0.812   5.425  0.8716  0.6268  0.6893
14296SOL    HW243444   4.782   0.854   5.371  0.3811 -0.4424  1.0427
14297SOL     OW43445   3.608   1.494   0.385  0.4024  0.0873  0.3140
14297SOL    HW143446   3.611   1.571   0.442 -0.3196 -0.1775  0.7284
14297SOL    HW243447   3.553   1.432   0.432  0.1484 -0.2996 -0.4752
14298SOL     OW43448   4.696   1.576   2.072  0.0997 -0.6575 -0.5773
14298SOL    HW143449   4.670   1.543   2.158 -1.0481 -0.1867 -0.7331
14298SOL    HW243450   4.698   1.671   2.083 -1.9010 -0.4578 -1.5377
14299SOL     OW43451   6.146   3.594   4.758  0.6177  0.0879  0.0837
14299SOL    HW143452   6.059   3.628   4.734  0.5819  0.8378  1.2411
14299SOL    HW243453   6.205   3.669   4.746  0.5401  0.6237  2.6300
14300SOL     OW43454   2.649   6.494   1.462  0.0540 -0.2670  0.6896
14300SOL    HW143455   2.692   6.411   1.442 -1.2682 -0.6660 -0.6950
14300SOL    HW243456   2.693   6.558   1.405  0.3412 -0.2287  0.9546
14301SOL     OW43457   6.108   1.364   0.576  0.2557 -0.5463 -0.3848
14301SOL    HW143458   6.182   1.343   0.633 -0.5781 -0.5816  0.7313
14301SOL    HW243459   6.139   1.436   0.521  1.5044 -1.3507 -0.7757
14302SOL     OW43460   0.721   5.880   4.242  0.7285 -0.1800  0.1907
14302SOL    HW143461   0.717   5.818   4.315 -1.4688 -1.7733 -1.1342
14302SOL    HW243462   0.674   5.957   4.273  0.8518 -0.3636  0.8493
14303SOL     OW43463   5.278   1.202   4.435 -0.7099  0.0066 -0.2444
14303SOL    HW143464   5.361   1.242   4.463 -0.7218  0.4639 -0.8297
14303SOL    HW243465   5.304   1.127   4.382 -0.6833 -0.4177  0.3581
14304SOL     OW43466   6.536   0.771   5.140  0.6493 -0.4012 -0.7065
14304SOL    HW143467   6.497   0.844   5.092  1.0277  0.2202 -0.0805
14304SOL    HW243468   6.526   0.696   5.081 -0.6141 -0.0589 -0.9462
14305SOL     OW43469   7.241   6.510   1.211  0.9031  0.0182 -0.7932
14305SOL    HW143470   7.273   6.523   1.300 -2.1143  2.6524  0.0792
14305SOL    HW243471   7.260   6.593   1.167 -1.5653  0.4605 -1.1738
14306SOL     OW43472   5.319   2.073   4.596 -0.1268  0.0737  0.0384
14306SOL    HW143473   5.393   2.131   4.576 -1.1216  1.6653  0.7991
14306SOL    HW243474   5.253   2.095   4.529  0.5197 -2.2954 -1.4887
14307SOL     OW43475   7.214   7.469   5.745 -0.0109 -1.1134 -0.1958
14307SOL    HW143476   7.276   7.542   5.748 -0.7509 -0.3924 -1.4936
14307SOL    HW243477   7.213   7.434   5.834  0.6636  0.1915  0.3451
14308SOL     OW43478   6.052   3.851   0.318  0.5627  0.7703  0.5356
14308SOL    HW143479   6.059   3.850   0.222  1.7502  0.1512  0.6062
14308SOL    HW243480   6.008   3.768   0.340  1.2251  0.4170  0.5663
14309SOL     OW43481   5.573   5.484   7.135  0.0223 -0.0947 -0.4984
14309SOL    HW143482   5.560   5.568   7.178 -0.4880  0.3796 -1.5453
14309SOL    HW243483   5.486   5.459   7.105  0.2000 -0.9182 -0.3569
14310SOL     OW43484   6.590   3.063   1.306 -0.1001 -0.1115 -0.2851
14310SOL    HW143485   6.662   3.126   1.308  0.0502 -0.2729 -0.6615
14310SOL    HW243486   6.625   2.988   1.258 -0.5116 -0.1991 -0.4494
14311SOL     OW43487   4.641   0.009   7.047  0.8462 -0.4104 -0.6004
14311SOL    HW143488   4.590  -0.051   6.992  0.6688  0.7120 -1.6945
14311SOL    HW243489   4.609  -0.007   7.136 -0.7079 -0.4371 -1.1399
14312SOL     OW43490   6.035   5.575   7.716  0.0433 -0.1574  0.0301
14312SOL    HW143491   5.958   5.580   7.773 -0.5774 -2.3307 -0.5486
14312SOL    HW243492   6.106   5.551   7.775  0.1404  0.9644  0.4111
14313SOL     OW43493   0.849   3.355   2.772 -0.0571  0.0910 -0.2978
14313SOL    HW143494   0.885   3.440   2.798 -2.1613  1.0472 -0.2726
14313SOL    HW243495   0.799   3.325   2.848  1.2644 -1.5797 -0.0325
14314SOL     OW43496   1.525   5.272   6.218  0.0044  0.2024 -0.4036
14314SOL    HW143497   1.488   5.361   6.220  0.7336  0.5043  0.0559
14314SOL    HW243498   1.530   5.250   6.125 -0.6483  0.4429 -0.4993
14315SOL     OW43499   5.036   1.378   6.559 -0.1775  0.1809 -0.0025
14315SOL    HW143500   4.943   1.380   6.581 -0.4280 -0.7544 -0.9043
14315SOL    HW243501   5.072   1.456   6.602 -1.1911  0.0643  1.1245
14316SOL     OW43502   4.393   2.362   6.063  0.5066 -0.1362  0.1335
14316SOL    HW143503   4.460   2.427   6.087  0.4483 -0.4979  1.3473
14316SOL    HW243504   4.390   2.302   6.138 -1.8345  0.3842  0.5101
14317SOL     OW43505   4.116   0.672   3.589  0.6523  0.3637 -0.3369
14317SOL    HW143506   4.081   0.756   3.621 -0.6886 -0.2391 -0.1487
14317SOL    HW243507   4.132   0.621   3.669  0.2261 -0.0244 -0.4970
14318SOL     OW43508   0.265   2.041   7.194  0.0175 -0.2107 -0.2060
14318SOL    HW143509   0.265   1.968   7.255 -2.5466 -0.9397 -0.9671
14318SOL    HW243510   0.351   2.082   7.206  1.0458 -2.5604  1.1417
14319SOL     OW43511   2.647   0.634   6.668 -0.5472  0.6441  0.0600
14319SOL    HW143512   2.586   0.632   6.594 -1.5029 -0.8901  0.8545
14319SOL    HW243513   2.726   0.593   6.634  0.0254  2.4006 -0.8938
14320SOL     OW43514   5.485   3.164   2.670  0.0410 -0.1890  0.2516
14320SOL    HW143515   5.485   3.226   2.597 -2.8599  2.1514  2.0395
14320SOL    HW243516   5.557   3.192   2.726 -0.5087  0.8138  0.4631
14321SOL     OW43517   3.431   4.331   5.728  0.3690 -0.2133  1.2071
14321SOL    HW143518   3.393   4.417   5.740 -0.9507 -0.8320  1.5820
14321SOL    HW243519   3.469   4.309   5.813  1.6194  0.4040  0.8323
14322SOL     OW43520   6.959   1.021   1.511 -0.0883  0.1094 -0.4990
14322SOL    HW143521   6.948   1.008   1.417 -0.7116  0.0725 -0.4292
14322SOL    HW243522   7.051   1.001   1.528  0.1324  0.5122 -1.1639
14323SOL     OW43523   7.610   4.938   4.852  0.3404 -0.7025 -0.4352
14323SOL    HW143524   7.561   4.963   4.774  1.3996  1.1222 -0.5796
14323SOL    HW243525   7.700   4.926   4.820  0.6021 -0.8560  0.3538
14324SOL     OW43526   6.717   1.961   1.449 -0.4391  0.1817 -0.1509
14324SOL    HW143527   6.734   1.963   1.543  0.5833 -0.7484 -0.2977
14324SOL    HW243528   6.682   2.048   1.429 -0.3490  0.5062  1.0271
14325SOL     OW43529   7.427   4.241   7.153  0.0310 -0.1576 -0.1029
14325SOL    HW143530   7.491   4.200   7.095 -1.2788 -0.4697 -1.3944
14325SOL    HW243531   7.428   4.334   7.130 -0.1435 -0.2026 -0.2972
14326SOL     OW43532   6.500   3.481   7.348  0.3984  0.0740 -0.3788
14326SOL    HW143533   6.577   3.509   7.397  0.3091 -0.2579 -0.0410
14326SOL    HW243534   6.531   3.406   7.296 -0.1627 -1.4183  1.3234
14327SOL     OW43535   3.473   4.829   3.161  0.1304  0.3048 -0.0508
14327SOL    HW143536   3.476   4.790   3.249 -0.3207 -0.6630 -0.4528
14327SOL    HW243537   3.387   4.869   3.155  0.0666  0.1550 -0.1386
14328SOL     OW43538   1.772   1.505   6.761  0.2529  0.0133 -0.0312
14328SOL    HW143539   1.743   1.460   6.841  0.9762  0.2481  0.3729
14328SOL    HW243540   1.852   1.550   6.787  0.7069 -0.2190 -0.9968
14329SOL     OW43541   1.911   4.849   3.801 -0.6808 -0.4634  0.2694
14329SOL    HW143542   1.871   4.911   3.740  1.6265  0.7469 -0.1317
14329SOL    HW243543   1.898   4.764   3.761 -0.9922  0.1130 -0.9043
14330SOL     OW43544   1.405   6.633   2.154 -0.6904 -0.4704  0.3114
14330SOL    HW143545   1.464   6.571   2.197 -1.8084 -0.1642  2.4233
14330SOL    HW243546   1.395   6.600   2.065  2.3545 -0.7263 -0.0393
14331SOL     OW43547   0.026   5.845   5.311  0.1421 -0.0043 -0.0204
14331SOL    HW143548  -0.039   5.808   5.370  1.4037 -1.8244  0.3281
14331SOL    HW243549   0.102   5.787   5.320  0.3171 -0.5595 -3.6042
14332SOL     OW43550   0.118   5.446   2.248  0.0234  0.5100  0.3639
14332SOL    HW143551   0.140   5.538   2.236 -1.3374  0.9829  1.1948
14332SOL    HW243552   0.202   5.401   2.255  0.7343  1.4929 -1.2746
14333SOL     OW43553   2.672   6.985   3.804 -0.1384  0.5147  0.5971
14333SOL    HW143554   2.660   7.044   3.878 -1.3770  0.4517  0.4619
14333SOL    HW243555   2.611   7.017   3.738 -1.0499 -1.0755  0.6225
14334SOL     OW43556   3.432   6.010   7.308  0.8664 -0.1190 -0.0988
14334SOL    HW143557   3.377   6.020   7.231 -0.2727  1.8349  0.8893
14334SOL    HW243558   3.388   6.061   7.376  3.0305  0.1595  1.2070
14335SOL     OW43559   7.568   0.513   6.380  0.3101 -0.1172  0.2393
14335SOL    HW143560   7.504   0.528   6.449  0.5729 -3.0671  1.2872
14335SOL    HW243561   7.590   0.600   6.348 -0.9905  1.2672  2.7890
14336SOL     OW43562   3.141   4.191   5.282 -0.3645 -0.0969  0.0553
14336SOL    HW143563   3.209   4.175   5.217 -1.6759  0.3575 -1.4906
14336SOL    HW243564   3.156   4.280   5.312  1.3632 -0.9146  1.8194
14337SOL     OW43565   3.029   4.129   0.852  0.2193  0.0121 -0.1454
14337SOL    HW143566   2.975   4.134   0.772  1.8532  2.7323 -1.1832
14337SOL    HW243567   2.977   4.174   0.918  0.0264  0.1544 -0.3893
14338SOL     OW43568   6.354   0.979   4.286  0.1251  0.4007  0.3883
14338SOL    HW143569   6.402   1.045   4.236  1.7645  0.6287  2.1662
14338SOL    HW243570   6.420   0.914   4.310 -1.0115 -0.7075  0.6129
14339SOL     OW43571   0.742   7.030   1.955  0.1688  0.2239 -0.2712
14339SOL    HW143572   0.750   7.063   2.045 -2.6309 -1.5986  0.7790
14339SOL    HW243573   0.832   7.022   1.924  1.2223  1.0467  2.3105
14340SOL     OW43574   0.259   5.192   4.642  0.2424  0.5193 -0.5642
14340SOL    HW143575   0.201   5.149   4.704  1.5668  1.3645  1.3554
14340SOL    HW243576   0.311   5.121   4.604  1.8330  0.2297  1.9538
14341SOL     OW43577   1.392   2.902   2.382  0.4957 -0.2425 -0.0705
14341SOL    HW143578   1.425   2.990   2.363 -0.0151 -0.3395 -1.5145
14341SOL    HW243579   1.468   2.845   2.373  0.7029 -0.0291  0.2937
14342SOL     OW43580   5.596   3.206   4.833  0.3576 -0.7144  0.7616
14342SOL    HW143581   5.659   3.277   4.847 -0.5712  1.5007 -4.2351
14342SOL    HW243582   5.518   3.234   4.880  1.0958 -0.3325  1.8168
14343SOL     OW43583   2.251   7.647   3.231 -0.2006  0.2792 -0.0644
14343SOL    HW143584   2.244   7.706   3.306  0.6890  1.3709 -0.8037
14343SOL    HW243585   2.160   7.623   3.211 -0.5242  0.8406  0.6861
14344SOL     OW43586   6.416   6.050   0.455  0.1483 -0.0340  0.4640
14344SOL    HW143587   6.437   6.084   0.368 -1.9003  0.4283  0.0951
14344SOL    HW243588   6.321   6.037   0.453 -0.3200  1.9616  3.2790
14345SOL     OW43589   1.884   3.490   5.714  0.3317  0.5981  0.1827
14345SOL    HW143590   1.817   3.533   5.767  0.1605 -0.2096  0.6349
14345SOL    HW243591   1.966   3.534   5.738  0.0268  1.3224 -0.0844
14346SOL     OW43592   4.555   1.583   0.012 -0.1800  0.9965 -0.0241
14346SOL    HW143593   4.479   1.624  -0.031 -0.2512 -1.8256 -3.0481
14346SOL    HW243594   4.548   1.490  -0.012  1.8070 -0.2427  3.4533
14347SOL     OW43595   2.137   4.920   2.855  0.8819  0.0902  0.3891
14347SOL    HW143596   2.045   4.914   2.879  0.3250  1.4690 -1.2097
14347SOL    HW243597   2.154   4.840   2.806  0.6060 -0.2883  0.9055
14348SOL     OW43598   3.884   6.928   6.094 -0.0229 -0.0348 -0.2256
14348SOL    HW143599   3.791   6.910   6.080 -0.1270  0.3731 -0.0716
14348SOL    HW243600   3.927   6.844   6.077 -0.5058 -0.4594  0.5556
14349SOL     OW43601   4.899   3.411   4.689  0.1990  0.5850  0.1275
14349SOL    HW143602   4.985   3.368   4.695  0.3492  0.9715  0.9282
14349SOL    HW243603   4.876   3.431   4.780 -1.9007 -1.7840  0.2380
14350SOL     OW43604   0.561   5.883   1.984  0.0111  0.5531  0.0208
14350SOL    HW143605   0.543   5.800   2.027 -0.4627  0.1621 -0.9024
14350SOL    HW243606   0.549   5.865   1.890  0.9536  1.3874 -0.2782
14351SOL     OW43607   2.914   2.411   4.155  0.0346 -0.0345 -0.3258
14351SOL    HW143608   2.839   2.454   4.115 -0.5116 -1.1383 -0.5365
14351SOL    HW243609   2.989   2.437   4.102 -0.5357 -0.6936 -1.4759
14352SOL     OW43610   3.236   7.018   5.234 -0.0038  0.1569  0.2657
14352SOL    HW143611   3.310   7.007   5.175 -0.3239 -1.3234  0.0968
14352SOL    HW243612   3.236   6.939   5.288 -0.0687  1.2083  1.8729
14353SOL     OW43613   5.155   4.378   6.698 -0.1696 -0.0158  0.4935
14353SOL    HW143614   5.171   4.472   6.712  2.3230 -0.7717  4.1141
14353SOL    HW243615   5.075   4.360   6.748 -0.1699  0.0363  0.5125
14354SOL     OW43616   0.990   7.405   1.238  0.4366 -0.3143  0.7872
14354SOL    HW143617   1.059   7.441   1.183  1.8099 -1.7183  1.5146
14354SOL    HW243618   0.910   7.414   1.185  1.4574 -0.2668 -0.8221
14355SOL     OW43619   3.590   7.324   3.235 -0.5984  0.1721 -0.2356
14355SOL    HW143620   3.653   7.322   3.308  2.1679  0.8876 -2.4237
14355SOL    HW243621   3.582   7.417   3.213  1.0882 -0.1458 -2.6696
14356SOL     OW43622   4.825   1.814   4.214  0.1775 -0.0420 -0.0307
14356SOL    HW143623   4.854   1.724   4.226 -2.0640 -1.0270 -1.4278
14356SOL    HW243624   4.786   1.839   4.299 -2.4543 -1.7528 -0.6178
14357SOL     OW43625   0.608   1.507   6.566  0.1768  0.4707  0.0045
14357SOL    HW143626   0.675   1.470   6.508 -0.8559 -0.8171 -0.4289
14357SOL    HW243627   0.535   1.527   6.507 -0.1585  1.0198  0.5987
14358SOL     OW43628   7.040   4.213   6.221 -0.3240 -0.2967 -0.1198
14358SOL    HW143629   7.035   4.302   6.185 -0.8813 -0.8947 -1.6058
14358SOL    HW243630   6.988   4.160   6.161  0.2612 -1.6986  0.5610
14359SOL     OW43631   7.407   2.356   2.233 -0.1367 -0.2139 -0.1566
14359SOL    HW143632   7.330   2.392   2.278 -0.2231 -2.0454  1.2660
14359SOL    HW243633   7.452   2.304   2.300  1.0992 -1.0504 -1.5791
14360SOL     OW43634   3.814   6.123   1.762 -0.0098 -0.0422 -0.0329
14360SOL    HW143635   3.907   6.123   1.783 -0.4102  0.4260  1.9787
14360SOL    HW243636   3.783   6.208   1.793 -1.0474 -0.0421 -1.0123
14361SOL     OW43637   0.920   6.614   2.198  0.0089 -0.6297  0.0544
14361SOL    HW143638   0.851   6.571   2.249 -1.5696  1.6906  0.0009
14361SOL    HW243639   0.973   6.541   2.165 -0.6110 -2.3610  2.5666
14362SOL     OW43640   4.308   0.335   4.742 -0.1027  0.3753  0.6526
14362SOL    HW143641   4.352   0.253   4.764 -0.6967  0.1287  0.9328
14362SOL    HW243642   4.292   0.330   4.648  0.7331  0.5991  0.4926
14363SOL     OW43643   6.118   5.162   1.981  0.2753 -0.4336  0.0435
14363SOL    HW143644   6.101   5.090   1.922  0.6200 -0.5425  0.0707
14363SOL    HW243645   6.096   5.241   1.931 -2.1121 -0.6021  0.6992
14364SOL     OW43646   6.816   6.200   0.711  0.1889  0.1871  0.1204
14364SOL    HW143647   6.832   6.293   0.699  0.9778  0.3301  1.9920
14364SOL    HW243648   6.725   6.194   0.740  0.1291  0.3655 -0.0326
14365SOL     OW43649   2.451   7.439   3.212  0.0460 -0.6115  0.4050
14365SOL    HW143650   2.388   7.388   3.161  2.0121 -1.4931 -1.2918
14365SOL    HW243651   2.409   7.524   3.225 -2.1202 -1.6703  0.7859
14366SOL     OW43652   4.560   0.305   6.838  0.4422  0.1414  0.6598
14366SOL    HW143653   4.543   0.268   6.751  0.9372 -1.1504  1.0825
14366SOL    HW243654   4.483   0.281   6.890  0.6630 -0.1093  0.8774
14367SOL     OW43655   4.681   1.172   3.825 -0.5264  0.1300  0.8801
14367SOL    HW143656   4.629   1.208   3.898  1.2199  1.9360  1.3110
14367SOL    HW243657   4.696   1.246   3.767  2.3115 -0.0459  1.2391
14368SOL     OW43658   2.921   3.322   5.090 -0.1393 -0.0398 -0.0722
14368SOL    HW143659   2.963   3.244   5.125 -1.5787 -1.0451 -0.5115
14368SOL    HW243660   2.853   3.343   5.153 -0.6241  0.0683 -0.6262
14369SOL     OW43661   1.359   2.221   7.027 -0.2013  0.5151 -0.2579
14369SOL    HW143662   1.282   2.235   7.082 -0.6091  0.8859 -0.9212
14369SOL    HW243663   1.413   2.299   7.042 -1.1310  1.4753 -1.7222
14370SOL     OW43664   4.827   4.450   4.519 -0.9365 -0.2580 -0.1867
14370SOL    HW143665   4.808   4.544   4.524 -1.7582 -0.3576 -1.0101
14370SOL    HW243666   4.897   4.444   4.453 -1.3050 -0.2691 -0.5801
14371SOL     OW43667   6.585   5.430   2.254 -0.3557 -0.2886 -0.5588
14371SOL    HW143668   6.514   5.487   2.285 -1.3157 -0.5645 -2.1402
14371SOL    HW243669   6.564   5.413   2.162  1.4311 -0.9194 -0.8911
14372SOL     OW43670   1.866   0.764   1.664 -0.0752  0.1358  0.0456
14372SOL    HW143671   1.855   0.683   1.613 -0.5876  0.4500 -0.3611
14372SOL    HW243672   1.951   0.798   1.637 -0.3011  0.2500 -0.5400
14373SOL     OW43673   4.287   4.033   3.556 -0.2348 -0.0904  0.3586
14373SOL    HW143674   4.327   4.047   3.471  1.8153  0.2598  1.3059
14373SOL    HW243675   4.210   3.979   3.539  1.0911 -1.5020 -1.5194
14374SOL     OW43676   4.282   5.686   3.669 -0.3174 -0.5470  0.4132
14374SOL    HW143677   4.204   5.643   3.632  0.1649  0.2332 -1.6750
14374SOL    HW243678   4.277   5.668   3.763 -1.6870 -2.6411  0.0253
14375SOL     OW43679   6.432   0.883   0.295  0.0510 -0.0619  0.2913
14375SOL    HW143680   6.519   0.900   0.258 -0.8945  0.0415 -2.1006
14375SOL    HW243681   6.411   0.962   0.344  1.5293 -0.3440  1.4428
14376SOL     OW43682   1.633   5.673   5.564 -0.5180 -0.0073 -0.1730
14376SOL    HW143683   1.666   5.755   5.526  3.9278 -1.0177  0.9462
14376SOL    HW243684   1.564   5.701   5.624 -1.7206  2.4579 -2.4810
14377SOL     OW43685   2.893   5.098   6.677  0.5712 -0.3841  0.0751
14377SOL    HW143686   2.965   5.112   6.616  0.4862  4.3021  0.6881
14377SOL    HW243687   2.832   5.042   6.629  2.0885  0.1931 -2.7381
14378SOL     OW43688   5.963   6.034   0.967  0.3115 -0.1290  0.0083
14378SOL    HW143689   5.884   5.996   1.004 -0.9111 -0.5148 -2.7458
14378SOL    HW243690   5.938   6.123   0.941  1.2081  0.2492  0.4038
14379SOL     OW43691   5.188   1.355   5.636 -0.1294  0.7450 -0.0168
14379SOL    HW143692   5.141   1.329   5.556 -0.4200 -0.2100  0.4419
14379SOL    HW243693   5.275   1.315   5.626 -0.3132  0.2495  0.3368
14380SOL     OW43694   6.863   6.970   2.700  0.6682 -0.1355  0.5400
14380SOL    HW143695   6.821   6.976   2.786  2.5374  1.4242  1.4292
14380SOL    HW243696   6.800   7.009   2.639 -0.7181 -1.3321  1.1424
14381SOL     OW43697   5.800   3.638   7.507 -0.0787 -0.1730  0.0100
14381SOL    HW143698   5.871   3.588   7.547 -1.3471 -1.1071  1.1988
14381SOL    HW243699   5.723   3.617   7.560 -1.1462  1.2237 -0.9045
14382SOL     OW43700   0.502   5.197   5.130 -0.2784  0.1217 -0.0934
14382SOL    HW143701   0.515   5.109   5.166  1.9953  0.5446  0.3095
14382SOL    HW243702   0.546   5.254   5.193 -1.9693  1.6124 -0.1981
14383SOL     OW43703   3.268   3.028   4.998 -0.1025  0.3101 -0.2140
14383SOL    HW143704   3.290   3.103   4.943  0.7178  1.6468  1.8159
14383SOL    HW243705   3.195   3.059   5.053  0.1670 -0.3965  0.5680
14384SOL     OW43706   1.955   3.231   6.278  0.2316  0.6535 -0.1761
14384SOL    HW143707   1.974   3.302   6.216 -0.2472 -0.1343 -1.2522
14384SOL    HW243708   1.979   3.151   6.231 -1.0838 -0.0281  0.2561
14385SOL     OW43709   1.041   4.721   0.781 -0.0512  0.2437 -0.5135
14385SOL    HW143710   1.127   4.688   0.752  0.3944  1.2689 -0.3784
14385SOL    HW243711   0.986   4.642   0.785  0.9489 -0.4716 -0.3472
14386SOL     OW43712   5.556   1.343   0.474  0.2852 -0.0898 -0.1284
14386SOL    HW143713   5.485   1.286   0.445 -0.0375  0.0736  0.3271
14386SOL    HW243714   5.588   1.303   0.554  0.2420  0.2136  0.0438
14387SOL     OW43715   1.500   1.658   0.019  0.0708 -0.1415 -0.4043
14387SOL    HW143716   1.409   1.647  -0.008 -0.5222  1.3404  0.8229
14387SOL    HW243717   1.545   1.686  -0.061 -0.7271 -0.0234 -0.8264
14388SOL     OW43718   4.870   0.175   1.323 -0.0981 -0.0391 -0.4476
14388SOL    HW143719   4.871   0.140   1.234 -0.8868  0.0112 -0.4814
14388SOL    HW243720   4.833   0.105   1.377  0.2890 -0.0347 -0.1715
14389SOL     OW43721   6.699   4.849   5.584 -0.0361  0.7135  0.3220
14389SOL    HW143722   6.727   4.936   5.555 -0.1970  1.0436  1.1279
14389SOL    HW243723   6.606   4.859   5.605 -0.7669 -0.3118 -2.0873
14390SOL     OW43724   2.426   5.602   2.648  0.8935 -0.7506  0.0023
14390SOL    HW143725   2.332   5.613   2.634  1.1289  0.3109 -0.8525
14390SOL    HW243726   2.463   5.689   2.633  2.1853 -1.4681 -1.1350
14391SOL     OW43727   1.919   3.487   1.217 -0.0586 -0.2126 -0.0300
14391SOL    HW143728   2.004   3.518   1.250 -1.2311  1.6058  1.5181
14391SOL    HW243729   1.901   3.543   1.142 -0.7624  0.8490  0.8876
14392SOL     OW43730   7.077   5.272   2.197  0.4593 -0.0622  0.7729
14392SOL    HW143731   7.101   5.345   2.255 -0.3062  1.1539 -0.3941
14392SOL    HW243732   6.983   5.281   2.185  0.5010 -0.7082 -0.0952
14393SOL     OW43733   1.285   4.737   6.594  0.6648  1.2809  0.0752
14393SOL    HW143734   1.350   4.673   6.566  0.5115  0.5266  1.3814
14393SOL    HW243735   1.329   4.821   6.583  0.4142  1.1118 -2.9166
14394SOL     OW43736   3.719   2.266   5.015  0.2111 -0.2046  0.2343
14394SOL    HW143737   3.721   2.181   4.971  0.2740 -1.0533  1.7867
14394SOL    HW243738   3.781   2.257   5.087 -0.6190  0.7544  1.0993
14395SOL     OW43739   4.813   1.651   0.025 -0.0073 -0.1738  0.3082
14395SOL    HW143740   4.724   1.627   0.002 -0.0318  1.4185 -1.6059
14395SOL    HW243741   4.856   1.665  -0.060  1.7523  0.1444  1.2029
14396SOL     OW43742   1.371   0.026   7.011  0.0916  0.5192  0.3223
14396SOL    HW143743   1.460  -0.011   7.009  0.6278  1.7729  0.0323
14396SOL    HW243744   1.330  -0.008   6.932 -0.0656 -0.8988  0.9670
14397SOL     OW43745   3.194   5.028   6.596  0.1948 -0.2389  0.2995
14397SOL    HW143746   3.187   5.004   6.688 -0.6422 -0.9673  0.0647
14397SOL    HW243747   3.141   5.108   6.588  0.6533  0.0967  0.5258
14398SOL     OW43748   6.679   6.029   1.001 -0.5948 -0.3746 -0.1192
14398SOL    HW143749   6.738   6.103   1.015 -0.1852 -0.3636 -1.7769
14398SOL    HW243750   6.671   5.989   1.088 -1.2397  1.8669  0.9446
14399SOL     OW43751   5.538   2.079   7.724 -0.0459 -0.1241 -0.0602
14399SOL    HW143752   5.537   1.985   7.739 -3.2449 -0.2824 -0.4900
14399SOL    HW243753   5.506   2.117   7.806  3.2672  0.8889  0.9210
14400SOL     OW43754   6.191   2.040   5.696 -0.6790  0.0064  0.3970
14400SOL    HW143755   6.284   2.020   5.694 -0.4678  1.0259 -1.6380
14400SOL    HW243756   6.186   2.135   5.706 -1.5352 -0.1039  1.2424
14401SOL     OW43757   0.199   4.137   7.017 -0.1495  0.1025  0.1690
14401SOL    HW143758   0.166   4.227   7.017  0.1509  0.2291  1.0470
14401SOL    HW243759   0.172   4.101   6.933 -1.3026  0.6409  0.2997
14402SOL     OW43760   4.223   0.656   7.227 -0.1087  0.0972  0.3551
14402SOL    HW143761   4.308   0.699   7.238  0.4562 -1.4012  2.5957
14402SOL    HW243762   4.173   0.682   7.304 -0.9916 -0.5438  0.0164
14403SOL     OW43763   1.288   4.387   2.052 -0.0258  0.1650 -0.3417
14403SOL    HW143764   1.211   4.336   2.077 -0.3584  1.5629  1.6968
14403SOL    HW243765   1.253   4.468   2.015  0.4350  0.9288  0.8517
14404SOL     OW43766   4.321   1.998   3.390  0.9572  0.3190 -0.0466
14404SOL    HW143767   4.355   2.006   3.479  3.0321 -0.3744 -0.7211
14404SOL    HW243768   4.327   1.904   3.371 -3.3427 -0.2804  0.4519
14405SOL     OW43769   4.977   4.594   7.308  0.3993  0.2119 -0.5523
14405SOL    HW143770   5.005   4.631   7.224  0.2909 -0.7534 -1.0325
14405SOL    HW243771   4.881   4.602   7.307  0.1998 -1.7186 -1.4967
14406SOL     OW43772   4.858   0.162   7.130  0.6622 -0.2823 -0.8458
14406SOL    HW143773   4.832   0.254   7.119  0.2194 -0.4224 -0.9795
14406SOL    HW243774   4.779   0.112   7.109  0.9109 -0.6958 -0.8021
14407SOL     OW43775   6.142   2.449   4.625  0.1741 -0.6102 -0.4498
14407SOL    HW143776   6.229   2.429   4.592  0.8244  1.1878  0.0657
14407SOL    HW243777   6.087   2.456   4.546  0.7798 -0.5295 -0.8699
14408SOL     OW43778   4.858   4.979   2.152 -0.1998 -0.0002  0.1082
14408SOL    HW143779   4.805   4.918   2.101 -0.0976 -0.1835  0.2189
14408SOL    HW243780   4.947   4.942   2.149  0.0723  0.6938 -0.6966
14409SOL     OW43781   2.718   1.590   5.766 -0.2062 -0.1282  0.8056
14409SOL    HW143782   2.718   1.565   5.858  1.3623 -0.6187  0.7092
14409SOL    HW243783   2.660   1.666   5.761 -0.4735 -0.2265  2.1528
14410SOL     OW43784   0.552   0.760   0.756  0.1553 -0.0557  0.0123
14410SOL    HW143785   0.635   0.795   0.724  0.5948  0.0717  1.2336
14410SOL    HW243786   0.514   0.716   0.680  1.5689 -0.5393 -0.4564
14411SOL     OW43787   3.932   6.766   3.347  0.1277  0.4590  0.3511
14411SOL    HW143788   3.855   6.760   3.405 -0.6046  1.1446 -0.5334
14411SOL    HW243789   3.902   6.728   3.264  1.8151 -2.5705  0.9873
14412SOL     OW43790   0.649   0.576   2.746  0.0897 -0.1782  0.2089
14412SOL    HW143791   0.619   0.564   2.655 -1.1435  0.8537  0.4450
14412SOL    HW243792   0.627   0.666   2.766  0.4216 -0.3786  1.5277
14413SOL     OW43793   5.497   1.673   4.888 -0.1142  0.2311 -0.0904
14413SOL    HW143794   5.552   1.751   4.879 -0.9928  0.8646 -0.1407
14413SOL    HW243795   5.536   1.609   4.828  0.6024  0.6332 -0.0668
14414SOL     OW43796   3.649   0.990   5.697  0.1447  0.8342  0.0562
14414SOL    HW143797   3.605   0.905   5.698 -0.4068  1.1196  0.2770
14414SOL    HW243798   3.663   1.011   5.789  1.1070  0.5740 -0.0102
14415SOL     OW43799   5.341   5.699   0.580  0.1526  0.0197  0.0512
14415SOL    HW143800   5.325   5.793   0.568 -1.9384 -0.3081 -0.1191
14415SOL    HW243801   5.413   5.694   0.643  0.7215  1.7143 -0.4044
14416SOL     OW43802   0.760   5.105   4.086  0.1736  0.4377 -0.3566
14416SOL    HW143803   0.816   5.175   4.052 -0.3502  0.1041 -2.0085
14416SOL    HW243804   0.692   5.150   4.135  0.2572  1.0471 -0.7903
14417SOL     OW43805   5.868   4.258   3.681 -0.3140 -0.4229 -0.5527
14417SOL    HW143806   5.802   4.323   3.654  0.2173  0.0111 -0.8454
14417SOL    HW243807   5.818   4.188   3.721 -0.8975  0.2407 -0.0903
14418SOL     OW43808   4.331   3.351   2.550  0.0693 -0.4237 -0.5529
14418SOL    HW143809   4.261   3.331   2.612  0.1070 -0.9354 -0.6758
14418SOL    HW243810   4.289   3.350   2.464  0.0838 -0.0277 -0.5695
14419SOL     OW43811   5.308   7.389   5.350  0.0604 -0.6066 -0.4630
14419SOL    HW143812   5.388   7.393   5.403 -0.1632  2.7828 -0.1491
14419SOL    HW243813   5.326   7.321   5.285  2.7218 -0.8005  0.3470
14420SOL     OW43814   0.356   4.447   6.686 -0.0337 -0.1508 -0.2311
14420SOL    HW143815   0.322   4.518   6.632 -0.5371 -0.8731 -0.8694
14420SOL    HW243816   0.451   4.452   6.675 -0.1580 -0.7227 -1.7532
14421SOL     OW43817   2.320   0.254   4.725  0.2035 -0.2747  0.3661
14421SOL    HW143818   2.364   0.306   4.792  0.5160 -0.6053  0.4186
14421SOL    HW243819   2.233   0.293   4.718  0.3502  0.0990  0.5814
14422SOL     OW43820   1.102   3.456   7.237 -0.5276  0.5136 -0.1706
14422SOL    HW143821   1.101   3.406   7.156  0.6080 -0.5761  0.4519
14422SOL    HW243822   1.036   3.413   7.292 -0.4583  0.4981 -0.0988
14423SOL     OW43823   2.245   0.012   3.451 -0.2142  0.1049 -0.0784
14423SOL    HW143824   2.192  -0.048   3.505 -2.1865  1.4495 -0.4140
14423SOL    HW243825   2.252   0.091   3.504  2.3274 -0.3260  0.3403
14424SOL     OW43826   0.661   6.577   6.473 -0.1512 -0.3503  0.3312
14424SOL    HW143827   0.754   6.594   6.485 -0.1069 -0.9615  0.9190
14424SOL    HW243828   0.635   6.527   6.551 -0.2139 -3.2749 -1.4142
14425SOL     OW43829   6.184   0.597   3.932 -0.7589  0.1800 -0.3658
14425SOL    HW143830   6.117   0.553   3.985  0.7636 -1.8445 -0.0093
14425SOL    HW243831   6.250   0.624   3.996  0.3561 -0.8848 -1.0411
14426SOL     OW43832   0.183   0.859   6.103 -0.5454 -0.0165 -0.3862
14426SOL    HW143833   0.136   0.777   6.116  1.5654 -1.3474 -0.7007
14426SOL    HW243834   0.156   0.915   6.176  0.5074 -2.2554  1.8728
14427SOL     OW43835   5.396   6.203   1.832 -0.5265 -0.4300  0.4178
14427SOL    HW143836   5.301   6.213   1.833 -0.5527 -0.4577  2.3897
14427SOL    HW243837   5.418   6.174   1.921  1.3222 -0.4249  0.0033
14428SOL     OW43838   0.407   5.406   4.760 -0.2299 -0.6169  0.1899
14428SOL    HW143839   0.392   5.317   4.727 -2.3048 -0.4530  0.5246
14428SOL    HW243840   0.437   5.455   4.683 -1.2638 -1.1160 -0.5610
14429SOL     OW43841   3.691   3.291   2.040  0.4340 -0.3459 -0.3537
14429SOL    HW143842   3.610   3.273   2.089  0.2302 -0.6133 -0.7814
14429SOL    HW243843   3.761   3.264   2.099  0.1892 -0.7337 -0.2363
14430SOL     OW43844   2.425   7.239   0.847  0.0697  0.5939  0.0935
14430SOL    HW143845   2.498   7.202   0.895 -0.7617  0.8490  1.6008
14430SOL    HW243846   2.383   7.299   0.908 -0.0481  2.2350 -1.5018
14431SOL     OW43847   0.122   2.975   7.046  0.4291  0.0170  0.3949
14431SOL    HW143848   0.122   2.903   7.109  0.8926 -1.1792 -0.9079
14431SOL    HW243849   0.200   2.960   6.992  0.5596  1.5291  0.1062
14432SOL     OW43850   0.865   0.633   0.635  0.0374  0.0371  0.3049
14432SOL    HW143851   0.862   0.615   0.541  2.1228  0.6289  0.0882
14432SOL    HW243852   0.854   0.728   0.641 -1.6969 -0.1538  0.8140
14433SOL     OW43853   6.894   3.524   2.302  0.0766  0.2563 -0.3570
14433SOL    HW143854   6.982   3.537   2.337  0.1268 -2.8929  1.0005
14433SOL    HW243855   6.908   3.480   2.218 -0.1296 -1.8566  0.6530
14434SOL     OW43856   1.036   4.073   2.008  0.0468 -0.0672  0.1654
14434SOL    HW143857   0.953   4.028   1.992 -0.6340  0.6950  1.4300
14434SOL    HW243858   1.053   4.122   1.928 -1.9018  1.5576  0.6687
14435SOL     OW43859   6.520   3.819   0.188 -0.8620  0.0866  0.4691
14435SOL    HW143860   6.509   3.847   0.097  0.5839 -0.4784  0.1000
14435SOL    HW243861   6.566   3.892   0.230  0.2612 -0.4707  0.2358
14436SOL     OW43862   2.091   0.355   5.962 -0.2591  0.3793 -0.6298
14436SOL    HW143863   2.051   0.442   5.962 -1.1652  0.0143 -2.6764
14436SOL    HW243864   2.029   0.300   6.009 -0.1310  0.6458 -0.1432
14437SOL     OW43865   1.072   4.451   3.503 -0.1328 -0.2754  0.0275
14437SOL    HW143866   1.024   4.411   3.575 -2.9173  0.0145 -1.5165
14437SOL    HW243867   1.005   4.498   3.453  1.9093  0.7054 -1.9506
14438SOL     OW43868   0.970   0.124   3.128 -0.1935 -0.4644  0.3870
14438SOL    HW143869   0.881   0.106   3.099 -0.0403 -0.3586 -0.1522
14438SOL    HW243870   0.959   0.159   3.217 -0.7946  0.7774 -0.1540
14439SOL     OW43871   6.191   1.893   5.136  0.0887 -0.2486 -0.3227
14439SOL    HW143872   6.185   1.826   5.068 -0.5373  0.4443 -0.9661
14439SOL    HW243873   6.283   1.920   5.135  0.3359 -1.0247 -0.1030
14440SOL     OW43874   5.201   2.481   3.644 -0.0512 -0.4468  0.1958
14440SOL    HW143875   5.148   2.485   3.724 -2.7458 -1.1278 -1.4092
14440SOL    HW243876   5.258   2.558   3.649 -1.7493  0.8035  1.7259
14441SOL     OW43877   6.726   2.940   3.043 -0.4732 -0.2357 -0.4126
14441SOL    HW143878   6.697   2.916   2.955  1.2629 -1.9737 -0.5837
14441SOL    HW243879   6.731   2.857   3.090  0.8393  0.3771  0.6079
14442SOL     OW43880   0.546   2.910   3.090  0.3720  0.1945 -0.0220
14442SOL    HW143881   0.632   2.937   3.058  0.3657 -0.4182 -0.5693
14442SOL    HW243882   0.506   2.992   3.121  1.7799  0.2395  1.8128
14443SOL     OW43883   3.343   5.475   0.856 -0.6064  0.5389 -0.4882
14443SOL    HW143884   3.363   5.390   0.895  1.4260  0.9439 -0.5337
14443SOL    HW243885   3.327   5.533   0.930 -1.6449  0.2258 -0.4489
14444SOL     OW43886   2.764   5.051   3.332 -0.5356 -0.2979  0.2027
14444SOL    HW143887   2.760   4.999   3.412  0.9389 -0.7406  0.0080
14444SOL    HW243888   2.697   5.119   3.344 -1.0976 -1.0226  1.3181
14445SOL     OW43889   7.108   1.844   1.613  0.4341  0.0484  0.0917
14445SOL    HW143890   7.103   1.930   1.655  0.0836  0.6806 -1.1881
14445SOL    HW243891   7.021   1.830   1.575  0.1760 -1.3367  1.1273
14446SOL     OW43892   4.931   3.630   2.716 -1.1894 -0.0161 -0.0106
14446SOL    HW143893   4.988   3.574   2.770  0.9320  0.4330 -1.6521
14446SOL    HW243894   4.928   3.712   2.764 -0.1900  0.0392 -0.0027
14447SOL     OW43895   1.385   0.876   6.675 -0.1379 -0.4173 -0.5118
14447SOL    HW143896   1.291   0.860   6.673 -0.5917  1.4186  1.6062
14447SOL    HW243897   1.412   0.845   6.762  1.3115 -1.2166 -1.2051
14448SOL     OW43898   3.239   1.914   6.135 -0.6599 -0.0571  0.3777
14448SOL    HW143899   3.320   1.896   6.087 -1.2179 -0.5672 -0.4115
14448SOL    HW243900   3.170   1.890   6.073 -1.4171  0.8710  0.8504
14449SOL     OW43901   4.061   2.025   0.082 -0.2199 -0.2490 -0.0072
14449SOL    HW143902   4.087   2.086   0.151  1.4018  2.2039 -2.5550
14449SOL    HW243903   4.085   1.939   0.115 -0.5094  0.6782  2.8553
14450SOL     OW43904   0.402   3.930   4.699 -0.1605 -0.1059  0.1631
14450SOL    HW143905   0.337   3.975   4.753 -1.3157 -0.5729 -0.7726
14450SOL    HW243906   0.398   3.839   4.728 -1.8151 -0.6572 -1.5632
14451SOL     OW43907   0.863   5.969   0.632 -0.3364 -0.4472 -0.5677
14451SOL    HW143908   0.821   5.910   0.694  0.9007 -0.8335 -0.0536
14451SOL    HW243909   0.956   5.965   0.656 -0.2092  1.6509 -0.5564
14452SOL     OW43910   6.864   3.099   6.457 -0.2860 -0.1776  0.0827
14452SOL    HW143911   6.860   3.158   6.532 -0.1199 -1.9056  1.5268
14452SOL    HW243912   6.777   3.058   6.454 -0.8740  1.0798 -1.7600
14453SOL     OW43913   1.187   7.505   4.612 -0.6804 -0.6918 -0.4885
14453SOL    HW143914   1.176   7.426   4.664  1.9003 -0.6560  0.2515
14453SOL    HW243915   1.102   7.549   4.617 -1.6393 -2.5468  0.5206
14454SOL     OW43916   4.094   6.347   0.167 -0.2028  0.1487  0.0813
14454SOL    HW143917   4.110   6.361   0.260 -0.9622  2.9400 -0.1013
14454SOL    HW243918   4.104   6.253   0.154  0.2915 -0.2656  2.8884
14455SOL     OW43919   7.645   2.928   1.382  0.4012  0.0110 -0.0650
14455SOL    HW143920   7.691   2.921   1.466  1.0161  2.8261 -0.0618
14455SOL    HW243921   7.557   2.895   1.400  0.9489 -0.8086  1.2678
14456SOL     OW43922   4.089   2.068   3.758 -0.2202  0.2699  0.5853
14456SOL    HW143923   4.015   2.060   3.819  0.3398 -0.1550  1.2173
14456SOL    HW243924   4.080   1.993   3.700 -1.1531  1.0477 -0.3199
14457SOL     OW43925   0.104   0.456   5.338 -0.1924  0.2829  0.1926
14457SOL    HW143926   0.171   0.391   5.359 -1.6061 -1.8831 -1.5138
14457SOL    HW243927   0.142   0.539   5.365  2.4872 -1.0154  0.7971
14458SOL     OW43928   4.790   2.333   3.433 -0.1865  0.3322  0.0300
14458SOL    HW143929   4.732   2.270   3.391  0.9756 -1.3480  0.8356
14458SOL    HW243930   4.748   2.352   3.517 -0.8077  1.0733 -0.4390
14459SOL     OW43931   4.871   1.953   0.795 -0.1113  0.2961  1.0180
14459SOL    HW143932   4.951   1.998   0.821 -0.6717  0.3541  2.7740
14459SOL    HW243933   4.899   1.864   0.774  0.4952  0.4709  1.0777
14460SOL     OW43934   5.518   1.233   5.879 -0.0881 -0.4374 -0.2929
14460SOL    HW143935   5.480   1.178   5.947  0.1125  0.1993  0.3435
14460SOL    HW243936   5.613   1.220   5.888  0.0081  0.7889  0.5325
14461SOL     OW43937   4.077   7.402   6.530 -0.4746 -0.0920  0.5688
14461SOL    HW143938   3.994   7.364   6.559 -0.2845 -0.6345  0.4168
14461SOL    HW243939   4.132   7.327   6.512 -0.7282  0.1960 -1.6900
14462SOL     OW43940   5.492   5.799   1.485  0.8280 -0.3123  0.7016
14462SOL    HW143941   5.459   5.883   1.518 -0.8834  0.5664 -2.7299
14462SOL    HW243942   5.587   5.807   1.490  0.6930  0.5232  3.2317
14463SOL     OW43943   1.060   5.035   1.665 -0.6926 -0.0250 -0.0863
14463SOL    HW143944   1.048   4.942   1.680  1.6930 -0.5838 -1.2812
14463SOL    HW243945   1.137   5.058   1.716 -1.8525  1.5955  1.0634
14464SOL     OW43946   2.090   5.212   3.897  0.0119  0.4044 -0.2155
14464SOL    HW143947   2.117   5.122   3.915 -1.2850 -0.3635 -1.8381
14464SOL    HW243948   2.091   5.255   3.982  0.3718 -1.2257  0.6452
14465SOL     OW43949   0.336   6.835   2.634 -0.3274 -0.5470 -0.2332
14465SOL    HW143950   0.380   6.905   2.586 -1.4932  0.1863 -0.2785
14465SOL    HW243951   0.332   6.762   2.572 -0.3184 -0.1773 -0.6775
14466SOL     OW43952   0.062   7.164   6.305 -0.8201  0.2032  0.1534
14466SOL    HW143953   0.149   7.206   6.308 -0.6258 -0.0539 -1.2034
14466SOL    HW243954   0.007   7.219   6.361  0.3902 -0.0687  1.6644
14467SOL     OW43955   6.000   7.506   0.585  0.3624 -0.1203  0.0393
14467SOL    HW143956   6.000   7.508   0.681  1.2904  0.5784  0.0457
14467SOL    HW243957   6.051   7.429   0.562  1.8280  0.7756  0.1443
14468SOL     OW43958   7.359   4.332   4.098  0.3552 -0.3200 -0.1329
14468SOL    HW143959   7.359   4.251   4.047  0.0456  0.3174 -1.1891
14468SOL    HW243960   7.282   4.326   4.155 -2.1893  0.9376 -3.1198
14469SOL     OW43961   0.054   2.502   4.682  0.6682  0.0196 -0.2665
14469SOL    HW143962   0.001   2.554   4.742 -0.9995 -1.9076  0.0540
14469SOL    HW243963   0.122   2.464   4.737 -0.5975 -1.3961  0.4140
14470SOL     OW43964   0.489   2.635   3.490 -0.1805  0.2265  0.3171
14470SOL    HW143965   0.518   2.654   3.400 -0.9978  1.2791  0.2521
14470SOL    HW243966   0.414   2.693   3.503 -0.6894 -0.6368  1.3412
14471SOL     OW43967   2.005   3.182   0.290 -0.1173  0.4855  0.1680
14471SOL    HW143968   2.021   3.104   0.343 -0.3414  1.1843  1.3164
14471SOL    HW243969   2.089   3.228   0.289 -0.0926  0.4339 -0.1533
14472SOL     OW43970   1.366   7.164   7.739 -0.3067 -0.2754  0.1982
14472SOL    HW143971   1.307   7.092   7.717 -0.3429 -0.3696  0.5966
14472SOL    HW243972   1.450   7.139   7.699 -0.3209 -0.5385  0.3327
14473SOL     OW43973   4.792   2.921   5.990 -0.2056 -0.0297  0.2627
14473SOL    HW143974   4.805   2.829   6.013  0.6573  0.1532  0.5391
14473SOL    HW243975   4.868   2.942   5.934 -0.3261  0.5480  0.3140
14474SOL     OW43976   6.298   4.364   6.695 -0.0292  0.0719 -0.3888
14474SOL    HW143977   6.323   4.307   6.767  2.0235 -0.4619 -1.4489
14474SOL    HW243978   6.316   4.313   6.616 -0.7595  1.2057 -1.3278
14475SOL     OW43979   2.762   1.006   5.523 -0.0560 -0.1749  0.1301
14475SOL    HW143980   2.750   1.051   5.607 -0.2980  0.9105 -0.4680
14475SOL    HW243981   2.770   1.077   5.459  0.9060 -0.9757 -0.6670
14476SOL     OW43982   3.020   3.451   4.648 -0.4899  0.2322 -0.2314
14476SOL    HW143983   3.047   3.473   4.559 -0.9929  0.3833 -0.3519
14476SOL    HW243984   2.953   3.383   4.637 -0.7450  0.4412  0.0142
14477SOL     OW43985   4.837   2.275   3.771 -0.3646 -0.1176 -0.1230
14477SOL    HW143986   4.930   2.256   3.787 -0.3840  0.9369  1.4286
14477SOL    HW243987   4.835   2.370   3.759 -1.3968  0.0158  1.0309
14478SOL     OW43988   0.928   1.639   0.460 -0.4722 -0.2606  0.0997
14478SOL    HW143989   0.929   1.574   0.530 -0.8230 -2.0286 -1.4529
14478SOL    HW243990   0.853   1.695   0.479 -0.4517 -0.5990  1.2195
14479SOL     OW43991   0.163   1.232   4.797  0.4287  0.4834  0.2074
14479SOL    HW143992   0.163   1.299   4.865 -1.7207 -0.1626  0.9063
14479SOL    HW243993   0.089   1.255   4.741 -1.1652 -1.9229  1.1827
14480SOL     OW43994   6.546   0.021   3.650  0.6835  0.8940  0.3957
14480SOL    HW143995   6.606   0.014   3.576  0.9528 -0.6237  0.7279
14480SOL    HW243996   6.556  -0.061   3.698  0.6648  1.9049  2.2429
14481SOL     OW43997   0.016   4.792   2.772  0.1226 -0.9628  0.1932
14481SOL    HW143998   0.089   4.817   2.714  0.5242 -0.1788  1.0032
14481SOL    HW243999  -0.036   4.731   2.720 -0.8936  1.5241 -1.9408
14482SOL     OW44000   1.583   3.515   7.170  0.2012  0.1746  0.2185
14482SOL    HW144001   1.548   3.433   7.136  0.8719 -0.3095  0.6630
14482SOL    HW244002   1.509   3.556   7.215 -0.2083 -0.0528 -0.2404
14483SOL     OW44003   1.619   1.074   1.817  0.6029  0.5653 -0.3309
14483SOL    HW144004   1.617   1.003   1.752  2.6110 -0.2007  0.3903
14483SOL    HW244005   1.692   1.053   1.874 -0.3788  1.8674  1.5007
14484SOL     OW44006   6.023   6.006   6.868 -0.0318 -0.0257 -0.0005
14484SOL    HW144007   6.061   6.063   6.934  0.8642 -1.3043  0.6212
14484SOL    HW244008   6.056   5.919   6.889 -2.6259 -1.0785  0.0350
14485SOL     OW44009   4.844   4.840   6.708  0.0993  0.1290  0.0032
14485SOL    HW144010   4.771   4.901   6.713  0.2352  0.2582  0.4711
14485SOL    HW244011   4.904   4.869   6.777 -0.2590 -1.0968  0.8599
14486SOL     OW44012   3.038   4.019   3.359 -0.1494  0.0365  0.1931
14486SOL    HW144013   2.960   4.071   3.378  0.3928  1.2538 -0.7218
14486SOL    HW244014   3.094   4.031   3.435  0.3735  1.6635 -0.3873
14487SOL     OW44015   4.630   7.397   0.274 -0.2601  0.9081 -0.4167
14487SOL    HW144016   4.612   7.331   0.207 -1.7743  1.1491 -0.2949
14487SOL    HW244017   4.639   7.479   0.225 -0.0060  0.8726 -0.4310
14488SOL     OW44018   0.382   5.094   6.679  0.2317  0.2197 -0.6572
14488SOL    HW144019   0.307   5.036   6.665  0.5198 -0.5328  0.7065
14488SOL    HW244020   0.371   5.125   6.769  2.6476 -1.6515  0.4010
14489SOL     OW44021   5.261   2.165   3.564 -0.2938 -0.2604 -0.2787
14489SOL    HW144022   5.196   2.174   3.495 -0.9171  0.5061  0.3931
14489SOL    HW244023   5.263   2.251   3.606 -0.4503 -0.9162  1.1161
14490SOL     OW44024   3.308   4.068   2.391 -0.4531  0.0083  0.2274
14490SOL    HW144025   3.396   4.106   2.395 -0.3653 -0.2313  0.5962
14490SOL    HW244026   3.266   4.097   2.471 -0.8521  0.4547 -0.1371
14491SOL     OW44027   1.500   0.652   4.907 -0.6939 -0.2472  0.1749
14491SOL    HW144028   1.557   0.617   4.975 -0.5336  0.4362  0.3979
14491SOL    HW244029   1.418   0.603   4.917 -0.9972  0.4723  1.4718
14492SOL     OW44030   2.215   5.214   1.295  0.0484 -0.6952 -0.0774
14492SOL    HW144031   2.204   5.268   1.217 -0.3162 -0.7795 -0.0852
14492SOL    HW244032   2.181   5.269   1.366 -0.2574 -0.8818 -0.0754
14493SOL     OW44033   2.628   5.936   0.594  0.0283 -0.0501 -0.2057
14493SOL    HW144034   2.649   5.977   0.679  1.7139  0.7613 -0.9535
14493SOL    HW244035   2.660   5.846   0.603  0.3468  0.0764 -0.0252
14494SOL     OW44036   1.043   0.232   7.342  0.2810  0.2505 -0.2031
14494SOL    HW144037   1.019   0.219   7.434 -0.4511  0.1039 -0.4098
14494SOL    HW244038   0.999   0.313   7.317  0.5703  0.3497 -0.3984
14495SOL     OW44039   2.704   2.558   5.732  0.3142  0.4363  0.1918
14495SOL    HW144040   2.767   2.617   5.690  2.5302 -1.2144  1.0012
14495SOL    HW244041   2.719   2.569   5.826 -0.0004 -0.5798  0.3766
14496SOL     OW44042   1.643   1.798   1.572  0.4068 -0.4764  0.0415
14496SOL    HW144043   1.661   1.716   1.617 -0.0337 -0.3465  0.4736
14496SOL    HW244044   1.723   1.849   1.581  1.3259 -1.5048 -1.7383
14497SOL     OW44045   5.100   0.262   4.043  0.1830 -0.3820 -0.2450
14497SOL    HW144046   5.054   0.292   4.121  1.0715 -1.3568  0.6789
14497SOL    HW244047   5.042   0.285   3.971 -2.4073 -2.7115  0.9375
14498SOL     OW44048   0.563   3.847   7.617  0.1658 -0.8587 -0.7776
14498SOL    HW144049   0.643   3.806   7.649  0.8812  0.4372 -0.8492
14498SOL    HW244050   0.493   3.794   7.654  1.0043 -0.6391  1.2157
14499SOL     OW44051   7.548   1.356   5.872  0.6874 -0.1536 -0.2687
14499SOL    HW144052   7.531   1.423   5.805 -1.8894 -0.9024 -0.4736
14499SOL    HW244053   7.562   1.406   5.952 -0.3200  0.6629 -0.5847
14500SOL     OW44054   2.381   6.660   1.666 -0.0888 -0.3661 -0.0861
14500SOL    HW144055   2.344   6.617   1.588  1.2726 -1.2862 -0.2696
14500SOL    HW244056   2.443   6.723   1.630 -1.0741  0.8087  0.2265
14501SOL     OW44057   3.883   2.261   2.425 -0.2610 -0.4903 -0.0686
14501SOL    HW144058   3.950   2.232   2.487 -0.7377 -1.2195  0.1233
14501SOL    HW244059   3.809   2.287   2.479 -0.6275 -0.9886 -0.3227
14502SOL     OW44060   6.118   0.754   5.940  0.2493 -0.0138  0.5560
14502SOL    HW144061   6.129   0.669   5.982  0.9620 -0.7673 -1.0643
14502SOL    HW244062   6.204   0.795   5.943  0.4130 -0.2549 -0.4976
14503SOL     OW44063   0.878   4.440   5.877 -0.1118  0.5194 -0.0472
14503SOL    HW144064   0.899   4.354   5.913 -3.2749 -0.4566 -0.2632
14503SOL    HW244065   0.936   4.501   5.924  2.3623 -1.6688 -0.0521
14504SOL     OW44066   2.905   4.538   4.074 -0.3692 -0.3909 -0.3844
14504SOL    HW144067   2.892   4.444   4.087  0.5665 -0.5805 -0.7350
14504SOL    HW244068   2.835   4.564   4.015 -0.2861 -0.9924 -0.7600
14505SOL     OW44069   4.075   6.563   2.630  0.1947  0.4427 -0.4899
14505SOL    HW144070   4.101   6.517   2.710  0.0194  0.1094 -0.6234
14505SOL    HW244071   4.147   6.624   2.613  0.9107 -0.4831 -0.8723
14506SOL     OW44072   5.613   5.405   2.955 -0.1346  0.1732  0.1327
14506SOL    HW144073   5.597   5.441   2.868 -1.8231  0.2098  0.4294
14506SOL    HW244074   5.708   5.400   2.962  0.1851  3.1996 -0.4997
14507SOL     OW44075   4.152   6.371   5.878  0.1700  0.3783 -0.3205
14507SOL    HW144076   4.162   6.328   5.963  1.1604  0.0396 -0.5854
14507SOL    HW244077   4.071   6.334   5.842 -0.4197  0.7471  0.5879
14508SOL     OW44078   6.970   1.508   1.587 -0.0087  0.0576 -0.2939
14508SOL    HW144079   6.929   1.423   1.606 -1.6998  0.4576 -1.8196
14508SOL    HW244080   6.939   1.529   1.499  0.0470  2.4619  0.2168
14509SOL     OW44081   1.099   0.312   0.009  0.2118 -0.1910 -0.3023
14509SOL    HW144082   1.168   0.259   0.047  0.1832  0.1325  0.2079
14509SOL    HW244083   1.144   0.388  -0.027  0.2240 -0.4336 -0.8032
14510SOL     OW44084   4.414   2.362   1.204 -0.1422 -0.2048 -0.3302
14510SOL    HW144085   4.397   2.296   1.271 -2.0489  0.4260 -0.1117
14510SOL    HW244086   4.328   2.378   1.165  0.1385  2.5023 -0.0332
14511SOL     OW44087   0.774   2.683   3.781 -0.2232 -0.1583 -0.5382
14511SOL    HW144088   0.819   2.620   3.836  1.5982  0.2461 -1.4921
14511SOL    HW244089   0.748   2.753   3.841 -0.0549 -0.6484  0.1185
14512SOL     OW44090   6.727   7.235   2.531  0.1994  0.2364 -0.0018
14512SOL    HW144091   6.636   7.261   2.512 -0.0479  0.0988  0.9237
14512SOL    HW244092   6.771   7.317   2.550  0.6784  0.4840 -1.9378
14513SOL     OW44093   4.873   3.212   7.211 -0.1402 -0.0056  0.2952
14513SOL    HW144094   4.898   3.222   7.119 -1.4788  0.8176 -0.0143
14513SOL    HW244095   4.953   3.231   7.260 -0.0361  2.3626 -0.6431
14514SOL     OW44096   0.299   2.821   3.558  0.7262  0.5963  0.3469
14514SOL    HW144097   0.225   2.773   3.595  0.7035  1.3404  1.2891
14514SOL    HW244098   0.326   2.880   3.627  0.7977  1.9048 -0.7576
14515SOL     OW44099   3.133   6.003   3.125  0.0881 -0.6857  0.5502
14515SOL    HW144100   3.108   5.923   3.080 -1.7564  0.1892 -0.0909
14515SOL    HW244101   3.183   6.053   3.061 -2.3914  0.4839 -0.6130
14516SOL     OW44102   3.192   3.630   2.939  0.3826  0.1849 -0.5186
14516SOL    HW144103   3.266   3.569   2.939  0.7709  0.6260  0.7946
14516SOL    HW244104   3.162   3.633   3.030 -0.1482  1.3210 -0.7018
14517SOL     OW44105   7.574   7.073   6.185  0.6364  0.0682 -0.2089
14517SOL    HW144106   7.664   7.065   6.153  0.8891  0.8436  0.2927
14517SOL    HW244107   7.580   7.129   6.262 -0.0129 -1.4165  0.9814
14518SOL     OW44108   3.063   5.980   4.437 -0.3732  0.3469  0.3580
14518SOL    HW144109   3.040   5.893   4.470 -1.0735  0.0988 -0.7261
14518SOL    HW244110   3.014   6.040   4.493  0.7063  0.1121  1.6069
14519SOL     OW44111   2.544   1.168   1.945 -0.4323 -0.3087  0.0099
14519SOL    HW144112   2.592   1.146   2.025  0.6942  0.4536 -0.4257
14519SOL    HW244113   2.580   1.110   1.878 -0.3303  0.0418 -0.2471
14520SOL     OW44114   1.444   6.989   6.096 -0.2693 -0.3109 -0.2763
14520SOL    HW144115   1.353   6.983   6.066 -0.7350  1.0573  0.7492
14520SOL    HW244116   1.438   6.989   6.192  0.7381  0.6814 -0.1943
14521SOL     OW44117   4.819   4.881   5.401  0.9157  0.4392 -0.4708
14521SOL    HW144118   4.813   4.972   5.431  1.2461  0.4820 -0.5286
14521SOL    HW244119   4.728   4.856   5.382  0.8127  0.7265 -0.3665
14522SOL     OW44120   6.627   3.912   1.749  0.1211 -0.4740 -0.0217
14522SOL    HW144121   6.618   3.983   1.686 -1.0195  1.4820  2.2103
14522SOL    HW244122   6.619   3.832   1.697 -0.7383  1.0374 -2.3311
14523SOL     OW44123   3.116   1.754   0.313  0.2835 -0.1616 -0.0502
14523SOL    HW144124   3.056   1.727   0.383  1.0022 -0.1641  0.5703
14523SOL    HW244125   3.156   1.834   0.346  0.7737 -0.2759 -0.3734
14524SOL     OW44126   4.459   6.988   6.439  0.0424 -0.7586  0.0659
14524SOL    HW144127   4.457   7.023   6.350 -0.3743 -1.3412 -0.1606
14524SOL    HW244128   4.445   6.894   6.428 -0.8821 -0.7184  0.8127
14525SOL     OW44129   5.169   4.343   7.670  0.0680 -0.3796  0.1775
14525SOL    HW144130   5.114   4.292   7.611  0.7352 -0.3146 -0.5246
14525SOL    HW244131   5.259   4.324   7.640  0.3268  1.5145 -0.3803
14526SOL     OW44132   4.296   3.964   5.003 -0.2790  0.0239 -0.5550
14526SOL    HW144133   4.349   3.957   4.924  0.6596  1.5950 -0.0975
14526SOL    HW244134   4.359   3.980   5.073 -1.2630  0.8252  0.1767
14527SOL     OW44135   2.958   4.734   1.905  0.6884  0.2700 -0.0702
14527SOL    HW144136   2.973   4.642   1.925  1.4349  0.8107  2.2207
14527SOL    HW244137   2.866   4.749   1.928  0.8201  0.2864  0.4618
14528SOL     OW44138   0.207   7.708   6.421 -0.0612 -0.1631  0.1231
14528SOL    HW144139   0.115   7.712   6.446 -0.6216  0.4660 -1.8827
14528SOL    HW244140   0.222   7.618   6.395 -0.3903 -0.0417 -0.4994
14529SOL     OW44141   4.401   5.004   4.187 -0.6175 -0.2230 -0.1037
14529SOL    HW144142   4.345   4.954   4.245  0.4174 -0.5969  0.5904
14529SOL    HW244143   4.351   5.085   4.170 -1.0898 -0.2622  1.0090
14530SOL     OW44144   0.412   0.495   5.008 -0.8155  0.8168 -0.3627
14530SOL    HW144145   0.468   0.522   5.082 -1.0260 -1.4246  0.7011
14530SOL    HW244146   0.470   0.445   4.951 -1.3711 -0.2595 -0.0098
14531SOL     OW44147   2.457   2.483   3.831  0.5080 -0.2663  0.1491
14531SOL    HW144148   2.534   2.506   3.882  0.3925  0.1799  0.1252
14531SOL    HW244149   2.481   2.504   3.741  0.3108  0.0086  0.1589
14532SOL     OW44150   1.266   5.197   5.724 -0.0496  0.5437 -0.6231
14532SOL    HW144151   1.357   5.226   5.713  0.4629  0.3764  2.4204
14532SOL    HW244152   1.220   5.276   5.752 -0.3304  0.1472  0.0496
14533SOL     OW44153   0.999   6.343   4.160 -0.9647 -0.2028  0.1025
14533SOL    HW144154   0.904   6.343   4.175 -1.0907  1.6025 -0.4789
14533SOL    HW244155   1.035   6.395   4.232 -0.5627  0.2378 -0.4078
14534SOL     OW44156   4.448   5.768   3.474  0.3378  0.4792 -0.1862
14534SOL    HW144157   4.398   5.754   3.555 -1.3205  0.2246 -1.2125
14534SOL    HW244158   4.504   5.843   3.493  1.7656 -1.0069  1.9846
14535SOL     OW44159   3.597   4.466   7.152 -0.6336  0.0296 -0.0672
14535SOL    HW144160   3.567   4.384   7.191 -0.0359 -1.6160 -2.8298
14535SOL    HW244161   3.518   4.506   7.115 -0.7516  0.1976  0.3537
14536SOL     OW44162   4.237   2.651   2.102  0.5195  0.3286 -0.1205
14536SOL    HW144163   4.317   2.653   2.156  0.2780 -0.6397  0.2831
14536SOL    HW244164   4.167   2.671   2.164  0.5496  2.6318 -0.7373
14537SOL     OW44165   0.926   2.051   0.486 -0.2579  0.1490  0.0236
14537SOL    HW144166   0.886   2.044   0.400  0.0711  1.2383 -0.2290
14537SOL    HW244167   0.887   2.129   0.525  0.5342  0.3958  0.3471
14538SOL     OW44168   7.060   5.997   6.680 -0.2498 -0.0454 -0.4404
14538SOL    HW144169   7.099   6.079   6.649  1.1625 -0.2748  0.6304
14538SOL    HW244170   7.097   5.984   6.767 -1.1871 -1.3511 -0.1988
14539SOL     OW44171   6.206   7.489   6.869  0.0955 -0.1156 -0.2513
14539SOL    HW144172   6.147   7.446   6.930  0.2117 -2.1033 -1.4401
14539SOL    HW244173   6.149   7.544   6.815 -0.4730 -0.9123 -0.4708
14540SOL     OW44174   3.054   6.111   4.035  0.0238  0.0011  0.2138
14540SOL    HW144175   3.027   6.019   4.039  0.3619 -0.1518 -0.7230
14540SOL    HW244176   3.014   6.151   4.111 -1.0816 -0.6751  0.0082
14541SOL     OW44177   2.789   7.115   2.929 -0.7238  0.1924  0.7978
14541SOL    HW144178   2.708   7.065   2.933 -0.8690  0.4888  2.5407
14541SOL    HW244179   2.786   7.171   3.007  0.4311  1.3370  0.0586
14542SOL     OW44180   2.593   6.270   5.957  0.6640  0.2165 -0.1032
14542SOL    HW144181   2.625   6.214   5.886 -0.5799 -0.1784 -0.3674
14542SOL    HW244182   2.528   6.327   5.916 -2.6777 -2.3038  1.2583
14543SOL     OW44183   6.738   1.967   4.240 -0.1747  0.4278  0.0734
14543SOL    HW144184   6.807   2.030   4.260  1.0418 -1.2169  1.3568
14543SOL    HW244185   6.739   1.906   4.314 -0.9042 -1.4296 -1.3564
14544SOL     OW44186   1.536   5.890   2.205 -0.2607  0.0558  0.3667
14544SOL    HW144187   1.465   5.825   2.203 -1.7732  1.5729  1.9229
14544SOL    HW244188   1.610   5.845   2.163 -1.8809 -1.8688 -0.6008
14545SOL     OW44189   5.260   7.115   2.984  0.2615  0.0549 -0.1537
14545SOL    HW144190   5.302   7.149   3.063 -0.1368  0.1877  0.0007
14545SOL    HW244191   5.313   7.039   2.960 -0.6624 -1.1145  1.2909
14546SOL     OW44192   7.681   2.140   5.309  0.3551  0.2518 -0.1259
14546SOL    HW144193   7.595   2.178   5.325  1.3196  2.3696  0.3926
14546SOL    HW244194   7.684   2.064   5.367 -1.2530 -0.0357 -0.3649
14547SOL     OW44195   0.421   2.798   2.280 -0.0461 -0.0697  0.1664
14547SOL    HW144196   0.326   2.790   2.273 -0.0025 -0.9395  0.5206
14547SOL    HW244197   0.455   2.719   2.238  0.5448  0.5271 -0.5005
14548SOL     OW44198   4.695   0.906   3.754 -0.0647 -0.4084  0.1983
14548SOL    HW144199   4.610   0.911   3.710  1.2197 -2.9202 -3.0027
14548SOL    HW244200   4.708   0.993   3.791 -3.3823  0.4787 -0.3750
14549SOL     OW44201   3.834   5.873   3.811 -0.9020 -0.3541  0.3321
14549SOL    HW144202   3.793   5.838   3.732 -0.3189  0.4076 -0.3310
14549SOL    HW244203   3.761   5.896   3.868 -1.3721  0.0068 -0.3937
14550SOL     OW44204   5.273   7.605   5.964 -0.6855 -0.2328 -0.1353
14550SOL    HW144205   5.331   7.567   5.897  0.6448  0.7393  0.4164
14550SOL    HW244206   5.243   7.687   5.925 -0.7610 -0.1800  0.0336
14551SOL     OW44207   4.311   0.646   5.322  0.3878 -0.2575  0.4829
14551SOL    HW144208   4.278   0.690   5.400 -1.2031 -0.0723 -0.2372
14551SOL    HW244209   4.266   0.690   5.249  1.2217 -0.9376 -0.4748
14552SOL     OW44210   3.118   6.820   7.148 -0.2414  0.4590 -0.1531
14552SOL    HW144211   3.038   6.863   7.180  0.3785  1.3825  0.1907
14552SOL    HW244212   3.164   6.792   7.226 -0.3974 -0.4291 -0.3631
14553SOL     OW44213   3.842   0.988   6.715 -0.0870  0.0099 -0.0143
14553SOL    HW144214   3.892   0.994   6.796 -0.8677  0.5945  0.4356
14553SOL    HW244215   3.769   1.049   6.727 -1.1765 -1.1550 -0.4761
14554SOL     OW44216   5.159   3.944   3.743  0.3482  0.5445  0.0046
14554SOL    HW144217   5.105   3.991   3.807  0.7969 -0.3253  1.0533
14554SOL    HW244218   5.114   3.958   3.659 -2.8133 -1.8874  1.0816
14555SOL     OW44219   3.005   3.349   2.923  0.5063 -0.7997 -0.3229
14555SOL    HW144220   2.991   3.405   2.847 -2.1983 -2.3955 -1.1476
14555SOL    HW244221   3.059   3.277   2.891 -0.2007 -1.2034 -0.6378
14556SOL     OW44222   1.078   1.604   2.857 -0.2497 -0.0062  0.2137
14556SOL    HW144223   1.159   1.565   2.824 -0.6158  0.3518 -1.1583
14556SOL    HW244224   1.061   1.678   2.798 -1.7662 -0.2955  0.2510
14557SOL     OW44225   6.723   6.725   4.886 -0.0386  0.5013  0.1621
14557SOL    HW144226   6.740   6.632   4.895  0.4461  0.4132 -1.3414
14557SOL    HW244227   6.741   6.762   4.972  2.5675 -0.3829  0.0859
14558SOL     OW44228   4.847   3.186   2.051 -0.2654  0.1836  0.1027
14558SOL    HW144229   4.859   3.127   2.125  1.7939  0.3252 -0.0594
14558SOL    HW244230   4.908   3.258   2.068  1.9464 -0.8440 -2.7405
14559SOL     OW44231   2.528   4.164   0.464  0.3623  0.1812  0.0363
14559SOL    HW144232   2.527   4.259   0.455  1.9057  0.3036  0.8043
14559SOL    HW244233   2.499   4.132   0.378 -2.6442  1.2821  0.5143
14560SOL     OW44234   3.924   0.544   3.342  0.4531 -0.3671  0.5617
14560SOL    HW144235   3.854   0.569   3.403 -2.0597 -0.6236 -1.9969
14560SOL    HW244236   3.987   0.497   3.396 -0.4631  1.3256  3.3382
14561SOL     OW44237   2.061   0.843   7.090 -0.3258  0.6876 -0.0101
14561SOL    HW144238   2.024   0.783   7.154  0.1183  0.2327 -0.1790
14561SOL    HW244239   2.062   0.928   7.134  0.5009  0.2727  0.7820
14562SOL     OW44240   5.309   4.532   4.561 -0.2452  0.3515 -0.2977
14562SOL    HW144241   5.235   4.473   4.576 -0.7861  1.0687 -0.1110
14562SOL    HW244242   5.386   4.478   4.577 -0.7476 -0.0428  0.9124
14563SOL     OW44243   1.084   1.053   1.272 -0.4440  0.1132 -0.4963
14563SOL    HW144244   1.045   1.003   1.344  1.3118 -0.3503  0.1870
14563SOL    HW244245   1.059   1.144   1.289 -1.1777 -0.1661 -0.0632
14564SOL     OW44246   6.401   0.962   3.786  0.5534 -0.3957  0.1774
14564SOL    HW144247   6.419   0.964   3.692  0.6422 -0.6637  0.1874
14564SOL    HW244248   6.430   1.048   3.818 -0.0449 -0.0766 -0.1403
14565SOL     OW44249   6.486   2.463   2.998  0.1977 -1.0498  0.7215
14565SOL    HW144250   6.494   2.461   3.094 -0.8297 -2.0591  0.8104
14565SOL    HW244251   6.409   2.519   2.982  0.9834 -0.0179  0.4107
14566SOL     OW44252   2.240   5.557   2.272 -0.1249  0.5306 -0.2547
14566SOL    HW144253   2.176   5.531   2.207 -0.5408 -0.7532  0.6264
14566SOL    HW244254   2.225   5.651   2.285 -1.5660  0.3270 -0.3427
14567SOL     OW44255   3.451   1.429   0.179  0.1839 -0.3000  0.0983
14567SOL    HW144256   3.397   1.504   0.155  1.2089  0.6766  0.7454
14567SOL    HW244257   3.511   1.463   0.245  0.1351 -1.8992  1.0278
14568SOL     OW44258   0.580   5.063   3.802 -0.2873  0.2106 -0.2704
14568SOL    HW144259   0.556   4.973   3.780  1.0108  0.0391 -1.1130
14568SOL    HW244260   0.633   5.055   3.881  0.1162  0.1958 -0.5411
14569SOL     OW44261   0.466   4.617   3.730 -0.0564  0.0853  0.4584
14569SOL    HW144262   0.556   4.637   3.703 -0.1136 -1.6197 -1.1818
14569SOL    HW244263   0.429   4.702   3.754  1.3620  1.1302 -0.8386
14570SOL     OW44264   4.956   0.475   0.871 -0.0942  0.8689  0.1298
14570SOL    HW144265   5.019   0.546   0.872  1.3898 -0.3307  2.3556
14570SOL    HW244266   4.933   0.463   0.963 -0.7117 -1.1343 -0.2375
14571SOL     OW44267   4.007   6.861   3.862 -0.6266 -0.4522 -0.0535
14571SOL    HW144268   3.919   6.835   3.835 -0.3313 -0.4190 -1.0839
14571SOL    HW244269   4.059   6.860   3.782 -0.0663  1.1255  0.2487
14572SOL     OW44270   7.481   3.411   4.392  0.0198  0.2279  0.2446
14572SOL    HW144271   7.483   3.347   4.321  0.6010 -0.5876  0.9575
14572SOL    HW244272   7.397   3.396   4.436  0.9672 -1.4867  1.6198
14573SOL     OW44273   6.714   2.523   1.303  0.2128 -0.7043  0.4100
14573SOL    HW144274   6.668   2.443   1.328 -0.9609 -0.3904 -0.6157
14573SOL    HW244275   6.647   2.577   1.260  1.6619 -0.5154 -1.7824
14574SOL     OW44276   0.930   3.956   6.331  0.3142 -0.0554 -0.3583
14574SOL    HW144277   0.977   3.887   6.283 -0.7183  0.2407 -1.8770
14574SOL    HW244278   0.859   3.981   6.272 -0.0327  1.4959  0.6692
14575SOL     OW44279   1.844   7.459   4.094  0.3606 -0.3575 -0.2106
14575SOL    HW144280   1.806   7.544   4.069 -0.2532 -0.7833 -0.7568
14575SOL    HW244281   1.898   7.479   4.170  0.1066  0.5022 -0.2411
14576SOL     OW44282   1.716   0.720   5.606 -0.3700  0.2139  0.2861
14576SOL    HW144283   1.697   0.626   5.605  1.5560 -0.2282 -0.9208
14576SOL    HW244284   1.700   0.748   5.516 -0.4966  0.9452  0.5313
14577SOL     OW44285   1.555   6.626   7.512  0.1698 -0.4092 -0.5389
14577SOL    HW144286   1.474   6.626   7.461 -1.3333 -0.3531  1.7113
14577SOL    HW244287   1.587   6.716   7.507 -0.8554 -0.0089 -0.0728
14578SOL     OW44288   0.379   4.273   6.154 -0.7885  0.3883 -0.0437
14578SOL    HW144289   0.295   4.232   6.175 -0.6877 -0.0813 -0.5140
14578SOL    HW244290   0.389   4.344   6.218 -2.0266  1.1186 -0.6399
14579SOL     OW44291   7.084   2.183   2.068 -0.0910  0.0522 -0.2829
14579SOL    HW144292   7.094   2.122   1.995  1.7594  0.7333 -0.6743
14579SOL    HW244293   7.158   2.162   2.126  0.2304  1.4937 -0.1352
14580SOL     OW44294   0.101   4.929   5.955 -0.2408 -0.2324  0.3285
14580SOL    HW144295   0.081   4.846   5.999  1.3151 -0.4213  0.7294
14580SOL    HW244296   0.191   4.949   5.982  0.2689  0.3525 -1.6735
14581SOL     OW44297   1.453   5.227   3.504 -0.7204  0.3173 -0.2672
14581SOL    HW144298   1.503   5.306   3.487  0.0614 -0.2898 -0.8150
14581SOL    HW244299   1.413   5.205   3.420  1.7188 -1.6842 -1.0298
14582SOL     OW44300   2.072   1.224   2.121  0.3017  0.3877  0.5799
14582SOL    HW144301   2.097   1.280   2.047  0.3089 -0.3960 -0.0226
14582SOL    HW244302   2.148   1.167   2.134 -0.3709 -0.6468  0.0519
14583SOL     OW44303   4.905   6.011   1.300 -0.6761  0.9175 -0.3187
14583SOL    HW144304   4.892   6.067   1.376  1.3433  1.3583 -0.2214
14583SOL    HW244305   4.980   5.956   1.324 -1.2177 -0.2902 -1.2699
14584SOL     OW44306   6.967   4.238   2.188  0.1992  0.2313 -0.1960
14584SOL    HW144307   6.941   4.314   2.136 -1.2519 -0.2098 -0.1666
14584SOL    HW244308   6.894   4.176   2.178  1.6823 -1.5154 -0.8986
14585SOL     OW44309   2.095   5.612   6.113 -0.0592  0.3110 -0.0029
14585SOL    HW144310   2.018   5.635   6.163  0.5450  1.1497  0.5567
14585SOL    HW244311   2.165   5.668   6.147  0.9032 -0.7170 -0.2050
14586SOL     OW44312   6.784   5.416   5.022 -0.1066 -0.6680 -0.6930
14586SOL    HW144313   6.803   5.332   5.063 -1.6064  0.0215  1.5971
14586SOL    HW244314   6.869   5.461   5.018  0.2202 -1.0983  0.9475
14587SOL     OW44315   0.219   6.607   0.912 -0.9239  0.4862 -0.4150
14587SOL    HW144316   0.134   6.647   0.895 -0.4387  1.6495 -0.1622
14587SOL    HW244317   0.279   6.650   0.851 -1.0100 -2.5315 -2.8802
14588SOL     OW44318   5.424   5.469   0.443  0.5713 -0.3920  0.3637
14588SOL    HW144319   5.379   5.553   0.449  1.2552 -0.0922  1.4943
14588SOL    HW244320   5.391   5.418   0.517  1.0798 -0.6551  0.4161
14589SOL     OW44321   3.018   1.331   3.148 -0.5820  0.2336 -0.2415
14589SOL    HW144322   3.007   1.339   3.242  0.6425  2.4753 -0.2149
14589SOL    HW244323   3.112   1.342   3.133 -0.7410 -0.1136 -1.7302
14590SOL     OW44324   5.980   7.380   5.346 -0.0723  0.1197  0.2224
14590SOL    HW144325   5.954   7.388   5.254 -1.5003 -0.4615  0.5509
14590SOL    HW244326   5.919   7.436   5.393  0.1101 -0.2367  0.8992
14591SOL     OW44327   4.878   1.532   1.113  0.6854  0.1441 -0.0038
14591SOL    HW144328   4.867   1.500   1.023  1.7952  1.1152 -0.5058
14591SOL    HW244329   4.847   1.460   1.167  0.0737 -0.4983 -1.1569
14592SOL     OW44330   7.593   7.452   6.030  0.1827 -0.4869  0.3452
14592SOL    HW144331   7.549   7.427   6.112 -0.0047 -0.9561  0.1098
14592SOL    HW244332   7.548   7.531   6.002  0.1550 -0.4029  0.6279
14593SOL     OW44333   3.452   3.843   2.725  0.4732  0.5260  0.5935
14593SOL    HW144334   3.532   3.895   2.716  0.6175  0.1907 -0.1088
14593SOL    HW244335   3.390   3.901   2.769  1.0389  0.8537  0.9699
14594SOL     OW44336   6.959   3.538   1.423  0.0975 -0.2507  0.2641
14594SOL    HW144337   6.977   3.609   1.361 -0.2486 -0.7748 -0.4540
14594SOL    HW244338   6.898   3.481   1.376 -0.8773 -0.2024  1.4172
14595SOL     OW44339   2.279   5.948   4.643 -0.4021 -0.3963 -0.0896
14595SOL    HW144340   2.270   5.856   4.669 -0.9016 -0.0637  0.9638
14595SOL    HW244341   2.202   5.964   4.588 -0.8407 -0.3469  0.5295
14596SOL     OW44342   6.483   6.703   5.510 -0.0656 -0.3644  0.6387
14596SOL    HW144343   6.555   6.708   5.573  1.4028 -2.1810 -0.7817
14596SOL    HW244344   6.450   6.614   5.518  0.8273 -0.9928 -1.7702
14597SOL     OW44345   6.024   6.993   2.589  0.0648 -0.0808  0.3005
14597SOL    HW144346   5.932   6.980   2.613 -1.0232  1.0854 -2.8063
14597SOL    HW244347   6.025   7.075   2.540  2.6065 -0.5895 -0.6442
14598SOL     OW44348   5.840   5.589   5.208 -0.3636  0.2900 -0.6348
14598SOL    HW144349   5.821   5.564   5.118 -1.2766  0.5131 -0.5164
14598SOL    HW244350   5.855   5.683   5.205 -0.4912  0.3142 -0.5412
14599SOL     OW44351   1.544   4.342   3.860 -0.5856  0.2657  0.3892
14599SOL    HW144352   1.497   4.355   3.778  0.4205 -0.8670 -0.4027
14599SOL    HW244353   1.488   4.283   3.911 -0.5534 -0.1756 -0.0800
14600SOL     OW44354   7.120   3.174   3.876 -0.4782 -0.0936 -0.3513
14600SOL    HW144355   7.068   3.247   3.908 -1.2891 -1.8085  2.6476
14600SOL    HW244356   7.197   3.214   3.837 -0.7728  2.3785  1.3977
14601SOL     OW44357   4.878   5.699   2.687 -0.4242  0.4009  0.8251
14601SOL    HW144358   4.878   5.613   2.727 -0.5550 -0.1006 -0.2045
14601SOL    HW244359   4.814   5.693   2.616 -0.7331  1.4672  0.9834
14602SOL     OW44360   5.678   2.942   4.795 -0.2174  0.4053 -0.7790
14602SOL    HW144361   5.612   2.908   4.735  0.8398 -1.0454 -1.1909
14602SOL    HW244362   5.663   3.036   4.798 -3.1681  0.0074  0.2331
14603SOL     OW44363   5.991   1.279   0.867  0.0610  0.5143  0.1865
14603SOL    HW144364   5.944   1.336   0.806  0.1699  0.5846  0.1693
14603SOL    HW244365   6.004   1.334   0.945 -0.4975  0.2786  0.4566
14604SOL     OW44366   0.881   4.773   0.357  0.1335  0.1559 -0.2843
14604SOL    HW144367   0.903   4.860   0.325 -0.9227  0.5260 -0.0318
14604SOL    HW244368   0.853   4.787   0.447  1.8105 -0.7102  0.4334
14605SOL     OW44369   4.088   3.197   6.948  0.0835 -0.5225 -0.3029
14605SOL    HW144370   4.039   3.144   6.885  2.0283 -1.0589 -1.4540
14605SOL    HW244371   4.121   3.271   6.897  1.2717 -0.6922  0.1758
14606SOL     OW44372   5.030   3.289   6.102  0.0120  0.2876 -0.1271
14606SOL    HW144373   4.981   3.366   6.130  1.2337  0.3254  2.1619
14606SOL    HW244374   5.119   3.322   6.087 -0.3038  0.0311 -3.1664
14607SOL     OW44375   3.087   0.316   1.243  0.5580 -0.1199 -0.2801
14607SOL    HW144376   2.991   0.322   1.247  0.5418 -1.1160  1.7735
14607SOL    HW244377   3.117   0.335   1.331  2.1362 -1.5712 -0.4396
14608SOL     OW44378   4.572   5.964   4.014 -0.0281 -0.2419  0.1071
14608SOL    HW144379   4.645   6.025   4.026 -0.2217  0.1432 -0.6020
14608SOL    HW244380   4.537   5.951   4.102  0.2084  0.4360  0.3122
14609SOL     OW44381   0.505   0.539   3.758  0.7705 -0.2505  0.0059
14609SOL    HW144382   0.446   0.464   3.747  0.1946  0.2082 -0.0813
14609SOL    HW244383   0.464   0.609   3.708 -0.0212  0.8595  2.1056
14610SOL     OW44384   7.420   1.756   4.961  0.0244  0.0339 -0.4114
14610SOL    HW144385   7.339   1.709   4.940  0.3237 -0.8766  0.3932
14610SOL    HW244386   7.391   1.837   5.002 -0.4937  0.2997 -1.2832
14611SOL     OW44387   0.019   0.915   1.518  0.2821  0.5387 -0.1092
14611SOL    HW144388   0.003   0.874   1.603 -0.1870 -0.4823 -0.6659
14611SOL    HW244389  -0.033   0.863   1.456 -1.1445  2.5705 -0.7415
14612SOL     OW44390   5.608   3.624   6.538 -0.2871 -0.6686 -0.1530
14612SOL    HW144391   5.607   3.689   6.608 -1.2205 -0.2439 -0.5457
14612SOL    HW244392   5.687   3.573   6.554 -0.5313 -0.6469  1.2808
14613SOL     OW44393   5.900   2.559   5.755  0.3158 -0.3117  0.2901
14613SOL    HW144394   5.945   2.573   5.838  0.8548 -1.2302  0.1636
14613SOL    HW244395   5.951   2.491   5.710 -0.3655 -0.3339 -0.4849
14614SOL     OW44396   2.426   2.099   5.261  0.2219 -0.4949 -0.2226
14614SOL    HW144397   2.426   2.194   5.256 -1.3543 -0.4546  0.2345
14614SOL    HW244398   2.343   2.072   5.222  0.2405 -1.6246  0.4715
14615SOL     OW44399   3.710   6.495   7.636 -0.5154 -0.3131  0.0775
14615SOL    HW144400   3.774   6.429   7.661 -0.7082 -0.6618 -0.3377
14615SOL    HW244401   3.746   6.577   7.671  0.0508 -0.5333  0.0274
14616SOL     OW44402   5.664   0.185   4.709 -0.3042 -0.3573  0.2045
14616SOL    HW144403   5.663   0.229   4.624 -0.5414 -2.8516 -1.1959
14616SOL    HW244404   5.577   0.198   4.744  0.1134  1.5825  0.5887
14617SOL     OW44405   2.217   5.298   4.139 -0.3389 -0.3244  0.3239
14617SOL    HW144406   2.296   5.346   4.163 -0.3029 -1.4899  2.8180
14617SOL    HW244407   2.244   5.242   4.066  0.8503  0.0512  0.4513
14618SOL     OW44408   4.097   3.829   3.555 -0.1149  0.9918  0.2402
14618SOL    HW144409   4.077   3.822   3.462 -0.0406  1.0241  0.2219
14618SOL    HW244410   4.086   3.741   3.589 -1.0163  1.1486  0.3734
14619SOL     OW44411   7.047   1.613   6.534 -0.2845  0.5247 -0.4400
14619SOL    HW144412   7.070   1.532   6.578 -0.3936  0.4114 -0.5890
14619SOL    HW244413   7.121   1.672   6.550  0.9553 -0.3912 -2.3766
14620SOL     OW44414   0.647   2.624   4.877  0.3254  0.0359  0.2058
14620SOL    HW144415   0.672   2.572   4.801 -1.6718  0.2791 -0.6815
14620SOL    HW244416   0.655   2.564   4.952  3.0736  0.0145 -0.0058
14621SOL     OW44417   6.311   3.358   1.444 -0.7340 -0.2836  0.4082
14621SOL    HW144418   6.302   3.436   1.389  0.8785  0.9377  1.7256
14621SOL    HW244419   6.330   3.287   1.383  2.1338  1.2179 -0.6772
14622SOL     OW44420   1.219   5.981   2.223  0.6714  0.6514 -0.5611
14622SOL    HW144421   1.124   5.975   2.211  0.6862  0.8618 -0.8143
14622SOL    HW244422   1.245   5.896   2.257  0.5877  0.0651 -1.8900
14623SOL     OW44423   0.024   3.610   2.801  0.0310  0.1875 -0.2262
14623SOL    HW144424  -0.063   3.643   2.824 -0.6521 -1.1187 -0.8049
14623SOL    HW244425   0.030   3.526   2.847  2.5521  1.8744  2.9492
14624SOL     OW44426   7.740   6.434   3.924 -0.0422  0.3156  0.2328
14624SOL    HW144427   7.782   6.470   4.002 -1.6426 -1.1951  1.9102
14624SOL    HW244428   7.813   6.409   3.867  1.1847  1.3508  1.2698
14625SOL     OW44429   3.348   7.558   0.245  0.3027  0.5767 -0.2945
14625SOL    HW144430   3.403   7.630   0.276 -1.2103  1.7116 -0.1373
14625SOL    HW244431   3.273   7.558   0.305  1.1482 -2.4470  1.0033
14626SOL     OW44432   0.579   6.401   3.437 -0.1028  0.5012 -0.0488
14626SOL    HW144433   0.583   6.423   3.343  2.3978 -0.5683 -0.2804
14626SOL    HW244434   0.646   6.457   3.477 -0.3168  0.0957  0.8926
14627SOL     OW44435   4.074   1.832   7.452  0.3774 -0.4105  0.3293
14627SOL    HW144436   4.036   1.781   7.523  1.6637 -1.3061  0.4066
14627SOL    HW244437   4.005   1.836   7.386  0.4442 -2.8901  0.0205
14628SOL     OW44438   0.235   0.051   4.390  0.0261  0.2767 -0.2033
14628SOL    HW144439   0.271  -0.033   4.418 -0.6591 -0.1557 -0.5821
14628SOL    HW244440   0.140   0.037   4.389 -0.0188  0.4781 -2.0372
14629SOL     OW44441   1.506   1.882   0.626 -0.1210 -0.0019  0.0487
14629SOL    HW144442   1.521   1.805   0.680  0.7100  0.5157  0.5835
14629SOL    HW244443   1.423   1.918   0.656 -1.8993 -2.1011 -1.9549
14630SOL     OW44444   4.447   7.114   6.182 -0.1690 -0.3928 -0.1956
14630SOL    HW144445   4.508   7.041   6.168  0.2603 -0.5602  2.0944
14630SOL    HW244446   4.503   7.190   6.193 -0.4287 -0.2905  0.4893
14631SOL     OW44447   2.780   6.214   6.999  0.0638 -0.1351 -0.3007
14631SOL    HW144448   2.702   6.254   7.038  1.0027  3.1911 -1.4346
14631SOL    HW244449   2.820   6.164   7.070 -1.0892  1.3035  1.4400
14632SOL     OW44450   3.548   2.780   3.738  0.0200 -0.5574  0.0958
14632SOL    HW144451   3.616   2.821   3.685  2.2218 -1.9362  1.6454
14632SOL    HW244452   3.484   2.748   3.674  0.7829  0.8450 -1.4460
14633SOL     OW44453   2.232   4.196   2.100  0.7318  0.4690 -0.0447
14633SOL    HW144454   2.229   4.166   2.009 -0.5868 -0.0428  0.1500
14633SOL    HW244455   2.248   4.117   2.151  2.0974  0.8481  0.1374
14634SOL     OW44456   6.599   6.691   2.479  0.6267  1.0891 -0.1344
14634SOL    HW144457   6.609   6.696   2.574 -0.5401  0.7969  0.0251
14634SOL    HW244458   6.658   6.758   2.445  1.2938  0.9813  0.7766
14635SOL     OW44459   2.499   2.937   0.196 -0.1171 -0.1278  0.2566
14635SOL    HW144460   2.525   3.014   0.246 -0.6518  0.3776 -0.2252
14635SOL    HW244461   2.564   2.871   0.218  0.5712  0.5787  0.3840
14636SOL     OW44462   0.428   5.288   0.837 -0.1341 -0.2608 -0.4237
14636SOL    HW144463   0.363   5.258   0.900  0.6778 -0.5149  0.3216
14636SOL    HW244464   0.458   5.372   0.872  2.4512 -1.7223  1.2351
14637SOL     OW44465   6.918   3.229   1.377 -0.2234  0.4163  0.0344
14637SOL    HW144466   6.986   3.276   1.425 -0.1810 -0.8971  1.3196
14637SOL    HW244467   6.837   3.275   1.401 -0.1922 -0.1646  1.3252
14638SOL     OW44468   2.324   7.247   6.885  0.6108  1.0705  0.0515
14638SOL    HW144469   2.261   7.289   6.826 -1.1351  2.1819  2.4958
14638SOL    HW244470   2.400   7.305   6.885 -0.1025  2.0306  0.2079
14639SOL     OW44471   6.875   6.324   4.240 -0.3787 -0.5845  0.3949
14639SOL    HW144472   6.880   6.242   4.289  1.1249 -0.1837  0.9666
14639SOL    HW244473   6.952   6.374   4.267 -0.3470  0.3255 -1.1989
14640SOL     OW44474   3.832   4.604   1.737 -0.0534  0.9321  0.1508
14640SOL    HW144475   3.818   4.629   1.828 -1.2500  1.2369 -0.0996
14640SOL    HW244476   3.812   4.510   1.735 -0.9856  1.1186  0.0347
14641SOL     OW44477   0.196   6.852   6.789 -0.3024  0.4726 -0.1208
14641SOL    HW144478   0.257   6.913   6.832  1.8669 -0.4276 -1.7443
14641SOL    HW244479   0.204   6.872   6.696 -1.6760 -0.4480 -0.4667
14642SOL     OW44480   3.502   5.262   7.061  0.1288  0.1889 -0.0070
14642SOL    HW144481   3.426   5.320   7.055 -0.4649 -0.2279  2.5584
14642SOL    HW244482   3.542   5.283   7.145  1.5995 -1.1497 -0.3174
14643SOL     OW44483   3.404   4.242   0.205 -0.1316  0.7448 -0.0877
14643SOL    HW144484   3.331   4.208   0.256 -0.0195 -1.5036 -1.2962
14643SOL    HW244485   3.370   4.245   0.115  1.0458  0.2882 -0.5603
14644SOL     OW44486   6.860   6.232   0.378 -0.1326  0.0285 -0.2152
14644SOL    HW144487   6.868   6.290   0.454 -0.0023 -0.3382  0.0492
14644SOL    HW244488   6.883   6.288   0.303  1.2171 -0.0158  0.1563
14645SOL     OW44489   6.905   3.088   0.440 -0.0957 -0.3748 -0.0805
14645SOL    HW144490   6.978   3.028   0.456  0.1199  0.3037  1.6390
14645SOL    HW244491   6.943   3.159   0.388  0.3038 -0.3763  0.2056
14646SOL     OW44492   5.041   4.927   6.318 -0.0695 -0.3650 -1.0459
14646SOL    HW144493   5.002   4.880   6.245 -2.3534  0.6066 -0.5312
14646SOL    HW244494   4.972   4.931   6.384  0.6546  2.0413 -0.3300
14647SOL     OW44495   2.770   0.072   7.145  0.2183 -0.0536  0.2156
14647SOL    HW144496   2.679   0.069   7.115  0.2640 -1.8626  0.0958
14647SOL    HW244497   2.770   0.015   7.223  0.8309  1.6580  1.5254
14648SOL     OW44498   2.644   5.564   4.549 -0.3428  0.3853  0.0134
14648SOL    HW144499   2.572   5.592   4.607  0.6030  2.2151  0.3729
14648SOL    HW244500   2.646   5.630   4.480  0.2736 -0.2956 -0.6374
14649SOL     OW44501   5.327   3.433   1.656 -0.5541 -0.1408 -0.6628
14649SOL    HW144502   5.398   3.372   1.675 -2.0232 -1.9105 -0.5781
14649SOL    HW244503   5.324   3.438   1.560 -0.4098 -0.1825 -0.6682
14650SOL     OW44504   5.369   6.682   3.980  0.0281 -0.2128  0.1236
14650SOL    HW144505   5.373   6.588   3.999  0.0354 -0.1464  0.4567
14650SOL    HW244506   5.448   6.718   4.020 -0.0463 -0.0431  0.1181
14651SOL     OW44507   2.554   6.143   4.624  0.0041  0.7321  0.3492
14651SOL    HW144508   2.647   6.161   4.613  0.0656 -0.4143 -1.4804
14651SOL    HW244509   2.551   6.069   4.686  0.2925  0.9435  0.6164
14652SOL     OW44510   2.535   4.947   0.072 -0.0439 -0.1385  0.5279
14652SOL    HW144511   2.614   5.001   0.062 -0.5785  0.8009  1.1164
14652SOL    HW244512   2.555   4.865   0.028  0.1918  1.1538 -1.9175
14653SOL     OW44513   5.778   3.289   1.259  0.3464  0.0595 -0.3955
14653SOL    HW144514   5.787   3.266   1.166 -1.2988 -2.4341 -0.0128
14653SOL    HW244515   5.867   3.315   1.285  1.5369 -2.0971 -1.9689
14654SOL     OW44516   5.629   2.942   2.474  0.1713  0.0413 -0.2735
14654SOL    HW144517   5.657   3.024   2.515 -2.6335  1.7532 -1.4902
14654SOL    HW244518   5.608   2.966   2.384 -0.2914 -2.1562 -0.8059
14655SOL     OW44519   7.337   3.141   4.477  0.3216  0.0794  0.2021
14655SOL    HW144520   7.392   3.126   4.553  0.2774 -0.9661  0.0406
14655SOL    HW244521   7.325   3.054   4.438 -0.6789  0.4174 -0.2880
14656SOL     OW44522   0.969   2.383   2.145  0.2884  0.2613 -0.1254
14656SOL    HW144523   1.013   2.468   2.152  2.7146 -0.9703  0.6906
14656SOL    HW244524   0.963   2.351   2.235  2.0924 -1.6251 -0.5829
14657SOL     OW44525   3.553   0.292   2.738 -0.2348  0.2523  0.0346
14657SOL    HW144526   3.579   0.384   2.728  0.4922  0.2155  1.3152
14657SOL    HW244527   3.459   0.295   2.754  0.1566  1.0372  2.6676
14658SOL     OW44528   1.195   4.462   3.075 -0.0950 -0.3215  0.2303
14658SOL    HW144529   1.239   4.456   3.160  0.5746  1.3210  0.0478
14658SOL    HW244530   1.168   4.373   3.055  2.3906 -1.2937  0.7848
14659SOL     OW44531   0.126   4.329   6.548  0.4598  0.1286 -0.5127
14659SOL    HW144532   0.051   4.272   6.567  0.4712  0.6238  1.1381
14659SOL    HW244533   0.202   4.275   6.568  0.4961  0.2846 -0.2239
14660SOL     OW44534   4.543   2.033   2.083 -0.0724 -0.2818 -0.0638
14660SOL    HW144535   4.606   1.961   2.088  1.0784  0.7520  0.7936
14660SOL    HW244536   4.482   2.017   2.155  0.2062 -0.3690  0.1515
14661SOL     OW44537   2.365   3.985   2.521 -0.0814  0.0588  0.0115
14661SOL    HW144538   2.282   3.937   2.518 -0.1478  0.2076 -1.0704
14661SOL    HW244539   2.393   3.980   2.612 -1.0636 -0.3662  0.2998
14662SOL     OW44540   5.777   3.897   3.652 -0.3155  0.0513  0.1025
14662SOL    HW144541   5.727   3.879   3.732  0.5591  0.2412  0.7036
14662SOL    HW244542   5.718   3.950   3.599 -0.2915  1.4167  1.3753
14663SOL     OW44543   0.532   0.621   1.904 -0.5318  0.2509 -0.7901
14663SOL    HW144544   0.561   0.686   1.969  0.9333 -2.3519  1.3643
14663SOL    HW244545   0.600   0.554   1.905 -3.1902 -2.6561 -0.8668
14664SOL     OW44546   4.667   1.904   0.122 -0.0024  0.5043  0.5194
14664SOL    HW144547   4.591   1.961   0.130 -1.3351 -1.2704  1.2816
14664SOL    HW244548   4.630   1.817   0.109  1.9106 -0.3882  0.7070
14665SOL     OW44549   6.183   1.401   1.733  0.2046  0.2225  0.1359
14665SOL    HW144550   6.276   1.417   1.721  0.3959  1.3475  2.5963
14665SOL    HW244551   6.144   1.489   1.741 -1.0961 -0.2187 -0.9132
14666SOL     OW44552   3.177   3.698   0.493  0.4270 -0.1685 -0.4859
14666SOL    HW144553   3.248   3.634   0.486 -0.0580 -0.7928  0.1688
14666SOL    HW244554   3.183   3.731   0.583  0.9509  1.0541 -0.9429
14667SOL     OW44555   5.943   6.694   1.517 -0.0871  0.7632  0.6216
14667SOL    HW144556   5.883   6.657   1.581  1.7749  0.1749  2.1071
14667SOL    HW244557   5.889   6.755   1.466 -2.1104 -0.3836  1.2857
14668SOL     OW44558   2.378   0.579   7.409  0.0417 -0.0986  0.0462
14668SOL    HW144559   2.295   0.532   7.402 -0.4622  0.8954 -1.0468
14668SOL    HW244560   2.403   0.570   7.501 -0.0846 -2.3656 -0.0921
14669SOL     OW44561   0.473   6.658   6.287  0.0163 -0.2749 -0.3669
14669SOL    HW144562   0.474   6.754   6.280 -0.1854 -0.3762 -2.0394
14669SOL    HW244563   0.545   6.638   6.347  1.0346  0.8404 -1.1788
14670SOL     OW44564   3.525   7.211   2.909 -0.4396  0.1070 -0.0162
14670SOL    HW144565   3.469   7.273   2.860  0.5532  0.7559 -0.3663
14670SOL    HW244566   3.587   7.267   2.956  1.0599 -0.6281 -1.0496
14671SOL     OW44567   4.776   1.980   4.018 -0.4616  0.1258  0.1410
14671SOL    HW144568   4.818   1.926   4.085  0.1520  0.1786 -0.1820
14671SOL    HW244569   4.695   2.011   4.058 -0.1129  0.1475  0.8473
14672SOL     OW44570   5.116   6.735   3.928  0.2906  0.2159 -0.1801
14672SOL    HW144571   5.212   6.737   3.930  0.4021  0.3252 -2.8153
14672SOL    HW244572   5.090   6.826   3.943  0.6170  0.3070 -0.1464
14673SOL     OW44573   3.127   6.651   3.595  0.1903 -0.5321 -0.6172
14673SOL    HW144574   3.166   6.576   3.551  1.0523 -0.4204 -0.0598
14673SOL    HW244575   3.200   6.711   3.611 -0.2830 -0.1057  0.0209
14674SOL     OW44576   4.306   3.573   1.538  0.6883  0.3470  0.0219
14674SOL    HW144577   4.222   3.540   1.570  1.1558 -0.9599 -0.0686
14674SOL    HW244578   4.359   3.495   1.521  1.6120  1.1212 -0.7991
14675SOL     OW44579   1.971   2.925   6.492 -0.3024  0.3634 -0.0512
14675SOL    HW144580   1.897   2.980   6.465 -0.2977 -0.1361 -1.1334
14675SOL    HW244581   1.987   2.950   6.583 -1.1937  1.1535 -0.0906
14676SOL     OW44582   2.041   3.425   2.719  0.0158  0.0206 -0.2749
14676SOL    HW144583   2.030   3.455   2.809  0.7400 -0.1874 -0.1155
14676SOL    HW244584   2.125   3.462   2.691 -0.8048  1.1952 -1.3198
14677SOL     OW44585   1.353   5.787   3.335  0.0907 -0.3874 -0.4524
14677SOL    HW144586   1.400   5.704   3.324 -0.1021 -0.6580  0.6523
14677SOL    HW244587   1.263   5.767   3.310  0.0869 -0.4626 -0.3810
14678SOL     OW44588   0.710   1.684   1.121 -0.0834 -0.0959 -0.3909
14678SOL    HW144589   0.756   1.750   1.172 -0.3262 -0.9935  1.0559
14678SOL    HW244590   0.768   1.666   1.047 -0.9542  3.2380 -2.0766
14679SOL     OW44591   3.462   7.051   5.850 -0.1520  0.0568  0.9395
14679SOL    HW144592   3.368   7.036   5.842 -0.4249  1.6197  0.9793
14679SOL    HW244593   3.484   7.021   5.938 -0.3046 -1.7142  0.4048
14680SOL     OW44594   6.632   5.961   5.902  0.1132  0.0837 -0.3339
14680SOL    HW144595   6.684   6.034   5.933  0.1394 -0.1904  0.3004
14680SOL    HW244596   6.696   5.894   5.878  0.0680 -0.1341  0.1402
14681SOL     OW44597   6.816   0.114   7.699  0.0546  0.1221 -0.9757
14681SOL    HW144598   6.750   0.183   7.709  0.6744  0.8134 -1.5946
14681SOL    HW244599   6.780   0.058   7.630 -1.4985 -1.4590  0.9833
14682SOL     OW44600   7.156   6.770   1.135  0.0135  0.1473  0.0280
14682SOL    HW144601   7.133   6.741   1.223  2.0618  0.1186  0.6013
14682SOL    HW244602   7.156   6.865   1.140  0.2050  0.1449  0.0883
14683SOL     OW44603   1.501   1.635   0.777  0.2273  0.4811 -0.1816
14683SOL    HW144604   1.565   1.574   0.741 -1.4332 -1.3385 -0.1962
14683SOL    HW244605   1.428   1.631   0.716 -2.0099 -1.4595  2.4051
14684SOL     OW44606   5.600   4.652   0.132  0.1249  0.3240  0.2618
14684SOL    HW144607   5.616   4.634   0.224 -1.1472  2.4607  0.9498
14684SOL    HW244608   5.505   4.652   0.123  0.2041  1.3501 -0.7885
14685SOL     OW44609   5.259   0.615   0.963 -0.0812  0.0595 -0.1775
14685SOL    HW144610   5.301   0.547   1.016 -0.2092  0.1291  0.0147
14685SOL    HW244611   5.300   0.607   0.877 -0.1210 -0.2814 -0.1634
14686SOL     OW44612   3.892   5.334   4.169 -0.1462 -0.5586  0.4611
14686SOL    HW144613   3.956   5.307   4.103 -0.8910 -0.0632 -0.4857
14686SOL    HW244614   3.942   5.338   4.251  0.9073 -0.6710 -0.1599
14687SOL     OW44615   1.790   0.420   6.849  0.1685  0.4873 -0.2427
14687SOL    HW144616   1.725   0.467   6.901  1.5279  1.1648  0.9243
14687SOL    HW244617   1.844   0.488   6.810  1.9049  0.0022  1.1235
14688SOL     OW44618   4.032   7.223   7.534 -0.1221  0.3287  0.8936
14688SOL    HW144619   3.953   7.277   7.527  0.0211  0.7376  2.2737
14688SOL    HW244620   3.998   7.133   7.535 -0.3857  0.3547 -0.9664
14689SOL     OW44621   1.159   0.719   5.766  0.5758  0.0950  0.3165
14689SOL    HW144622   1.182   0.796   5.817 -0.7664  0.8249 -0.1418
14689SOL    HW244623   1.239   0.666   5.766  2.6007  2.8813 -1.9865
14690SOL     OW44624   4.185   3.155   4.090 -0.0439 -0.0458 -0.1549
14690SOL    HW144625   4.148   3.208   4.161  1.5121  2.5290 -1.1144
14690SOL    HW244626   4.231   3.084   4.134  0.5879  1.2828  1.4267
14691SOL     OW44627   5.889   1.825   3.682 -0.2332 -0.3753 -0.2856
14691SOL    HW144628   5.943   1.864   3.613 -0.6423  0.6305 -0.0451
14691SOL    HW244629   5.949   1.767   3.730  0.2677 -0.3942 -0.9207
14692SOL     OW44630   7.416   7.217   6.009 -0.3595 -1.0745 -0.7393
14692SOL    HW144631   7.466   7.298   5.993 -0.6848 -1.2954 -3.3076
14692SOL    HW244632   7.468   7.170   6.074  0.6328  0.5034 -0.3129
14693SOL     OW44633   1.808   7.197   6.632  0.2954  0.1416 -0.1560
14693SOL    HW144634   1.728   7.227   6.674  1.0713  1.5809  0.3349
14693SOL    HW244635   1.778   7.136   6.564 -1.0952 -0.6075  1.0769
14694SOL     OW44636   2.913   5.498   2.697 -0.0992 -0.4402 -0.3914
14694SOL    HW144637   2.894   5.582   2.657  0.5005 -0.3102 -0.4222
14694SOL    HW244638   2.997   5.472   2.658  0.2372 -0.5588  0.3844
14695SOL     OW44639   6.345   6.423   4.013 -0.2084 -0.2932  0.2963
14695SOL    HW144640   6.335   6.494   3.949  0.5600 -0.2426  0.2238
14695SOL    HW244641   6.416   6.452   4.070 -3.8112  1.9335  4.2343
14696SOL     OW44642   3.589   2.717   4.419 -0.3557  0.0712 -0.4244
14696SOL    HW144643   3.682   2.739   4.418 -0.0748 -1.0385 -0.1093
14696SOL    HW244644   3.567   2.707   4.511 -0.5771 -0.4957 -0.5323
14697SOL     OW44645   2.153   1.635   1.247 -0.1014 -0.0411 -0.1868
14697SOL    HW144646   2.243   1.632   1.214 -0.4941 -0.8592 -1.2474
14697SOL    HW244647   2.146   1.557   1.302  0.1932  0.6936  0.9330
14698SOL     OW44648   5.035   4.576   1.087  0.2756  0.0099  1.3093
14698SOL    HW144649   5.077   4.659   1.112 -0.2822  0.8827 -0.4281
14698SOL    HW244650   5.053   4.569   0.993 -0.1296 -1.6066  1.3288
14699SOL     OW44651   4.428   6.516   2.923  0.8066  0.4446 -0.5870
14699SOL    HW144652   4.489   6.586   2.898  1.5538 -0.3058 -0.9180
14699SOL    HW244653   4.463   6.438   2.880  1.2187 -0.5828  1.4861
14700SOL     OW44654   1.952   2.411   3.725 -0.0492  0.4903  0.2808
14700SOL    HW144655   1.907   2.482   3.680 -0.6318  0.3020  0.5426
14700SOL    HW244656   1.990   2.452   3.803  0.3978  0.6863 -0.0354
14701SOL     OW44657   0.958   4.450   2.752 -0.1673  0.4387 -0.3543
14701SOL    HW144658   1.027   4.499   2.709 -1.0917 -0.3022 -2.8354
14701SOL    HW244659   0.999   4.367   2.779  0.6594  1.3044  1.2191
14702SOL     OW44660   0.344   4.581   1.717 -0.7821  0.7827 -0.0910
14702SOL    HW144661   0.353   4.613   1.807 -0.0288  1.8453 -0.5173
14702SOL    HW244662   0.315   4.491   1.726 -1.0694  0.9863  1.2117
14703SOL     OW44663   7.638   5.502   5.800  0.1948  0.0765  0.5568
14703SOL    HW144664   7.598   5.429   5.755 -2.9021  0.9721  1.6222
14703SOL    HW244665   7.670   5.465   5.883  0.8787 -0.4828  0.0578
14704SOL     OW44666   4.429   3.694   0.806 -0.0318 -0.3386  0.2372
14704SOL    HW144667   4.430   3.780   0.849 -0.3784  0.0280 -0.4589
14704SOL    HW244668   4.344   3.657   0.828 -0.5989  0.2541 -0.8760
14705SOL     OW44669   3.695   6.892   2.100 -0.1312 -0.4885  0.5431
14705SOL    HW144670   3.657   6.942   2.172 -0.7126  1.3203 -0.9339
14705SOL    HW244671   3.650   6.923   2.022  0.6646 -2.1814 -0.6681
14706SOL     OW44672   6.980   3.975   0.330 -0.2929 -0.2709 -0.5512
14706SOL    HW144673   7.009   4.010   0.415 -4.6613  0.9584  0.7174
14706SOL    HW244674   6.951   3.886   0.350  1.5784 -1.1303 -1.5374
14707SOL     OW44675   7.456   2.228   0.658  0.1429  0.3781  0.3586
14707SOL    HW144676   7.434   2.280   0.735 -1.0815  0.8672 -0.3005
14707SOL    HW244677   7.420   2.277   0.584  0.0806 -0.7654 -0.3979
14708SOL     OW44678   7.676   3.281   3.274 -0.7064 -0.1622  0.1561
14708SOL    HW144679   7.581   3.276   3.272 -0.6530 -1.3728 -0.6963
14708SOL    HW244680   7.704   3.189   3.281  0.3908  0.1238 -0.2922
14709SOL     OW44681   6.842   4.373   1.934  0.0018  0.7392 -0.1540
14709SOL    HW144682   6.807   4.284   1.921  0.0542  0.4299  1.6355
14709SOL    HW244683   6.866   4.402   1.846 -1.9666 -0.2007 -1.0577
14710SOL     OW44684   0.728   5.077   3.572 -0.5851  0.0147 -0.1645
14710SOL    HW144685   0.710   5.077   3.666  0.5837  2.2230  0.1334
14710SOL    HW244686   0.749   4.986   3.552 -0.3357 -0.4183  1.8266
14711SOL     OW44687   4.585   1.216   2.083  0.1263 -0.0886  0.0300
14711SOL    HW144688   4.549   1.300   2.055  1.0557  0.2609 -0.1381
14711SOL    HW244689   4.564   1.211   2.176 -1.0158 -0.2418 -0.2232
14712SOL     OW44690   2.048   5.054   6.634  0.1861  0.0037  0.3507
14712SOL    HW144691   2.061   5.015   6.547  0.9010  0.6187  0.1716
14712SOL    HW244692   2.121   5.115   6.644 -1.4089  2.0518  0.1934
14713SOL     OW44693   2.847   4.335   3.493 -0.4127 -0.0033  0.0554
14713SOL    HW144694   2.868   4.382   3.412 -1.3563 -0.2941 -0.3618
14713SOL    HW244695   2.923   4.278   3.507  1.0902  2.0585  0.9279
14714SOL     OW44696   2.909   5.199   3.640 -0.4105 -0.1202  1.1074
14714SOL    HW144697   2.909   5.244   3.724  0.9030 -1.4467  1.8533
14714SOL    HW244698   2.867   5.115   3.658 -0.4530 -0.2678  0.3442
14715SOL     OW44699   0.065   7.566   0.733  0.1209  0.2504 -0.1541
14715SOL    HW144700  -0.007   7.532   0.681  0.5215  0.8028 -1.0856
14715SOL    HW244701   0.142   7.518   0.703  0.4088  0.8044 -0.3222
14716SOL     OW44702   4.053   1.770   3.977  0.1547 -0.2991 -0.1701
14716SOL    HW144703   4.019   1.858   3.964  1.5011  0.8788  3.0807
14716SOL    HW244704   4.005   1.736   4.053  1.6480 -1.1356  0.4558
14717SOL     OW44705   2.212   6.130   5.454 -0.2430 -0.2945 -0.8634
14717SOL    HW144706   2.210   6.062   5.387  0.3315 -0.0733 -1.1037
14717SOL    HW244707   2.120   6.155   5.465 -0.3105 -0.1312 -1.7652
14718SOL     OW44708   7.352   3.795   3.766 -0.0696 -0.2856  0.0604
14718SOL    HW144709   7.426   3.776   3.823 -0.3550  1.2150  0.9804
14718SOL    HW244710   7.385   3.782   3.677  1.1786 -0.0227  0.4744
14719SOL     OW44711   2.910   4.620   7.508 -0.7435  0.2444  0.6121
14719SOL    HW144712   2.856   4.577   7.443  0.2974 -0.0107 -0.1131
14719SOL    HW244713   2.885   4.713   7.503 -0.8927  0.1772  0.0650
14720SOL     OW44714   4.681   5.025   4.277  0.1209  0.2965  0.1872
14720SOL    HW144715   4.597   5.020   4.231  0.4207 -0.8048 -0.2756
14720SOL    HW244716   4.658   5.044   4.367 -0.7571 -1.5444  0.3924
14721SOL     OW44717   7.546   4.726   3.904 -0.1176  0.5718  0.0966
14721SOL    HW144718   7.487   4.670   3.954 -1.1488  1.8323  0.3556
14721SOL    HW244719   7.491   4.763   3.834  1.2507 -1.0316 -1.9324
14722SOL     OW44720   7.713   5.424   3.997 -0.1121 -0.3870  0.8463
14722SOL    HW144721   7.625   5.438   3.963 -0.0427 -0.0759  0.7914
14722SOL    HW244722   7.709   5.339   4.040 -0.0958 -0.9840 -0.3007
14723SOL     OW44723   3.197   2.220   5.991 -0.4303 -0.4514 -0.0733
14723SOL    HW144724   3.164   2.307   6.010  0.1181 -0.1402 -0.5095
14723SOL    HW244725   3.269   2.207   6.053 -0.2121 -0.4018 -0.3114
14724SOL     OW44726   5.267   7.367   6.331 -0.3633 -0.3933  0.2242
14724SOL    HW144727   5.182   7.383   6.371 -0.5545 -0.0069 -0.3230
14724SOL    HW244728   5.325   7.347   6.405 -0.6004  0.7572  0.7524
14725SOL     OW44729   5.935   1.787   0.964  0.2505 -0.9361  0.3145
14725SOL    HW144730   5.851   1.748   0.937  0.3608 -0.8047 -0.2175
14725SOL    HW244731   6.001   1.738   0.915  0.4014 -0.1994 -0.2228
14726SOL     OW44732   4.475   7.729   7.584  0.1376  0.0714 -0.2233
14726SOL    HW144733   4.461   7.762   7.673  0.7849  0.6169 -0.3192
14726SOL    HW244734   4.570   7.729   7.572  0.0245  1.1959 -1.3520
14727SOL     OW44735   7.244   1.935   7.076 -0.0556 -0.4843 -0.1016
14727SOL    HW144736   7.329   1.889   7.071 -1.1146 -2.9154  1.9280
14727SOL    HW244737   7.226   1.940   7.170 -1.9420  0.4355 -0.4866
14728SOL     OW44738   4.170   0.408   0.731  0.0615 -0.6009 -0.7369
14728SOL    HW144739   4.106   0.365   0.787 -0.1502 -1.2636 -1.4729
14728SOL    HW244740   4.254   0.368   0.755 -0.0903 -1.2033 -1.1895
14729SOL     OW44741   2.053   6.357   4.555  0.2428  0.1502 -0.6627
14729SOL    HW144742   1.999   6.284   4.526  0.5803 -0.0772 -0.7233
14729SOL    HW244743   1.990   6.425   4.579 -0.0716 -0.1563 -0.6106
14730SOL     OW44744   4.475   3.488   7.012 -0.1936  0.1426  0.1547
14730SOL    HW144745   4.520   3.522   7.089 -1.0065 -0.3962  0.8766
14730SOL    HW244746   4.527   3.412   6.985 -0.0632  0.1691  0.3295
14731SOL     OW44747   2.879   5.359   4.992 -0.4144  0.1320  0.0682
14731SOL    HW144748   2.821   5.338   5.065  0.5979 -0.7830  0.6453
14731SOL    HW244749   2.923   5.440   5.019 -0.6608  0.2580  0.0915
14732SOL     OW44750   5.080   3.058   4.083  0.2250 -0.0862 -0.6700
14732SOL    HW144751   5.078   2.989   4.150  2.2008 -0.0035 -0.4655
14732SOL    HW244752   5.120   3.017   4.007  0.8463  0.6561 -0.7566
14733SOL     OW44753   1.389   0.519   1.012 -0.5747  0.2014  0.1450
14733SOL    HW144754   1.418   0.600   0.971 -2.0471  0.7188  0.0752
14733SOL    HW244755   1.378   0.542   1.104 -1.7987  0.3547 -0.0104
14734SOL     OW44756   2.601   0.771   7.391  0.3470 -0.2884 -0.2832
14734SOL    HW144757   2.510   0.749   7.413  0.5844 -0.7725  0.2118
14734SOL    HW244758   2.647   0.687   7.392  1.1608  0.1589  1.1346
14735SOL     OW44759   5.469   3.044   4.404  0.4239 -0.1269  0.2889
14735SOL    HW144760   5.534   3.111   4.427  0.5679  0.5117 -1.7725
14735SOL    HW244761   5.499   3.009   4.320 -0.5944 -1.5759  0.4941
14736SOL     OW44762   5.828   2.420   0.757 -0.0723 -0.1079 -0.6407
14736SOL    HW144763   5.884   2.464   0.693  0.8133 -1.5326 -0.8845
14736SOL    HW244764   5.886   2.361   0.805 -1.2473 -1.2587 -0.5560
14737SOL     OW44765   7.625   3.401   4.646  0.6700  0.3464  0.0750
14737SOL    HW144766   7.596   3.344   4.575  3.3800 -1.3088  0.1608
14737SOL    HW244767   7.549   3.409   4.703 -0.6695 -0.7730 -1.4540
14738SOL     OW44768   0.464   4.221   7.461 -0.5045 -0.3752  0.4936
14738SOL    HW144769   0.558   4.206   7.477 -0.7525 -0.7078  1.7197
14738SOL    HW244770   0.462   4.281   7.387  0.7000 -0.0646  0.6903
14739SOL     OW44771   0.355   2.936   5.386  0.1171  0.1127 -0.0313
14739SOL    HW144772   0.352   2.849   5.346  0.7704  0.1476 -0.1720
14739SOL    HW244773   0.377   2.919   5.478  1.1347  0.1758 -0.2570
14740SOL     OW44774   2.994   1.312   4.982  0.3997 -0.2312 -0.8598
14740SOL    HW144775   2.989   1.271   4.896  1.1044  1.8023 -1.9191
14740SOL    HW244776   3.088   1.326   4.996  0.1081  2.8157 -1.4694
14741SOL     OW44777   0.331   4.202   5.185  0.1214 -0.0112 -0.2896
14741SOL    HW144778   0.275   4.182   5.260 -0.0602  1.9974  0.1689
14741SOL    HW244779   0.328   4.298   5.178  2.3216  0.0484 -1.1688
14742SOL     OW44780   1.103   3.887   7.282 -0.2759 -0.5205  0.4902
14742SOL    HW144781   1.136   3.976   7.286 -2.7244  0.4918  0.1664
14742SOL    HW244782   1.074   3.867   7.371 -1.3319 -0.2871  0.2172
14743SOL     OW44783   3.593   3.865   6.357 -0.5479  0.0757 -0.2465
14743SOL    HW144784   3.585   3.874   6.262 -2.6903  1.5760  0.0111
14743SOL    HW244785   3.510   3.826   6.385 -0.1220  0.0594  1.0692
14744SOL     OW44786   0.416   3.003   6.505  0.1668 -0.5752 -0.7635
14744SOL    HW144787   0.444   2.912   6.512  0.7593 -0.3891 -0.6705
14744SOL    HW244788   0.357   3.004   6.430  0.5043 -0.9570 -1.0379
14745SOL     OW44789   2.777   2.570   1.186 -0.3748 -0.1234 -0.7879
14745SOL    HW144790   2.742   2.653   1.155 -2.1385 -0.6151 -0.2750
14745SOL    HW244791   2.800   2.522   1.106  2.2939  1.4472 -1.0548
14746SOL     OW44792   6.387   6.683   1.227 -0.2346  0.5017  0.1318
14746SOL    HW144793   6.354   6.680   1.137 -0.6432 -1.3335  0.3058
14746SOL    HW244794   6.310   6.701   1.281  0.1051  2.1926  0.1068
14747SOL     OW44795   1.485   6.394   1.146  0.0603  0.6019  0.1303
14747SOL    HW144796   1.399   6.377   1.183  0.3298  1.0141  0.9775
14747SOL    HW244797   1.480   6.362   1.056 -0.7011 -0.1738  0.4390
14748SOL     OW44798   3.566   7.242   1.713 -0.2166 -0.4119 -0.9404
14748SOL    HW144799   3.651   7.285   1.718 -0.0113 -0.6612 -2.1422
14748SOL    HW244800   3.562   7.205   1.625 -1.4477 -0.6584 -0.8046
14749SOL     OW44801   1.948   2.839   3.877 -0.3932  0.2660  0.2935
14749SOL    HW144802   1.873   2.846   3.818  0.4741  2.3897 -0.6426
14749SOL    HW244803   1.945   2.917   3.931  0.1981 -0.4645  1.4300
14750SOL     OW44804   4.115   2.219   3.505 -0.0927 -0.0127  0.2412
14750SOL    HW144805   4.209   2.238   3.507 -0.2657  0.8102  0.8250
14750SOL    HW244806   4.098   2.173   3.587 -0.4630  1.1491  0.8288
14751SOL     OW44807   3.292   6.360   3.774 -0.3025  0.1571 -0.2111
14751SOL    HW144808   3.267   6.330   3.687 -0.6829  0.3361 -0.1658
14751SOL    HW244809   3.334   6.445   3.759 -0.5208  0.2666 -0.2044
14752SOL     OW44810   6.939   1.270   1.955 -0.2906  0.2384  0.1598
14752SOL    HW144811   6.945   1.181   1.988  1.0948  0.6493  1.1276
14752SOL    HW244812   6.883   1.315   2.018 -1.4949 -0.0643 -0.6620
14753SOL     OW44813   7.540   6.382   4.854 -0.4366 -0.0550 -0.2073
14753SOL    HW144814   7.526   6.288   4.841 -0.4088 -0.4644  2.2287
14753SOL    HW244815   7.452   6.416   4.873 -0.6353  0.6830 -2.2100
14754SOL     OW44816   4.288   3.325   6.545 -0.1437  0.1506  0.4321
14754SOL    HW144817   4.257   3.408   6.507 -0.1287 -0.4672 -0.9818
14754SOL    HW244818   4.382   3.325   6.527  0.0149  0.2252  1.2335
14755SOL     OW44819   2.542   5.428   5.522 -0.2363 -0.1764 -0.9635
14755SOL    HW144820   2.502   5.345   5.548  0.8596 -0.3863  0.1933
14755SOL    HW244821   2.494   5.494   5.572  0.2121 -0.3363 -0.2995
14756SOL     OW44822   0.846   4.890   5.977 -0.4097 -0.3891  0.2335
14756SOL    HW144823   0.792   4.969   5.982 -0.6753 -0.4372 -1.4783
14756SOL    HW244824   0.935   4.921   5.991 -0.7120 -0.1234  1.7540
14757SOL     OW44825   0.703   0.129   3.921  0.3181  0.4422 -0.2362
14757SOL    HW144826   0.694   0.067   3.993  1.5564  2.1843  1.5428
14757SOL    HW244827   0.621   0.178   3.921  0.6027  0.9370  0.5297
14758SOL     OW44828   4.271   0.932   1.606 -0.5582  0.3317 -0.0897
14758SOL    HW144829   4.355   0.977   1.598  0.1186 -0.9815 -0.6608
14758SOL    HW244830   4.213   0.996   1.647  0.9236  1.0096  1.0365
14759SOL     OW44831   5.070   1.367   4.419 -0.0024  0.3367  0.3898
14759SOL    HW144832   4.994   1.318   4.448  0.5890 -1.4444 -0.8765
14759SOL    HW244833   5.145   1.316   4.451  0.6320  0.1306 -1.3027
14760SOL     OW44834   0.926   5.427   7.381 -0.0727 -0.4483 -0.5107
14760SOL    HW144835   0.942   5.402   7.290  1.1654 -2.3878  0.1747
14760SOL    HW244836   0.830   5.429   7.388 -0.2354  1.5332 -2.2488
14761SOL     OW44837   5.767   2.749   1.354 -0.5909  0.1573 -0.1556
14761SOL    HW144838   5.677   2.725   1.335 -0.8020  1.4385 -0.8981
14761SOL    HW244839   5.790   2.812   1.286  0.7836  0.0579  0.1783
14762SOL     OW44840   2.909   5.012   5.118  0.3747 -0.0421 -0.0564
14762SOL    HW144841   2.831   5.031   5.065  1.2669 -0.4316 -1.5935
14762SOL    HW244842   2.979   5.059   5.074  0.8879  1.0873  1.8629
14763SOL     OW44843   6.100   2.352   4.130  0.0957 -0.5660  0.0785
14763SOL    HW144844   6.140   2.283   4.078  0.0061 -0.2830 -0.3652
14763SOL    HW244845   6.008   2.353   4.102  0.2561  0.2194 -0.4425
14764SOL     OW44846   4.933   0.312   0.174  0.5128 -0.4437  0.3698
14764SOL    HW144847   4.961   0.282   0.088  0.0515  1.0692 -0.3529
14764SOL    HW244848   5.007   0.362   0.207  0.6350 -0.9002  0.7933
14765SOL     OW44849   3.366   2.381   1.463  0.3452  0.1288  0.6058
14765SOL    HW144850   3.288   2.427   1.432  1.6315  1.6673 -0.5646
14765SOL    HW244851   3.431   2.450   1.475  1.5973 -1.1247  1.3257
14766SOL     OW44852   3.719   2.864   2.710 -0.5770  0.7109 -0.3517
14766SOL    HW144853   3.689   2.849   2.621 -0.8167  0.7765 -0.2818
14766SOL    HW244854   3.682   2.949   2.734  2.4828  2.5385 -1.5071
14767SOL     OW44855   2.701   7.664   0.019 -0.6460  0.1621  0.4017
14767SOL    HW144856   2.647   7.683  -0.058 -1.6815  0.4165  1.1759
14767SOL    HW244857   2.666   7.721   0.087 -0.4284 -0.8157  1.3445
14768SOL     OW44858   7.135   6.998   7.018 -0.0447  0.2789 -0.6171
14768SOL    HW144859   7.042   6.977   7.015 -0.0398  0.3122 -0.9866
14768SOL    HW244860   7.144   7.058   7.092 -0.0224 -1.1739  0.5953
14769SOL     OW44861   0.646   3.386   6.512  0.2205 -0.4950 -0.0565
14769SOL    HW144862   0.708   3.327   6.555 -0.1550 -0.8739 -0.0395
14769SOL    HW244863   0.697   3.429   6.443  0.4744 -0.8798 -0.1066
14770SOL     OW44864   4.637   3.101   3.214  0.2938 -0.4541 -0.2487
14770SOL    HW144865   4.583   3.128   3.288  0.2490  1.0576 -0.8090
14770SOL    HW244866   4.711   3.162   3.214  1.0974 -1.3930 -0.5479
14771SOL     OW44867   6.756   1.621   3.849  0.3732 -0.3662 -0.2082
14771SOL    HW144868   6.763   1.714   3.873  1.6555 -0.3523 -0.5588
14771SOL    HW244869   6.846   1.594   3.831  0.0273 -1.7098 -0.0372
14772SOL     OW44870   1.436   6.862   2.899 -0.2060 -0.2837  0.0392
14772SOL    HW144871   1.469   6.875   2.811  0.9030 -0.6939  0.3757
14772SOL    HW244872   1.415   6.769   2.903 -0.0274 -0.3155  0.2751
14773SOL     OW44873   1.141   3.799   3.747 -0.3763 -0.7117  0.0156
14773SOL    HW144874   1.080   3.726   3.761 -0.4114 -0.4369  1.4365
14773SOL    HW244875   1.160   3.796   3.653 -3.0990 -0.3832 -0.6397
14774SOL     OW44876   4.626   7.270   4.643  0.1453 -0.6556  0.0242
14774SOL    HW144877   4.693   7.305   4.585  0.0952 -0.2278  0.2232
14774SOL    HW244878   4.659   7.183   4.667  0.7449 -0.3583  0.3056
14775SOL     OW44879   6.003   1.649   2.997  0.1016  0.1582  0.2965
14775SOL    HW144880   6.044   1.585   2.939  1.2922  1.4424 -0.3436
14775SOL    HW244881   5.986   1.601   3.078  2.0255 -0.6985  0.2557
14776SOL     OW44882   6.538   3.161   0.390  0.5567  0.2221 -0.6720
14776SOL    HW144883   6.624   3.139   0.353 -0.1381 -2.0069 -1.1633
14776SOL    HW244884   6.495   3.076   0.401 -2.1081  1.3129 -1.7370
14777SOL     OW44885   0.127   7.287   4.178 -0.2647  0.4543  0.0498
14777SOL    HW144886   0.089   7.245   4.101  0.0600  1.0646 -0.4529
14777SOL    HW244887   0.160   7.371   4.146  0.4382  0.4486  0.7235
14778SOL     OW44888   0.845   4.893   0.952  0.0509 -0.6313 -0.1672
14778SOL    HW144889   0.798   4.818   0.990  0.4623 -0.3128  1.0150
14778SOL    HW244890   0.913   4.853   0.897  0.8623 -1.1792  1.1698
14779SOL     OW44891   3.913   3.314   3.727  0.4243 -0.1780 -0.2712
14779SOL    HW144892   3.939   3.275   3.810  1.7912  2.4454  0.6499
14779SOL    HW244893   3.821   3.338   3.739  0.2409 -0.9854 -0.0217
14780SOL     OW44894   3.572   1.024   4.376 -0.4974  0.1134 -0.2675
14780SOL    HW144895   3.488   1.036   4.332 -1.2985 -2.6129  0.3359
14780SOL    HW244896   3.634   1.003   4.306 -0.6713  0.5456 -0.5532
14781SOL     OW44897   7.442   3.523   7.323  0.0149  0.4961  0.1819
14781SOL    HW144898   7.350   3.500   7.320  0.4159 -1.5307  1.4892
14781SOL    HW244899   7.473   3.510   7.233 -0.5385 -0.8075  0.1680
14782SOL     OW44900   4.452   0.399   3.923  0.0345 -0.0647 -0.2996
14782SOL    HW144901   4.517   0.450   3.971 -1.2466  0.9804  0.3823
14782SOL    HW244902   4.417   0.338   3.989 -0.9578  0.6297 -0.1664
14783SOL     OW44903   5.164   6.551   7.739 -0.2255 -0.0102  0.0740
14783SOL    HW144904   5.173   6.542   7.834 -0.7041 -0.2638  0.0975
14783SOL    HW244905   5.070   6.562   7.724 -0.0728  0.9171 -0.3016
14784SOL     OW44906   3.513   3.087   1.229 -0.3416  0.5205  0.1933
14784SOL    HW144907   3.523   3.158   1.293  1.2706 -1.0286  1.8018
14784SOL    HW244908   3.433   3.042   1.255 -0.5807  0.8868  0.0888
14785SOL     OW44909   3.695   6.977   3.960 -0.1534 -0.4489 -0.1835
14785SOL    HW144910   3.662   7.057   4.002  1.0066 -0.4014  0.6821
14785SOL    HW244911   3.768   6.950   4.015  0.0906 -1.5637 -1.0334
14786SOL     OW44912   7.033   3.266   2.559 -0.1327  0.0855  0.6033
14786SOL    HW144913   6.959   3.316   2.592  0.1162 -0.5601  2.2342
14786SOL    HW244914   7.105   3.329   2.553 -0.6626  0.6092 -0.5363
14787SOL     OW44915   6.712   7.167   4.455  1.1567 -0.1092 -0.0722
14787SOL    HW144916   6.794   7.147   4.500  0.9921 -0.3252  0.1401
14787SOL    HW244917   6.644   7.141   4.518  0.9285  1.5761  0.4098
14788SOL     OW44918   7.433   1.095   7.439  0.2935 -0.0471  0.1240
14788SOL    HW144919   7.518   1.107   7.480 -0.2556 -0.2059  1.3320
14788SOL    HW244920   7.434   1.005   7.407  0.4536 -0.1574  0.4393
14789SOL     OW44921   1.332   6.030   0.734 -0.2624 -0.3845 -0.5895
14789SOL    HW144922   1.252   5.979   0.724 -0.2578 -0.6578  0.5960
14789SOL    HW244923   1.332   6.090   0.660 -4.4790  3.5960  2.1451
14790SOL     OW44924   1.026   5.282   4.416  0.7945 -0.3353 -0.6085
14790SOL    HW144925   1.005   5.335   4.493  0.8222 -1.0696 -0.0951
14790SOL    HW244926   1.100   5.228   4.443 -1.0516 -2.8191 -0.0955
14791SOL     OW44927   7.065   4.251   7.150  0.5003 -0.2688  0.2840
14791SOL    HW144928   7.001   4.180   7.157  1.3756 -1.3763 -1.9362
14791SOL    HW244929   7.144   4.215   7.191 -0.0806  0.9515  2.6657
14792SOL     OW44930   1.172   2.742   5.607  0.3611 -0.0557 -0.2260
14792SOL    HW144931   1.175   2.816   5.669 -0.2429  0.2558 -0.5607
14792SOL    HW244932   1.159   2.783   5.522  0.5153 -0.5272 -0.4780
14793SOL     OW44933   6.218   7.585   1.119  0.0089 -0.6845  0.1355
14793SOL    HW144934   6.284   7.620   1.059  0.3748  0.3533  1.1115
14793SOL    HW244935   6.228   7.490   1.113  0.6234 -0.5695 -0.7899
14794SOL     OW44936   6.236   5.917   1.027  0.2751 -1.0619 -0.2525
14794SOL    HW144937   6.277   5.990   1.074 -0.1940  0.4048 -1.9804
14794SOL    HW244938   6.152   5.953   0.999  1.0957 -1.3480 -3.3559
14795SOL     OW44939   3.575   0.645   5.675 -0.0760 -0.3061  0.3377
14795SOL    HW144940   3.488   0.652   5.715 -0.1873  1.1509 -0.1247
14795SOL    HW244941   3.561   0.659   5.582  0.5298 -1.0834  0.1188
14796SOL     OW44942   3.471   2.551   4.742  0.7239  0.6553  0.2230
14796SOL    HW144943   3.455   2.474   4.796  1.9119 -0.3188 -0.7709
14796SOL    HW244944   3.533   2.603   4.793  0.9258  0.3233  0.3149
14797SOL     OW44945   5.721   2.447   6.907 -0.4896  0.7964  0.0697
14797SOL    HW144946   5.755   2.415   6.990  1.4385 -0.6834 -1.1931
14797SOL    HW244947   5.632   2.412   6.902 -0.0968 -0.3799  0.8703
14798SOL     OW44948   5.644   1.447   6.793  0.0345 -0.4776 -0.4348
14798SOL    HW144949   5.566   1.407   6.754 -0.2204  1.8881 -2.6715
14798SOL    HW244950   5.709   1.446   6.722  0.8541  0.6939  0.2720
14799SOL     OW44951   7.352   3.394   1.642  0.3900  0.2492  0.1088
14799SOL    HW144952   7.302   3.361   1.568  0.8698  0.4959 -0.3313
14799SOL    HW244953   7.286   3.428   1.702 -0.1743 -2.0292  0.8724
14800SOL     OW44954   7.497   3.214   6.991 -0.1932 -0.1688 -0.3019
14800SOL    HW144955   7.525   3.216   6.899  0.2131 -0.2134 -0.1811
14800SOL    HW244956   7.515   3.302   7.023 -0.2482 -0.1814 -0.2377
14801SOL     OW44957   0.844   2.099   5.938 -0.2560  0.2391 -0.7024
14801SOL    HW144958   0.881   2.106   6.026 -1.2094  0.7594 -0.3356
14801SOL    HW244959   0.831   2.005   5.925  1.6053 -0.0148 -1.0278
14802SOL     OW44960   7.678   4.922   7.596  0.8434  0.3911  0.0433
14802SOL    HW144961   7.607   4.987   7.596 -2.0884 -2.5193  0.8189
14802SOL    HW244962   7.670   4.877   7.512  1.0447 -0.6895  0.5890
14803SOL     OW44963   3.264   2.886   1.185  0.2541 -0.1859  0.5779
14803SOL    HW144964   3.246   2.976   1.212  4.1850  0.9578  0.1008
14803SOL    HW244965   3.287   2.841   1.266 -1.8720 -0.8797  0.8386
14804SOL     OW44966   6.559   5.184   5.806 -0.4078  0.2970 -0.3873
14804SOL    HW144967   6.642   5.227   5.786 -0.2106  0.9565  1.6898
14804SOL    HW244968   6.575   5.091   5.786  1.7409 -0.0525  2.3982
14805SOL     OW44969   2.693   5.619   3.699  0.2757  0.1429 -0.1585
14805SOL    HW144970   2.633   5.550   3.672  0.3727 -0.3428  0.8095
14805SOL    HW244971   2.773   5.602   3.651  0.3745 -0.5693  0.2451
14806SOL     OW44972   2.849   6.810   2.410  0.1147  0.7898 -0.0336
14806SOL    HW144973   2.869   6.743   2.475  0.8465 -0.5964 -1.6058
14806SOL    HW244974   2.798   6.876   2.458  0.6079 -0.1612  1.9077
14807SOL     OW44975   0.075   4.635   1.913  0.0656 -0.9104 -0.2607
14807SOL    HW144976   0.036   4.599   1.833  1.2922 -0.4814 -1.0697
14807SOL    HW244977   0.106   4.559   1.961  2.6653 -1.0525 -1.9743
14808SOL     OW44978   7.721   0.846   3.608  0.1541 -0.0096 -0.1492
14808SOL    HW144979   7.765   0.920   3.565 -1.6807  0.3796 -1.4686
14808SOL    HW244980   7.756   0.769   3.565 -1.4896  0.3635 -2.3200
14809SOL     OW44981   2.012   7.348   2.031  0.4902  0.2417  0.0175
14809SOL    HW144982   1.924   7.365   2.065  0.2018  1.9322 -1.4527
14809SOL    HW244983   2.068   7.350   2.108 -0.5770  0.4338  0.8150
14810SOL     OW44984   3.118   4.493   0.129  0.0402  0.0768 -0.4003
14810SOL    HW144985   3.188   4.498   0.064  1.8359 -2.2917  1.1774
14810SOL    HW244986   3.147   4.549   0.200 -0.8782  0.9636 -0.7004
14811SOL     OW44987   2.996   1.161   6.682  0.6192  0.1640  0.0437
14811SOL    HW144988   2.965   1.071   6.678 -0.9476  0.6453  0.6498
14811SOL    HW244989   2.956   1.203   6.605  1.2407  0.3838 -0.1666
14812SOL     OW44990   6.349   7.238   4.703 -0.4403  0.2389  0.7336
14812SOL    HW144991   6.416   7.306   4.711  0.5083 -0.5412 -0.1799
14812SOL    HW244992   6.267   7.285   4.694  0.4219  1.4381 -2.4010
14813SOL     OW44993   0.773   3.110   3.501 -0.0345 -0.0864  0.6268
14813SOL    HW144994   0.848   3.096   3.559 -0.1307 -0.6740  0.6125
14813SOL    HW244995   0.781   3.042   3.435  0.1020  0.6084 -0.0925
14814SOL     OW44996   3.270   5.004   1.985  0.0293 -0.5590 -0.7757
14814SOL    HW144997   3.325   5.046   1.919 -0.3480  0.7066 -0.3232
14814SOL    HW244998   3.299   5.043   2.068 -1.7380  0.3853 -0.5633
14815SOL     OW44999   4.970   7.370   6.024  0.2936 -0.1349 -0.3598
14815SOL    HW145000   4.975   7.295   6.083  0.1008 -0.9166 -1.3213
14815SOL    HW245001   4.878   7.398   6.029  0.6753  0.9915  1.1235
14816SOL     OW45002   1.760   3.796   1.330  0.0178  0.7703  0.2351
14816SOL    HW145003   1.839   3.788   1.384 -0.2592 -0.9029  0.4551
14816SOL    HW245004   1.688   3.793   1.393 -0.2605  0.4973 -0.0949
14817SOL     OW45005   7.430   0.979   1.579 -0.5883 -0.3688 -0.1009
14817SOL    HW145006   7.490   1.039   1.535 -2.0390  0.2639 -1.2858
14817SOL    HW245007   7.404   1.025   1.658 -1.0242  0.2017 -0.5736
14818SOL     OW45008   7.395   2.998   5.985  0.3642  0.7058  0.5601
14818SOL    HW145009   7.300   2.984   5.989 -0.0058  1.8941 -1.9641
14818SOL    HW245010   7.418   3.028   6.073 -1.5602  0.2229  1.2846
14819SOL     OW45011   6.515   1.964   4.900 -0.1165 -0.3217 -0.3320
14819SOL    HW145012   6.602   1.973   4.859 -0.4826 -0.5644 -1.1943
14819SOL    HW245013   6.492   1.872   4.885 -0.4593 -0.2912  0.0253
14820SOL     OW45014   7.259   1.061   4.640 -0.1662 -0.5778  0.1988
14820SOL    HW145015   7.235   0.973   4.613 -1.5808 -0.1032 -0.1557
14820SOL    HW245016   7.229   1.117   4.569  2.5093  0.0509 -0.5561
14821SOL     OW45017   5.610   3.352   3.073 -0.3027  0.9146 -0.1868
14821SOL    HW145018   5.552   3.296   3.124 -1.6153  0.7188 -1.7859
14821SOL    HW245019   5.672   3.388   3.136 -1.9311  0.8113  1.5347
14822SOL     OW45020   4.091   3.313   4.284  0.3560 -0.1961  0.4760
14822SOL    HW145021   4.114   3.405   4.274  2.4173 -0.7817 -0.7710
14822SOL    HW245022   3.998   3.309   4.263 -0.1777  1.7973  2.1369
14823SOL     OW45023   6.617   1.700   0.791 -0.0619 -0.0314  0.2574
14823SOL    HW145024   6.544   1.749   0.829  0.0097 -0.8942  1.6064
14823SOL    HW245025   6.662   1.662   0.867  2.1723  0.9721 -0.4586
14824SOL     OW45026   4.510   6.290   2.803  0.5423 -0.0038  0.9125
14824SOL    HW145027   4.543   6.344   2.731  1.4130  0.4010  1.5941
14824SOL    HW245028   4.588   6.255   2.845  0.0602 -0.0865  1.7678
14825SOL     OW45029   2.716   2.066   1.407  0.1507  0.2384  0.6850
14825SOL    HW145030   2.650   2.074   1.476 -0.4426  4.3209 -0.0981
14825SOL    HW245031   2.794   2.108   1.443  1.1803 -1.2387  0.2651
14826SOL     OW45032   1.407   4.551   1.740  0.0374 -0.1187 -0.3720
14826SOL    HW145033   1.397   4.470   1.689  1.2330 -0.4716 -0.0855
14826SOL    HW245034   1.501   4.557   1.757 -0.0662  1.2115 -0.1718
14827SOL     OW45035   2.909   4.126   6.127 -0.1166  0.2178 -0.4836
14827SOL    HW145036   2.878   4.207   6.168  1.6417  1.3574 -1.2958
14827SOL    HW245037   2.957   4.155   6.050  1.2057 -1.5560 -0.3832
14828SOL     OW45038   6.263   5.821   5.289 -0.1667 -0.2957  0.6638
14828SOL    HW145039   6.252   5.784   5.377 -0.1105  0.6070  1.0612
14828SOL    HW245040   6.342   5.779   5.256 -0.0475 -0.4620  1.1455
14829SOL     OW45041   1.116   6.251   7.634  0.5628 -0.3840 -0.2884
14829SOL    HW145042   1.198   6.213   7.603  1.1629  1.5129 -1.1962
14829SOL    HW245043   1.048   6.203   7.587  1.0726 -2.3614  0.8948
14830SOL     OW45044   4.831   4.369   2.889  0.3759 -0.4151  0.2546
14830SOL    HW145045   4.829   4.464   2.889  1.0217 -0.3915  0.7755
14830SOL    HW245046   4.782   4.343   2.811  2.4453  0.4114 -1.4116
14831SOL     OW45047   3.099   5.456   5.159  0.2420  0.8707  0.2091
14831SOL    HW145048   3.122   5.434   5.249  0.3065  2.4478  0.5992
14831SOL    HW245049   3.178   5.437   5.109 -0.7720 -3.3905 -0.2280
14832SOL     OW45050   4.737   6.658   3.858  0.1382  0.4690  0.5288
14832SOL    HW145051   4.791   6.615   3.925 -0.2461  1.3013  1.4012
14832SOL    HW245052   4.799   6.681   3.788  0.4027 -1.1847  0.1843
14833SOL     OW45053   0.174   4.523   0.036 -0.0951  0.5262 -0.1283
14833SOL    HW145054   0.106   4.589   0.051  0.0105  0.9870 -1.5331
14833SOL    HW245055   0.193   4.529  -0.058  1.2251 -0.2473  0.0641
14834SOL     OW45056   6.247   7.172   2.640 -0.1239  0.0515  0.1783
14834SOL    HW145057   6.196   7.127   2.707  0.7583  0.2872  1.0220
14834SOL    HW245058   6.259   7.106   2.571 -0.0811 -0.5424  0.7455
14835SOL     OW45059   2.253   6.585   1.417 -0.2886 -0.3541 -0.6178
14835SOL    HW145060   2.282   6.622   1.334  1.6864 -0.1279  0.1173
14835SOL    HW245061   2.265   6.491   1.408  0.1086 -0.3131 -0.5334
14836SOL     OW45062   4.062   6.474   4.814 -0.4418 -0.2890  0.3124
14836SOL    HW145063   4.100   6.456   4.900 -1.8376 -0.2092  0.9800
14836SOL    HW245064   4.100   6.408   4.757 -0.5436 -1.2455  1.3140
14837SOL     OW45065   3.159   1.962   0.932  0.6717 -0.0180 -0.6891
14837SOL    HW145066   3.220   2.002   0.870  0.3804  1.4383 -0.0566
14837SOL    HW245067   3.135   1.879   0.890  3.8602 -1.1974 -0.5016
14838SOL     OW45068   7.580   0.282   0.234 -0.0449  0.0301  0.0295
14838SOL    HW145069   7.642   0.271   0.161 -1.4355 -0.6383 -1.1034
14838SOL    HW245070   7.566   0.194   0.267 -0.4255  0.1645  0.2373
14839SOL     OW45071   6.811   1.177   0.612  0.0237 -1.1679  0.1938
14839SOL    HW145072   6.868   1.100   0.609 -0.9171 -1.9066  0.6993
14839SOL    HW245073   6.745   1.162   0.544 -0.4969 -1.0865  0.6703
14840SOL     OW45074   1.697   1.098   5.806 -0.2642 -0.2005  0.2775
14840SOL    HW145075   1.645   1.071   5.731 -0.5796  0.3524  0.2916
14840SOL    HW245076   1.759   1.026   5.820 -1.2189 -1.0044  0.4551
14841SOL     OW45077   6.944   4.924   6.451  0.6869 -0.4370  0.0360
14841SOL    HW145078   6.915   5.006   6.490  1.4667  0.3270 -0.9406
14841SOL    HW245079   7.006   4.888   6.514  1.5291  0.5178 -0.2286
14842SOL     OW45080   6.190   6.523   1.804  0.0998 -0.2155 -0.6135
14842SOL    HW145081   6.240   6.545   1.726 -0.1280 -2.8060 -1.5710
14842SOL    HW245082   6.247   6.548   1.877  1.5030 -0.3240 -1.6467
14843SOL     OW45083   2.402   4.576   0.555  0.2064 -0.0460  0.5825
14843SOL    HW145084   2.343   4.519   0.605 -0.4740 -0.0104 -0.1584
14843SOL    HW245085   2.403   4.538   0.467 -0.9858  1.5799 -0.1903
14844SOL     OW45086   6.453   7.346   1.348  0.5302  0.0538  0.9192
14844SOL    HW145087   6.435   7.343   1.442  1.5023 -0.2286  1.1011
14844SOL    HW245088   6.384   7.293   1.309 -0.0939  0.4710  1.4330
14845SOL     OW45089   0.724   3.468   6.263 -0.1676 -0.0095 -0.1244
14845SOL    HW145090   0.745   3.561   6.265 -3.5927  0.9399 -1.7580
14845SOL    HW245091   0.804   3.426   6.230  1.2399  2.3972  0.0259
14846SOL     OW45092   6.546   3.091   0.684 -0.4922 -0.2606 -0.0824
14846SOL    HW145093   6.457   3.121   0.703 -0.7061  0.2371 -1.7103
14846SOL    HW245094   6.536   3.032   0.608  0.7459  1.3748 -1.6020
14847SOL     OW45095   0.074   7.594   4.991  0.0743 -0.2171 -0.2662
14847SOL    HW145096   0.067   7.687   4.969  1.1585  0.0893  0.5893
14847SOL    HW245097   0.168   7.580   5.003 -0.0450 -1.5203 -0.7811
14848SOL     OW45098   7.641   4.466   6.773  0.4168  0.2845 -0.1905
14848SOL    HW145099   7.582   4.501   6.840 -0.7044 -1.6505 -0.0649
14848SOL    HW245100   7.611   4.507   6.691 -1.3296 -0.7776 -0.1598
14849SOL     OW45101   0.393   0.889   4.058  0.4245 -0.3971 -0.1191
14849SOL    HW145102   0.333   0.889   4.133 -1.1061 -0.3234 -1.2914
14849SOL    HW245103   0.422   0.799   4.051 -2.1660 -1.2449 -1.4544
14850SOL     OW45104   2.309   7.140   7.202 -0.0155  0.4390 -0.2751
14850SOL    HW145105   2.245   7.138   7.131  0.7762  2.6197 -1.1612
14850SOL    HW245106   2.261   7.111   7.279 -1.7840  0.9707 -1.1204
14851SOL     OW45107   3.516   1.362   1.548  0.1722 -0.1781  0.3053
14851SOL    HW145108   3.600   1.406   1.559  0.5855 -0.2449 -2.1525
14851SOL    HW245109   3.533   1.272   1.574  0.7631 -0.1125  0.1675
14852SOL     OW45110   1.884   0.718   3.655  0.0374 -0.0079 -0.0508
14852SOL    HW145111   1.961   0.712   3.598 -0.5264  0.6212 -0.8811
14852SOL    HW245112   1.869   0.627   3.683  0.4046 -0.3008 -0.7773
14853SOL     OW45113   5.077   5.628   2.011  0.2795  0.2823  0.1587
14853SOL    HW145114   5.098   5.546   2.057  0.5031  0.2298 -0.0316
14853SOL    HW245115   5.065   5.601   1.920 -1.9265  0.1079  0.4602
14854SOL     OW45116   5.225   5.365   6.130  0.2595  0.7484 -0.0527
14854SOL    HW145117   5.200   5.296   6.192 -1.5713 -0.7625 -2.2677
14854SOL    HW245118   5.143   5.391   6.088  1.2921  2.3122 -1.2350
14855SOL     OW45119   7.275   2.439   1.382  0.8684 -0.3378 -0.6057
14855SOL    HW145120   7.272   2.527   1.343 -2.2273 -0.1832 -0.2660
14855SOL    HW245121   7.320   2.452   1.465  0.8573  0.8763 -0.7632
14856SOL     OW45122   0.063   5.449   3.584 -0.4939 -0.5921  0.0906
14856SOL    HW145123   0.100   5.534   3.608 -0.1621 -0.8150  0.3890
14856SOL    HW245124  -0.029   5.466   3.566 -0.5206 -0.2414  0.5543
14857SOL     OW45125   0.399   1.176   4.161 -0.0503 -0.5146 -0.4057
14857SOL    HW145126   0.439   1.096   4.128  1.4082 -0.2579  0.6386
14857SOL    HW245127   0.447   1.196   4.241 -0.0758  1.6396 -0.8637
14858SOL     OW45128   4.361   6.299   6.519 -0.3521 -0.0151  0.0559
14858SOL    HW145129   4.405   6.249   6.451 -1.1403  0.1826 -0.6171
14858SOL    HW245130   4.406   6.384   6.519 -0.5751  0.1078 -0.4701
14859SOL     OW45131   5.188   2.364   2.791  0.7479  0.0327  0.3884
14859SOL    HW145132   5.257   2.429   2.779  2.7096 -1.4657  2.6154
14859SOL    HW245133   5.168   2.368   2.885  0.2633 -1.8945  0.4106
14860SOL     OW45134   3.219   5.211   6.287  0.4256 -0.5925 -0.1752
14860SOL    HW145135   3.227   5.130   6.236  3.0105  0.2725 -1.3121
14860SOL    HW245136   3.296   5.212   6.343 -0.3567  0.4037  0.9377
14861SOL     OW45137   1.952   4.835   7.004 -0.0505  0.0193  0.5742
14861SOL    HW145138   1.893   4.880   6.943  1.4851  1.2949 -0.0347
14861SOL    HW245139   1.960   4.747   6.968 -1.9030 -0.3407  0.9254
14862SOL     OW45140   6.589   6.040   5.364 -0.5499  0.2119 -0.2485
14862SOL    HW145141   6.559   5.954   5.394  0.2335 -0.2931 -0.8662
14862SOL    HW245142   6.654   6.066   5.430  0.4176 -0.4339 -0.9094
14863SOL     OW45143   5.043   1.672   2.301 -0.3738  0.6969  0.1685
14863SOL    HW145144   4.999   1.599   2.343  1.9423 -1.6171 -1.0709
14863SOL    HW245145   5.062   1.640   2.212  0.1458  3.0892 -0.6578
14864SOL     OW45146   3.832   4.301   1.868 -0.0654  0.0287 -0.4169
14864SOL    HW145147   3.839   4.232   1.802 -0.0757  0.8400 -1.2861
14864SOL    HW245148   3.765   4.269   1.929  1.4686 -1.7059  0.4343
14865SOL     OW45149   7.607   7.118   0.112 -0.5801 -0.4741 -0.2357
14865SOL    HW145150   7.679   7.178   0.132 -0.1542 -1.4222  1.2671
14865SOL    HW245151   7.617   7.097   0.019 -0.9971  2.0584 -0.9206
14866SOL     OW45152   2.075   5.407   7.157  0.2345 -0.0176 -0.8242
14866SOL    HW145153   2.025   5.489   7.151 -0.9328 -0.4350  1.9442
14866SOL    HW245154   2.160   5.433   7.191  0.1437  0.1265 -0.7050
14867SOL     OW45155   4.112   3.363   0.628 -0.1787 -0.0267  0.0983
14867SOL    HW145156   4.202   3.351   0.597 -0.3967  2.5958 -1.9432
14867SOL    HW245157   4.079   3.275   0.644  1.9099 -1.2168 -1.6594
14868SOL     OW45158   1.303   0.051   4.333 -0.3413 -0.3970  0.4305
14868SOL    HW145159   1.284   0.144   4.343 -1.3087 -0.5719  0.2744
14868SOL    HW245160   1.218   0.010   4.320 -0.0668 -1.4789  1.8539
14869SOL     OW45161   4.921   0.128   3.289 -0.0288  0.1699  0.2097
14869SOL    HW145162   4.976   0.089   3.221  0.4514  0.1150  0.6282
14869SOL    HW245163   4.838   0.081   3.282  0.2123 -0.2356  0.0516
14870SOL     OW45164   2.538   4.281   2.364  0.1907  0.1594 -0.3354
14870SOL    HW145165   2.584   4.216   2.417 -0.8161  0.1693  0.5874
14870SOL    HW245166   2.453   4.290   2.406 -1.3399 -1.1214 -2.9888
14871SOL     OW45167   1.701   4.692   0.199  0.3053 -0.0039 -0.1988
14871SOL    HW145168   1.763   4.669   0.269 -1.6252 -0.8237  1.3222
14871SOL    HW245169   1.661   4.608   0.175 -1.5625  0.7372  0.2088
14872SOL     OW45170   1.186   7.526   3.404 -0.1572  0.5530  0.5223
14872SOL    HW145171   1.221   7.450   3.450  0.6423  1.7354  1.9365
14872SOL    HW245172   1.180   7.498   3.313 -0.9867 -1.5831  1.1727
14873SOL     OW45173   2.667   5.895   0.318 -0.5450  0.1685  0.6744
14873SOL    HW145174   2.742   5.949   0.291 -0.0815 -0.7632  0.0617
14873SOL    HW245175   2.658   5.913   0.412  0.6706  0.0347  0.8323
14874SOL     OW45176   4.892   1.776   4.503  0.2132 -0.0219  0.3000
14874SOL    HW145177   4.869   1.684   4.490 -0.9496 -0.2645  3.2725
14874SOL    HW245178   4.987   1.779   4.487  0.2865 -1.7448  0.1670
14875SOL     OW45179   3.886   3.697   4.988  0.0106  0.5511  0.2579
14875SOL    HW145180   3.830   3.733   4.920 -0.4189  0.3005  0.4764
14875SOL    HW245181   3.938   3.630   4.944  0.4218  1.0447 -0.0284
14876SOL     OW45182   6.555   5.203   4.477  0.4011  0.1107 -0.6842
14876SOL    HW145183   6.533   5.114   4.450  1.8337 -0.8045  0.9747
14876SOL    HW245184   6.615   5.192   4.550  2.2256  2.4355 -1.6976
14877SOL     OW45185   0.478   3.241   3.896  0.1083  0.0035  0.3686
14877SOL    HW145186   0.493   3.266   3.805  1.1035 -2.4362 -0.2107
14877SOL    HW245187   0.383   3.248   3.908 -0.1080 -0.2593 -1.0628
14878SOL     OW45188   3.454   5.738   7.508  0.0701 -0.5667 -0.1189
14878SOL    HW145189   3.516   5.739   7.581  0.6844  2.3250 -0.5641
14878SOL    HW245190   3.454   5.828   7.475 -1.9646 -1.2310 -2.2053
14879SOL     OW45191   1.160   0.114   6.220  0.6067 -0.1806  0.2671
14879SOL    HW145192   1.145   0.020   6.227  0.9563 -0.4743 -2.2065
14879SOL    HW245193   1.078   0.150   6.186  0.9023  0.2067 -0.0549
14880SOL     OW45194   2.282   2.239   0.204 -0.0378 -0.0604  0.6804
14880SOL    HW145195   2.287   2.334   0.201  0.2022 -0.0774  0.5006
14880SOL    HW245196   2.342   2.214   0.274  2.3136 -0.2442 -1.2554
14881SOL     OW45197   7.036   3.811   2.505  0.2710  0.2481 -0.1234
14881SOL    HW145198   7.082   3.744   2.455  2.0945  0.7637  0.7775
14881SOL    HW245199   6.996   3.764   2.578  0.1676 -0.0816 -0.3923
14882SOL     OW45200   5.353   3.084   5.014 -0.1626 -0.7206  0.1167
14882SOL    HW145201   5.327   3.116   5.100  1.0267  2.3766 -0.5617
14882SOL    HW245202   5.448   3.082   5.016 -0.1377 -1.7379 -0.7765
14883SOL     OW45203   4.832   1.972   3.729 -0.1283  0.7127  0.6257
14883SOL    HW145204   4.851   1.932   3.814  0.4923  0.0175  0.1792
14883SOL    HW245205   4.793   2.057   3.750  0.4038  0.7282  1.6027
14884SOL     OW45206   5.517   2.253   0.687 -0.0444  0.2431  0.1099
14884SOL    HW145207   5.522   2.264   0.782 -0.1209 -0.7200  0.2332
14884SOL    HW245208   5.474   2.168   0.674  0.2823  0.1987 -0.7825
14885SOL     OW45209   3.276   1.287   6.237 -0.0819  0.2444 -0.2057
14885SOL    HW145210   3.251   1.230   6.310 -1.0031  0.8284 -0.0608
14885SOL    HW245211   3.345   1.238   6.192 -1.4171 -1.3954 -0.5824
14886SOL     OW45212   2.624   2.221   2.059 -0.1304 -0.3148 -0.4198
14886SOL    HW145213   2.628   2.201   2.152 -0.5088  1.2299 -0.0488
14886SOL    HW245214   2.537   2.260   2.047  0.6298  1.2208 -1.0531
14887SOL     OW45215   7.626   1.553   2.257  0.1027  0.2363 -0.1000
14887SOL    HW145216   7.688   1.546   2.330 -0.1662 -1.7411 -0.0097
14887SOL    HW245217   7.620   1.647   2.240  0.9572  0.6786  1.7414
14888SOL     OW45218   2.322   5.936   7.276  0.0390 -0.3805 -0.4243
14888SOL    HW145219   2.376   5.989   7.219 -0.1161 -1.1377 -1.2989
14888SOL    HW245220   2.232   5.960   7.254 -0.0538 -1.4010 -1.2601
14889SOL     OW45221   5.708   7.231   3.177  0.0110 -0.2379 -0.3325
14889SOL    HW145222   5.756   7.313   3.195 -0.1614 -0.3451  0.7022
14889SOL    HW245223   5.689   7.196   3.264 -1.2325 -0.6232 -0.7458
14890SOL     OW45224   6.950   7.174   5.911 -0.0407  0.6271 -0.6214
14890SOL    HW145225   6.967   7.222   5.992  2.0432  0.9167 -1.1943
14890SOL    HW245226   6.925   7.241   5.848 -0.3014  0.5602 -0.5919
14891SOL     OW45227   7.287   4.921   0.642 -0.2764 -0.4744  0.1068
14891SOL    HW145228   7.349   4.995   0.640 -1.1621  0.2756 -0.0400
14891SOL    HW245229   7.334   4.850   0.599  0.0330  0.4516 -1.1564
14892SOL     OW45230   6.742   6.787   1.029 -0.3103  0.3881 -0.0183
14892SOL    HW145231   6.685   6.847   0.981 -1.7308  0.0661  1.1959
14892SOL    HW245232   6.820   6.839   1.047 -0.8924  1.4008 -0.2706
14893SOL     OW45233   1.818   0.096   5.325  0.2412  0.1336 -0.1902
14893SOL    HW145234   1.802   0.077   5.233  2.0809  1.6444 -0.9063
14893SOL    HW245235   1.883   0.167   5.323  0.9252 -0.3476  2.2773
14894SOL     OW45236   2.759   5.421   0.586 -0.2336 -0.0766  0.2114
14894SOL    HW145237   2.783   5.427   0.493  1.2443 -1.7544  0.4369
14894SOL    HW245238   2.709   5.340   0.592 -0.3488  0.0434  0.8883
14895SOL     OW45239   6.680   3.756   2.853  0.2833  0.3475 -0.1151
14895SOL    HW145240   6.645   3.721   2.771  0.0754  1.1030 -0.3544
14895SOL    HW245241   6.664   3.850   2.848 -2.8951  0.1035  2.2511
14896SOL     OW45242   6.675   7.497   2.029 -0.6880  0.4110 -0.0243
14896SOL    HW145243   6.634   7.421   1.987 -0.2703  0.3778 -0.3853
14896SOL    HW245244   6.646   7.571   1.976  0.4603  0.2878 -0.8681
14897SOL     OW45245   5.037   3.090   4.836  0.3025 -0.1904  0.1635
14897SOL    HW145246   5.024   3.057   4.925  0.5374 -0.0550  0.2522
14897SOL    HW245247   5.108   3.035   4.801  0.3401 -0.1199  0.1290
14898SOL     OW45248   6.123   3.646   6.641 -0.1991 -0.0437 -0.4951
14898SOL    HW145249   6.179   3.626   6.716  0.2299 -1.5746 -1.1825
14898SOL    HW245250   6.175   3.705   6.586 -0.1724  0.3719 -0.0247
14899SOL     OW45251   7.329   4.027   1.100 -0.3447  0.1944 -0.0011
14899SOL    HW145252   7.269   4.056   1.031 -0.4523  1.3426  0.5605
14899SOL    HW245253   7.369   4.107   1.133  1.5638 -0.5548 -0.3908
14900SOL     OW45254   3.163   1.865   5.381  0.1096 -0.5135  0.4745
14900SOL    HW145255   3.150   1.772   5.361 -0.1290  0.2083 -3.6256
14900SOL    HW245256   3.076   1.904   5.368  0.4105  0.4306  1.2103
14901SOL     OW45257   6.255   1.528   0.400  0.2886  0.0432  0.0317
14901SOL    HW145258   6.187   1.568   0.347 -0.9869 -0.7757  1.0028
14901SOL    HW245259   6.316   1.600   0.419 -0.0168  0.6672 -1.2678
14902SOL     OW45260   2.131   1.874   4.717 -0.3649  0.2321 -0.1102
14902SOL    HW145261   2.116   1.795   4.769  0.4729 -0.0737 -0.3114
14902SOL    HW245262   2.078   1.862   4.638  0.9827 -0.8988 -0.8881
14903SOL     OW45263   0.115   6.108   3.409  0.4822 -0.3319 -0.0315
14903SOL    HW145264   0.131   6.039   3.473 -0.0898 -0.7150 -0.2940
14903SOL    HW245265   0.021   6.104   3.392  0.4894  0.3326 -0.2554
14904SOL     OW45266   5.305   1.218   3.688 -0.0599  0.3438 -0.5948
14904SOL    HW145267   5.347   1.253   3.766  0.0790  1.3009 -1.0788
14904SOL    HW245268   5.297   1.293   3.629 -0.9408 -0.1719 -1.1673
14905SOL     OW45269   3.273   2.504   2.856  0.0738 -0.1602  0.3122
14905SOL    HW145270   3.205   2.456   2.903 -1.2905  0.7496 -0.6531
14905SOL    HW245271   3.354   2.458   2.878 -0.8441 -1.3167  1.4520
14906SOL     OW45272   2.257   2.660   3.437 -0.1186 -0.2192 -0.5190
14906SOL    HW145273   2.333   2.665   3.496 -0.5520 -0.7034  0.1018
14906SOL    HW245274   2.285   2.600   3.368  0.0278 -0.5002 -0.2218
14907SOL     OW45275   7.185   3.095   0.954 -0.2727 -0.0690 -0.2475
14907SOL    HW145276   7.230   3.109   1.037  0.9671 -1.7464 -0.5780
14907SOL    HW245277   7.248   3.124   0.888 -1.7331  2.4606 -0.6247
14908SOL     OW45278   0.187   3.334   2.257  0.6502 -0.1275  0.5955
14908SOL    HW145279   0.150   3.247   2.240 -1.6458  0.5073  1.9752
14908SOL    HW245280   0.260   3.317   2.316  1.4370 -1.2452 -0.6208
14909SOL     OW45281   2.456   7.243   2.163  0.1409 -0.5078  0.1031
14909SOL    HW145282   2.515   7.290   2.105  1.5309 -1.7807  0.4424
14909SOL    HW245283   2.509   7.174   2.202 -0.1662  1.2989  4.3025
14910SOL     OW45284   1.193   6.901   6.622 -0.4751 -0.1293  0.6328
14910SOL    HW145285   1.245   6.921   6.544  0.5774  2.1606  1.8076
14910SOL    HW245286   1.231   6.955   6.691 -2.8691 -0.2336  2.1790
14911SOL     OW45287   5.863   3.603   6.892 -0.3492  0.1048  0.1506
14911SOL    HW145288   5.768   3.610   6.902 -0.2477  0.9952  0.5772
14911SOL    HW245289   5.885   3.663   6.821  0.2642  2.6148  2.3047
14912SOL     OW45290   5.538   2.740   4.997  0.1789 -0.3496 -0.1978
14912SOL    HW145291   5.515   2.806   5.062 -1.5795 -1.1624  0.0880
14912SOL    HW245292   5.608   2.779   4.946  1.7303  0.2784  2.2510
14913SOL     OW45293   5.823   1.534   2.297 -0.1723 -0.1838  0.8565
14913SOL    HW145294   5.906   1.582   2.301 -0.0172 -0.4555  0.9315
14913SOL    HW245295   5.848   1.445   2.273 -0.5247 -0.0646  0.0271
14914SOL     OW45296   6.207   2.843   2.514 -0.3577 -0.3252  0.0145
14914SOL    HW145297   6.140   2.781   2.487  0.0175 -0.6899 -0.0863
14914SOL    HW245298   6.161   2.905   2.571 -0.8305 -0.4224 -0.2613
14915SOL     OW45299   1.843   2.120   0.247 -0.0018  0.1375 -0.0577
14915SOL    HW145300   1.931   2.080   0.244  0.4503  0.8750  1.9575
14915SOL    HW245301   1.803   2.083   0.325 -1.6653 -0.4364 -1.1365
14916SOL     OW45302   6.722   0.153   5.945 -0.0977 -0.0558  0.1450
14916SOL    HW145303   6.796   0.114   5.899  0.5537  0.7241  0.5013
14916SOL    HW245304   6.706   0.096   6.020 -0.3964 -0.6762 -0.3792
14917SOL     OW45305   3.906   6.997   7.643 -0.0712  0.0756 -0.0012
14917SOL    HW145306   3.835   6.997   7.706  1.1846  0.0249  1.4732
14917SOL    HW245307   3.867   6.960   7.563 -1.1640 -2.0245  1.4070
14918SOL     OW45308   4.215   4.285   3.301  0.2282 -0.2503  0.4867
14918SOL    HW145309   4.310   4.290   3.295  0.4523  1.7832  3.2998
14918SOL    HW245310   4.183   4.350   3.239  0.7056 -0.5626 -0.0872
14919SOL     OW45311   0.512   0.832   7.445 -0.0286 -0.5579 -0.1331
14919SOL    HW145312   0.551   0.810   7.360 -0.0564 -0.0692 -0.2773
14919SOL    HW245313   0.541   0.763   7.504  0.7169 -0.4313 -0.3401
14920SOL     OW45314   6.618   0.721   1.928  0.1761  0.1126  0.3287
14920SOL    HW145315   6.678   0.693   1.859 -2.0186  0.1318 -1.7085
14920SOL    HW245316   6.621   0.650   1.993  1.6493 -0.3097 -0.1649
14921SOL     OW45317   0.197   3.344   0.029 -0.4605 -0.2593  0.1549
14921SOL    HW145318   0.206   3.320   0.121 -0.9557 -1.6410 -0.1373
14921SOL    HW245319   0.285   3.334  -0.006  0.0269  1.5938  0.7476
14922SOL     OW45320   0.968   5.656   0.008  0.4867 -0.0207 -0.4288
14922SOL    HW145321   1.002   5.714   0.076  2.0098  0.1650 -1.3147
14922SOL    HW245322   1.044   5.633  -0.045 -0.0538 -2.8206 -0.1515
14923SOL     OW45323   5.331   5.145   2.476  0.5781  0.0794 -0.0564
14923SOL    HW145324   5.310   5.222   2.424  0.7713 -1.1840 -2.0897
14923SOL    HW245325   5.426   5.151   2.492  0.3936  0.8372  0.7986
14924SOL     OW45326   5.814   4.149   1.304  0.1040  0.3438 -0.2719
14924SOL    HW145327   5.722   4.150   1.329  0.1838  1.7315  0.0116
14924SOL    HW245328   5.842   4.240   1.309  2.2293 -0.3381  2.2966
14925SOL     OW45329   1.920   5.948   2.806  0.0789  0.2155 -0.0195
14925SOL    HW145330   1.914   5.996   2.889 -0.3948  1.5853 -0.8229
14925SOL    HW245331   1.830   5.944   2.773  0.2266 -0.5409 -0.3638
14926SOL     OW45332   2.291   0.514   6.666 -0.7343  0.5812  0.0469
14926SOL    HW145333   2.299   0.510   6.571 -0.2026 -0.3374  0.1166
14926SOL    HW245334   2.238   0.438   6.689  0.5675 -0.1885  0.6123
14927SOL     OW45335   3.779   5.013   5.015  0.5464 -0.4787  0.0031
14927SOL    HW145336   3.706   5.074   5.021  1.1539  0.2654 -0.0199
14927SOL    HW245337   3.766   4.953   5.088 -0.5460 -0.8864 -0.4960
14928SOL     OW45338   4.498   0.687   1.689 -0.2157 -0.2116  0.1554
14928SOL    HW145339   4.404   0.709   1.686  0.3273  2.3649 -0.1992
14928SOL    HW245340   4.542   0.771   1.681  2.1857 -1.5521 -1.9908
14929SOL     OW45341   3.818   3.487   2.769 -0.1417 -0.1839  0.0294
14929SOL    HW145342   3.894   3.429   2.776  0.3161  0.1043 -1.8828
14929SOL    HW245343   3.855   3.574   2.757 -0.8182  0.3335  1.4780
14930SOL     OW45344   1.210   5.294   0.347  0.5071 -0.6358  0.3536
14930SOL    HW145345   1.143   5.225   0.350  0.2058 -0.4532 -1.1866
14930SOL    HW245346   1.165   5.369   0.306  0.7881  0.5514  2.1055
14931SOL     OW45347   4.078   6.224   4.452  0.8557  0.5939 -0.2255
14931SOL    HW145348   3.984   6.218   4.431  1.0874  0.3101 -1.2597
14931SOL    HW245349   4.109   6.297   4.398  1.5079 -0.2349 -1.0121
14932SOL     OW45350   3.403   6.591   5.133 -0.1537 -0.4313  0.3733
14932SOL    HW145351   3.328   6.618   5.186  0.1036  3.0543 -0.7182
14932SOL    HW245352   3.374   6.512   5.087 -2.2483 -0.5452  1.7793
14933SOL     OW45353   2.980   4.015   3.980 -0.4471 -0.1892 -0.2485
14933SOL    HW145354   2.925   3.943   4.011  0.6410 -1.6918 -1.6775
14933SOL    HW245355   3.047   3.973   3.926  1.1717  1.7389  0.1383
14934SOL     OW45356   6.495   2.171   0.697  0.0874  0.1598 -0.2672
14934SOL    HW145357   6.496   2.179   0.793 -2.2548  0.3580 -0.2069
14934SOL    HW245358   6.492   2.261   0.665  1.8978  0.1334 -0.6083
14935SOL     OW45359   5.495   7.096   4.408 -0.3750 -0.0841 -0.2338
14935SOL    HW145360   5.516   7.097   4.315  1.0225 -0.4572  0.0522
14935SOL    HW245361   5.558   7.156   4.448 -0.4510 -0.5141  0.5699
14936SOL     OW45362   0.410   1.597   2.016  0.3810 -0.0860 -0.9460
14936SOL    HW145363   0.501   1.577   2.036  0.6287  1.3827 -0.5193
14936SOL    HW245364   0.360   1.552   2.084  1.0149  1.9449  0.9849
14937SOL     OW45365   4.088   5.894   4.397  0.3517  0.3046 -0.1325
14937SOL    HW145366   4.168   5.942   4.420  0.2425  0.6456 -0.4682
14937SOL    HW245367   4.099   5.808   4.439  0.8952  0.3474 -0.1865
14938SOL     OW45368   6.344   5.820   0.234 -0.3671 -0.6849 -0.0168
14938SOL    HW145369   6.419   5.773   0.272  1.1624  0.7359 -1.1174
14938SOL    HW245370   6.359   5.911   0.258 -2.2761 -0.4682  0.4980
14939SOL     OW45371   3.695   2.156   6.490 -0.6084 -0.4426  0.0174
14939SOL    HW145372   3.744   2.207   6.555 -1.6219  0.4166  0.1379
14939SOL    HW245373   3.704   2.206   6.409 -1.7462  0.0528  0.1730
14940SOL     OW45374   2.402   0.009   4.168  0.0279 -0.1125 -0.0716
14940SOL    HW145375   2.363   0.030   4.253  1.1076  0.7523  0.2250
14940SOL    HW245376   2.450   0.088   4.143  2.8065 -1.5939  0.2745
14941SOL     OW45377   7.512   5.747   5.832  0.3956  0.0278 -0.0755
14941SOL    HW145378   7.557   5.663   5.838 -0.0968 -0.2076  0.4437
14941SOL    HW245379   7.582   5.811   5.824  0.7629 -0.5012 -1.5819
14942SOL     OW45380   0.158   7.363   2.452 -0.7527 -0.2722 -0.0031
14942SOL    HW145381   0.083   7.386   2.507  1.5200 -0.8709  3.6830
14942SOL    HW245382   0.207   7.445   2.442 -1.7235  0.1114 -2.3730
14943SOL     OW45383   2.697   1.455   0.656  0.0103  0.5097 -0.6266
14943SOL    HW145384   2.757   1.528   0.643  0.6533  0.1238  0.0865
14943SOL    HW245385   2.753   1.377   0.655 -0.4687  0.1433  0.0425
14944SOL     OW45386   4.594   4.681   3.229  0.5919  0.1247  0.0683
14944SOL    HW145387   4.651   4.709   3.301  1.4623 -0.4288 -0.3745
14944SOL    HW245388   4.516   4.734   3.237  0.8288  0.3193  1.2086
14945SOL     OW45389   0.750   3.886   0.652  0.1058  0.3794  0.3122
14945SOL    HW145390   0.666   3.845   0.675  0.6449 -1.1221 -0.2562
14945SOL    HW245391   0.732   3.932   0.569 -0.3062  0.6195  0.5292
14946SOL     OW45392   6.104   7.374   3.197 -0.2322 -0.6271 -0.2226
14946SOL    HW145393   6.092   7.459   3.155  1.4540 -0.0076  0.4500
14946SOL    HW245394   6.077   7.387   3.288  0.3865 -0.6785 -0.0217
14947SOL     OW45395   6.127   2.335   3.076  0.4720 -0.5263 -0.0961
14947SOL    HW145396   6.201   2.332   3.136 -0.2454  0.1647  0.8383
14947SOL    HW245397   6.086   2.420   3.091  0.5357 -0.1229 -1.8967
14948SOL     OW45398   3.120   4.010   5.862  0.7380 -0.0207  0.1035
14948SOL    HW145399   3.112   4.096   5.904  0.7738 -0.8317  1.8877
14948SOL    HW245400   3.192   4.020   5.801  1.2231  1.0374  0.8072
14949SOL     OW45401   6.444   4.611   2.749  0.3283  0.0963 -0.0894
14949SOL    HW145402   6.380   4.663   2.701  0.4721  0.5531  0.2133
14949SOL    HW245403   6.503   4.577   2.682 -0.3722 -0.5463 -0.4062
14950SOL     OW45404   7.639   4.307   3.984  0.6905 -0.0569 -0.3990
14950SOL    HW145405   7.692   4.376   3.944  0.4191 -0.0017 -0.6622
14950SOL    HW245406   7.569   4.291   3.922 -1.4205  2.0307  1.2804
14951SOL     OW45407   3.957   0.334   2.340 -0.6794  0.1711  0.0585
14951SOL    HW145408   3.899   0.319   2.415 -0.3821 -0.6488  0.1362
14951SOL    HW245409   3.917   0.407   2.292 -1.6848 -0.2879  0.1935
14952SOL     OW45410   7.337   1.386   2.639 -0.3882  0.3673  0.3465
14952SOL    HW145411   7.300   1.426   2.718 -1.5176  0.0563 -0.0058
14952SOL    HW245412   7.286   1.306   2.627  2.0740 -1.4788  1.2609
14953SOL     OW45413   3.457   4.157   0.762  0.0858  0.3701  0.2792
14953SOL    HW145414   3.516   4.157   0.687 -0.5242  0.4238 -0.2051
14953SOL    HW245415   3.384   4.100   0.736  1.2078 -2.0029  1.9101
14954SOL     OW45416   3.098   4.574   4.686 -0.4275 -0.3556 -0.5481
14954SOL    HW145417   3.133   4.545   4.770 -3.1230  1.6609  1.4256
14954SOL    HW245418   3.007   4.546   4.686 -0.8253  0.7285 -2.2707
14955SOL     OW45419   3.509   7.141   0.767 -0.3300 -0.2403  0.1457
14955SOL    HW145420   3.575   7.193   0.723 -0.6162  1.4830  1.6232
14955SOL    HW245421   3.478   7.079   0.701 -0.2229  1.7117 -1.8343
14956SOL     OW45422   3.045   6.415   4.251 -0.8136  0.2601  0.3089
14956SOL    HW145423   3.004   6.422   4.337 -3.8473  0.1605 -1.0186
14956SOL    HW245424   2.994   6.349   4.205  3.1444 -2.7212 -0.4001
14957SOL     OW45425   2.297   4.149   3.076 -0.2478  0.1775 -0.2154
14957SOL    HW145426   2.228   4.085   3.061 -0.6400  0.8786 -1.5675
14957SOL    HW245427   2.289   4.171   3.169 -1.2082 -0.4775 -0.1303
14958SOL     OW45428   3.483   4.278   6.815  0.5002 -0.1631 -0.2738
14958SOL    HW145429   3.571   4.294   6.848 -0.2158  2.6464  0.5537
14958SOL    HW245430   3.496   4.226   6.735  2.7274 -1.2960  0.7526
14959SOL     OW45431   6.825   5.121   2.421 -0.3629 -0.4985 -0.0728
14959SOL    HW145432   6.774   5.186   2.469  0.4225 -0.6633  1.0377
14959SOL    HW245433   6.773   5.103   2.342 -1.5531  0.0154  0.5582
14960SOL     OW45434   0.094   1.713   2.682  0.1922  0.3111  0.2938
14960SOL    HW145435   0.069   1.783   2.741  0.8087  0.9613 -0.2023
14960SOL    HW245436   0.180   1.684   2.713  0.3994  0.4762 -0.1089
14961SOL     OW45437   2.691   5.946   3.678  0.0643 -0.0266  0.8332
14961SOL    HW145438   2.743   6.023   3.702  0.1558  0.4090 -0.6966
14961SOL    HW245439   2.635   5.975   3.607  0.3167 -1.4410  0.0092
14962SOL     OW45440   1.708   0.779   6.536  0.1946  0.3479  0.7250
14962SOL    HW145441   1.762   0.716   6.488 -0.8738 -0.6780  0.8408
14962SOL    HW245442   1.758   0.861   6.533  0.4340  0.1657 -1.6140
14963SOL     OW45443   1.219   1.859   0.863  0.3298 -0.2322  0.2839
14963SOL    HW145444   1.210   1.774   0.907  2.4518 -1.3824 -1.3126
14963SOL    HW245445   1.146   1.862   0.801  0.5984 -1.2055 -0.0959
14964SOL     OW45446   2.363   0.922   5.742 -0.0697  0.1610 -0.0417
14964SOL    HW145447   2.370   0.842   5.691 -3.0316 -0.7040  0.7061
14964SOL    HW245448   2.344   0.990   5.677 -0.7669 -0.3532 -0.3833
14965SOL     OW45449   7.437   4.785   2.127  0.2053  0.0220  0.1369
14965SOL    HW145450   7.446   4.699   2.087  0.4620 -0.8034  1.8607
14965SOL    HW245451   7.522   4.802   2.168 -0.3764  0.2937  1.2805
14966SOL     OW45452   4.908   1.266   4.165 -0.1849  0.0505 -0.5322
14966SOL    HW145453   4.880   1.357   4.164 -1.6951 -0.3507  0.8397
14966SOL    HW245454   4.998   1.269   4.198  0.0660  1.0767 -1.2568
14967SOL     OW45455   7.310   0.406   5.475 -0.5083  0.1104  0.1443
14967SOL    HW145456   7.403   0.421   5.494 -0.2009 -0.7767 -0.5514
14967SOL    HW245457   7.299   0.437   5.386 -0.4173 -1.4771 -0.4498
14968SOL     OW45458   1.433   1.947   1.555 -0.0825  0.0905  0.1742
14968SOL    HW145459   1.511   1.891   1.550 -0.1980 -0.1215  0.7316
14968SOL    HW245460   1.443   1.994   1.638 -0.6943 -0.1571  0.3896
14969SOL     OW45461   6.651   6.945   7.401  0.2643 -0.1817  0.4690
14969SOL    HW145462   6.596   7.012   7.441  2.9293  2.0025  0.8002
14969SOL    HW245463   6.674   6.980   7.315  1.3495 -0.8371  0.4657
14970SOL     OW45464   1.873   2.512   4.399  0.8135 -0.2418 -0.1253
14970SOL    HW145465   1.961   2.529   4.365  0.7441 -0.2753 -0.3249
14970SOL    HW245466   1.814   2.546   4.331  0.6703  0.1586  0.1953
14971SOL     OW45467   2.966   4.246   6.952 -0.3444 -0.1135  0.1998
14971SOL    HW145468   2.880   4.286   6.945 -1.0151 -1.5696 -0.3101
14971SOL    HW245469   3.013   4.300   7.016 -0.6396  2.3541 -1.5312
14972SOL     OW45470   0.683   1.084   4.135 -0.3246 -0.1906  0.7722
14972SOL    HW145471   0.743   1.122   4.070 -1.0351  1.4647  1.0436
14972SOL    HW245472   0.682   0.991   4.114 -0.2846  0.2418 -1.3902
14973SOL     OW45473   0.079   6.776   4.037  0.6969  0.3261 -0.7590
14973SOL    HW145474   0.054   6.758   3.946  0.5072 -2.4298 -0.2516
14973SOL    HW245475   0.096   6.690   4.075 -0.1466  1.2976  2.1087
14974SOL     OW45476   1.248   7.590   2.576 -0.3330 -0.0647 -0.2990
14974SOL    HW145477   1.342   7.591   2.597 -0.0809 -0.0573 -1.3667
14974SOL    HW245478   1.237   7.512   2.520 -1.3170 -1.1394  1.3185
14975SOL     OW45479   0.290   4.794   1.990 -0.4715 -0.4331  0.3066
14975SOL    HW145480   0.209   4.750   1.965 -0.7873 -0.3685  1.1867
14975SOL    HW245481   0.333   4.734   2.050 -0.7335  0.2863  1.2385
14976SOL     OW45482   7.123   7.638   1.165  0.5593  0.3061  0.0662
14976SOL    HW145483   7.142   7.563   1.222  0.4283 -0.8680 -1.3643
14976SOL    HW245484   7.206   7.655   1.120 -0.3231 -1.7062 -2.6206
14977SOL     OW45485   0.743   5.560   0.581 -0.3705 -0.5500 -0.1685
14977SOL    HW145486   0.662   5.593   0.541 -1.5670 -1.9644  0.9414
14977SOL    HW245487   0.717   5.477   0.622  1.3941 -0.4928  1.1921
14978SOL     OW45488   1.612   5.991   1.107 -0.3156 -0.4020  0.9221
14978SOL    HW145489   1.657   6.074   1.089 -0.4879 -0.4297  0.3204
14978SOL    HW245490   1.519   6.013   1.101 -0.4572 -1.2596 -2.7114
14979SOL     OW45491   6.544   4.823   5.316 -0.0934  0.1249 -0.2283
14979SOL    HW145492   6.598   4.797   5.241  2.6370  2.1951  0.8548
14979SOL    HW245493   6.593   4.791   5.393 -3.3913 -3.0147  0.8308
14980SOL     OW45494   1.256   2.477   5.522 -0.1638 -0.2249  0.1525
14980SOL    HW145495   1.250   2.553   5.580  0.3059 -1.2810  1.6535
14980SOL    HW245496   1.233   2.402   5.578  1.4385 -1.4204 -0.7101
14981SOL     OW45497   0.860   1.574   5.098 -0.1788 -0.5025 -0.0866
14981SOL    HW145498   0.941   1.607   5.058 -0.4666 -1.4089 -1.4552
14981SOL    HW245499   0.828   1.648   5.150  1.2041  0.0719 -0.0033
14982SOL     OW45500   2.172   4.112   1.840 -0.2887  0.7173 -0.9635
14982SOL    HW145501   2.148   4.194   1.797 -1.0007  0.3099 -1.3566
14982SOL    HW245502   2.129   4.044   1.788  1.1390  0.0097 -1.2738
14983SOL     OW45503   0.249   2.442   2.108 -0.4216  0.3609 -1.0662
14983SOL    HW145504   0.170   2.494   2.121 -0.2951  0.1122  0.9742
14983SOL    HW245505   0.222   2.352   2.124  0.3036  0.2986 -0.0888
14984SOL     OW45506   2.431   1.653   1.163  0.1346 -0.4378  0.1154
14984SOL    HW145507   2.503   1.707   1.130  1.2927 -2.0403 -0.0797
14984SOL    HW245508   2.474   1.583   1.212 -1.2638 -1.7193 -0.4142
14985SOL     OW45509   6.125   1.642   3.423  0.0760  0.8583 -0.1515
14985SOL    HW145510   6.209   1.611   3.388 -0.4445 -0.8226  0.0283
14985SOL    HW245511   6.060   1.580   3.389 -0.9433  1.4096  0.7267
14986SOL     OW45512   2.621   3.813   7.042 -0.0427 -0.4597  0.1547
14986SOL    HW145513   2.671   3.742   7.083  1.4896  0.3943 -0.1903
14986SOL    HW245514   2.547   3.768   7.000  1.3403 -1.9716 -0.7745
14987SOL     OW45515   2.918   6.891   3.163 -0.2595  0.1770 -0.0403
14987SOL    HW145516   2.832   6.865   3.128 -0.6408  0.4762  0.6532
14987SOL    HW245517   2.904   6.898   3.257  0.8661 -1.0405  0.2341
14988SOL     OW45518   0.119   0.624   4.360 -0.6925  0.2167 -0.4069
14988SOL    HW145519   0.169   0.545   4.382 -0.0323  0.4806 -0.9478
14988SOL    HW245520   0.133   0.683   4.435 -4.2719 -1.5261  1.9295
14989SOL     OW45521   3.471   0.605   0.558 -0.1439 -0.0805 -0.0553
14989SOL    HW145522   3.503   0.566   0.476  0.0252 -0.3251  0.1269
14989SOL    HW245523   3.378   0.621   0.542 -0.2679 -0.7635 -0.0572
14990SOL     OW45524   2.201   4.273   4.348 -0.2099 -0.5245 -0.1847
14990SOL    HW145525   2.261   4.226   4.405  2.6924  1.6020 -1.2485
14990SOL    HW245526   2.137   4.312   4.408  1.2965 -0.3416  1.3944
14991SOL     OW45527   6.904   0.989   7.369 -0.3250 -0.0478 -0.4608
14991SOL    HW145528   6.985   0.981   7.418  1.2896 -1.0459 -3.0611
14991SOL    HW245529   6.932   0.994   7.277 -3.0947  2.4888 -1.3081
14992SOL     OW45530   0.261   6.107   6.529 -0.5175  0.3837  0.2684
14992SOL    HW145531   0.190   6.049   6.502  0.1836 -0.2124 -0.3304
14992SOL    HW245532   0.218   6.192   6.544 -1.4998 -0.1990  0.8507
14993SOL     OW45533   2.837   4.338   5.063  0.1102 -0.4870  0.7310
14993SOL    HW145534   2.795   4.259   5.028  0.9508  0.1262 -1.8337
14993SOL    HW245535   2.872   4.310   5.148  0.1225 -2.7875  0.0326
14994SOL     OW45536   4.821   7.295   3.338  0.0338  0.7405 -0.1038
14994SOL    HW145537   4.915   7.287   3.325  0.1321  1.7108 -0.1318
14994SOL    HW245538   4.782   7.258   3.259  0.2731 -2.0016  0.9713
14995SOL     OW45539   0.383   1.040   4.437 -0.1442  0.5519  0.3579
14995SOL    HW145540   0.306   0.985   4.419  0.6938 -0.3116 -0.7488
14995SOL    HW245541   0.458   0.982   4.421  0.7572  1.5742  0.7408
14996SOL     OW45542   1.192   1.765   4.031  0.5780  0.0689  0.1052
14996SOL    HW145543   1.253   1.761   3.958 -0.8684 -2.5858 -1.0887
14996SOL    HW245544   1.246   1.745   4.108  1.8661  1.6517 -0.3168
14997SOL     OW45545   7.227   6.785   4.879  0.2973 -0.0789  0.2858
14997SOL    HW145546   7.316   6.755   4.898  0.3561 -1.4787 -1.8579
14997SOL    HW245547   7.182   6.780   4.963  1.8330 -0.8767  1.1094
14998SOL     OW45548   0.654   1.072   0.422 -0.0701  0.4728  0.0617
14998SOL    HW145549   0.565   1.038   0.410  0.4165  0.0325 -3.4410
14998SOL    HW245550   0.642   1.167   0.427 -0.8015  0.3468  1.0953
14999SOL     OW45551   3.815   1.061   5.482 -0.3262 -0.0706 -0.0197
14999SOL    HW145552   3.768   1.070   5.565 -0.2303 -0.9788  0.1414
14999SOL    HW245553   3.778   1.130   5.427 -0.4669  0.4765  0.7387
15000SOL     OW45554   3.135   0.834   4.282 -0.0453 -0.1859 -0.8204
15000SOL    HW145555   3.054   0.875   4.310  1.0738  1.2440  0.4492
15000SOL    HW245556   3.199   0.905   4.279  0.9407 -1.0578 -2.8904
15001SOL     OW45557   6.737   1.340   3.661  0.1522 -0.2462 -0.2647
15001SOL    HW145558   6.823   1.382   3.673 -0.1214 -0.0406  1.2154
15001SOL    HW245559   6.730   1.280   3.735 -0.4570 -1.1997 -1.0882
15002SOL     OW45560   3.116   6.391   2.422 -0.4222 -0.4154  0.6863
15002SOL    HW145561   3.177   6.336   2.373 -1.5678 -0.3462 -0.8854
15002SOL    HW245562   3.111   6.472   2.371  0.0515  0.5679  2.1384
15003SOL     OW45563   0.645   6.816   4.127  0.2735 -0.6713 -0.2260
15003SOL    HW145564   0.625   6.729   4.160  1.6113 -0.0027  2.6833
15003SOL    HW245565   0.561   6.862   4.129  0.0742 -1.0436  1.2223
15004SOL     OW45566   3.747   5.094   3.514  0.1543  0.6400 -0.0270
15004SOL    HW145567   3.804   5.169   3.531 -0.0988  0.6750  0.6841
15004SOL    HW245568   3.792   5.020   3.555  0.8735  0.2122 -1.5303
15005SOL     OW45569   0.361   3.590   3.943 -0.4159 -0.3493  0.2673
15005SOL    HW145570   0.329   3.665   3.891  0.9473 -0.3562 -0.6233
15005SOL    HW245571   0.342   3.614   4.034 -1.2408  0.4657 -0.1037
15006SOL     OW45572   1.264   6.312   6.671  0.0477  0.2818  0.1409
15006SOL    HW145573   1.250   6.350   6.758 -0.2700 -1.5158  0.9350
15006SOL    HW245574   1.183   6.331   6.623 -0.9908 -1.1592  1.2363
15007SOL     OW45575   1.789   7.680   3.956 -0.1695 -0.6198 -0.1693
15007SOL    HW145576   1.711   7.667   3.903  0.0620 -0.8864 -0.4515
15007SOL    HW245577   1.861   7.684   3.893  0.0697 -0.6058  0.1001
15008SOL     OW45578   5.391   5.311   0.665 -0.5854  0.0180 -0.3224
15008SOL    HW145579   5.447   5.235   0.648 -0.4371 -0.1596  0.8658
15008SOL    HW245580   5.306   5.274   0.686 -0.3785  0.1214  0.7933
15009SOL     OW45581   5.214   4.142   4.798  0.4340  0.5549 -0.5324
15009SOL    HW145582   5.173   4.058   4.819  0.1489  0.7791 -0.1796
15009SOL    HW245583   5.264   4.125   4.718  0.6668 -0.0408 -0.2689
15010SOL     OW45584   4.720   0.420   2.665  0.0383 -0.0011  0.2345
15010SOL    HW145585   4.799   0.417   2.719  0.8766 -0.8940 -0.9938
15010SOL    HW245586   4.752   0.435   2.576 -1.0599 -1.5274 -0.4651
15011SOL     OW45587   2.734   3.014   3.227 -0.2479 -0.3779 -0.1144
15011SOL    HW145588   2.708   3.105   3.236 -0.4686 -0.3987 -0.5436
15011SOL    HW245589   2.688   2.983   3.149 -0.4101 -0.9405  0.2002
15012SOL     OW45590   4.198   3.609   4.648 -0.5843  0.3218 -0.5113
15012SOL    HW145591   4.221   3.553   4.575 -0.1809 -0.2119  0.0124
15012SOL    HW245592   4.230   3.696   4.623 -2.5555  0.6814 -1.9855
15013SOL     OW45593   2.535   5.170   7.468 -0.3461 -0.3698 -0.1502
15013SOL    HW145594   2.559   5.263   7.458 -1.4793  0.1491  1.5252
15013SOL    HW245595   2.440   5.171   7.480 -0.3811 -1.7751 -0.1401
15014SOL     OW45596   3.527   3.675   3.318  0.4709  0.3769  0.3340
15014SOL    HW145597   3.463   3.708   3.381  0.5709  0.4257  0.4116
15014SOL    HW245598   3.489   3.693   3.233  0.5618  0.7725  0.3743
15015SOL     OW45599   2.381   0.966   6.243 -0.3607  0.1442  0.2465
15015SOL    HW145600   2.422   0.943   6.159  1.2140  0.5203  0.8634
15015SOL    HW245601   2.455   0.973   6.304 -1.5005 -0.4056  1.7379
15016SOL     OW45602   0.267   2.756   6.697 -0.3328 -0.0987 -0.0109
15016SOL    HW145603   0.296   2.682   6.644 -3.2943 -0.7825 -0.8345
15016SOL    HW245604   0.220   2.813   6.636  1.1148  2.1073  0.7920
15017SOL     OW45605   4.932   5.994   7.017  0.1979  0.3111 -0.0034
15017SOL    HW145606   4.985   5.922   6.982  0.5148  0.0735  0.9442
15017SOL    HW245607   4.988   6.071   7.008  0.3206  0.2321  0.0820
15018SOL     OW45608   0.275   0.093   4.126  0.0646 -0.2480  0.2050
15018SOL    HW145609   0.369   0.110   4.126 -0.1202  0.8696  0.9922
15018SOL    HW245610   0.253   0.077   4.218 -0.2980 -1.9037 -0.1307
15019SOL     OW45611   1.557   3.796   1.118 -0.3659 -0.3326 -0.3742
15019SOL    HW145612   1.556   3.709   1.078 -0.9194 -0.6002  0.1929
15019SOL    HW245613   1.623   3.790   1.187 -2.0376 -1.0760  1.2517
15020SOL     OW45614   7.130   3.124   7.538 -0.0717  0.1281 -0.1184
15020SOL    HW145615   7.107   3.061   7.606  0.0626 -0.4592 -0.5935
15020SOL    HW245616   7.192   3.183   7.579 -0.5975  0.2678  0.4876
15021SOL     OW45617   4.425   2.370   2.131  0.3768  0.2416 -0.5495
15021SOL    HW145618   4.434   2.449   2.184  0.2675  0.7370 -1.2474
15021SOL    HW245619   4.369   2.312   2.183  1.0321  0.3355  0.2812
15022SOL     OW45620   1.843   2.626   3.616  0.1212 -0.1291  0.2745
15022SOL    HW145621   1.909   2.669   3.561 -1.0318 -1.7686 -2.6435
15022SOL    HW245622   1.793   2.698   3.655  0.9783  1.1561 -0.8946
15023SOL     OW45623   5.753   0.617   4.383  0.7289 -0.5917  0.1086
15023SOL    HW145624   5.843   0.603   4.354  0.3851 -1.0557 -0.7409
15023SOL    HW245625   5.762   0.657   4.470  1.7667  0.4877 -0.4719
15024SOL     OW45626   5.353   4.811   5.605  0.3235 -0.3463 -0.2462
15024SOL    HW145627   5.329   4.825   5.514  0.8783 -0.7456 -0.4620
15024SOL    HW245628   5.444   4.780   5.602  1.0137  1.4881  0.5605
15025SOL     OW45629   1.633   6.054   7.241 -0.3336  0.1743  0.0921
15025SOL    HW145630   1.582   6.135   7.249 -1.6830 -0.6773  0.4532
15025SOL    HW245631   1.614   6.022   7.153  1.3019  0.9273 -0.5787
15026SOL     OW45632   1.330   0.920   4.877  0.1683  0.4781  1.0831
15026SOL    HW145633   1.362   0.986   4.816 -1.5428  0.8757  0.5653
15026SOL    HW245634   1.366   0.838   4.843 -1.2136  0.6037 -0.8598
15027SOL     OW45635   0.079   4.058   4.543  0.6543 -0.6202 -0.4824
15027SOL    HW145636   0.154   4.108   4.510  1.3617 -0.9123  0.6141
15027SOL    HW245637   0.087   4.063   4.638 -0.7137 -0.6959 -0.3419
15028SOL     OW45638   6.237   7.406   7.240 -0.1070  0.2154 -0.6569
15028SOL    HW145639   6.158   7.359   7.268  0.1804 -0.6811 -1.3114
15028SOL    HW245640   6.280   7.346   7.178  0.6959  1.0072 -0.8809
15029SOL     OW45641   4.580   0.050   1.161 -0.3700  0.1290 -0.3321
15029SOL    HW145642   4.503   0.102   1.186  1.4715  2.5593  0.7178
15029SOL    HW245643   4.565   0.027   1.069 -0.7039  3.9685 -1.4184
15030SOL     OW45644   4.959   4.624   4.039  0.5780 -0.4825  0.2882
15030SOL    HW145645   5.038   4.579   4.011  0.4860  0.2313 -1.2265
15030SOL    HW245646   4.976   4.716   4.021 -0.7403 -0.3615 -0.4334
15031SOL     OW45647   3.240   4.958   6.166 -0.1783  0.0663  0.0562
15031SOL    HW145648   3.162   4.925   6.122 -0.0355 -0.7906  0.4251
15031SOL    HW245649   3.253   4.899   6.240 -0.1653  1.2249  1.0097
15032SOL     OW45650   0.760   1.177   5.165  0.2064 -0.1769  0.0322
15032SOL    HW145651   0.741   1.248   5.104 -0.3876 -0.0461  0.3663
15032SOL    HW245652   0.715   1.201   5.246  0.9375 -0.3848  0.5077
15033SOL     OW45653   5.063   2.540   0.956 -0.5570  0.1380 -0.1720
15033SOL    HW145654   5.097   2.559   0.869  1.1479  1.3639  0.6917
15033SOL    HW245655   4.994   2.605   0.970 -0.8660 -0.0914 -0.6021
15034SOL     OW45656   6.355   5.531   1.773  0.1807 -0.0009 -0.2066
15034SOL    HW145657   6.370   5.561   1.683  0.0340 -0.5706 -0.4197
15034SOL    HW245658   6.264   5.501   1.774  0.3082 -0.3852  0.0241
15035SOL     OW45659   5.046   1.909   3.294 -0.1495 -0.7910  0.3734
15035SOL    HW145660   5.105   1.919   3.369 -0.8299  0.5199  0.7721
15035SOL    HW245661   4.982   1.843   3.322 -0.0132 -0.7926  0.6826
15036SOL     OW45662   4.337   1.822   1.113  0.0893  0.2388  0.0615
15036SOL    HW145663   4.270   1.757   1.094 -0.9714  0.9449  1.1817
15036SOL    HW245664   4.396   1.779   1.176 -0.9780  0.5251  1.3068
15037SOL     OW45665   6.329   0.341   7.105 -0.1867 -0.2549 -0.1680
15037SOL    HW145666   6.252   0.374   7.059 -0.1176  1.5718  0.9347
15037SOL    HW245667   6.402   0.387   7.065  0.0522 -0.0093  0.5394
15038SOL     OW45668   4.812   4.997   3.859 -0.1953 -0.0918  0.3006
15038SOL    HW145669   4.745   4.997   3.927  0.3897 -1.9255  0.9283
15038SOL    HW245670   4.887   4.953   3.899  0.4003 -0.5963 -1.2914
15039SOL     OW45671   5.450   3.239   7.603 -0.3185  0.6562  0.2577
15039SOL    HW145672   5.422   3.287   7.526 -1.8072  0.0700  0.3952
15039SOL    HW245673   5.463   3.149   7.572  1.6869  0.9334  0.1611
15040SOL     OW45674   2.898   0.624   1.058  0.4109 -0.3595  0.0939
15040SOL    HW145675   2.890   0.530   1.078 -2.0155 -0.4109 -0.7926
15040SOL    HW245676   2.900   0.627   0.962  1.1549  0.4633  0.1336
15041SOL     OW45677   0.782   6.456   0.114  0.2583 -0.1622  0.3305
15041SOL    HW145678   0.786   6.367   0.079 -1.9465  0.2929 -1.3181
15041SOL    HW245679   0.689   6.468   0.137  0.5507  1.6468  0.7082
15042SOL     OW45680   0.544   4.665   2.477 -0.3296  0.5855 -0.2746
15042SOL    HW145681   0.623   4.674   2.530 -0.0270  0.4181 -0.6856
15042SOL    HW245682   0.575   4.676   2.387 -0.7364  0.2897 -0.4525
15043SOL     OW45683   0.978   4.268   6.089 -0.0569  0.6785 -0.6148
15043SOL    HW145684   1.068   4.236   6.097  0.1389  1.1783 -0.7533
15043SOL    HW245685   0.923   4.195   6.117  0.4327  0.7818  0.6760
15044SOL     OW45686   5.084   7.254   7.518 -0.1124  0.4090 -0.8287
15044SOL    HW145687   5.002   7.247   7.468 -0.2053 -1.7344 -0.4969
15044SOL    HW245688   5.068   7.325   7.580 -1.9760 -0.2744 -0.4235
15045SOL     OW45689   5.402   3.555   5.408  0.4108  0.4755  0.4976
15045SOL    HW145690   5.482   3.502   5.410 -0.8737 -1.5646  1.4886
15045SOL    HW245691   5.361   3.532   5.325 -0.5597 -0.7829  1.2996
15046SOL     OW45692   2.647   4.475   0.254 -0.5425 -0.4995  0.2186
15046SOL    HW145693   2.717   4.411   0.238 -0.2876  0.1664 -1.4753
15046SOL    HW245694   2.687   4.560   0.238 -1.7498 -0.1116 -0.9880
15047SOL     OW45695   5.562   1.889   6.422 -0.1947  0.2264  0.8635
15047SOL    HW145696   5.514   1.926   6.349  0.0133 -0.1955  0.5115
15047SOL    HW245697   5.520   1.804   6.438 -0.6033  0.5567  1.5969
15048SOL     OW45698   6.858   3.588   7.675  0.2357 -0.2875  0.4879
15048SOL    HW145699   6.888   3.650   7.741 -0.5674  1.1943 -0.4968
15048SOL    HW245700   6.776   3.553   7.712 -0.0269  0.2718  0.4489
15049SOL     OW45701   3.495   1.137   6.233 -0.6177  0.2519 -0.3010
15049SOL    HW145702   3.458   1.054   6.263 -0.0037  0.3800  0.8387
15049SOL    HW245703   3.532   1.118   6.147  0.3651 -0.8968  0.3556
15050SOL     OW45704   4.414   5.920   2.828  0.1973  0.1328  0.0447
15050SOL    HW145705   4.509   5.922   2.843  0.1274 -0.0241  0.5036
15050SOL    HW245706   4.387   5.832   2.856 -0.2467  0.5335  0.8844
15051SOL     OW45707   1.387   1.735   4.954  0.4522  0.0730  0.4781
15051SOL    HW145708   1.478   1.757   4.973  1.2551 -0.3561 -2.4718
15051SOL    HW245709   1.390   1.685   4.873 -2.4922  0.9649 -0.3113
15052SOL     OW45710   5.096   6.202   4.398 -0.3492  0.2918  0.3285
15052SOL    HW145711   5.150   6.227   4.473  0.2405  0.2261 -0.0674
15052SOL    HW245712   5.058   6.118   4.422  1.5254 -0.7807 -0.2824
15053SOL     OW45713   2.285   5.965   5.728 -0.4745 -0.4491  0.1772
15053SOL    HW145714   2.190   5.970   5.743 -0.6060  0.7895 -0.8457
15053SOL    HW245715   2.294   5.969   5.632  0.6030 -0.8154  0.2508
15054SOL     OW45716   4.115   2.309   6.260 -0.1675 -0.1091 -0.4331
15054SOL    HW145717   4.101   2.392   6.307 -1.4663 -0.3238 -0.4029
15054SOL    HW245718   4.126   2.335   6.169 -1.1635  0.0628 -0.5085
15055SOL     OW45719   4.552   7.453   1.156 -0.6219 -0.1178 -0.4675
15055SOL    HW145720   4.521   7.421   1.071 -1.3144  0.2273 -0.3502
15055SOL    HW245721   4.624   7.513   1.134 -0.7537 -0.0822 -0.8081
15056SOL     OW45722   4.145   6.615   2.300 -0.0468  0.4939 -0.8745
15056SOL    HW145723   4.068   6.589   2.350  0.3344 -1.3891 -1.2014
15056SOL    HW245724   4.213   6.628   2.366 -0.3919  1.3112 -0.6620
15057SOL     OW45725   2.258   3.131   5.937 -0.0322 -0.1305 -0.2676
15057SOL    HW145726   2.299   3.217   5.922 -2.1260  0.7995 -1.0010
15057SOL    HW245727   2.286   3.107   6.025 -0.1127  1.7654  0.3387
15058SOL     OW45728   5.605   7.340   4.283  0.7137 -0.3097 -0.6337
15058SOL    HW145729   5.534   7.346   4.219  0.8514 -0.6294 -0.8155
15058SOL    HW245730   5.583   7.407   4.348 -1.7103 -2.7637  1.2784
15059SOL     OW45731   6.823   1.737   1.872  0.1364 -0.4511 -0.1198
15059SOL    HW145732   6.891   1.671   1.887 -0.2029 -0.4048  1.9220
15059SOL    HW245733   6.744   1.687   1.855  0.0911 -0.5718  0.4226
15060SOL     OW45734   5.361   0.114   6.272  0.0414 -0.4872  0.0635
15060SOL    HW145735   5.348   0.114   6.177  0.9620  0.1195 -0.0785
15060SOL    HW245736   5.329   0.029   6.301  0.5473 -1.0195 -0.9060
15061SOL     OW45737   7.060   6.242   2.890 -0.1848 -0.0922  0.2659
15061SOL    HW145738   7.021   6.172   2.941 -1.7641  0.0606 -0.6836
15061SOL    HW245739   7.043   6.218   2.799  0.7751  0.6641 -0.1338
15062SOL     OW45740   2.792   6.123   2.425  0.0529 -0.4002 -0.2595
15062SOL    HW145741   2.729   6.052   2.429 -0.9427  0.4903  0.6936
15062SOL    HW245742   2.756   6.185   2.362 -1.1928  1.0908  1.7620
15063SOL     OW45743   1.646   6.807   1.626 -0.1741 -0.3199 -0.6120
15063SOL    HW145744   1.635   6.734   1.565  1.3862 -1.8843  0.8645
15063SOL    HW245745   1.740   6.821   1.630 -0.3268  0.4632  0.5937
15064SOL     OW45746   2.291   6.634   4.697  0.2412 -0.5544 -0.0766
15064SOL    HW145747   2.249   6.715   4.667 -0.2858 -0.7194  0.2003
15064SOL    HW245748   2.318   6.590   4.616 -1.5680 -1.2046 -0.3797
15065SOL     OW45749   5.387   1.686   6.453 -0.2758 -0.0440  0.1847
15065SOL    HW145750   5.343   1.603   6.436  1.4322 -0.7681 -1.1132
15065SOL    HW245751   5.318   1.745   6.481 -2.1377 -1.0323 -1.9500
15066SOL     OW45752   6.216   7.044   2.006 -0.0045  0.4862 -0.2431
15066SOL    HW145753   6.278   7.044   1.933  0.8920  1.0415  0.4909
15066SOL    HW245754   6.248   6.976   2.065  0.7926  1.7507  0.8390
15067SOL     OW45755   6.436   0.901   5.385  0.0996 -0.1403 -0.0351
15067SOL    HW145756   6.369   0.897   5.453  0.1615 -0.7662 -0.0002
15067SOL    HW245757   6.429   0.816   5.340  0.9804 -0.2844  0.0821
15068SOL     OW45758   0.530   3.088   0.996 -0.0854 -0.3306 -0.5763
15068SOL    HW145759   0.558   3.077   1.087  1.3389  0.1541 -0.9337
15068SOL    HW245760   0.596   3.041   0.945 -0.8841 -0.6159 -1.3717
15069SOL     OW45761   0.547   1.669   3.599 -0.1868  0.2255 -0.4510
15069SOL    HW145762   0.592   1.710   3.673 -0.2887 -1.9544  0.9125
15069SOL    HW245763   0.462   1.713   3.594 -0.2035  0.3519  0.7817
15070SOL     OW45764   0.851   0.297   7.654  0.1140  0.2506  0.1598
15070SOL    HW145765   0.943   0.301   7.678 -0.2155  0.7656  1.4176
15070SOL    HW245766   0.845   0.348   7.573  0.9033  0.3073  0.1334
15071SOL     OW45767   3.096   0.334   7.590 -0.2779  0.1813 -0.0610
15071SOL    HW145768   3.159   0.318   7.520 -0.2320  2.7516 -0.6883
15071SOL    HW245769   3.064   0.423   7.574 -2.2317 -0.1269  1.6846
15072SOL     OW45770   5.846   5.951   0.410 -0.0699  0.7874 -0.0843
15072SOL    HW145771   5.851   5.965   0.315  1.6165 -0.6584 -0.2735
15072SOL    HW245772   5.823   5.858   0.419 -0.3129  0.9427  0.9197
15073SOL     OW45773   5.019   5.345   3.157  1.0442  0.3142  0.2463
15073SOL    HW145774   4.957   5.417   3.154  1.2316  0.5847  2.0435
15073SOL    HW245775   5.022   5.312   3.067  0.3539  2.0120 -0.4241
15074SOL     OW45776   7.085   3.657   3.407 -0.8720  0.7451 -0.3020
15074SOL    HW145777   7.041   3.742   3.413 -2.3217  0.0208 -0.2717
15074SOL    HW245778   7.014   3.594   3.390  0.0884 -0.5329  0.2366
15075SOL     OW45779   2.926   4.634   1.598 -0.4452 -0.4417  0.4257
15075SOL    HW145780   3.018   4.617   1.578 -0.4513 -0.6672  0.5897
15075SOL    HW245781   2.928   4.669   1.687 -0.3702  1.0144 -0.1162
15076SOL     OW45782   6.537   5.378   4.915 -0.3311 -0.0130  0.0151
15076SOL    HW145783   6.626   5.395   4.947 -0.3251  0.4660 -0.2571
15076SOL    HW245784   6.505   5.307   4.971  0.7472 -1.1957 -0.8233
15077SOL     OW45785   7.127   4.082   5.964 -0.3281 -0.0825  0.4373
15077SOL    HW145786   7.078   4.045   6.038  0.5519 -0.7954  0.6889
15077SOL    HW245787   7.172   4.006   5.926  0.5515  0.5486  0.2027
15078SOL     OW45788   4.672   4.744   3.471 -1.0648 -0.1816  0.1864
15078SOL    HW145789   4.685   4.832   3.507 -1.6180 -0.1452  0.3108
15078SOL    HW245790   4.629   4.695   3.541 -0.0035 -0.8068  0.4311
15079SOL     OW45791   6.007   5.005   2.850 -0.4084 -0.0234 -0.2942
15079SOL    HW145792   6.100   5.025   2.846 -0.6877  1.6239  0.4760
15079SOL    HW245793   5.977   5.010   2.759  0.1133  0.1888 -0.4563
15080SOL     OW45794   7.618   5.062   5.905 -0.1312  0.4870  0.4520
15080SOL    HW145795   7.616   5.077   5.811 -0.8263  2.0725  0.6861
15080SOL    HW245796   7.707   5.032   5.923  0.3130  1.1655 -0.5676
15081SOL     OW45797   1.974   4.118   2.427 -0.0783 -0.0441  0.4853
15081SOL    HW145798   1.992   4.136   2.334  2.4451 -1.5822  0.5822
15081SOL    HW245799   1.914   4.043   2.425 -1.7397  1.2177  0.1664
15082SOL     OW45800   0.866   4.818   5.402 -0.2541 -0.2283  0.0534
15082SOL    HW145801   0.848   4.861   5.318  0.4363 -0.8000 -0.3998
15082SOL    HW245802   0.888   4.891   5.461 -0.4015  0.1525 -0.3502
15083SOL     OW45803   0.424   4.510   5.180 -0.8407  0.2725  0.2019
15083SOL    HW145804   0.519   4.501   5.195 -0.9998 -0.3405  0.8794
15083SOL    HW245805   0.411   4.604   5.166 -0.3845  0.6494  2.0187
15084SOL     OW45806   4.658   4.507   1.003 -0.2177  0.0359 -0.4386
15084SOL    HW145807   4.710   4.585   0.986  1.1838 -0.8678 -0.4980
15084SOL    HW245808   4.583   4.538   1.054 -0.3851  1.5898 -1.5712
15085SOL     OW45809   0.149   2.022   3.042 -0.5445  0.1287  0.3278
15085SOL    HW145810   0.133   1.931   3.017 -0.0936  0.0759  0.2294
15085SOL    HW245811   0.231   2.020   3.091  0.0144  0.6310 -0.5727
15086SOL     OW45812   6.181   5.783   4.367  0.1758  0.2218 -0.3670
15086SOL    HW145813   6.095   5.801   4.404  0.4233 -0.6179  0.6398
15086SOL    HW245814   6.181   5.832   4.284 -1.2002  0.3584 -0.3163
15087SOL     OW45815   1.184   4.664   4.054  0.2080 -0.3200 -0.1351
15087SOL    HW145816   1.239   4.742   4.064  0.8673 -0.3399 -2.8279
15087SOL    HW245817   1.099   4.697   4.026  0.7789 -0.4851 -2.3277
15088SOL     OW45818   4.769   2.812   4.876 -0.0955 -0.3043  0.2285
15088SOL    HW145819   4.686   2.796   4.921 -1.3804  1.7810 -1.2501
15088SOL    HW245820   4.817   2.871   4.933 -0.7019  0.4373 -0.0155
15089SOL     OW45821   4.602   6.349   5.023 -0.3381 -0.1392 -0.3566
15089SOL    HW145822   4.686   6.327   4.984 -0.0329 -0.8063  0.6369
15089SOL    HW245823   4.556   6.265   5.031 -0.3201 -0.0585  0.8460
15090SOL     OW45824   1.427   0.876   4.102 -0.2502 -0.4870  0.2216
15090SOL    HW145825   1.443   0.936   4.029 -0.7432 -0.3847  0.1946
15090SOL    HW245826   1.389   0.798   4.061 -0.0008 -0.6553  0.3054
15091SOL     OW45827   3.184   6.690   7.709 -0.6235  0.3073  0.3667
15091SOL    HW145828   3.168   6.761   7.647 -1.1271 -0.2776 -0.1873
15091SOL    HW245829   3.197   6.734   7.793 -0.6628  1.0670 -0.0182
15092SOL     OW45830   0.297   3.478   2.556  0.0001 -0.3192 -0.4037
15092SOL    HW145831   0.227   3.538   2.533  0.5027  0.1159 -0.8368
15092SOL    HW245832   0.317   3.498   2.647  0.0483  0.0573 -0.4957
15093SOL     OW45833   4.600   5.989   3.540  0.3827 -0.8142 -0.3656
15093SOL    HW145834   4.541   5.999   3.615 -0.3488 -1.6410 -0.8184
15093SOL    HW245835   4.661   6.062   3.549 -0.5466 -0.0792  0.2653
15094SOL     OW45836   4.606   3.805   5.110  0.1632  0.6028  0.7774
15094SOL    HW145837   4.574   3.889   5.143  0.9611  0.5037  1.8753
15094SOL    HW245838   4.566   3.740   5.167  1.2858  0.3986  1.3638
15095SOL     OW45839   2.972   1.429   0.368  0.3059  0.2833 -0.3318
15095SOL    HW145840   2.974   1.498   0.434 -0.1542  1.2084 -1.2578
15095SOL    HW245841   3.004   1.351   0.414  1.5795  1.2731  0.5220
15096SOL     OW45842   4.543   4.179   3.647  0.5165  0.0895  0.3675
15096SOL    HW145843   4.534   4.270   3.674 -0.3556  0.7036 -1.7424
15096SOL    HW245844   4.461   4.159   3.602  1.8373 -0.7250 -1.8417
15097SOL     OW45845   7.005   3.570   6.609 -0.1485  0.6836  0.0835
15097SOL    HW145846   6.970   3.494   6.656  0.9245  0.4609  0.5628
15097SOL    HW245847   6.929   3.610   6.568 -0.5933 -1.4101 -1.2996
15098SOL     OW45848   1.283   6.847   2.074 -0.0891 -0.2138 -0.0918
15098SOL    HW145849   1.194   6.828   2.045 -0.1733  0.0618 -0.0202
15098SOL    HW245850   1.310   6.769   2.122 -1.2272  0.6512  2.0814
15099SOL     OW45851   1.820   3.485   6.666 -0.1919 -0.0779 -0.7593
15099SOL    HW145852   1.794   3.572   6.637 -0.0115 -0.3648 -1.8022
15099SOL    HW245853   1.906   3.471   6.628 -0.4306 -0.9033 -1.0273
15100SOL     OW45854   0.157   2.360   5.892  0.4091  0.1696 -0.5035
15100SOL    HW145855   0.222   2.416   5.850  0.1920 -0.9847 -2.5180
15100SOL    HW245856   0.201   2.276   5.904 -0.6025 -0.5610 -1.6805
15101SOL     OW45857   6.817   3.927   4.520 -0.0569  0.4753  0.3849
15101SOL    HW145858   6.845   3.911   4.430 -0.3091  1.1997  0.1680
15101SOL    HW245859   6.891   3.897   4.574 -0.0712 -0.3393 -0.0343
15102SOL     OW45860   5.020   3.755   3.924 -0.0619  0.2861  0.0197
15102SOL    HW145861   4.967   3.694   3.874 -0.6920  0.8477 -0.0127
15102SOL    HW245862   5.082   3.792   3.860  0.6257 -0.6405  0.1366
15103SOL     OW45863   2.799   3.479   6.689 -0.5385  0.2302  0.0341
15103SOL    HW145864   2.834   3.495   6.601 -0.1626 -0.0014  0.1450
15103SOL    HW245865   2.792   3.384   6.696  0.5434  0.1825  0.6879
15104SOL     OW45866   7.430   6.787   5.150 -0.1423  0.3713  0.1669
15104SOL    HW145867   7.433   6.733   5.229 -0.5069 -1.0388 -0.7539
15104SOL    HW245868   7.499   6.751   5.094 -1.8889 -0.7005 -1.4029
15105SOL     OW45869   5.469   7.288   5.812  0.2139 -0.3696  0.2807
15105SOL    HW145870   5.401   7.296   5.878 -0.7379 -0.7146 -0.6354
15105SOL    HW245871   5.504   7.199   5.824 -1.0816 -1.0398 -0.7098
15106SOL     OW45872   5.119   2.728   0.200  0.1964 -0.0240 -0.0318
15106SOL    HW145873   5.151   2.689   0.119  1.6235 -0.3448  0.6513
15106SOL    HW245874   5.197   2.734   0.256 -0.3962  1.8605  0.6667
15107SOL     OW45875   0.178   6.303   5.559  0.2078  0.9470  0.2101
15107SOL    HW145876   0.214   6.388   5.533 -1.4915  1.4829 -0.5296
15107SOL    HW245877   0.177   6.252   5.479  1.1691  0.2122  0.6434
15108SOL     OW45878   6.863   6.705   1.876  0.4322  0.0950 -0.5356
15108SOL    HW145879   6.884   6.617   1.908 -0.3254  0.1379  0.0979
15108SOL    HW245880   6.769   6.704   1.862  0.7583 -0.0294 -3.1753
15109SOL     OW45881   3.531   6.899   6.828 -0.1406 -0.4595  0.1912
15109SOL    HW145882   3.497   6.893   6.917  1.4975 -0.2830  0.8546
15109SOL    HW245883   3.623   6.922   6.838  0.1128 -0.5400 -1.5502
15110SOL     OW45884   3.288   0.156   6.175 -0.2157  0.2219 -0.2225
15110SOL    HW145885   3.312   0.188   6.262 -2.6127  1.5454  0.0302
15110SOL    HW245886   3.223   0.088   6.191 -0.1279 -0.0477 -0.9766
15111SOL     OW45887   5.961   3.616   1.407  0.4342  0.0231  0.3378
15111SOL    HW145888   5.903   3.541   1.394  0.5113 -0.1799  1.1482
15111SOL    HW245889   5.927   3.682   1.346 -1.5212  0.3913  1.7220
15112SOL     OW45890   6.532   4.040   6.162  0.2228  0.5067  0.6109
15112SOL    HW145891   6.519   4.074   6.073 -0.0835 -1.2485 -0.0462
15112SOL    HW245892   6.458   3.981   6.176  0.4344  0.5289  1.9246
15113SOL     OW45893   5.633   4.901   1.882  0.0855  0.5695  0.5490
15113SOL    HW145894   5.634   4.924   1.975  2.1575  0.4376  0.6234
15113SOL    HW245895   5.558   4.948   1.846 -1.1050  0.1626  2.3736
15114SOL     OW45896   4.298   7.458   5.185 -0.4812 -0.2519 -0.0274
15114SOL    HW145897   4.258   7.519   5.122 -1.0072 -1.5851 -1.0210
15114SOL    HW245898   4.367   7.510   5.227 -2.1010  1.6027  0.5135
15115SOL     OW45899   0.585   5.188   5.904 -0.3206 -0.1756  0.0273
15115SOL    HW145900   0.549   5.133   5.835 -3.5173 -1.1665  2.2522
15115SOL    HW245901   0.525   5.263   5.908 -0.2068 -0.1449  1.6610
15116SOL     OW45902   0.182   6.618   1.475 -0.2910 -0.8134  0.2043
15116SOL    HW145903   0.255   6.679   1.468  0.8129 -1.8758  1.8088
15116SOL    HW245904   0.126   6.639   1.400  0.3567  1.7049  0.3271
15117SOL     OW45905   0.851   3.755   3.460  0.0788  0.8676 -0.2473
15117SOL    HW145906   0.858   3.822   3.528  2.2607 -0.8461  1.3837
15117SOL    HW245907   0.775   3.703   3.486 -0.2116  1.3272 -0.1741
15118SOL     OW45908   1.267   0.628   1.253 -0.1137 -0.4457  0.4334
15118SOL    HW145909   1.187   0.673   1.224  0.8857  2.2281  1.4520
15118SOL    HW245910   1.253   0.610   1.346  0.6670  0.6722  0.7959
15119SOL     OW45911   6.663   5.420   6.875  0.3962 -0.0940 -0.2017
15119SOL    HW145912   6.655   5.407   6.781  0.5921 -1.7290 -0.0217
15119SOL    HW245913   6.658   5.332   6.912  1.9854  0.3338  1.1803
15120SOL     OW45914   3.997   3.121   0.901  0.3128 -0.2175 -0.0387
15120SOL    HW145915   4.029   3.060   0.834 -1.1207 -1.7107  0.5806
15120SOL    HW245916   4.068   3.125   0.965  1.0010 -0.0933 -0.7752
15121SOL     OW45917   4.863   6.191   4.710  0.1941  1.0090  0.3158
15121SOL    HW145918   4.868   6.161   4.620 -1.5635 -0.7837  0.7250
15121SOL    HW245919   4.842   6.284   4.704 -1.1182  0.6538 -1.1509
15122SOL     OW45920   2.508   1.137   3.510 -0.2688  0.1377  0.5284
15122SOL    HW145921   2.559   1.141   3.592  1.6706 -1.9562 -0.4570
15122SOL    HW245922   2.535   1.055   3.470 -3.3304 -0.2777 -0.8964
15123SOL     OW45923   1.052   6.036   4.118 -0.5424  0.3063 -0.7477
15123SOL    HW145924   1.034   6.130   4.130 -0.5602  0.4832 -2.0619
15123SOL    HW245925   1.003   6.012   4.040 -0.4408 -0.7917 -0.4934
15124SOL     OW45926   7.380   6.623   5.406 -0.3831  0.5053  0.1903
15124SOL    HW145927   7.370   6.546   5.349  0.7759  0.2360  0.3308
15124SOL    HW245928   7.320   6.607   5.479 -0.5094 -0.0357 -0.0244
15125SOL     OW45929   5.051   6.787   4.426  0.5330  0.0616  0.0885
15125SOL    HW145930   5.024   6.863   4.375 -0.6708  0.4803  1.3046
15125SOL    HW245931   5.108   6.737   4.367 -2.2343 -0.4571 -2.3725
15126SOL     OW45932   3.657   1.048   4.873  0.0610  0.0234 -0.0677
15126SOL    HW145933   3.745   1.069   4.905  0.7202 -0.1536 -1.7066
15126SOL    HW245934   3.600   1.067   4.948  1.5489 -0.5783  1.2845
15127SOL     OW45935   6.132   7.574   7.732  0.2970 -0.0437 -0.4970
15127SOL    HW145936   6.091   7.607   7.813  1.3043 -0.4890  0.2155
15127SOL    HW245937   6.076   7.608   7.662  0.2687  1.6680  0.2922
15128SOL     OW45938   0.866   4.091   5.588 -0.0678 -0.1424  0.1996
15128SOL    HW145939   0.839   4.051   5.505 -0.7868  2.1070 -0.7290
15128SOL    HW245940   0.797   4.155   5.607  0.6357  0.1339  2.0066
15129SOL     OW45941   4.689   0.189   1.937 -0.5765 -0.1310  0.1815
15129SOL    HW145942   4.595   0.197   1.949 -0.6547 -2.5706  2.0137
15129SOL    HW245943   4.712   0.106   1.979  2.3213  0.0947 -0.6950
15130SOL     OW45944   3.770   4.316   7.415 -0.4139  0.4064 -0.4070
15130SOL    HW145945   3.765   4.285   7.506 -1.1861  1.3277 -0.1185
15130SOL    HW245946   3.787   4.237   7.364  0.9353 -0.0132  0.6108
15131SOL     OW45947   5.918   7.717   5.055  0.6858 -0.0692  0.1869
15131SOL    HW145948   5.981   7.687   4.990  1.1821  0.4795  0.4043
15131SOL    HW245949   5.889   7.803   5.024  2.4548  1.1514  1.6672
15132SOL     OW45950   4.477   5.558   7.161  0.1181  0.4647 -0.3860
15132SOL    HW145951   4.424   5.622   7.208 -0.7295 -1.3526  1.2554
15132SOL    HW245952   4.450   5.567   7.069 -2.5565  0.1345  0.2870
15133SOL     OW45953   5.988   3.049   6.522  0.4883  0.7773 -0.1274
15133SOL    HW145954   6.044   2.974   6.504 -0.9321 -0.3911  0.1776
15133SOL    HW245955   5.920   3.046   6.455 -1.5724 -0.2834  1.8717
15134SOL     OW45956   1.689   6.601   1.946 -0.2949  0.3641 -0.4193
15134SOL    HW145957   1.723   6.660   1.879 -2.1302  1.1720 -0.6883
15134SOL    HW245958   1.767   6.557   1.981  1.0376  2.2253 -0.8926
15135SOL     OW45959   6.155   0.896   1.023 -0.5230  0.5968 -0.1374
15135SOL    HW145960   6.086   0.926   0.963  0.0626  1.3919 -0.4298
15135SOL    HW245961   6.185   0.976   1.066 -0.0986  0.1920  0.3303
15136SOL     OW45962   5.722   0.034   5.276 -0.4800  0.3255  0.3315
15136SOL    HW145963   5.772  -0.002   5.202  0.0145 -1.4597  1.4876
15136SOL    HW245964   5.748   0.127   5.279  1.1338 -0.0609 -0.4185
15137SOL     OW45965   6.859   4.798   2.271 -0.4960 -0.7248  0.4603
15137SOL    HW145966   6.948   4.798   2.235 -0.7253 -2.9120 -0.2033
15137SOL    HW245967   6.819   4.878   2.237  0.7716 -0.4197 -0.3640
15138SOL     OW45968   5.446   0.760   0.028  0.5460  0.7388 -0.5849
15138SOL    HW145969   5.465   0.827  -0.038  0.5009  1.1177 -0.2172
15138SOL    HW245970   5.407   0.688  -0.021  0.7182  0.9266 -1.0036
15139SOL     OW45971   4.669   6.652   7.596  0.4986  0.3482  0.1120
15139SOL    HW145972   4.705   6.688   7.515  0.3421  2.3249  0.8768
15139SOL    HW245973   4.577   6.677   7.595  0.1715 -0.7832  0.2991
15140SOL     OW45974   0.577   5.485   4.256  0.3382 -0.0903 -0.3465
15140SOL    HW145975   0.620   5.550   4.200  0.7307 -0.1675 -0.1386
15140SOL    HW245976   0.528   5.430   4.195  0.5217  0.0121 -0.5887
15141SOL     OW45977   4.888   7.301   1.698 -0.3269 -0.8898  0.1148
15141SOL    HW145978   4.848   7.388   1.707  1.7001 -0.0164  1.5911
15141SOL    HW245979   4.926   7.301   1.610  1.1139  0.4332  0.6928
15142SOL     OW45980   3.512   2.541   0.941 -0.3673  0.1342  0.0284
15142SOL    HW145981   3.606   2.550   0.959  0.1172 -3.3558 -0.0756
15142SOL    HW245982   3.470   2.548   1.026  0.3384 -1.0336  0.4990
15143SOL     OW45983   0.078   4.880   2.466  0.5650 -0.1844 -0.2854
15143SOL    HW145984   0.063   4.844   2.378 -0.0639 -0.1885 -0.1863
15143SOL    HW245985  -0.010   4.898   2.499  0.8684  1.7172 -0.4289
15144SOL     OW45986   2.546   1.562   2.096  0.1283  0.1476  0.5296
15144SOL    HW145987   2.626   1.518   2.123 -0.1767  0.5422  2.1881
15144SOL    HW245988   2.514   1.604   2.175 -2.0760 -0.5405  0.0845
15145SOL     OW45989   3.637   2.921   6.130 -0.1516 -0.1616  0.5365
15145SOL    HW145990   3.712   2.977   6.149  1.0416 -0.5532 -2.4232
15145SOL    HW245991   3.574   2.979   6.089  0.7740 -0.7097 -1.8244
15146SOL     OW45992   4.030   4.422   0.331 -0.4000  0.1243 -0.4101
15146SOL    HW145993   3.937   4.429   0.310 -0.3129 -1.1369 -1.3358
15146SOL    HW245994   4.075   4.445   0.250  0.0727 -0.0667 -0.2051
15147SOL     OW45995   6.498   3.948   5.754  0.6874 -0.3380  0.0627
15147SOL    HW145996   6.560   4.017   5.732  0.8039 -0.5343 -0.2340
15147SOL    HW245997   6.510   3.882   5.686 -1.2245  0.4855 -1.1679
15148SOL     OW45998   0.143   7.399   1.660  0.1643  0.6828  0.4744
15148SOL    HW145999   0.139   7.492   1.680 -0.0796  0.7787 -0.0033
15148SOL    HW246000   0.232   7.385   1.630 -0.0164  0.9291 -0.2111
15149SOL     OW46001   1.352   2.575   1.917 -0.2391 -0.4316  0.0250
15149SOL    HW146002   1.423   2.606   1.974 -1.6990  1.0345  1.1276
15149SOL    HW246003   1.366   2.621   1.835 -1.8803  2.7730  1.3610
15150SOL     OW46004   3.606   7.226   3.767 -0.2514 -0.3237  0.2807
15150SOL    HW146005   3.619   7.217   3.672 -1.8861 -2.3474  0.1898
15150SOL    HW246006   3.694   7.224   3.804  0.4690  1.1926 -1.1996
15151SOL     OW46007   1.040   4.596   0.019  0.4892 -0.1307 -0.1266
15151SOL    HW146008   0.964   4.601  -0.039 -0.2925  0.5510  0.9226
15151SOL    HW246009   1.104   4.656  -0.019  0.6427 -0.9240 -1.1762
15152SOL     OW46010   5.119   6.721   4.917 -0.5647  0.4323  0.5431
15152SOL    HW146011   5.128   6.759   4.829  0.9841 -1.2730 -0.0812
15152SOL    HW246012   5.148   6.790   4.976 -1.1494  1.4268 -0.2918
15153SOL     OW46013   2.635   6.727   3.728  0.0426 -0.1116  0.2774
15153SOL    HW146014   2.660   6.818   3.744  0.0026  0.3523 -1.9667
15153SOL    HW246015   2.710   6.676   3.761  0.7348  0.8231  0.1973
15154SOL     OW46016   6.815   3.189   5.854  0.1119 -0.0084 -0.7212
15154SOL    HW146017   6.759   3.165   5.927  0.6448  0.1666 -0.2483
15154SOL    HW246018   6.853   3.107   5.824  0.4527  0.0078 -0.3350
15155SOL     OW46019   0.435   5.200   7.264 -0.2753  0.1982  0.4267
15155SOL    HW146020   0.463   5.268   7.325  0.9233  0.8228 -0.7904
15155SOL    HW246021   0.397   5.247   7.190 -0.6135 -0.5032  0.1424
15156SOL     OW46022   0.450   0.052   3.749 -0.3853  0.2611 -0.3399
15156SOL    HW146023   0.477   0.096   3.830 -0.4099  1.2340 -0.8537
15156SOL    HW246024   0.441   0.122   3.685  0.9927 -0.6327 -1.5726
15157SOL     OW46025   0.901   6.927   0.177  0.2838 -0.3538 -0.1454
15157SOL    HW146026   0.884   6.842   0.136 -2.0002  0.3093 -0.7638
15157SOL    HW246027   0.851   6.924   0.259 -0.0923  0.4760 -0.3340
15158SOL     OW46028   4.537   7.407   7.114  0.3995 -0.8085 -0.0865
15158SOL    HW146029   4.529   7.466   7.039 -1.5414  0.6707  1.1791
15158SOL    HW246030   4.610   7.442   7.165  0.7582 -0.9280 -0.5106
15159SOL     OW46031   3.546   0.089   6.685 -0.2889  0.6040 -0.4991
15159SOL    HW146032   3.586   0.149   6.621  2.3073  1.2292  1.5002
15159SOL    HW246033   3.554   0.003   6.645 -3.2794  1.3537 -3.0511
15160SOL     OW46034   3.747   5.363   4.505  0.3738 -0.3100 -0.0657
15160SOL    HW146035   3.688   5.320   4.443 -1.6378 -1.3311  2.3821
15160SOL    HW246036   3.697   5.438   4.538 -0.1558 -1.8433  2.9038
15161SOL     OW46037   4.242   7.162   3.441  0.1932 -0.0481 -0.5365
15161SOL    HW146038   4.161   7.116   3.463  0.0957  0.3051 -0.1436
15161SOL    HW246039   4.229   7.191   3.351  0.8393 -2.0297 -1.3134
15162SOL     OW46040   4.134   4.713   6.187 -0.0959 -0.4464 -0.2822
15162SOL    HW146041   4.226   4.705   6.210  0.2255 -0.4252 -1.4877
15162SOL    HW246042   4.090   4.734   6.269  1.0777  0.3297  0.1699
15163SOL     OW46043   4.243   5.008   1.355  0.2045 -0.2055  0.0944
15163SOL    HW146044   4.332   4.995   1.321  0.5085  1.8942 -0.0206
15163SOL    HW246045   4.254   5.058   1.435 -0.9369  2.5321 -1.3133
15164SOL     OW46046   0.810   0.315   7.042  0.7268 -0.3101 -0.0957
15164SOL    HW146047   0.888   0.350   6.999  0.7743  2.3645  1.8836
15164SOL    HW246048   0.815   0.350   7.131 -1.7677 -1.6727  0.6590
15165SOL     OW46049   6.953   4.225   4.024 -0.1596  0.1272 -0.6835
15165SOL    HW146050   6.950   4.136   4.060  1.6041 -0.1059 -1.0411
15165SOL    HW246051   6.995   4.277   4.092  0.2960  0.3399 -1.1197
15166SOL     OW46052   0.986   6.080   4.469  0.0944  0.0075  0.0715
15166SOL    HW146053   0.988   6.061   4.375  1.5472 -1.5807  0.3611
15166SOL    HW246054   1.078   6.082   4.495 -0.2828  0.3617  1.4743
15167SOL     OW46055   1.848   4.754   5.399 -0.1562 -0.0474 -0.3498
15167SOL    HW146056   1.923   4.813   5.410 -0.1932 -0.1610  0.5506
15167SOL    HW246057   1.790   4.802   5.340 -0.4893  1.1315  0.8872
15168NA      NA46058   4.649   3.984   4.718 -0.2462  0.3546  0.1174
15169NA      NA46059   7.746   6.041   1.298 -0.8840  0.5313  0.0035
15170NA      NA46060   7.649   3.076   7.049 -0.2690  0.3253  0.4735
15171NA      NA46061   6.972   6.777   2.324 -0.1025  0.0282  0.2792
15172NA      NA46062   3.702   2.746   2.887  0.1659  0.0053 -0.0407
15173NA      NA46063   5.060   2.281   2.613 -0.1269  0.1415  0.0357
15174NA      NA46064   2.332   7.007   1.469  0.4353  0.1425 -0.0884
15175NA      NA46065   0.131   1.377   3.214  0.1114 -0.1674  0.0858
15176NA      NA46066   2.248   6.135   1.427 -0.1808 -0.0939 -0.2756
15177NA      NA46067   6.991   3.135   4.521  0.2713 -0.4685  0.0318
15178NA      NA46068   0.781   4.711   7.471 -0.4417  0.5510  0.5390
15179NA      NA46069   6.618   1.687   2.807  0.2071  0.2329  0.0793
15180NA      NA46070   2.527   4.314   5.263  0.0091  0.0980  0.1387
15181NA      NA46071   5.660   5.440   1.431  0.3691 -0.0539  0.2896
15182NA      NA46072   7.052   2.964   6.480  0.3801 -0.8068 -0.1765
15183NA      NA46073   0.948   7.009   3.700  0.1078  0.0169 -0.1112
15184NA      NA46074   5.107   4.133   3.046  0.1107  0.5069 -0.2102
15185NA      NA46075   2.888   3.518   0.877  0.3828 -0.5691 -0.7988
15186NA      NA46076   7.004   2.808   5.334  0.3508  0.1847  0.1673
15187NA      NA46077   1.748   1.450   3.953  0.2033  0.0623  0.5457
15188NA      NA46078   4.329   1.528   1.522  0.2404  0.4479 -0.0791
15189NA      NA46079   2.155   6.001   1.989 -0.1563  0.3695 -0.0847
15190NA      NA46080   0.754   5.729   6.519 -0.5057 -0.5654  0.1442
15191NA      NA46081   4.604   4.385   7.677 -0.0237  0.3851 -0.2643
15192NA      NA46082   7.271   2.930   1.922 -0.3750 -0.2642 -0.2490
15193NA      NA46083   1.022   2.347   1.644  0.2030 -0.2465  0.3388
15194NA      NA46084   2.498   5.009   2.982 -0.3309 -0.3069  0.3670
15195NA      NA46085   6.009   1.988   5.201  0.0955  0.1323  0.1667
15196NA      NA46086   2.221   6.249   0.127  0.0735 -0.3023 -0.1600
15197NA      NA46087   5.899   6.130   6.705  0.0199  0.4750  0.2273
15198NA      NA46088   7.610   2.876   3.055 -0.6028 -0.0362 -0.1273
15199NA      NA46089   4.886   3.509   2.535  0.3052 -0.4838 -0.2680
15200NA      NA46090   6.049   0.770   1.526  0.1486  0.1948 -0.1636
15201NA      NA46091   3.116   4.886   1.922  0.0655  0.1017 -0.3806
15202NA      NA46092   7.177   0.436   6.125 -0.4130 -0.2511  0.3094
15203NA      NA46093   4.615   6.767   2.470  0.5076 -0.2047  0.5329
15204NA      NA46094   7.508   3.611   0.196 -0.0181  0.1550 -0.1190
15205NA      NA46095   2.348   0.074   4.604 -0.4103  0.4241 -0.1507
15206NA      NA46096   5.487   1.728   3.864  0.2313  0.3729 -0.5445
15207NA      NA46097   5.332   0.835   4.801 -0.3060  0.5755  0.1160
15208NA      NA46098   3.158   6.250   3.905 -0.2148  0.3465 -0.1330
15209NA      NA46099   2.893   1.292   2.996  0.2748  0.1846 -0.1482
15210CL      CL46100   6.802   7.707   3.069  0.1502 -0.1250  0.2678
15211CL      CL46101   4.293   0.054   4.328 -0.2687  0.2504  0.3284
15212CL      CL46102   6.696   2.658   5.723 -0.1800  0.1644  0.2314
15213CL      CL46103   6.675   4.791   5.039  0.2930 -0.0012 -0.1626
15214CL      CL46104   4.910   2.983   5.103  0.0212 -0.0432  0.0137
15215CL      CL46105   0.859   6.182   6.508 -0.1165  0.5821 -0.0011
15216CL      CL46106   4.632   0.887   0.477  0.1180  0.2227 -0.0115
15217CL      CL46107   2.926   6.595   0.435 -0.1057 -0.1699  0.0529
15218CL      CL46108   4.979   2.993   2.980 -0.0299  0.2401  0.1952
15219CL      CL46109   2.242   4.661   7.373 -0.1171  0.4937  0.1218
15220CL      CL46110   6.026   5.431   1.814 -0.0078 -0.1474 -0.4995
15221CL      CL46111   2.709   0.121   5.652  0.0658  0.3747 -0.3630
15222CL      CL46112   5.520   2.853   6.316  0.5471  0.2396 -0.4006
15223CL      CL46113   0.300   2.784   0.227  0.3796 -0.0942 -0.6100
15224CL      CL46114   6.187   4.924   5.796  0.0221 -0.2449 -0.0143
15225CL      CL46115   7.688   4.362   5.664  0.1035 -0.0003 -0.0325
15226CL      CL46116   0.553   6.744   7.002 -0.2487 -0.1065 -0.1570
15227CL      CL46117   0.175   5.566   7.721  0.5903 -0.5198  0.0710
15228CL      CL46118   2.222   5.671   1.418  0.1951 -0.0382  0.1008
15229CL      CL46119   0.340   2.370   4.825 -0.3142 -0.3296  0.2161
15230CL      CL46120   5.223   4.217   2.862 -0.0641  0.1830 -0.0979
15231CL      CL46121   3.766   2.535   5.830 -0.2800 -0.2351 -0.1907
15232CL      CL46122   5.604   1.613   4.595 -0.0150  0.1049  0.0877
15233CL      CL46123   3.022   7.148   1.312  0.3831 -0.0469 -0.1447
15234CL      CL46124   0.346   4.718   4.697  0.3220 -0.2413  0.1536
15235CL      CL46125   2.214   7.149   0.187  0.0521 -0.0769  0.0258
15236CL      CL46126   3.358   3.300   7.154 -0.2039  0.1174  0.0412
15237CL      CL46127   5.857   7.267   6.665 -0.1441 -0.5746 -0.3405
15238CL      CL46128   4.103   3.322   2.758  0.1146 -0.1820  0.4827
15239CL      CL46129   4.610   6.647   2.680 -0.0036  0.1212 -0.4816
15240CL      CL46130   4.822   7.277   6.484  0.1993  0.0638  0.0048
15241CL      CL46131   4.972   3.265   6.938 -0.3369  0.0613 -0.0850
15242CL      CL46132   0.524   6.544   4.243  0.1411 -0.0296  0.1379
15243CL      CL46133   2.339   4.874   1.473  0.4203 -0.0277  0.0195
15244CL      CL46134   7.311   0.034   6.289  0.3522 -0.2667  0.0118
15245CL      CL46135   0.396   7.214   6.390  0.3092 -0.2925 -0.1809
15246CL      CL46136   5.090   5.332   1.248 -0.3828 -0.3515  0.0542
15247CL      CL46137   2.939   1.662   0.561  0.3373  0.0476 -0.2999
15248CL      CL46138   7.031   3.502   5.146  0.4337 -0.1908 -0.6911
15249CL      CL46139   2.975   1.389   2.801 -0.2500  0.3985  0.2818
15250CL      CL46140   4.746   2.604   3.786  0.0352 -0.0259 -0.1288
15251CL      CL46141   3.491   1.108   5.112  0.1179  0.1200 -0.1080
15252CL      CL46142   6.468   1.935   5.701 -0.3428  0.1806 -0.2397
15253CL      CL46143   4.265   0.014   6.817  0.0528 -0.0493  0.0181
15254CL      CL46144   1.598   4.269   6.472  0.4148  0.4143 -0.3574
15255CL      CL46145   4.828   6.213   1.788  0.3906  0.0704  0.4752
15256CL      CL46146   6.607   5.541   6.358  0.0282 -0.0573 -0.0255
15257CL      CL46147   4.130   2.023   1.525 -0.3258  0.2903 -0.1444
15258CL      CL46148   6.260   1.814   7.267  0.2735 -0.3389 -0.1697
15259CL      CL46149   5.197   0.735   2.253  0.0047 -0.1312  0.2848
15260CL      CL46150   2.712   2.218   4.495 -0.1103  0.0053  0.1651
15261CL      CL46151   3.577   6.709   0.897 -0.2049 -0.1705  0.1282
15262CL      CL46152   6.451   1.216   4.733  0.2413  0.1472  0.0670
15263CL      CL46153   7.597   2.200   2.728 -0.0325  0.1979  0.2782
15264CL      CL46154   7.320   3.488   2.690 -0.1568 -0.0927 -0.0013
15265CL      CL46155   3.956   1.680   5.356  0.3979  0.4620  0.1472
15266CL      CL46156   4.469   5.073   6.469  0.2627  0.0347  0.1538
15267CL      CL46157   5.001   1.812   6.772 -0.1833  0.0072  0.9388
15268CL      CL46158   7.239   2.663   1.799  0.1418  0.0094 -0.1959
15269CL      CL46159   2.020   0.358   4.713  0.2763  0.2598  0.3240
15270CL      CL46160   2.419   2.020   6.226  0.2269  0.0293  0.0444
15271CL      CL46161   3.661   1.406   7.021  0.5328  0.1027  0.6215
15272CL      CL46162   6.652   5.961   2.613 -0.6832 -0.4373 -0.1402
15273CL      CL46163   6.355   0.498   4.386  0.1419  0.0349 -0.1671
15274CL      CL46164   1.134   6.909   6.075 -0.2005 -0.1227 -0.2352
15275CL      CL46165   3.003   1.301   3.472  0.2848  0.0601  0.6834
15276CL      CL46166   3.024   7.685   4.557  0.4892  0.2421  0.0192
15277CL      CL46167   6.858   3.317   6.689 -0.1794 -0.1743 -0.3317
15278CL      CL46168   6.635   0.263   2.117  0.0636  0.0387  0.2254
15279CL      CL46169   6.066   2.328   5.641  0.0772  0.2187 -0.2180
15280CL      CL46170   2.770   2.839   6.817  0.5446  0.2766 -0.0771
15281CL      CL46171   3.582   4.227   2.355  0.3764 -0.3902 -0.4332
   7.75564   7.75564   7.75564
