;
;   File g3npocore_petim.itp  was generated
;   By user: sairam (1000)
;   On host: sairam
;   At date: Wed. August  3 17:05:49 2023
;
;   This is a standalone topology file
;
;   Created by:
;   ParmEd:       amb2gro_top_gro.py, VERSION 3.4.1
;   Executable:   amb2gro_top_gro.py
;   Library dir:  /usr/local/gromacs/share/gromacs/top
;   Command line:
;     ./amb2gro_top_gro.py -p g3npocore_petim.prmtop -c g3npocore_petim.inpcrd -t g3npocore_petim.itp -g g3npocore_petim.gro -b g3npocore_petim.pdb
;

;[ defaults ]
;; nbfunc        comb-rule       gen-pairs       fudgeLJ fudgeQQ
;1               2               yes             0.5          0.83333333  
;
;[ atomtypes ]
;; name    at.num    mass    charge ptype  sigma      epsilon
;os             8  16.000000  0.00000000  A     0.30000123        0.71128
;c3             6  12.010000  0.00000000  A     0.33996695      0.4577296
;h1             1   1.008000  0.00000000  A      0.2471353      0.0656888
;hc             1   1.008000  0.00000000  A     0.26495328      0.0656888
;n3             7  14.010000  0.00000000  A     0.32499985        0.71128
;hn             1   1.008000  0.00000000  A     0.10690785      0.0656888


[ moleculetype ]
; Name            nrexcl
g3npocore_petim  3

[ atoms ]
;   nr       type  resnr residue  atom   cgnr    charge       mass  typeB    chargeB      massB
; residue    1 aaa rtp aaa q -0.0
    1         os      1    aaa     O1      1 -0.43807400  16.000000   ; qtot -0.438074
    2         c3      1    aaa     C1      2 0.04509800  12.010000   ; qtot -0.392976
    3         h1      1    aaa     H1      3 0.04771700   1.008000   ; qtot -0.345259
    4         h1      1    aaa     H2      4 0.04771700   1.008000   ; qtot -0.297542
    5         c3      1    aaa     C2      5 0.04509800  12.010000   ; qtot -0.252444
    6         h1      1    aaa     H3      6 0.04771700   1.008000   ; qtot -0.204727
    7         h1      1    aaa     H4      7 0.04771700   1.008000   ; qtot -0.157010
    8         c3      1    aaa     C3      8 0.05658600  12.010000   ; qtot -0.100424
    9         hc      1    aaa     H5      9 0.04933800   1.008000   ; qtot -0.051086
   10         hc      1    aaa     H6     10 0.04933800   1.008000   ; qtot -0.001748
   11         c3      1    aaa     C4     11 0.05658600  12.010000   ; qtot 0.054838
   12         hc      1    aaa     H7     12 0.04933800   1.008000   ; qtot 0.104176
   13         hc      1    aaa     H8     13 0.04933800   1.008000   ; qtot 0.153514
   14         c3      1    aaa     C5     14 0.00989700  12.010000   ; qtot 0.163411
   15         h1      1    aaa     H9     15 0.04845500   1.008000   ; qtot 0.211866
   16         h1      1    aaa    H10     16 0.04845500   1.008000   ; qtot 0.260321
   17         c3      1    aaa     C6     17 0.00989700  12.010000   ; qtot 0.270218
   18         h1      1    aaa    H11     18 0.04845500   1.008000   ; qtot 0.318673
   19         h1      1    aaa    H12     19 0.04845500   1.008000   ; qtot 0.367128
   20         n3      1    aaa     N1     20 -0.59936800  14.010000   ; qtot -0.232240
   21         n3      1    aaa     N2     21 -0.59936800  14.010000   ; qtot -0.831608
   22         c3      1    aaa     C7     22 0.08030200  12.010000   ; qtot -0.751306
   23         h1      1    aaa    H13     23 0.05071600   1.008000   ; qtot -0.700590
   24         h1      1    aaa    H14     24 0.05071600   1.008000   ; qtot -0.649874
   25         c3      1    aaa     C8     25 0.08030200  12.010000   ; qtot -0.569572
   26         h1      1    aaa    H15     26 0.05071600   1.008000   ; qtot -0.518856
   27         h1      1    aaa    H16     27 0.05071600   1.008000   ; qtot -0.468140
   28         c3      1    aaa     C9     28 0.08030200  12.010000   ; qtot -0.387838
   29         h1      1    aaa    H17     29 0.05071600   1.008000   ; qtot -0.337122
   30         h1      1    aaa    H18     30 0.05071600   1.008000   ; qtot -0.286406
   31         c3      1    aaa    C10     31 0.08030200  12.010000   ; qtot -0.206104
   32         h1      1    aaa    H19     32 0.05071600   1.008000   ; qtot -0.155388
   33         h1      1    aaa    H20     33 0.05071600   1.008000   ; qtot -0.104672
   34         c3      1    aaa    C11     34 0.10287800  12.010000   ; qtot -0.001794
   35         hc      1    aaa    H21     35 0.06787400   1.008000   ; qtot 0.066080
   36         hc      1    aaa    H22     36 0.06787400   1.008000   ; qtot 0.133954
   37         c3      1    aaa    C12     37 0.10287800  12.010000   ; qtot 0.236832
   38         hc      1    aaa    H23     38 0.06787400   1.008000   ; qtot 0.304706
   39         hc      1    aaa    H24     39 0.06787400   1.008000   ; qtot 0.372580
   40         c3      1    aaa    C13     40 0.10287800  12.010000   ; qtot 0.475458
   41         hc      1    aaa    H25     41 0.06787400   1.008000   ; qtot 0.543332
   42         hc      1    aaa    H26     42 0.06787400   1.008000   ; qtot 0.611206
   43         c3      1    aaa    C14     43 0.10287800  12.010000   ; qtot 0.714084
   44         hc      1    aaa    H27     44 0.06787400   1.008000   ; qtot 0.781958
   45         hc      1    aaa    H28     45 0.06787400   1.008000   ; qtot 0.849832
   46         c3      1    aaa    C15     46 -0.72585200  12.010000   ; qtot 0.123980
   47         h1      1    aaa    H29     47 0.25669700   1.008000   ; qtot 0.380677
   48         h1      1    aaa    H30     48 0.25669700   1.008000   ; qtot 0.637374
   49         c3      1    aaa    C16     49 -0.72585200  12.010000   ; qtot -0.088478
   50         h1      1    aaa    H31     50 0.25669700   1.008000   ; qtot 0.168219
   51         h1      1    aaa    H32     51 0.25669700   1.008000   ; qtot 0.424916
   52         c3      1    aaa    C17     52 -0.72585200  12.010000   ; qtot -0.300936
   53         h1      1    aaa    H33     53 0.25669700   1.008000   ; qtot -0.044239
   54         h1      1    aaa    H34     54 0.25669700   1.008000   ; qtot 0.212458
   55         c3      1    aaa    C18     55 -0.72585200  12.010000   ; qtot -0.513394
   56         h1      1    aaa    H35     56 0.25669700   1.008000   ; qtot -0.256697
   57         h1      1    aaa    H36     57 0.25669700   1.008000   ; qtot -0.000000
; residue    2 bbb rtp bbb q -0.0
   58         n3      2    bbb     N1     58 -0.59685800  14.010000   ; qtot -0.596858
   59         c3      2    bbb     C1     59 0.10137000  12.010000   ; qtot -0.495488
   60         h1      2    bbb     H1     60 0.04411300   1.008000   ; qtot -0.451375
   61         h1      2    bbb     H2     61 0.04411300   1.008000   ; qtot -0.407262
   62         c3      2    bbb     C2     62 0.10137000  12.010000   ; qtot -0.305892
   63         h1      2    bbb     H3     63 0.04411300   1.008000   ; qtot -0.261779
   64         h1      2    bbb     H4     64 0.04411300   1.008000   ; qtot -0.217666
   65         c3      2    bbb     C3     65 -0.00195300  12.010000   ; qtot -0.219619
   66         h1      2    bbb     H5     66 0.05064400   1.008000   ; qtot -0.168975
   67         h1      2    bbb     H6     67 0.05064400   1.008000   ; qtot -0.118331
   68         c3      2    bbb     C4     68 -0.01612100  12.010000   ; qtot -0.134452
   69         hc      2    bbb     H7     69 0.04936100   1.008000   ; qtot -0.085091
   70         hc      2    bbb     H8     70 0.04936100   1.008000   ; qtot -0.035730
   71         c3      2    bbb     C5     71 0.11363000  12.010000   ; qtot 0.077900
   72         hc      2    bbb     H9     72 0.06265900   1.008000   ; qtot 0.140559
   73         hc      2    bbb    H10     73 0.06265900   1.008000   ; qtot 0.203218
   74         c3      2    bbb     C6     74 0.11363000  12.010000   ; qtot 0.316848
   75         hc      2    bbb    H11     75 0.06265900   1.008000   ; qtot 0.379507
   76         hc      2    bbb    H12     76 0.06265900   1.008000   ; qtot 0.442166
   77         c3      2    bbb     C7     77 0.05858200  12.010000   ; qtot 0.500748
   78         h1      2    bbb    H13     78 0.06123400   1.008000   ; qtot 0.561982
   79         h1      2    bbb    H14     79 0.06123400   1.008000   ; qtot 0.623216
   80         c3      2    bbb     C8     80 -0.72423400  12.010000   ; qtot -0.101018
   81         h1      2    bbb    H15     81 0.25637600   1.008000   ; qtot 0.155358
   82         h1      2    bbb    H16     82 0.25637600   1.008000   ; qtot 0.411734
   83         c3      2    bbb     C9     83 -0.72423400  12.010000   ; qtot -0.312500
   84         h1      2    bbb    H17     84 0.25637600   1.008000   ; qtot -0.056124
   85         h1      2    bbb    H18     85 0.25637600   1.008000   ; qtot 0.200252
   86         os      2    bbb     O1     86 -0.20025300  16.000000   ; qtot -0.000001
; residue    3 bbb rtp bbb q -0.0
   87         n3      3    bbb     N1     87 -0.59685800  14.010000   ; qtot -0.596859
   88         c3      3    bbb     C1     88 0.10137000  12.010000   ; qtot -0.495489
   89         h1      3    bbb     H1     89 0.04411300   1.008000   ; qtot -0.451376
   90         h1      3    bbb     H2     90 0.04411300   1.008000   ; qtot -0.407263
   91         c3      3    bbb     C2     91 0.10137000  12.010000   ; qtot -0.305893
   92         h1      3    bbb     H3     92 0.04411300   1.008000   ; qtot -0.261780
   93         h1      3    bbb     H4     93 0.04411300   1.008000   ; qtot -0.217667
   94         c3      3    bbb     C3     94 -0.00195300  12.010000   ; qtot -0.219620
   95         h1      3    bbb     H5     95 0.05064400   1.008000   ; qtot -0.168976
   96         h1      3    bbb     H6     96 0.05064400   1.008000   ; qtot -0.118332
   97         c3      3    bbb     C4     97 -0.01612100  12.010000   ; qtot -0.134453
   98         hc      3    bbb     H7     98 0.04936100   1.008000   ; qtot -0.085092
   99         hc      3    bbb     H8     99 0.04936100   1.008000   ; qtot -0.035731
  100         c3      3    bbb     C5    100 0.11363000  12.010000   ; qtot 0.077899
  101         hc      3    bbb     H9    101 0.06265900   1.008000   ; qtot 0.140558
  102         hc      3    bbb    H10    102 0.06265900   1.008000   ; qtot 0.203217
  103         c3      3    bbb     C6    103 0.11363000  12.010000   ; qtot 0.316847
  104         hc      3    bbb    H11    104 0.06265900   1.008000   ; qtot 0.379506
  105         hc      3    bbb    H12    105 0.06265900   1.008000   ; qtot 0.442165
  106         c3      3    bbb     C7    106 0.05858200  12.010000   ; qtot 0.500747
  107         h1      3    bbb    H13    107 0.06123400   1.008000   ; qtot 0.561981
  108         h1      3    bbb    H14    108 0.06123400   1.008000   ; qtot 0.623215
  109         c3      3    bbb     C8    109 -0.72423400  12.010000   ; qtot -0.101019
  110         h1      3    bbb    H15    110 0.25637600   1.008000   ; qtot 0.155357
  111         h1      3    bbb    H16    111 0.25637600   1.008000   ; qtot 0.411733
  112         c3      3    bbb     C9    112 -0.72423400  12.010000   ; qtot -0.312501
  113         h1      3    bbb    H17    113 0.25637600   1.008000   ; qtot -0.056125
  114         h1      3    bbb    H18    114 0.25637600   1.008000   ; qtot 0.200251
  115         os      3    bbb     O1    115 -0.20025300  16.000000   ; qtot -0.000002
; residue    4 bbb rtp bbb q -0.0
  116         n3      4    bbb     N1    116 -0.59685800  14.010000   ; qtot -0.596860
  117         c3      4    bbb     C1    117 0.10137000  12.010000   ; qtot -0.495490
  118         h1      4    bbb     H1    118 0.04411300   1.008000   ; qtot -0.451377
  119         h1      4    bbb     H2    119 0.04411300   1.008000   ; qtot -0.407264
  120         c3      4    bbb     C2    120 0.10137000  12.010000   ; qtot -0.305894
  121         h1      4    bbb     H3    121 0.04411300   1.008000   ; qtot -0.261781
  122         h1      4    bbb     H4    122 0.04411300   1.008000   ; qtot -0.217668
  123         c3      4    bbb     C3    123 -0.00195300  12.010000   ; qtot -0.219621
  124         h1      4    bbb     H5    124 0.05064400   1.008000   ; qtot -0.168977
  125         h1      4    bbb     H6    125 0.05064400   1.008000   ; qtot -0.118333
  126         c3      4    bbb     C4    126 -0.01612100  12.010000   ; qtot -0.134454
  127         hc      4    bbb     H7    127 0.04936100   1.008000   ; qtot -0.085093
  128         hc      4    bbb     H8    128 0.04936100   1.008000   ; qtot -0.035732
  129         c3      4    bbb     C5    129 0.11363000  12.010000   ; qtot 0.077898
  130         hc      4    bbb     H9    130 0.06265900   1.008000   ; qtot 0.140557
  131         hc      4    bbb    H10    131 0.06265900   1.008000   ; qtot 0.203216
  132         c3      4    bbb     C6    132 0.11363000  12.010000   ; qtot 0.316846
  133         hc      4    bbb    H11    133 0.06265900   1.008000   ; qtot 0.379505
  134         hc      4    bbb    H12    134 0.06265900   1.008000   ; qtot 0.442164
  135         c3      4    bbb     C7    135 0.05858200  12.010000   ; qtot 0.500746
  136         h1      4    bbb    H13    136 0.06123400   1.008000   ; qtot 0.561980
  137         h1      4    bbb    H14    137 0.06123400   1.008000   ; qtot 0.623214
  138         c3      4    bbb     C8    138 -0.72423400  12.010000   ; qtot -0.101020
  139         h1      4    bbb    H15    139 0.25637600   1.008000   ; qtot 0.155356
  140         h1      4    bbb    H16    140 0.25637600   1.008000   ; qtot 0.411732
  141         c3      4    bbb     C9    141 -0.72423400  12.010000   ; qtot -0.312502
  142         h1      4    bbb    H17    142 0.25637600   1.008000   ; qtot -0.056126
  143         h1      4    bbb    H18    143 0.25637600   1.008000   ; qtot 0.200250
  144         os      4    bbb     O1    144 -0.20025300  16.000000   ; qtot -0.000003
; residue    5 bbb rtp bbb q -0.0
  145         n3      5    bbb     N1    145 -0.59685800  14.010000   ; qtot -0.596861
  146         c3      5    bbb     C1    146 0.10137000  12.010000   ; qtot -0.495491
  147         h1      5    bbb     H1    147 0.04411300   1.008000   ; qtot -0.451378
  148         h1      5    bbb     H2    148 0.04411300   1.008000   ; qtot -0.407265
  149         c3      5    bbb     C2    149 0.10137000  12.010000   ; qtot -0.305895
  150         h1      5    bbb     H3    150 0.04411300   1.008000   ; qtot -0.261782
  151         h1      5    bbb     H4    151 0.04411300   1.008000   ; qtot -0.217669
  152         c3      5    bbb     C3    152 -0.00195300  12.010000   ; qtot -0.219622
  153         h1      5    bbb     H5    153 0.05064400   1.008000   ; qtot -0.168978
  154         h1      5    bbb     H6    154 0.05064400   1.008000   ; qtot -0.118334
  155         c3      5    bbb     C4    155 -0.01612100  12.010000   ; qtot -0.134455
  156         hc      5    bbb     H7    156 0.04936100   1.008000   ; qtot -0.085094
  157         hc      5    bbb     H8    157 0.04936100   1.008000   ; qtot -0.035733
  158         c3      5    bbb     C5    158 0.11363000  12.010000   ; qtot 0.077897
  159         hc      5    bbb     H9    159 0.06265900   1.008000   ; qtot 0.140556
  160         hc      5    bbb    H10    160 0.06265900   1.008000   ; qtot 0.203215
  161         c3      5    bbb     C6    161 0.11363000  12.010000   ; qtot 0.316845
  162         hc      5    bbb    H11    162 0.06265900   1.008000   ; qtot 0.379504
  163         hc      5    bbb    H12    163 0.06265900   1.008000   ; qtot 0.442163
  164         c3      5    bbb     C7    164 0.05858200  12.010000   ; qtot 0.500745
  165         h1      5    bbb    H13    165 0.06123400   1.008000   ; qtot 0.561979
  166         h1      5    bbb    H14    166 0.06123400   1.008000   ; qtot 0.623213
  167         c3      5    bbb     C8    167 -0.72423400  12.010000   ; qtot -0.101021
  168         h1      5    bbb    H15    168 0.25637600   1.008000   ; qtot 0.155355
  169         h1      5    bbb    H16    169 0.25637600   1.008000   ; qtot 0.411731
  170         c3      5    bbb     C9    170 -0.72423400  12.010000   ; qtot -0.312503
  171         h1      5    bbb    H17    171 0.25637600   1.008000   ; qtot -0.056127
  172         h1      5    bbb    H18    172 0.25637600   1.008000   ; qtot 0.200249
  173         os      5    bbb     O1    173 -0.20025300  16.000000   ; qtot -0.000004
; residue    6 bbb rtp bbb q -0.0
  174         n3      6    bbb     N1    174 -0.59685800  14.010000   ; qtot -0.596862
  175         c3      6    bbb     C1    175 0.10137000  12.010000   ; qtot -0.495492
  176         h1      6    bbb     H1    176 0.04411300   1.008000   ; qtot -0.451379
  177         h1      6    bbb     H2    177 0.04411300   1.008000   ; qtot -0.407266
  178         c3      6    bbb     C2    178 0.10137000  12.010000   ; qtot -0.305896
  179         h1      6    bbb     H3    179 0.04411300   1.008000   ; qtot -0.261783
  180         h1      6    bbb     H4    180 0.04411300   1.008000   ; qtot -0.217670
  181         c3      6    bbb     C3    181 -0.00195300  12.010000   ; qtot -0.219623
  182         h1      6    bbb     H5    182 0.05064400   1.008000   ; qtot -0.168979
  183         h1      6    bbb     H6    183 0.05064400   1.008000   ; qtot -0.118335
  184         c3      6    bbb     C4    184 -0.01612100  12.010000   ; qtot -0.134456
  185         hc      6    bbb     H7    185 0.04936100   1.008000   ; qtot -0.085095
  186         hc      6    bbb     H8    186 0.04936100   1.008000   ; qtot -0.035734
  187         c3      6    bbb     C5    187 0.11363000  12.010000   ; qtot 0.077896
  188         hc      6    bbb     H9    188 0.06265900   1.008000   ; qtot 0.140555
  189         hc      6    bbb    H10    189 0.06265900   1.008000   ; qtot 0.203214
  190         c3      6    bbb     C6    190 0.11363000  12.010000   ; qtot 0.316844
  191         hc      6    bbb    H11    191 0.06265900   1.008000   ; qtot 0.379503
  192         hc      6    bbb    H12    192 0.06265900   1.008000   ; qtot 0.442162
  193         c3      6    bbb     C7    193 0.05858200  12.010000   ; qtot 0.500744
  194         h1      6    bbb    H13    194 0.06123400   1.008000   ; qtot 0.561978
  195         h1      6    bbb    H14    195 0.06123400   1.008000   ; qtot 0.623212
  196         c3      6    bbb     C8    196 -0.72423400  12.010000   ; qtot -0.101022
  197         h1      6    bbb    H15    197 0.25637600   1.008000   ; qtot 0.155354
  198         h1      6    bbb    H16    198 0.25637600   1.008000   ; qtot 0.411730
  199         c3      6    bbb     C9    199 -0.72423400  12.010000   ; qtot -0.312504
  200         h1      6    bbb    H17    200 0.25637600   1.008000   ; qtot -0.056128
  201         h1      6    bbb    H18    201 0.25637600   1.008000   ; qtot 0.200248
  202         os      6    bbb     O1    202 -0.20025300  16.000000   ; qtot -0.000005
; residue    7 bbb rtp bbb q -0.0
  203         n3      7    bbb     N1    203 -0.59685800  14.010000   ; qtot -0.596863
  204         c3      7    bbb     C1    204 0.10137000  12.010000   ; qtot -0.495493
  205         h1      7    bbb     H1    205 0.04411300   1.008000   ; qtot -0.451380
  206         h1      7    bbb     H2    206 0.04411300   1.008000   ; qtot -0.407267
  207         c3      7    bbb     C2    207 0.10137000  12.010000   ; qtot -0.305897
  208         h1      7    bbb     H3    208 0.04411300   1.008000   ; qtot -0.261784
  209         h1      7    bbb     H4    209 0.04411300   1.008000   ; qtot -0.217671
  210         c3      7    bbb     C3    210 -0.00195300  12.010000   ; qtot -0.219624
  211         h1      7    bbb     H5    211 0.05064400   1.008000   ; qtot -0.168980
  212         h1      7    bbb     H6    212 0.05064400   1.008000   ; qtot -0.118336
  213         c3      7    bbb     C4    213 -0.01612100  12.010000   ; qtot -0.134457
  214         hc      7    bbb     H7    214 0.04936100   1.008000   ; qtot -0.085096
  215         hc      7    bbb     H8    215 0.04936100   1.008000   ; qtot -0.035735
  216         c3      7    bbb     C5    216 0.11363000  12.010000   ; qtot 0.077895
  217         hc      7    bbb     H9    217 0.06265900   1.008000   ; qtot 0.140554
  218         hc      7    bbb    H10    218 0.06265900   1.008000   ; qtot 0.203213
  219         c3      7    bbb     C6    219 0.11363000  12.010000   ; qtot 0.316843
  220         hc      7    bbb    H11    220 0.06265900   1.008000   ; qtot 0.379502
  221         hc      7    bbb    H12    221 0.06265900   1.008000   ; qtot 0.442161
  222         c3      7    bbb     C7    222 0.05858200  12.010000   ; qtot 0.500743
  223         h1      7    bbb    H13    223 0.06123400   1.008000   ; qtot 0.561977
  224         h1      7    bbb    H14    224 0.06123400   1.008000   ; qtot 0.623211
  225         c3      7    bbb     C8    225 -0.72423400  12.010000   ; qtot -0.101023
  226         h1      7    bbb    H15    226 0.25637600   1.008000   ; qtot 0.155353
  227         h1      7    bbb    H16    227 0.25637600   1.008000   ; qtot 0.411729
  228         c3      7    bbb     C9    228 -0.72423400  12.010000   ; qtot -0.312505
  229         h1      7    bbb    H17    229 0.25637600   1.008000   ; qtot -0.056129
  230         h1      7    bbb    H18    230 0.25637600   1.008000   ; qtot 0.200247
  231         os      7    bbb     O1    231 -0.20025300  16.000000   ; qtot -0.000006
; residue    8 bbb rtp bbb q -0.0
  232         n3      8    bbb     N1    232 -0.59685800  14.010000   ; qtot -0.596864
  233         c3      8    bbb     C1    233 0.10137000  12.010000   ; qtot -0.495494
  234         h1      8    bbb     H1    234 0.04411300   1.008000   ; qtot -0.451381
  235         h1      8    bbb     H2    235 0.04411300   1.008000   ; qtot -0.407268
  236         c3      8    bbb     C2    236 0.10137000  12.010000   ; qtot -0.305898
  237         h1      8    bbb     H3    237 0.04411300   1.008000   ; qtot -0.261785
  238         h1      8    bbb     H4    238 0.04411300   1.008000   ; qtot -0.217672
  239         c3      8    bbb     C3    239 -0.00195300  12.010000   ; qtot -0.219625
  240         h1      8    bbb     H5    240 0.05064400   1.008000   ; qtot -0.168981
  241         h1      8    bbb     H6    241 0.05064400   1.008000   ; qtot -0.118337
  242         c3      8    bbb     C4    242 -0.01612100  12.010000   ; qtot -0.134458
  243         hc      8    bbb     H7    243 0.04936100   1.008000   ; qtot -0.085097
  244         hc      8    bbb     H8    244 0.04936100   1.008000   ; qtot -0.035736
  245         c3      8    bbb     C5    245 0.11363000  12.010000   ; qtot 0.077894
  246         hc      8    bbb     H9    246 0.06265900   1.008000   ; qtot 0.140553
  247         hc      8    bbb    H10    247 0.06265900   1.008000   ; qtot 0.203212
  248         c3      8    bbb     C6    248 0.11363000  12.010000   ; qtot 0.316842
  249         hc      8    bbb    H11    249 0.06265900   1.008000   ; qtot 0.379501
  250         hc      8    bbb    H12    250 0.06265900   1.008000   ; qtot 0.442160
  251         c3      8    bbb     C7    251 0.05858200  12.010000   ; qtot 0.500742
  252         h1      8    bbb    H13    252 0.06123400   1.008000   ; qtot 0.561976
  253         h1      8    bbb    H14    253 0.06123400   1.008000   ; qtot 0.623210
  254         c3      8    bbb     C8    254 -0.72423400  12.010000   ; qtot -0.101024
  255         h1      8    bbb    H15    255 0.25637600   1.008000   ; qtot 0.155352
  256         h1      8    bbb    H16    256 0.25637600   1.008000   ; qtot 0.411728
  257         c3      8    bbb     C9    257 -0.72423400  12.010000   ; qtot -0.312506
  258         h1      8    bbb    H17    258 0.25637600   1.008000   ; qtot -0.056130
  259         h1      8    bbb    H18    259 0.25637600   1.008000   ; qtot 0.200246
  260         os      8    bbb     O1    260 -0.20025300  16.000000   ; qtot -0.000007
; residue    9 bbb rtp bbb q -0.0
  261         n3      9    bbb     N1    261 -0.59685800  14.010000   ; qtot -0.596865
  262         c3      9    bbb     C1    262 0.10137000  12.010000   ; qtot -0.495495
  263         h1      9    bbb     H1    263 0.04411300   1.008000   ; qtot -0.451382
  264         h1      9    bbb     H2    264 0.04411300   1.008000   ; qtot -0.407269
  265         c3      9    bbb     C2    265 0.10137000  12.010000   ; qtot -0.305899
  266         h1      9    bbb     H3    266 0.04411300   1.008000   ; qtot -0.261786
  267         h1      9    bbb     H4    267 0.04411300   1.008000   ; qtot -0.217673
  268         c3      9    bbb     C3    268 -0.00195300  12.010000   ; qtot -0.219626
  269         h1      9    bbb     H5    269 0.05064400   1.008000   ; qtot -0.168982
  270         h1      9    bbb     H6    270 0.05064400   1.008000   ; qtot -0.118338
  271         c3      9    bbb     C4    271 -0.01612100  12.010000   ; qtot -0.134459
  272         hc      9    bbb     H7    272 0.04936100   1.008000   ; qtot -0.085098
  273         hc      9    bbb     H8    273 0.04936100   1.008000   ; qtot -0.035737
  274         c3      9    bbb     C5    274 0.11363000  12.010000   ; qtot 0.077893
  275         hc      9    bbb     H9    275 0.06265900   1.008000   ; qtot 0.140552
  276         hc      9    bbb    H10    276 0.06265900   1.008000   ; qtot 0.203211
  277         c3      9    bbb     C6    277 0.11363000  12.010000   ; qtot 0.316841
  278         hc      9    bbb    H11    278 0.06265900   1.008000   ; qtot 0.379500
  279         hc      9    bbb    H12    279 0.06265900   1.008000   ; qtot 0.442159
  280         c3      9    bbb     C7    280 0.05858200  12.010000   ; qtot 0.500741
  281         h1      9    bbb    H13    281 0.06123400   1.008000   ; qtot 0.561975
  282         h1      9    bbb    H14    282 0.06123400   1.008000   ; qtot 0.623209
  283         c3      9    bbb     C8    283 -0.72423400  12.010000   ; qtot -0.101025
  284         h1      9    bbb    H15    284 0.25637600   1.008000   ; qtot 0.155351
  285         h1      9    bbb    H16    285 0.25637600   1.008000   ; qtot 0.411727
  286         c3      9    bbb     C9    286 -0.72423400  12.010000   ; qtot -0.312507
  287         h1      9    bbb    H17    287 0.25637600   1.008000   ; qtot -0.056131
  288         h1      9    bbb    H18    288 0.25637600   1.008000   ; qtot 0.200245
  289         os      9    bbb     O1    289 -0.20025300  16.000000   ; qtot -0.000008
; residue   10 bbb rtp bbb q -0.0
  290         n3     10    bbb     N1    290 -0.59685800  14.010000   ; qtot -0.596866
  291         c3     10    bbb     C1    291 0.10137000  12.010000   ; qtot -0.495496
  292         h1     10    bbb     H1    292 0.04411300   1.008000   ; qtot -0.451383
  293         h1     10    bbb     H2    293 0.04411300   1.008000   ; qtot -0.407270
  294         c3     10    bbb     C2    294 0.10137000  12.010000   ; qtot -0.305900
  295         h1     10    bbb     H3    295 0.04411300   1.008000   ; qtot -0.261787
  296         h1     10    bbb     H4    296 0.04411300   1.008000   ; qtot -0.217674
  297         c3     10    bbb     C3    297 -0.00195300  12.010000   ; qtot -0.219627
  298         h1     10    bbb     H5    298 0.05064400   1.008000   ; qtot -0.168983
  299         h1     10    bbb     H6    299 0.05064400   1.008000   ; qtot -0.118339
  300         c3     10    bbb     C4    300 -0.01612100  12.010000   ; qtot -0.134460
  301         hc     10    bbb     H7    301 0.04936100   1.008000   ; qtot -0.085099
  302         hc     10    bbb     H8    302 0.04936100   1.008000   ; qtot -0.035738
  303         c3     10    bbb     C5    303 0.11363000  12.010000   ; qtot 0.077892
  304         hc     10    bbb     H9    304 0.06265900   1.008000   ; qtot 0.140551
  305         hc     10    bbb    H10    305 0.06265900   1.008000   ; qtot 0.203210
  306         c3     10    bbb     C6    306 0.11363000  12.010000   ; qtot 0.316840
  307         hc     10    bbb    H11    307 0.06265900   1.008000   ; qtot 0.379499
  308         hc     10    bbb    H12    308 0.06265900   1.008000   ; qtot 0.442158
  309         c3     10    bbb     C7    309 0.05858200  12.010000   ; qtot 0.500740
  310         h1     10    bbb    H13    310 0.06123400   1.008000   ; qtot 0.561974
  311         h1     10    bbb    H14    311 0.06123400   1.008000   ; qtot 0.623208
  312         c3     10    bbb     C8    312 -0.72423400  12.010000   ; qtot -0.101026
  313         h1     10    bbb    H15    313 0.25637600   1.008000   ; qtot 0.155350
  314         h1     10    bbb    H16    314 0.25637600   1.008000   ; qtot 0.411726
  315         c3     10    bbb     C9    315 -0.72423400  12.010000   ; qtot -0.312508
  316         h1     10    bbb    H17    316 0.25637600   1.008000   ; qtot -0.056132
  317         h1     10    bbb    H18    317 0.25637600   1.008000   ; qtot 0.200244
  318         os     10    bbb     O1    318 -0.20025300  16.000000   ; qtot -0.000009
; residue   11 bbb rtp bbb q -0.0
  319         n3     11    bbb     N1    319 -0.59685800  14.010000   ; qtot -0.596867
  320         c3     11    bbb     C1    320 0.10137000  12.010000   ; qtot -0.495497
  321         h1     11    bbb     H1    321 0.04411300   1.008000   ; qtot -0.451384
  322         h1     11    bbb     H2    322 0.04411300   1.008000   ; qtot -0.407271
  323         c3     11    bbb     C2    323 0.10137000  12.010000   ; qtot -0.305901
  324         h1     11    bbb     H3    324 0.04411300   1.008000   ; qtot -0.261788
  325         h1     11    bbb     H4    325 0.04411300   1.008000   ; qtot -0.217675
  326         c3     11    bbb     C3    326 -0.00195300  12.010000   ; qtot -0.219628
  327         h1     11    bbb     H5    327 0.05064400   1.008000   ; qtot -0.168984
  328         h1     11    bbb     H6    328 0.05064400   1.008000   ; qtot -0.118340
  329         c3     11    bbb     C4    329 -0.01612100  12.010000   ; qtot -0.134461
  330         hc     11    bbb     H7    330 0.04936100   1.008000   ; qtot -0.085100
  331         hc     11    bbb     H8    331 0.04936100   1.008000   ; qtot -0.035739
  332         c3     11    bbb     C5    332 0.11363000  12.010000   ; qtot 0.077891
  333         hc     11    bbb     H9    333 0.06265900   1.008000   ; qtot 0.140550
  334         hc     11    bbb    H10    334 0.06265900   1.008000   ; qtot 0.203209
  335         c3     11    bbb     C6    335 0.11363000  12.010000   ; qtot 0.316839
  336         hc     11    bbb    H11    336 0.06265900   1.008000   ; qtot 0.379498
  337         hc     11    bbb    H12    337 0.06265900   1.008000   ; qtot 0.442157
  338         c3     11    bbb     C7    338 0.05858200  12.010000   ; qtot 0.500739
  339         h1     11    bbb    H13    339 0.06123400   1.008000   ; qtot 0.561973
  340         h1     11    bbb    H14    340 0.06123400   1.008000   ; qtot 0.623207
  341         c3     11    bbb     C8    341 -0.72423400  12.010000   ; qtot -0.101027
  342         h1     11    bbb    H15    342 0.25637600   1.008000   ; qtot 0.155349
  343         h1     11    bbb    H16    343 0.25637600   1.008000   ; qtot 0.411725
  344         c3     11    bbb     C9    344 -0.72423400  12.010000   ; qtot -0.312509
  345         h1     11    bbb    H17    345 0.25637600   1.008000   ; qtot -0.056133
  346         h1     11    bbb    H18    346 0.25637600   1.008000   ; qtot 0.200243
  347         os     11    bbb     O1    347 -0.20025300  16.000000   ; qtot -0.000010
; residue   12 bbb rtp bbb q -0.0
  348         n3     12    bbb     N1    348 -0.59685800  14.010000   ; qtot -0.596868
  349         c3     12    bbb     C1    349 0.10137000  12.010000   ; qtot -0.495498
  350         h1     12    bbb     H1    350 0.04411300   1.008000   ; qtot -0.451385
  351         h1     12    bbb     H2    351 0.04411300   1.008000   ; qtot -0.407272
  352         c3     12    bbb     C2    352 0.10137000  12.010000   ; qtot -0.305902
  353         h1     12    bbb     H3    353 0.04411300   1.008000   ; qtot -0.261789
  354         h1     12    bbb     H4    354 0.04411300   1.008000   ; qtot -0.217676
  355         c3     12    bbb     C3    355 -0.00195300  12.010000   ; qtot -0.219629
  356         h1     12    bbb     H5    356 0.05064400   1.008000   ; qtot -0.168985
  357         h1     12    bbb     H6    357 0.05064400   1.008000   ; qtot -0.118341
  358         c3     12    bbb     C4    358 -0.01612100  12.010000   ; qtot -0.134462
  359         hc     12    bbb     H7    359 0.04936100   1.008000   ; qtot -0.085101
  360         hc     12    bbb     H8    360 0.04936100   1.008000   ; qtot -0.035740
  361         c3     12    bbb     C5    361 0.11363000  12.010000   ; qtot 0.077890
  362         hc     12    bbb     H9    362 0.06265900   1.008000   ; qtot 0.140549
  363         hc     12    bbb    H10    363 0.06265900   1.008000   ; qtot 0.203208
  364         c3     12    bbb     C6    364 0.11363000  12.010000   ; qtot 0.316838
  365         hc     12    bbb    H11    365 0.06265900   1.008000   ; qtot 0.379497
  366         hc     12    bbb    H12    366 0.06265900   1.008000   ; qtot 0.442156
  367         c3     12    bbb     C7    367 0.05858200  12.010000   ; qtot 0.500738
  368         h1     12    bbb    H13    368 0.06123400   1.008000   ; qtot 0.561972
  369         h1     12    bbb    H14    369 0.06123400   1.008000   ; qtot 0.623206
  370         c3     12    bbb     C8    370 -0.72423400  12.010000   ; qtot -0.101028
  371         h1     12    bbb    H15    371 0.25637600   1.008000   ; qtot 0.155348
  372         h1     12    bbb    H16    372 0.25637600   1.008000   ; qtot 0.411724
  373         c3     12    bbb     C9    373 -0.72423400  12.010000   ; qtot -0.312510
  374         h1     12    bbb    H17    374 0.25637600   1.008000   ; qtot -0.056134
  375         h1     12    bbb    H18    375 0.25637600   1.008000   ; qtot 0.200242
  376         os     12    bbb     O1    376 -0.20025300  16.000000   ; qtot -0.000011
; residue   13 bbb rtp bbb q -0.0
  377         n3     13    bbb     N1    377 -0.59685800  14.010000   ; qtot -0.596869
  378         c3     13    bbb     C1    378 0.10137000  12.010000   ; qtot -0.495499
  379         h1     13    bbb     H1    379 0.04411300   1.008000   ; qtot -0.451386
  380         h1     13    bbb     H2    380 0.04411300   1.008000   ; qtot -0.407273
  381         c3     13    bbb     C2    381 0.10137000  12.010000   ; qtot -0.305903
  382         h1     13    bbb     H3    382 0.04411300   1.008000   ; qtot -0.261790
  383         h1     13    bbb     H4    383 0.04411300   1.008000   ; qtot -0.217677
  384         c3     13    bbb     C3    384 -0.00195300  12.010000   ; qtot -0.219630
  385         h1     13    bbb     H5    385 0.05064400   1.008000   ; qtot -0.168986
  386         h1     13    bbb     H6    386 0.05064400   1.008000   ; qtot -0.118342
  387         c3     13    bbb     C4    387 -0.01612100  12.010000   ; qtot -0.134463
  388         hc     13    bbb     H7    388 0.04936100   1.008000   ; qtot -0.085102
  389         hc     13    bbb     H8    389 0.04936100   1.008000   ; qtot -0.035741
  390         c3     13    bbb     C5    390 0.11363000  12.010000   ; qtot 0.077889
  391         hc     13    bbb     H9    391 0.06265900   1.008000   ; qtot 0.140548
  392         hc     13    bbb    H10    392 0.06265900   1.008000   ; qtot 0.203207
  393         c3     13    bbb     C6    393 0.11363000  12.010000   ; qtot 0.316837
  394         hc     13    bbb    H11    394 0.06265900   1.008000   ; qtot 0.379496
  395         hc     13    bbb    H12    395 0.06265900   1.008000   ; qtot 0.442155
  396         c3     13    bbb     C7    396 0.05858200  12.010000   ; qtot 0.500737
  397         h1     13    bbb    H13    397 0.06123400   1.008000   ; qtot 0.561971
  398         h1     13    bbb    H14    398 0.06123400   1.008000   ; qtot 0.623205
  399         c3     13    bbb     C8    399 -0.72423400  12.010000   ; qtot -0.101029
  400         h1     13    bbb    H15    400 0.25637600   1.008000   ; qtot 0.155347
  401         h1     13    bbb    H16    401 0.25637600   1.008000   ; qtot 0.411723
  402         c3     13    bbb     C9    402 -0.72423400  12.010000   ; qtot -0.312511
  403         h1     13    bbb    H17    403 0.25637600   1.008000   ; qtot -0.056135
  404         h1     13    bbb    H18    404 0.25637600   1.008000   ; qtot 0.200241
  405         os     13    bbb     O1    405 -0.20025300  16.000000   ; qtot -0.000012
; residue   14 ccc rtp ccc q -0.0
  406         c3     14    ccc     C1    406 0.60214900  12.010000   ; qtot 0.602137
  407         h1     14    ccc     H1    407 -0.09246700   1.008000   ; qtot 0.509670
  408         h1     14    ccc     H2    408 -0.09246700   1.008000   ; qtot 0.417203
  409         c3     14    ccc     C2    409 -0.02543800  12.010000   ; qtot 0.391765
  410         hc     14    ccc     H3    410 0.00853100   1.008000   ; qtot 0.400296
  411         hc     14    ccc     H4    411 0.00853100   1.008000   ; qtot 0.408827
  412         c3     14    ccc     C3    412 -0.04070000  12.010000   ; qtot 0.368127
  413         h1     14    ccc     H5    413 0.04605500   1.008000   ; qtot 0.414182
  414         h1     14    ccc     H6    414 0.04605500   1.008000   ; qtot 0.460237
  415         n3     14    ccc     N1    415 -1.11801800  14.010000   ; qtot -0.657781
  416         hn     14    ccc     H7    416 0.38419200   1.008000   ; qtot -0.273589
  417         hn     14    ccc     H8    417 0.38419200   1.008000   ; qtot 0.110603
  418         os     14    ccc     O1    418 -0.11061500  16.000000   ; qtot -0.000012
; residue   15 ccc rtp ccc q -0.0
  419         c3     15    ccc     C1    419 0.60214900  12.010000   ; qtot 0.602137
  420         h1     15    ccc     H1    420 -0.09246700   1.008000   ; qtot 0.509670
  421         h1     15    ccc     H2    421 -0.09246700   1.008000   ; qtot 0.417203
  422         c3     15    ccc     C2    422 -0.02543800  12.010000   ; qtot 0.391765
  423         hc     15    ccc     H3    423 0.00853100   1.008000   ; qtot 0.400296
  424         hc     15    ccc     H4    424 0.00853100   1.008000   ; qtot 0.408827
  425         c3     15    ccc     C3    425 -0.04070000  12.010000   ; qtot 0.368127
  426         h1     15    ccc     H5    426 0.04605500   1.008000   ; qtot 0.414182
  427         h1     15    ccc     H6    427 0.04605500   1.008000   ; qtot 0.460237
  428         n3     15    ccc     N1    428 -1.11801800  14.010000   ; qtot -0.657781
  429         hn     15    ccc     H7    429 0.38419200   1.008000   ; qtot -0.273589
  430         hn     15    ccc     H8    430 0.38419200   1.008000   ; qtot 0.110603
  431         os     15    ccc     O1    431 -0.11061500  16.000000   ; qtot -0.000012
; residue   16 ccc rtp ccc q -0.0
  432         c3     16    ccc     C1    432 0.60214900  12.010000   ; qtot 0.602137
  433         h1     16    ccc     H1    433 -0.09246700   1.008000   ; qtot 0.509670
  434         h1     16    ccc     H2    434 -0.09246700   1.008000   ; qtot 0.417203
  435         c3     16    ccc     C2    435 -0.02543800  12.010000   ; qtot 0.391765
  436         hc     16    ccc     H3    436 0.00853100   1.008000   ; qtot 0.400296
  437         hc     16    ccc     H4    437 0.00853100   1.008000   ; qtot 0.408827
  438         c3     16    ccc     C3    438 -0.04070000  12.010000   ; qtot 0.368127
  439         h1     16    ccc     H5    439 0.04605500   1.008000   ; qtot 0.414182
  440         h1     16    ccc     H6    440 0.04605500   1.008000   ; qtot 0.460237
  441         n3     16    ccc     N1    441 -1.11801800  14.010000   ; qtot -0.657781
  442         hn     16    ccc     H7    442 0.38419200   1.008000   ; qtot -0.273589
  443         hn     16    ccc     H8    443 0.38419200   1.008000   ; qtot 0.110603
  444         os     16    ccc     O1    444 -0.11061500  16.000000   ; qtot -0.000012
; residue   17 ccc rtp ccc q -0.0
  445         c3     17    ccc     C1    445 0.60214900  12.010000   ; qtot 0.602137
  446         h1     17    ccc     H1    446 -0.09246700   1.008000   ; qtot 0.509670
  447         h1     17    ccc     H2    447 -0.09246700   1.008000   ; qtot 0.417203
  448         c3     17    ccc     C2    448 -0.02543800  12.010000   ; qtot 0.391765
  449         hc     17    ccc     H3    449 0.00853100   1.008000   ; qtot 0.400296
  450         hc     17    ccc     H4    450 0.00853100   1.008000   ; qtot 0.408827
  451         c3     17    ccc     C3    451 -0.04070000  12.010000   ; qtot 0.368127
  452         h1     17    ccc     H5    452 0.04605500   1.008000   ; qtot 0.414182
  453         h1     17    ccc     H6    453 0.04605500   1.008000   ; qtot 0.460237
  454         n3     17    ccc     N1    454 -1.11801800  14.010000   ; qtot -0.657781
  455         hn     17    ccc     H7    455 0.38419200   1.008000   ; qtot -0.273589
  456         hn     17    ccc     H8    456 0.38419200   1.008000   ; qtot 0.110603
  457         os     17    ccc     O1    457 -0.11061500  16.000000   ; qtot -0.000012
; residue   18 ccc rtp ccc q -0.0
  458         c3     18    ccc     C1    458 0.60214900  12.010000   ; qtot 0.602137
  459         h1     18    ccc     H1    459 -0.09246700   1.008000   ; qtot 0.509670
  460         h1     18    ccc     H2    460 -0.09246700   1.008000   ; qtot 0.417203
  461         c3     18    ccc     C2    461 -0.02543800  12.010000   ; qtot 0.391765
  462         hc     18    ccc     H3    462 0.00853100   1.008000   ; qtot 0.400296
  463         hc     18    ccc     H4    463 0.00853100   1.008000   ; qtot 0.408827
  464         c3     18    ccc     C3    464 -0.04070000  12.010000   ; qtot 0.368127
  465         h1     18    ccc     H5    465 0.04605500   1.008000   ; qtot 0.414182
  466         h1     18    ccc     H6    466 0.04605500   1.008000   ; qtot 0.460237
  467         n3     18    ccc     N1    467 -1.11801800  14.010000   ; qtot -0.657781
  468         hn     18    ccc     H7    468 0.38419200   1.008000   ; qtot -0.273589
  469         hn     18    ccc     H8    469 0.38419200   1.008000   ; qtot 0.110603
  470         os     18    ccc     O1    470 -0.11061500  16.000000   ; qtot -0.000012
; residue   19 ccc rtp ccc q -0.0
  471         c3     19    ccc     C1    471 0.60214900  12.010000   ; qtot 0.602137
  472         h1     19    ccc     H1    472 -0.09246700   1.008000   ; qtot 0.509670
  473         h1     19    ccc     H2    473 -0.09246700   1.008000   ; qtot 0.417203
  474         c3     19    ccc     C2    474 -0.02543800  12.010000   ; qtot 0.391765
  475         hc     19    ccc     H3    475 0.00853100   1.008000   ; qtot 0.400296
  476         hc     19    ccc     H4    476 0.00853100   1.008000   ; qtot 0.408827
  477         c3     19    ccc     C3    477 -0.04070000  12.010000   ; qtot 0.368127
  478         h1     19    ccc     H5    478 0.04605500   1.008000   ; qtot 0.414182
  479         h1     19    ccc     H6    479 0.04605500   1.008000   ; qtot 0.460237
  480         n3     19    ccc     N1    480 -1.11801800  14.010000   ; qtot -0.657781
  481         hn     19    ccc     H7    481 0.38419200   1.008000   ; qtot -0.273589
  482         hn     19    ccc     H8    482 0.38419200   1.008000   ; qtot 0.110603
  483         os     19    ccc     O1    483 -0.11061500  16.000000   ; qtot -0.000012
; residue   20 ccc rtp ccc q -0.0
  484         c3     20    ccc     C1    484 0.60214900  12.010000   ; qtot 0.602137
  485         h1     20    ccc     H1    485 -0.09246700   1.008000   ; qtot 0.509670
  486         h1     20    ccc     H2    486 -0.09246700   1.008000   ; qtot 0.417203
  487         c3     20    ccc     C2    487 -0.02543800  12.010000   ; qtot 0.391765
  488         hc     20    ccc     H3    488 0.00853100   1.008000   ; qtot 0.400296
  489         hc     20    ccc     H4    489 0.00853100   1.008000   ; qtot 0.408827
  490         c3     20    ccc     C3    490 -0.04070000  12.010000   ; qtot 0.368127
  491         h1     20    ccc     H5    491 0.04605500   1.008000   ; qtot 0.414182
  492         h1     20    ccc     H6    492 0.04605500   1.008000   ; qtot 0.460237
  493         n3     20    ccc     N1    493 -1.11801800  14.010000   ; qtot -0.657781
  494         hn     20    ccc     H7    494 0.38419200   1.008000   ; qtot -0.273589
  495         hn     20    ccc     H8    495 0.38419200   1.008000   ; qtot 0.110603
  496         os     20    ccc     O1    496 -0.11061500  16.000000   ; qtot -0.000012
; residue   21 ccc rtp ccc q -0.0
  497         c3     21    ccc     C1    497 0.60214900  12.010000   ; qtot 0.602137
  498         h1     21    ccc     H1    498 -0.09246700   1.008000   ; qtot 0.509670
  499         h1     21    ccc     H2    499 -0.09246700   1.008000   ; qtot 0.417203
  500         c3     21    ccc     C2    500 -0.02543800  12.010000   ; qtot 0.391765
  501         hc     21    ccc     H3    501 0.00853100   1.008000   ; qtot 0.400296
  502         hc     21    ccc     H4    502 0.00853100   1.008000   ; qtot 0.408827
  503         c3     21    ccc     C3    503 -0.04070000  12.010000   ; qtot 0.368127
  504         h1     21    ccc     H5    504 0.04605500   1.008000   ; qtot 0.414182
  505         h1     21    ccc     H6    505 0.04605500   1.008000   ; qtot 0.460237
  506         n3     21    ccc     N1    506 -1.11801800  14.010000   ; qtot -0.657781
  507         hn     21    ccc     H7    507 0.38419200   1.008000   ; qtot -0.273589
  508         hn     21    ccc     H8    508 0.38419200   1.008000   ; qtot 0.110603
  509         os     21    ccc     O1    509 -0.11061500  16.000000   ; qtot -0.000012
; residue   22 ccc rtp ccc q -0.0
  510         c3     22    ccc     C1    510 0.60214900  12.010000   ; qtot 0.602137
  511         h1     22    ccc     H1    511 -0.09246700   1.008000   ; qtot 0.509670
  512         h1     22    ccc     H2    512 -0.09246700   1.008000   ; qtot 0.417203
  513         c3     22    ccc     C2    513 -0.02543800  12.010000   ; qtot 0.391765
  514         hc     22    ccc     H3    514 0.00853100   1.008000   ; qtot 0.400296
  515         hc     22    ccc     H4    515 0.00853100   1.008000   ; qtot 0.408827
  516         c3     22    ccc     C3    516 -0.04070000  12.010000   ; qtot 0.368127
  517         h1     22    ccc     H5    517 0.04605500   1.008000   ; qtot 0.414182
  518         h1     22    ccc     H6    518 0.04605500   1.008000   ; qtot 0.460237
  519         n3     22    ccc     N1    519 -1.11801800  14.010000   ; qtot -0.657781
  520         hn     22    ccc     H7    520 0.38419200   1.008000   ; qtot -0.273589
  521         hn     22    ccc     H8    521 0.38419200   1.008000   ; qtot 0.110603
  522         os     22    ccc     O1    522 -0.11061500  16.000000   ; qtot -0.000012
; residue   23 ccc rtp ccc q -0.0
  523         c3     23    ccc     C1    523 0.60214900  12.010000   ; qtot 0.602137
  524         h1     23    ccc     H1    524 -0.09246700   1.008000   ; qtot 0.509670
  525         h1     23    ccc     H2    525 -0.09246700   1.008000   ; qtot 0.417203
  526         c3     23    ccc     C2    526 -0.02543800  12.010000   ; qtot 0.391765
  527         hc     23    ccc     H3    527 0.00853100   1.008000   ; qtot 0.400296
  528         hc     23    ccc     H4    528 0.00853100   1.008000   ; qtot 0.408827
  529         c3     23    ccc     C3    529 -0.04070000  12.010000   ; qtot 0.368127
  530         h1     23    ccc     H5    530 0.04605500   1.008000   ; qtot 0.414182
  531         h1     23    ccc     H6    531 0.04605500   1.008000   ; qtot 0.460237
  532         n3     23    ccc     N1    532 -1.11801800  14.010000   ; qtot -0.657781
  533         hn     23    ccc     H7    533 0.38419200   1.008000   ; qtot -0.273589
  534         hn     23    ccc     H8    534 0.38419200   1.008000   ; qtot 0.110603
  535         os     23    ccc     O1    535 -0.11061500  16.000000   ; qtot -0.000012
; residue   24 ccc rtp ccc q -0.0
  536         c3     24    ccc     C1    536 0.60214900  12.010000   ; qtot 0.602137
  537         h1     24    ccc     H1    537 -0.09246700   1.008000   ; qtot 0.509670
  538         h1     24    ccc     H2    538 -0.09246700   1.008000   ; qtot 0.417203
  539         c3     24    ccc     C2    539 -0.02543800  12.010000   ; qtot 0.391765
  540         hc     24    ccc     H3    540 0.00853100   1.008000   ; qtot 0.400296
  541         hc     24    ccc     H4    541 0.00853100   1.008000   ; qtot 0.408827
  542         c3     24    ccc     C3    542 -0.04070000  12.010000   ; qtot 0.368127
  543         h1     24    ccc     H5    543 0.04605500   1.008000   ; qtot 0.414182
  544         h1     24    ccc     H6    544 0.04605500   1.008000   ; qtot 0.460237
  545         n3     24    ccc     N1    545 -1.11801800  14.010000   ; qtot -0.657781
  546         hn     24    ccc     H7    546 0.38419200   1.008000   ; qtot -0.273589
  547         hn     24    ccc     H8    547 0.38419200   1.008000   ; qtot 0.110603
  548         os     24    ccc     O1    548 -0.11061500  16.000000   ; qtot -0.000012
; residue   25 ccc rtp ccc q -0.0
  549         c3     25    ccc     C1    549 0.60214900  12.010000   ; qtot 0.602137
  550         h1     25    ccc     H1    550 -0.09246700   1.008000   ; qtot 0.509670
  551         h1     25    ccc     H2    551 -0.09246700   1.008000   ; qtot 0.417203
  552         c3     25    ccc     C2    552 -0.02543800  12.010000   ; qtot 0.391765
  553         hc     25    ccc     H3    553 0.00853100   1.008000   ; qtot 0.400296
  554         hc     25    ccc     H4    554 0.00853100   1.008000   ; qtot 0.408827
  555         c3     25    ccc     C3    555 -0.04070000  12.010000   ; qtot 0.368127
  556         h1     25    ccc     H5    556 0.04605500   1.008000   ; qtot 0.414182
  557         h1     25    ccc     H6    557 0.04605500   1.008000   ; qtot 0.460237
  558         n3     25    ccc     N1    558 -1.11801800  14.010000   ; qtot -0.657781
  559         hn     25    ccc     H7    559 0.38419200   1.008000   ; qtot -0.273589
  560         hn     25    ccc     H8    560 0.38419200   1.008000   ; qtot 0.110603
  561         os     25    ccc     O1    561 -0.11061500  16.000000   ; qtot -0.000012
; residue   26 ccc rtp ccc q -0.0
  562         c3     26    ccc     C1    562 0.60214900  12.010000   ; qtot 0.602137
  563         h1     26    ccc     H1    563 -0.09246700   1.008000   ; qtot 0.509670
  564         h1     26    ccc     H2    564 -0.09246700   1.008000   ; qtot 0.417203
  565         c3     26    ccc     C2    565 -0.02543800  12.010000   ; qtot 0.391765
  566         hc     26    ccc     H3    566 0.00853100   1.008000   ; qtot 0.400296
  567         hc     26    ccc     H4    567 0.00853100   1.008000   ; qtot 0.408827
  568         c3     26    ccc     C3    568 -0.04070000  12.010000   ; qtot 0.368127
  569         h1     26    ccc     H5    569 0.04605500   1.008000   ; qtot 0.414182
  570         h1     26    ccc     H6    570 0.04605500   1.008000   ; qtot 0.460237
  571         n3     26    ccc     N1    571 -1.11801800  14.010000   ; qtot -0.657781
  572         hn     26    ccc     H7    572 0.38419200   1.008000   ; qtot -0.273589
  573         hn     26    ccc     H8    573 0.38419200   1.008000   ; qtot 0.110603
  574         os     26    ccc     O1    574 -0.11061500  16.000000   ; qtot -0.000012
; residue   27 ccc rtp ccc q -0.0
  575         c3     27    ccc     C1    575 0.60214900  12.010000   ; qtot 0.602137
  576         h1     27    ccc     H1    576 -0.09246700   1.008000   ; qtot 0.509670
  577         h1     27    ccc     H2    577 -0.09246700   1.008000   ; qtot 0.417203
  578         c3     27    ccc     C2    578 -0.02543800  12.010000   ; qtot 0.391765
  579         hc     27    ccc     H3    579 0.00853100   1.008000   ; qtot 0.400296
  580         hc     27    ccc     H4    580 0.00853100   1.008000   ; qtot 0.408827
  581         c3     27    ccc     C3    581 -0.04070000  12.010000   ; qtot 0.368127
  582         h1     27    ccc     H5    582 0.04605500   1.008000   ; qtot 0.414182
  583         h1     27    ccc     H6    583 0.04605500   1.008000   ; qtot 0.460237
  584         n3     27    ccc     N1    584 -1.11801800  14.010000   ; qtot -0.657781
  585         hn     27    ccc     H7    585 0.38419200   1.008000   ; qtot -0.273589
  586         hn     27    ccc     H8    586 0.38419200   1.008000   ; qtot 0.110603
  587         os     27    ccc     O1    587 -0.11061500  16.000000   ; qtot -0.000012
; residue   28 ccc rtp ccc q -0.0
  588         c3     28    ccc     C1    588 0.60214900  12.010000   ; qtot 0.602137
  589         h1     28    ccc     H1    589 -0.09246700   1.008000   ; qtot 0.509670
  590         h1     28    ccc     H2    590 -0.09246700   1.008000   ; qtot 0.417203
  591         c3     28    ccc     C2    591 -0.02543800  12.010000   ; qtot 0.391765
  592         hc     28    ccc     H3    592 0.00853100   1.008000   ; qtot 0.400296
  593         hc     28    ccc     H4    593 0.00853100   1.008000   ; qtot 0.408827
  594         c3     28    ccc     C3    594 -0.04070000  12.010000   ; qtot 0.368127
  595         h1     28    ccc     H5    595 0.04605500   1.008000   ; qtot 0.414182
  596         h1     28    ccc     H6    596 0.04605500   1.008000   ; qtot 0.460237
  597         n3     28    ccc     N1    597 -1.11801800  14.010000   ; qtot -0.657781
  598         hn     28    ccc     H7    598 0.38419200   1.008000   ; qtot -0.273589
  599         hn     28    ccc     H8    599 0.38419200   1.008000   ; qtot 0.110603
  600         os     28    ccc     O1    600 -0.11061500  16.000000   ; qtot -0.000012
; residue   29 ccc rtp ccc q -0.0
  601         c3     29    ccc     C1    601 0.60214900  12.010000   ; qtot 0.602137
  602         h1     29    ccc     H1    602 -0.09246700   1.008000   ; qtot 0.509670
  603         h1     29    ccc     H2    603 -0.09246700   1.008000   ; qtot 0.417203
  604         c3     29    ccc     C2    604 -0.02543800  12.010000   ; qtot 0.391765
  605         hc     29    ccc     H3    605 0.00853100   1.008000   ; qtot 0.400296
  606         hc     29    ccc     H4    606 0.00853100   1.008000   ; qtot 0.408827
  607         c3     29    ccc     C3    607 -0.04070000  12.010000   ; qtot 0.368127
  608         h1     29    ccc     H5    608 0.04605500   1.008000   ; qtot 0.414182
  609         h1     29    ccc     H6    609 0.04605500   1.008000   ; qtot 0.460237
  610         n3     29    ccc     N1    610 -1.11801800  14.010000   ; qtot -0.657781
  611         hn     29    ccc     H7    611 0.38419200   1.008000   ; qtot -0.273589
  612         hn     29    ccc     H8    612 0.38419200   1.008000   ; qtot 0.110603
  613         os     29    ccc     O1    613 -0.11061500  16.000000   ; qtot -0.000012

[ bonds ]
;    ai     aj funct         c0         c1         c2         c3
      1      2     1   0.14316 258236.480000
      1      5     1   0.14316 258236.480000
      2      8     1   0.15375 251793.120000
      5     11     1   0.15375 251793.120000
      8     14     1   0.15375 251793.120000
     11     17     1   0.15375 251793.120000
     14     20     1   0.14647 272713.120000
     17     21     1   0.14647 272713.120000
     20     28     1   0.14647 272713.120000
     20     31     1   0.14647 272713.120000
     21     22     1   0.14647 272713.120000
     21     25     1   0.14647 272713.120000
     22     34     1   0.15375 251793.120000
     25     37     1   0.15375 251793.120000
     28     40     1   0.15375 251793.120000
     31     43     1   0.15375 251793.120000
     34     55     1   0.15375 251793.120000
     37     52     1   0.15375 251793.120000
     40     49     1   0.15375 251793.120000
     43     46     1   0.15375 251793.120000
     46     86     1   0.14316 258236.480000
     49    115     1   0.14316 258236.480000
     52    144     1   0.14316 258236.480000
     55    173     1   0.14316 258236.480000
     58     59     1   0.14647 272713.120000
     58     62     1   0.14647 272713.120000
     58     65     1   0.14647 272713.120000
     59     71     1   0.15375 251793.120000
     62     74     1   0.15375 251793.120000
     65     68     1   0.15375 251793.120000
     68     77     1   0.15375 251793.120000
     71     83     1   0.15375 251793.120000
     74     80     1   0.15375 251793.120000
     77     86     1   0.14316 258236.480000
     80    202     1   0.14316 258236.480000
     83    231     1   0.14316 258236.480000
     87     88     1   0.14647 272713.120000
     87     91     1   0.14647 272713.120000
     87     94     1   0.14647 272713.120000
     88    100     1   0.15375 251793.120000
     91    103     1   0.15375 251793.120000
     94     97     1   0.15375 251793.120000
     97    106     1   0.15375 251793.120000
    100    112     1   0.15375 251793.120000
    103    109     1   0.15375 251793.120000
    106    115     1   0.14316 258236.480000
    109    260     1   0.14316 258236.480000
    112    289     1   0.14316 258236.480000
    116    117     1   0.14647 272713.120000
    116    120     1   0.14647 272713.120000
    116    123     1   0.14647 272713.120000
    117    129     1   0.15375 251793.120000
    120    132     1   0.15375 251793.120000
    123    126     1   0.15375 251793.120000
    126    135     1   0.15375 251793.120000
    129    141     1   0.15375 251793.120000
    132    138     1   0.15375 251793.120000
    135    144     1   0.14316 258236.480000
    138    318     1   0.14316 258236.480000
    141    347     1   0.14316 258236.480000
    145    146     1   0.14647 272713.120000
    145    149     1   0.14647 272713.120000
    145    152     1   0.14647 272713.120000
    146    158     1   0.15375 251793.120000
    149    161     1   0.15375 251793.120000
    152    155     1   0.15375 251793.120000
    155    164     1   0.15375 251793.120000
    158    170     1   0.15375 251793.120000
    161    167     1   0.15375 251793.120000
    164    173     1   0.14316 258236.480000
    167    376     1   0.14316 258236.480000
    170    405     1   0.14316 258236.480000
    174    175     1   0.14647 272713.120000
    174    178     1   0.14647 272713.120000
    174    181     1   0.14647 272713.120000
    175    187     1   0.15375 251793.120000
    178    190     1   0.15375 251793.120000
    181    184     1   0.15375 251793.120000
    184    193     1   0.15375 251793.120000
    187    199     1   0.15375 251793.120000
    190    196     1   0.15375 251793.120000
    193    202     1   0.14316 258236.480000
    196    418     1   0.14316 258236.480000
    199    431     1   0.14316 258236.480000
    203    204     1   0.14647 272713.120000
    203    207     1   0.14647 272713.120000
    203    210     1   0.14647 272713.120000
    204    216     1   0.15375 251793.120000
    207    219     1   0.15375 251793.120000
    210    213     1   0.15375 251793.120000
    213    222     1   0.15375 251793.120000
    216    228     1   0.15375 251793.120000
    219    225     1   0.15375 251793.120000
    222    231     1   0.14316 258236.480000
    225    444     1   0.14316 258236.480000
    228    457     1   0.14316 258236.480000
    232    233     1   0.14647 272713.120000
    232    236     1   0.14647 272713.120000
    232    239     1   0.14647 272713.120000
    233    245     1   0.15375 251793.120000
    236    248     1   0.15375 251793.120000
    239    242     1   0.15375 251793.120000
    242    251     1   0.15375 251793.120000
    245    257     1   0.15375 251793.120000
    248    254     1   0.15375 251793.120000
    251    260     1   0.14316 258236.480000
    254    470     1   0.14316 258236.480000
    257    483     1   0.14316 258236.480000
    261    262     1   0.14647 272713.120000
    261    265     1   0.14647 272713.120000
    261    268     1   0.14647 272713.120000
    262    274     1   0.15375 251793.120000
    265    277     1   0.15375 251793.120000
    268    271     1   0.15375 251793.120000
    271    280     1   0.15375 251793.120000
    274    286     1   0.15375 251793.120000
    277    283     1   0.15375 251793.120000
    280    289     1   0.14316 258236.480000
    283    496     1   0.14316 258236.480000
    286    509     1   0.14316 258236.480000
    290    291     1   0.14647 272713.120000
    290    294     1   0.14647 272713.120000
    290    297     1   0.14647 272713.120000
    291    303     1   0.15375 251793.120000
    294    306     1   0.15375 251793.120000
    297    300     1   0.15375 251793.120000
    300    309     1   0.15375 251793.120000
    303    315     1   0.15375 251793.120000
    306    312     1   0.15375 251793.120000
    309    318     1   0.14316 258236.480000
    312    522     1   0.14316 258236.480000
    315    535     1   0.14316 258236.480000
    319    320     1   0.14647 272713.120000
    319    323     1   0.14647 272713.120000
    319    326     1   0.14647 272713.120000
    320    332     1   0.15375 251793.120000
    323    335     1   0.15375 251793.120000
    326    329     1   0.15375 251793.120000
    329    338     1   0.15375 251793.120000
    332    344     1   0.15375 251793.120000
    335    341     1   0.15375 251793.120000
    338    347     1   0.14316 258236.480000
    341    548     1   0.14316 258236.480000
    344    561     1   0.14316 258236.480000
    348    349     1   0.14647 272713.120000
    348    352     1   0.14647 272713.120000
    348    355     1   0.14647 272713.120000
    349    361     1   0.15375 251793.120000
    352    364     1   0.15375 251793.120000
    355    358     1   0.15375 251793.120000
    358    367     1   0.15375 251793.120000
    361    373     1   0.15375 251793.120000
    364    370     1   0.15375 251793.120000
    367    376     1   0.14316 258236.480000
    370    574     1   0.14316 258236.480000
    373    587     1   0.14316 258236.480000
    377    378     1   0.14647 272713.120000
    377    381     1   0.14647 272713.120000
    377    384     1   0.14647 272713.120000
    378    390     1   0.15375 251793.120000
    381    393     1   0.15375 251793.120000
    384    387     1   0.15375 251793.120000
    387    396     1   0.15375 251793.120000
    390    402     1   0.15375 251793.120000
    393    399     1   0.15375 251793.120000
    396    405     1   0.14316 258236.480000
    399    600     1   0.14316 258236.480000
    402    613     1   0.14316 258236.480000
    406    409     1   0.15375 251793.120000
    406    415     1   0.14647 272713.120000
    409    412     1   0.15375 251793.120000
    412    418     1   0.14316 258236.480000
    419    422     1   0.15375 251793.120000
    419    428     1   0.14647 272713.120000
    422    425     1   0.15375 251793.120000
    425    431     1   0.14316 258236.480000
    432    435     1   0.15375 251793.120000
    432    441     1   0.14647 272713.120000
    435    438     1   0.15375 251793.120000
    438    444     1   0.14316 258236.480000
    445    448     1   0.15375 251793.120000
    445    454     1   0.14647 272713.120000
    448    451     1   0.15375 251793.120000
    451    457     1   0.14316 258236.480000
    458    461     1   0.15375 251793.120000
    458    467     1   0.14647 272713.120000
    461    464     1   0.15375 251793.120000
    464    470     1   0.14316 258236.480000
    471    474     1   0.15375 251793.120000
    471    480     1   0.14647 272713.120000
    474    477     1   0.15375 251793.120000
    477    483     1   0.14316 258236.480000
    484    487     1   0.15375 251793.120000
    484    493     1   0.14647 272713.120000
    487    490     1   0.15375 251793.120000
    490    496     1   0.14316 258236.480000
    497    500     1   0.15375 251793.120000
    497    506     1   0.14647 272713.120000
    500    503     1   0.15375 251793.120000
    503    509     1   0.14316 258236.480000
    510    513     1   0.15375 251793.120000
    510    519     1   0.14647 272713.120000
    513    516     1   0.15375 251793.120000
    516    522     1   0.14316 258236.480000
    523    526     1   0.15375 251793.120000
    523    532     1   0.14647 272713.120000
    526    529     1   0.15375 251793.120000
    529    535     1   0.14316 258236.480000
    536    539     1   0.15375 251793.120000
    536    545     1   0.14647 272713.120000
    539    542     1   0.15375 251793.120000
    542    548     1   0.14316 258236.480000
    549    552     1   0.15375 251793.120000
    549    558     1   0.14647 272713.120000
    552    555     1   0.15375 251793.120000
    555    561     1   0.14316 258236.480000
    562    565     1   0.15375 251793.120000
    562    571     1   0.14647 272713.120000
    565    568     1   0.15375 251793.120000
    568    574     1   0.14316 258236.480000
    575    578     1   0.15375 251793.120000
    575    584     1   0.14647 272713.120000
    578    581     1   0.15375 251793.120000
    581    587     1   0.14316 258236.480000
    588    591     1   0.15375 251793.120000
    588    597     1   0.14647 272713.120000
    591    594     1   0.15375 251793.120000
    594    600     1   0.14316 258236.480000
    601    604     1   0.15375 251793.120000
    601    610     1   0.14647 272713.120000
    604    607     1   0.15375 251793.120000
    607    613     1   0.14316 258236.480000
      2      3     1   0.10969 276646.080000
      2      4     1   0.10969 276646.080000
      5      6     1   0.10969 276646.080000
      5      7     1   0.10969 276646.080000
      8      9     1   0.10969 276646.080000
      8     10     1   0.10969 276646.080000
     11     12     1   0.10969 276646.080000
     11     13     1   0.10969 276646.080000
     14     15     1   0.10969 276646.080000
     14     16     1   0.10969 276646.080000
     17     18     1   0.10969 276646.080000
     17     19     1   0.10969 276646.080000
     22     23     1   0.10969 276646.080000
     22     24     1   0.10969 276646.080000
     25     26     1   0.10969 276646.080000
     25     27     1   0.10969 276646.080000
     28     29     1   0.10969 276646.080000
     28     30     1   0.10969 276646.080000
     31     32     1   0.10969 276646.080000
     31     33     1   0.10969 276646.080000
     34     35     1   0.10969 276646.080000
     34     36     1   0.10969 276646.080000
     37     38     1   0.10969 276646.080000
     37     39     1   0.10969 276646.080000
     40     41     1   0.10969 276646.080000
     40     42     1   0.10969 276646.080000
     43     44     1   0.10969 276646.080000
     43     45     1   0.10969 276646.080000
     46     47     1   0.10969 276646.080000
     46     48     1   0.10969 276646.080000
     49     50     1   0.10969 276646.080000
     49     51     1   0.10969 276646.080000
     52     53     1   0.10969 276646.080000
     52     54     1   0.10969 276646.080000
     55     56     1   0.10969 276646.080000
     55     57     1   0.10969 276646.080000
     59     60     1   0.10969 276646.080000
     59     61     1   0.10969 276646.080000
     62     63     1   0.10969 276646.080000
     62     64     1   0.10969 276646.080000
     65     66     1   0.10969 276646.080000
     65     67     1   0.10969 276646.080000
     68     69     1   0.10969 276646.080000
     68     70     1   0.10969 276646.080000
     71     72     1   0.10969 276646.080000
     71     73     1   0.10969 276646.080000
     74     75     1   0.10969 276646.080000
     74     76     1   0.10969 276646.080000
     77     78     1   0.10969 276646.080000
     77     79     1   0.10969 276646.080000
     80     81     1   0.10969 276646.080000
     80     82     1   0.10969 276646.080000
     83     84     1   0.10969 276646.080000
     83     85     1   0.10969 276646.080000
     88     89     1   0.10969 276646.080000
     88     90     1   0.10969 276646.080000
     91     92     1   0.10969 276646.080000
     91     93     1   0.10969 276646.080000
     94     95     1   0.10969 276646.080000
     94     96     1   0.10969 276646.080000
     97     98     1   0.10969 276646.080000
     97     99     1   0.10969 276646.080000
    100    101     1   0.10969 276646.080000
    100    102     1   0.10969 276646.080000
    103    104     1   0.10969 276646.080000
    103    105     1   0.10969 276646.080000
    106    107     1   0.10969 276646.080000
    106    108     1   0.10969 276646.080000
    109    110     1   0.10969 276646.080000
    109    111     1   0.10969 276646.080000
    112    113     1   0.10969 276646.080000
    112    114     1   0.10969 276646.080000
    117    118     1   0.10969 276646.080000
    117    119     1   0.10969 276646.080000
    120    121     1   0.10969 276646.080000
    120    122     1   0.10969 276646.080000
    123    124     1   0.10969 276646.080000
    123    125     1   0.10969 276646.080000
    126    127     1   0.10969 276646.080000
    126    128     1   0.10969 276646.080000
    129    130     1   0.10969 276646.080000
    129    131     1   0.10969 276646.080000
    132    133     1   0.10969 276646.080000
    132    134     1   0.10969 276646.080000
    135    136     1   0.10969 276646.080000
    135    137     1   0.10969 276646.080000
    138    139     1   0.10969 276646.080000
    138    140     1   0.10969 276646.080000
    141    142     1   0.10969 276646.080000
    141    143     1   0.10969 276646.080000
    146    147     1   0.10969 276646.080000
    146    148     1   0.10969 276646.080000
    149    150     1   0.10969 276646.080000
    149    151     1   0.10969 276646.080000
    152    153     1   0.10969 276646.080000
    152    154     1   0.10969 276646.080000
    155    156     1   0.10969 276646.080000
    155    157     1   0.10969 276646.080000
    158    159     1   0.10969 276646.080000
    158    160     1   0.10969 276646.080000
    161    162     1   0.10969 276646.080000
    161    163     1   0.10969 276646.080000
    164    165     1   0.10969 276646.080000
    164    166     1   0.10969 276646.080000
    167    168     1   0.10969 276646.080000
    167    169     1   0.10969 276646.080000
    170    171     1   0.10969 276646.080000
    170    172     1   0.10969 276646.080000
    175    176     1   0.10969 276646.080000
    175    177     1   0.10969 276646.080000
    178    179     1   0.10969 276646.080000
    178    180     1   0.10969 276646.080000
    181    182     1   0.10969 276646.080000
    181    183     1   0.10969 276646.080000
    184    185     1   0.10969 276646.080000
    184    186     1   0.10969 276646.080000
    187    188     1   0.10969 276646.080000
    187    189     1   0.10969 276646.080000
    190    191     1   0.10969 276646.080000
    190    192     1   0.10969 276646.080000
    193    194     1   0.10969 276646.080000
    193    195     1   0.10969 276646.080000
    196    197     1   0.10969 276646.080000
    196    198     1   0.10969 276646.080000
    199    200     1   0.10969 276646.080000
    199    201     1   0.10969 276646.080000
    204    205     1   0.10969 276646.080000
    204    206     1   0.10969 276646.080000
    207    208     1   0.10969 276646.080000
    207    209     1   0.10969 276646.080000
    210    211     1   0.10969 276646.080000
    210    212     1   0.10969 276646.080000
    213    214     1   0.10969 276646.080000
    213    215     1   0.10969 276646.080000
    216    217     1   0.10969 276646.080000
    216    218     1   0.10969 276646.080000
    219    220     1   0.10969 276646.080000
    219    221     1   0.10969 276646.080000
    222    223     1   0.10969 276646.080000
    222    224     1   0.10969 276646.080000
    225    226     1   0.10969 276646.080000
    225    227     1   0.10969 276646.080000
    228    229     1   0.10969 276646.080000
    228    230     1   0.10969 276646.080000
    233    234     1   0.10969 276646.080000
    233    235     1   0.10969 276646.080000
    236    237     1   0.10969 276646.080000
    236    238     1   0.10969 276646.080000
    239    240     1   0.10969 276646.080000
    239    241     1   0.10969 276646.080000
    242    243     1   0.10969 276646.080000
    242    244     1   0.10969 276646.080000
    245    246     1   0.10969 276646.080000
    245    247     1   0.10969 276646.080000
    248    249     1   0.10969 276646.080000
    248    250     1   0.10969 276646.080000
    251    252     1   0.10969 276646.080000
    251    253     1   0.10969 276646.080000
    254    255     1   0.10969 276646.080000
    254    256     1   0.10969 276646.080000
    257    258     1   0.10969 276646.080000
    257    259     1   0.10969 276646.080000
    262    263     1   0.10969 276646.080000
    262    264     1   0.10969 276646.080000
    265    266     1   0.10969 276646.080000
    265    267     1   0.10969 276646.080000
    268    269     1   0.10969 276646.080000
    268    270     1   0.10969 276646.080000
    271    272     1   0.10969 276646.080000
    271    273     1   0.10969 276646.080000
    274    275     1   0.10969 276646.080000
    274    276     1   0.10969 276646.080000
    277    278     1   0.10969 276646.080000
    277    279     1   0.10969 276646.080000
    280    281     1   0.10969 276646.080000
    280    282     1   0.10969 276646.080000
    283    284     1   0.10969 276646.080000
    283    285     1   0.10969 276646.080000
    286    287     1   0.10969 276646.080000
    286    288     1   0.10969 276646.080000
    291    292     1   0.10969 276646.080000
    291    293     1   0.10969 276646.080000
    294    295     1   0.10969 276646.080000
    294    296     1   0.10969 276646.080000
    297    298     1   0.10969 276646.080000
    297    299     1   0.10969 276646.080000
    300    301     1   0.10969 276646.080000
    300    302     1   0.10969 276646.080000
    303    304     1   0.10969 276646.080000
    303    305     1   0.10969 276646.080000
    306    307     1   0.10969 276646.080000
    306    308     1   0.10969 276646.080000
    309    310     1   0.10969 276646.080000
    309    311     1   0.10969 276646.080000
    312    313     1   0.10969 276646.080000
    312    314     1   0.10969 276646.080000
    315    316     1   0.10969 276646.080000
    315    317     1   0.10969 276646.080000
    320    321     1   0.10969 276646.080000
    320    322     1   0.10969 276646.080000
    323    324     1   0.10969 276646.080000
    323    325     1   0.10969 276646.080000
    326    327     1   0.10969 276646.080000
    326    328     1   0.10969 276646.080000
    329    330     1   0.10969 276646.080000
    329    331     1   0.10969 276646.080000
    332    333     1   0.10969 276646.080000
    332    334     1   0.10969 276646.080000
    335    336     1   0.10969 276646.080000
    335    337     1   0.10969 276646.080000
    338    339     1   0.10969 276646.080000
    338    340     1   0.10969 276646.080000
    341    342     1   0.10969 276646.080000
    341    343     1   0.10969 276646.080000
    344    345     1   0.10969 276646.080000
    344    346     1   0.10969 276646.080000
    349    350     1   0.10969 276646.080000
    349    351     1   0.10969 276646.080000
    352    353     1   0.10969 276646.080000
    352    354     1   0.10969 276646.080000
    355    356     1   0.10969 276646.080000
    355    357     1   0.10969 276646.080000
    358    359     1   0.10969 276646.080000
    358    360     1   0.10969 276646.080000
    361    362     1   0.10969 276646.080000
    361    363     1   0.10969 276646.080000
    364    365     1   0.10969 276646.080000
    364    366     1   0.10969 276646.080000
    367    368     1   0.10969 276646.080000
    367    369     1   0.10969 276646.080000
    370    371     1   0.10969 276646.080000
    370    372     1   0.10969 276646.080000
    373    374     1   0.10969 276646.080000
    373    375     1   0.10969 276646.080000
    378    379     1   0.10969 276646.080000
    378    380     1   0.10969 276646.080000
    381    382     1   0.10969 276646.080000
    381    383     1   0.10969 276646.080000
    384    385     1   0.10969 276646.080000
    384    386     1   0.10969 276646.080000
    387    388     1   0.10969 276646.080000
    387    389     1   0.10969 276646.080000
    390    391     1   0.10969 276646.080000
    390    392     1   0.10969 276646.080000
    393    394     1   0.10969 276646.080000
    393    395     1   0.10969 276646.080000
    396    397     1   0.10969 276646.080000
    396    398     1   0.10969 276646.080000
    399    400     1   0.10969 276646.080000
    399    401     1   0.10969 276646.080000
    402    403     1   0.10969 276646.080000
    402    404     1   0.10969 276646.080000
    406    407     1   0.10969 276646.080000
    406    408     1   0.10969 276646.080000
    409    410     1   0.10969 276646.080000
    409    411     1   0.10969 276646.080000
    412    413     1   0.10969 276646.080000
    412    414     1   0.10969 276646.080000
    415    416     1   0.10190 328360.320000
    415    417     1   0.10190 328360.320000
    419    420     1   0.10969 276646.080000
    419    421     1   0.10969 276646.080000
    422    423     1   0.10969 276646.080000
    422    424     1   0.10969 276646.080000
    425    426     1   0.10969 276646.080000
    425    427     1   0.10969 276646.080000
    428    429     1   0.10190 328360.320000
    428    430     1   0.10190 328360.320000
    432    433     1   0.10969 276646.080000
    432    434     1   0.10969 276646.080000
    435    436     1   0.10969 276646.080000
    435    437     1   0.10969 276646.080000
    438    439     1   0.10969 276646.080000
    438    440     1   0.10969 276646.080000
    441    442     1   0.10190 328360.320000
    441    443     1   0.10190 328360.320000
    445    446     1   0.10969 276646.080000
    445    447     1   0.10969 276646.080000
    448    449     1   0.10969 276646.080000
    448    450     1   0.10969 276646.080000
    451    452     1   0.10969 276646.080000
    451    453     1   0.10969 276646.080000
    454    455     1   0.10190 328360.320000
    454    456     1   0.10190 328360.320000
    458    459     1   0.10969 276646.080000
    458    460     1   0.10969 276646.080000
    461    462     1   0.10969 276646.080000
    461    463     1   0.10969 276646.080000
    464    465     1   0.10969 276646.080000
    464    466     1   0.10969 276646.080000
    467    468     1   0.10190 328360.320000
    467    469     1   0.10190 328360.320000
    471    472     1   0.10969 276646.080000
    471    473     1   0.10969 276646.080000
    474    475     1   0.10969 276646.080000
    474    476     1   0.10969 276646.080000
    477    478     1   0.10969 276646.080000
    477    479     1   0.10969 276646.080000
    480    481     1   0.10190 328360.320000
    480    482     1   0.10190 328360.320000
    484    485     1   0.10969 276646.080000
    484    486     1   0.10969 276646.080000
    487    488     1   0.10969 276646.080000
    487    489     1   0.10969 276646.080000
    490    491     1   0.10969 276646.080000
    490    492     1   0.10969 276646.080000
    493    494     1   0.10190 328360.320000
    493    495     1   0.10190 328360.320000
    497    498     1   0.10969 276646.080000
    497    499     1   0.10969 276646.080000
    500    501     1   0.10969 276646.080000
    500    502     1   0.10969 276646.080000
    503    504     1   0.10969 276646.080000
    503    505     1   0.10969 276646.080000
    506    507     1   0.10190 328360.320000
    506    508     1   0.10190 328360.320000
    510    511     1   0.10969 276646.080000
    510    512     1   0.10969 276646.080000
    513    514     1   0.10969 276646.080000
    513    515     1   0.10969 276646.080000
    516    517     1   0.10969 276646.080000
    516    518     1   0.10969 276646.080000
    519    520     1   0.10190 328360.320000
    519    521     1   0.10190 328360.320000
    523    524     1   0.10969 276646.080000
    523    525     1   0.10969 276646.080000
    526    527     1   0.10969 276646.080000
    526    528     1   0.10969 276646.080000
    529    530     1   0.10969 276646.080000
    529    531     1   0.10969 276646.080000
    532    533     1   0.10190 328360.320000
    532    534     1   0.10190 328360.320000
    536    537     1   0.10969 276646.080000
    536    538     1   0.10969 276646.080000
    539    540     1   0.10969 276646.080000
    539    541     1   0.10969 276646.080000
    542    543     1   0.10969 276646.080000
    542    544     1   0.10969 276646.080000
    545    546     1   0.10190 328360.320000
    545    547     1   0.10190 328360.320000
    549    550     1   0.10969 276646.080000
    549    551     1   0.10969 276646.080000
    552    553     1   0.10969 276646.080000
    552    554     1   0.10969 276646.080000
    555    556     1   0.10969 276646.080000
    555    557     1   0.10969 276646.080000
    558    559     1   0.10190 328360.320000
    558    560     1   0.10190 328360.320000
    562    563     1   0.10969 276646.080000
    562    564     1   0.10969 276646.080000
    565    566     1   0.10969 276646.080000
    565    567     1   0.10969 276646.080000
    568    569     1   0.10969 276646.080000
    568    570     1   0.10969 276646.080000
    571    572     1   0.10190 328360.320000
    571    573     1   0.10190 328360.320000
    575    576     1   0.10969 276646.080000
    575    577     1   0.10969 276646.080000
    578    579     1   0.10969 276646.080000
    578    580     1   0.10969 276646.080000
    581    582     1   0.10969 276646.080000
    581    583     1   0.10969 276646.080000
    584    585     1   0.10190 328360.320000
    584    586     1   0.10190 328360.320000
    588    589     1   0.10969 276646.080000
    588    590     1   0.10969 276646.080000
    591    592     1   0.10969 276646.080000
    591    593     1   0.10969 276646.080000
    594    595     1   0.10969 276646.080000
    594    596     1   0.10969 276646.080000
    597    598     1   0.10190 328360.320000
    597    599     1   0.10190 328360.320000
    601    602     1   0.10969 276646.080000
    601    603     1   0.10969 276646.080000
    604    605     1   0.10969 276646.080000
    604    606     1   0.10969 276646.080000
    607    608     1   0.10969 276646.080000
    607    609     1   0.10969 276646.080000
    610    611     1   0.10190 328360.320000
    610    612     1   0.10190 328360.320000

[ pairs ]
;    ai     aj funct         c0         c1         c2         c3
      1     14     1
      1     17     1
      2     11     1
      2     20     1
      5      8     1
      5     21     1
      8     28     1
      8     31     1
     11     22     1
     11     25     1
     14     40     1
     14     43     1
     17     34     1
     17     37     1
     20     49     1
     20     46     1
     21     55     1
     21     52     1
     22     37     1
     22    173     1
     25     34     1
     25    144     1
     28     43     1
     28    115     1
     31     40     1
     31     86     1
     34    164     1
     37    135     1
     40    106     1
     43     77     1
     46     68     1
     49     97     1
     52    126     1
     55    155     1
     58     83     1
     58     80     1
     58     77     1
     59     74     1
     59     68     1
     59    231     1
     62     71     1
     62     68     1
     62    202     1
     65     71     1
     65     74     1
     65     86     1
     71    222     1
     74    193     1
     80    184     1
     83    213     1
     87    112     1
     87    109     1
     87    106     1
     88    103     1
     88     97     1
     88    289     1
     91    100     1
     91     97     1
     91    260     1
     94    100     1
     94    103     1
     94    115     1
    100    280     1
    103    251     1
    109    242     1
    112    271     1
    116    141     1
    116    138     1
    116    135     1
    117    132     1
    117    126     1
    117    347     1
    120    129     1
    120    126     1
    120    318     1
    123    129     1
    123    132     1
    123    144     1
    129    338     1
    132    309     1
    138    300     1
    141    329     1
    145    170     1
    145    167     1
    145    164     1
    146    161     1
    146    155     1
    146    405     1
    149    158     1
    149    155     1
    149    376     1
    152    158     1
    152    161     1
    152    173     1
    158    396     1
    161    367     1
    167    358     1
    170    387     1
    174    199     1
    174    196     1
    174    193     1
    175    190     1
    175    184     1
    175    431     1
    178    187     1
    178    184     1
    178    418     1
    181    187     1
    181    190     1
    181    202     1
    187    425     1
    190    412     1
    196    409     1
    199    422     1
    203    228     1
    203    225     1
    203    222     1
    204    219     1
    204    213     1
    204    457     1
    207    216     1
    207    213     1
    207    444     1
    210    216     1
    210    219     1
    210    231     1
    216    451     1
    219    438     1
    225    435     1
    228    448     1
    232    257     1
    232    254     1
    232    251     1
    233    248     1
    233    242     1
    233    483     1
    236    245     1
    236    242     1
    236    470     1
    239    245     1
    239    248     1
    239    260     1
    245    477     1
    248    464     1
    254    461     1
    257    474     1
    261    286     1
    261    283     1
    261    280     1
    262    277     1
    262    271     1
    262    509     1
    265    274     1
    265    271     1
    265    496     1
    268    274     1
    268    277     1
    268    289     1
    274    503     1
    277    490     1
    283    487     1
    286    500     1
    290    315     1
    290    312     1
    290    309     1
    291    306     1
    291    300     1
    291    535     1
    294    303     1
    294    300     1
    294    522     1
    297    303     1
    297    306     1
    297    318     1
    303    529     1
    306    516     1
    312    513     1
    315    526     1
    319    344     1
    319    341     1
    319    338     1
    320    335     1
    320    329     1
    320    561     1
    323    332     1
    323    329     1
    323    548     1
    326    332     1
    326    335     1
    326    347     1
    332    555     1
    335    542     1
    341    539     1
    344    552     1
    348    373     1
    348    370     1
    348    367     1
    349    364     1
    349    358     1
    349    587     1
    352    361     1
    352    358     1
    352    574     1
    355    361     1
    355    364     1
    355    376     1
    361    581     1
    364    568     1
    370    565     1
    373    578     1
    377    402     1
    377    399     1
    377    396     1
    378    393     1
    378    387     1
    378    613     1
    381    390     1
    381    387     1
    381    600     1
    384    390     1
    384    393     1
    384    405     1
    390    607     1
    393    594     1
    399    591     1
    402    604     1
    406    418     1
    412    415     1
    419    431     1
    425    428     1
    432    444     1
    438    441     1
    445    457     1
    451    454     1
    458    470     1
    464    467     1
    471    483     1
    477    480     1
    484    496     1
    490    493     1
    497    509     1
    503    506     1
    510    522     1
    516    519     1
    523    535     1
    529    532     1
    536    548     1
    542    545     1
    549    561     1
    555    558     1
    562    574     1
    568    571     1
    575    587     1
    581    584     1
    588    600     1
    594    597     1
    601    613     1
    607    610     1
      1      9     1
      1     10     1
      1     12     1
      1     13     1
      2      6     1
      2      7     1
      2     15     1
      2     16     1
      5      3     1
      3     14     1
      3      9     1
      3     10     1
      5      4     1
      4     14     1
      4      9     1
      4     10     1
      5     18     1
      5     19     1
      6     17     1
      6     12     1
      6     13     1
      7     17     1
      7     12     1
      7     13     1
      9     20     1
      9     15     1
      9     16     1
     10     20     1
     10     15     1
     10     16     1
     12     21     1
     12     18     1
     12     19     1
     13     21     1
     13     18     1
     13     19     1
     14     29     1
     14     30     1
     14     32     1
     14     33     1
     15     28     1
     15     31     1
     16     28     1
     16     31     1
     17     23     1
     17     24     1
     17     26     1
     17     27     1
     18     22     1
     18     25     1
     19     22     1
     19     25     1
     20     41     1
     20     42     1
     20     44     1
     20     45     1
     21     35     1
     21     36     1
     21     38     1
     21     39     1
     22     26     1
     22     27     1
     22     56     1
     22     57     1
     23     25     1
     23     55     1
     23     35     1
     23     36     1
     24     25     1
     24     55     1
     24     35     1
     24     36     1
     25     53     1
     25     54     1
     26     52     1
     26     38     1
     26     39     1
     27     52     1
     27     38     1
     27     39     1
     28     32     1
     28     33     1
     28     50     1
     28     51     1
     29     31     1
     29     49     1
     29     41     1
     29     42     1
     30     31     1
     30     49     1
     30     41     1
     30     42     1
     31     47     1
     31     48     1
     32     46     1
     32     44     1
     32     45     1
     33     46     1
     33     44     1
     33     45     1
     35    173     1
     35     56     1
     35     57     1
     36    173     1
     36     56     1
     36     57     1
     38    144     1
     38     53     1
     38     54     1
     39    144     1
     39     53     1
     39     54     1
     41    115     1
     41     50     1
     41     51     1
     42    115     1
     42     50     1
     42     51     1
     44     86     1
     44     47     1
     44     48     1
     45     86     1
     45     47     1
     45     48     1
     46     78     1
     46     79     1
     47     77     1
     48     77     1
     49    107     1
     49    108     1
     50    106     1
     51    106     1
     52    136     1
     52    137     1
     53    135     1
     54    135     1
     55    165     1
     55    166     1
     56    164     1
     57    164     1
     58     72     1
     58     73     1
     58     75     1
     58     76     1
     58     69     1
     58     70     1
     59     63     1
     59     64     1
     59     66     1
     59     67     1
     59     84     1
     59     85     1
     60     62     1
     60     65     1
     60     83     1
     60     72     1
     60     73     1
     61     62     1
     61     65     1
     61     83     1
     61     72     1
     61     73     1
     62     66     1
     62     67     1
     62     81     1
     62     82     1
     63     65     1
     63     80     1
     63     75     1
     63     76     1
     64     65     1
     64     80     1
     64     75     1
     64     76     1
     65     78     1
     65     79     1
     66     77     1
     66     69     1
     66     70     1
     67     77     1
     67     69     1
     67     70     1
     69     86     1
     69     78     1
     69     79     1
     70     86     1
     70     78     1
     70     79     1
     72    231     1
     72     84     1
     72     85     1
     73    231     1
     73     84     1
     73     85     1
     75    202     1
     75     81     1
     75     82     1
     76    202     1
     76     81     1
     76     82     1
     80    194     1
     80    195     1
     81    193     1
     82    193     1
     83    223     1
     83    224     1
     84    222     1
     85    222     1
     87    101     1
     87    102     1
     87    104     1
     87    105     1
     87     98     1
     87     99     1
     88     92     1
     88     93     1
     88     95     1
     88     96     1
     88    113     1
     88    114     1
     89     91     1
     89     94     1
     89    112     1
     89    101     1
     89    102     1
     90     91     1
     90     94     1
     90    112     1
     90    101     1
     90    102     1
     91     95     1
     91     96     1
     91    110     1
     91    111     1
     92     94     1
     92    109     1
     92    104     1
     92    105     1
     93     94     1
     93    109     1
     93    104     1
     93    105     1
     94    107     1
     94    108     1
     95    106     1
     95     98     1
     95     99     1
     96    106     1
     96     98     1
     96     99     1
     98    115     1
     98    107     1
     98    108     1
     99    115     1
     99    107     1
     99    108     1
    101    289     1
    101    113     1
    101    114     1
    102    289     1
    102    113     1
    102    114     1
    104    260     1
    104    110     1
    104    111     1
    105    260     1
    105    110     1
    105    111     1
    109    252     1
    109    253     1
    110    251     1
    111    251     1
    112    281     1
    112    282     1
    113    280     1
    114    280     1
    116    130     1
    116    131     1
    116    133     1
    116    134     1
    116    127     1
    116    128     1
    117    121     1
    117    122     1
    117    124     1
    117    125     1
    117    142     1
    117    143     1
    118    120     1
    118    123     1
    118    141     1
    118    130     1
    118    131     1
    119    120     1
    119    123     1
    119    141     1
    119    130     1
    119    131     1
    120    124     1
    120    125     1
    120    139     1
    120    140     1
    121    123     1
    121    138     1
    121    133     1
    121    134     1
    122    123     1
    122    138     1
    122    133     1
    122    134     1
    123    136     1
    123    137     1
    124    135     1
    124    127     1
    124    128     1
    125    135     1
    125    127     1
    125    128     1
    127    144     1
    127    136     1
    127    137     1
    128    144     1
    128    136     1
    128    137     1
    130    347     1
    130    142     1
    130    143     1
    131    347     1
    131    142     1
    131    143     1
    133    318     1
    133    139     1
    133    140     1
    134    318     1
    134    139     1
    134    140     1
    138    310     1
    138    311     1
    139    309     1
    140    309     1
    141    339     1
    141    340     1
    142    338     1
    143    338     1
    145    159     1
    145    160     1
    145    162     1
    145    163     1
    145    156     1
    145    157     1
    146    150     1
    146    151     1
    146    153     1
    146    154     1
    146    171     1
    146    172     1
    147    149     1
    147    152     1
    147    170     1
    147    159     1
    147    160     1
    148    149     1
    148    152     1
    148    170     1
    148    159     1
    148    160     1
    149    153     1
    149    154     1
    149    168     1
    149    169     1
    150    152     1
    150    167     1
    150    162     1
    150    163     1
    151    152     1
    151    167     1
    151    162     1
    151    163     1
    152    165     1
    152    166     1
    153    164     1
    153    156     1
    153    157     1
    154    164     1
    154    156     1
    154    157     1
    156    173     1
    156    165     1
    156    166     1
    157    173     1
    157    165     1
    157    166     1
    159    405     1
    159    171     1
    159    172     1
    160    405     1
    160    171     1
    160    172     1
    162    376     1
    162    168     1
    162    169     1
    163    376     1
    163    168     1
    163    169     1
    167    368     1
    167    369     1
    168    367     1
    169    367     1
    170    397     1
    170    398     1
    171    396     1
    172    396     1
    174    188     1
    174    189     1
    174    191     1
    174    192     1
    174    185     1
    174    186     1
    175    179     1
    175    180     1
    175    182     1
    175    183     1
    175    200     1
    175    201     1
    176    178     1
    176    181     1
    176    199     1
    176    188     1
    176    189     1
    177    178     1
    177    181     1
    177    199     1
    177    188     1
    177    189     1
    178    182     1
    178    183     1
    178    197     1
    178    198     1
    179    181     1
    179    196     1
    179    191     1
    179    192     1
    180    181     1
    180    196     1
    180    191     1
    180    192     1
    181    194     1
    181    195     1
    182    193     1
    182    185     1
    182    186     1
    183    193     1
    183    185     1
    183    186     1
    185    202     1
    185    194     1
    185    195     1
    186    202     1
    186    194     1
    186    195     1
    188    431     1
    188    200     1
    188    201     1
    189    431     1
    189    200     1
    189    201     1
    191    418     1
    191    197     1
    191    198     1
    192    418     1
    192    197     1
    192    198     1
    196    413     1
    196    414     1
    197    412     1
    198    412     1
    199    426     1
    199    427     1
    200    425     1
    201    425     1
    203    217     1
    203    218     1
    203    220     1
    203    221     1
    203    214     1
    203    215     1
    204    208     1
    204    209     1
    204    211     1
    204    212     1
    204    229     1
    204    230     1
    205    207     1
    205    210     1
    205    228     1
    205    217     1
    205    218     1
    206    207     1
    206    210     1
    206    228     1
    206    217     1
    206    218     1
    207    211     1
    207    212     1
    207    226     1
    207    227     1
    208    210     1
    208    225     1
    208    220     1
    208    221     1
    209    210     1
    209    225     1
    209    220     1
    209    221     1
    210    223     1
    210    224     1
    211    222     1
    211    214     1
    211    215     1
    212    222     1
    212    214     1
    212    215     1
    214    231     1
    214    223     1
    214    224     1
    215    231     1
    215    223     1
    215    224     1
    217    457     1
    217    229     1
    217    230     1
    218    457     1
    218    229     1
    218    230     1
    220    444     1
    220    226     1
    220    227     1
    221    444     1
    221    226     1
    221    227     1
    225    439     1
    225    440     1
    226    438     1
    227    438     1
    228    452     1
    228    453     1
    229    451     1
    230    451     1
    232    246     1
    232    247     1
    232    249     1
    232    250     1
    232    243     1
    232    244     1
    233    237     1
    233    238     1
    233    240     1
    233    241     1
    233    258     1
    233    259     1
    234    236     1
    234    239     1
    234    257     1
    234    246     1
    234    247     1
    235    236     1
    235    239     1
    235    257     1
    235    246     1
    235    247     1
    236    240     1
    236    241     1
    236    255     1
    236    256     1
    237    239     1
    237    254     1
    237    249     1
    237    250     1
    238    239     1
    238    254     1
    238    249     1
    238    250     1
    239    252     1
    239    253     1
    240    251     1
    240    243     1
    240    244     1
    241    251     1
    241    243     1
    241    244     1
    243    260     1
    243    252     1
    243    253     1
    244    260     1
    244    252     1
    244    253     1
    246    483     1
    246    258     1
    246    259     1
    247    483     1
    247    258     1
    247    259     1
    249    470     1
    249    255     1
    249    256     1
    250    470     1
    250    255     1
    250    256     1
    254    465     1
    254    466     1
    255    464     1
    256    464     1
    257    478     1
    257    479     1
    258    477     1
    259    477     1
    261    275     1
    261    276     1
    261    278     1
    261    279     1
    261    272     1
    261    273     1
    262    266     1
    262    267     1
    262    269     1
    262    270     1
    262    287     1
    262    288     1
    263    265     1
    263    268     1
    263    286     1
    263    275     1
    263    276     1
    264    265     1
    264    268     1
    264    286     1
    264    275     1
    264    276     1
    265    269     1
    265    270     1
    265    284     1
    265    285     1
    266    268     1
    266    283     1
    266    278     1
    266    279     1
    267    268     1
    267    283     1
    267    278     1
    267    279     1
    268    281     1
    268    282     1
    269    280     1
    269    272     1
    269    273     1
    270    280     1
    270    272     1
    270    273     1
    272    289     1
    272    281     1
    272    282     1
    273    289     1
    273    281     1
    273    282     1
    275    509     1
    275    287     1
    275    288     1
    276    509     1
    276    287     1
    276    288     1
    278    496     1
    278    284     1
    278    285     1
    279    496     1
    279    284     1
    279    285     1
    283    491     1
    283    492     1
    284    490     1
    285    490     1
    286    504     1
    286    505     1
    287    503     1
    288    503     1
    290    304     1
    290    305     1
    290    307     1
    290    308     1
    290    301     1
    290    302     1
    291    295     1
    291    296     1
    291    298     1
    291    299     1
    291    316     1
    291    317     1
    292    294     1
    292    297     1
    292    315     1
    292    304     1
    292    305     1
    293    294     1
    293    297     1
    293    315     1
    293    304     1
    293    305     1
    294    298     1
    294    299     1
    294    313     1
    294    314     1
    295    297     1
    295    312     1
    295    307     1
    295    308     1
    296    297     1
    296    312     1
    296    307     1
    296    308     1
    297    310     1
    297    311     1
    298    309     1
    298    301     1
    298    302     1
    299    309     1
    299    301     1
    299    302     1
    301    318     1
    301    310     1
    301    311     1
    302    318     1
    302    310     1
    302    311     1
    304    535     1
    304    316     1
    304    317     1
    305    535     1
    305    316     1
    305    317     1
    307    522     1
    307    313     1
    307    314     1
    308    522     1
    308    313     1
    308    314     1
    312    517     1
    312    518     1
    313    516     1
    314    516     1
    315    530     1
    315    531     1
    316    529     1
    317    529     1
    319    333     1
    319    334     1
    319    336     1
    319    337     1
    319    330     1
    319    331     1
    320    324     1
    320    325     1
    320    327     1
    320    328     1
    320    345     1
    320    346     1
    321    323     1
    321    326     1
    321    344     1
    321    333     1
    321    334     1
    322    323     1
    322    326     1
    322    344     1
    322    333     1
    322    334     1
    323    327     1
    323    328     1
    323    342     1
    323    343     1
    324    326     1
    324    341     1
    324    336     1
    324    337     1
    325    326     1
    325    341     1
    325    336     1
    325    337     1
    326    339     1
    326    340     1
    327    338     1
    327    330     1
    327    331     1
    328    338     1
    328    330     1
    328    331     1
    330    347     1
    330    339     1
    330    340     1
    331    347     1
    331    339     1
    331    340     1
    333    561     1
    333    345     1
    333    346     1
    334    561     1
    334    345     1
    334    346     1
    336    548     1
    336    342     1
    336    343     1
    337    548     1
    337    342     1
    337    343     1
    341    543     1
    341    544     1
    342    542     1
    343    542     1
    344    556     1
    344    557     1
    345    555     1
    346    555     1
    348    362     1
    348    363     1
    348    365     1
    348    366     1
    348    359     1
    348    360     1
    349    353     1
    349    354     1
    349    356     1
    349    357     1
    349    374     1
    349    375     1
    350    352     1
    350    355     1
    350    373     1
    350    362     1
    350    363     1
    351    352     1
    351    355     1
    351    373     1
    351    362     1
    351    363     1
    352    356     1
    352    357     1
    352    371     1
    352    372     1
    353    355     1
    353    370     1
    353    365     1
    353    366     1
    354    355     1
    354    370     1
    354    365     1
    354    366     1
    355    368     1
    355    369     1
    356    367     1
    356    359     1
    356    360     1
    357    367     1
    357    359     1
    357    360     1
    359    376     1
    359    368     1
    359    369     1
    360    376     1
    360    368     1
    360    369     1
    362    587     1
    362    374     1
    362    375     1
    363    587     1
    363    374     1
    363    375     1
    365    574     1
    365    371     1
    365    372     1
    366    574     1
    366    371     1
    366    372     1
    370    569     1
    370    570     1
    371    568     1
    372    568     1
    373    582     1
    373    583     1
    374    581     1
    375    581     1
    377    391     1
    377    392     1
    377    394     1
    377    395     1
    377    388     1
    377    389     1
    378    382     1
    378    383     1
    378    385     1
    378    386     1
    378    403     1
    378    404     1
    379    381     1
    379    384     1
    379    402     1
    379    391     1
    379    392     1
    380    381     1
    380    384     1
    380    402     1
    380    391     1
    380    392     1
    381    385     1
    381    386     1
    381    400     1
    381    401     1
    382    384     1
    382    399     1
    382    394     1
    382    395     1
    383    384     1
    383    399     1
    383    394     1
    383    395     1
    384    397     1
    384    398     1
    385    396     1
    385    388     1
    385    389     1
    386    396     1
    386    388     1
    386    389     1
    388    405     1
    388    397     1
    388    398     1
    389    405     1
    389    397     1
    389    398     1
    391    613     1
    391    403     1
    391    404     1
    392    613     1
    392    403     1
    392    404     1
    394    600     1
    394    400     1
    394    401     1
    395    600     1
    395    400     1
    395    401     1
    399    595     1
    399    596     1
    400    594     1
    401    594     1
    402    608     1
    402    609     1
    403    607     1
    404    607     1
    406    413     1
    406    414     1
    407    412     1
    407    410     1
    407    411     1
    407    416     1
    407    417     1
    408    412     1
    408    410     1
    408    411     1
    408    416     1
    408    417     1
    409    416     1
    409    417     1
    410    415     1
    410    418     1
    410    413     1
    410    414     1
    411    415     1
    411    418     1
    411    413     1
    411    414     1
    419    426     1
    419    427     1
    420    425     1
    420    423     1
    420    424     1
    420    429     1
    420    430     1
    421    425     1
    421    423     1
    421    424     1
    421    429     1
    421    430     1
    422    429     1
    422    430     1
    423    431     1
    423    426     1
    423    427     1
    423    428     1
    424    431     1
    424    426     1
    424    427     1
    424    428     1
    432    439     1
    432    440     1
    433    438     1
    433    436     1
    433    437     1
    433    442     1
    433    443     1
    434    438     1
    434    436     1
    434    437     1
    434    442     1
    434    443     1
    435    442     1
    435    443     1
    436    441     1
    436    444     1
    436    439     1
    436    440     1
    437    441     1
    437    444     1
    437    439     1
    437    440     1
    445    452     1
    445    453     1
    446    451     1
    446    449     1
    446    450     1
    446    455     1
    446    456     1
    447    451     1
    447    449     1
    447    450     1
    447    455     1
    447    456     1
    448    455     1
    448    456     1
    449    457     1
    449    452     1
    449    453     1
    449    454     1
    450    457     1
    450    452     1
    450    453     1
    450    454     1
    458    465     1
    458    466     1
    459    464     1
    459    462     1
    459    463     1
    459    468     1
    459    469     1
    460    464     1
    460    462     1
    460    463     1
    460    468     1
    460    469     1
    461    468     1
    461    469     1
    462    467     1
    462    470     1
    462    465     1
    462    466     1
    463    467     1
    463    470     1
    463    465     1
    463    466     1
    471    478     1
    471    479     1
    472    477     1
    472    475     1
    472    476     1
    472    481     1
    472    482     1
    473    477     1
    473    475     1
    473    476     1
    473    481     1
    473    482     1
    474    481     1
    474    482     1
    475    483     1
    475    478     1
    475    479     1
    475    480     1
    476    483     1
    476    478     1
    476    479     1
    476    480     1
    484    491     1
    484    492     1
    485    490     1
    485    488     1
    485    489     1
    485    494     1
    485    495     1
    486    490     1
    486    488     1
    486    489     1
    486    494     1
    486    495     1
    487    494     1
    487    495     1
    488    493     1
    488    496     1
    488    491     1
    488    492     1
    489    493     1
    489    496     1
    489    491     1
    489    492     1
    497    504     1
    497    505     1
    498    503     1
    498    501     1
    498    502     1
    498    507     1
    498    508     1
    499    503     1
    499    501     1
    499    502     1
    499    507     1
    499    508     1
    500    507     1
    500    508     1
    501    509     1
    501    504     1
    501    505     1
    501    506     1
    502    509     1
    502    504     1
    502    505     1
    502    506     1
    510    517     1
    510    518     1
    511    516     1
    511    514     1
    511    515     1
    511    520     1
    511    521     1
    512    516     1
    512    514     1
    512    515     1
    512    520     1
    512    521     1
    513    520     1
    513    521     1
    514    519     1
    514    522     1
    514    517     1
    514    518     1
    515    519     1
    515    522     1
    515    517     1
    515    518     1
    523    530     1
    523    531     1
    524    529     1
    524    527     1
    524    528     1
    524    533     1
    524    534     1
    525    529     1
    525    527     1
    525    528     1
    525    533     1
    525    534     1
    526    533     1
    526    534     1
    527    535     1
    527    530     1
    527    531     1
    527    532     1
    528    535     1
    528    530     1
    528    531     1
    528    532     1
    536    543     1
    536    544     1
    537    542     1
    537    540     1
    537    541     1
    537    546     1
    537    547     1
    538    542     1
    538    540     1
    538    541     1
    538    546     1
    538    547     1
    539    546     1
    539    547     1
    540    545     1
    540    548     1
    540    543     1
    540    544     1
    541    545     1
    541    548     1
    541    543     1
    541    544     1
    549    556     1
    549    557     1
    550    555     1
    550    553     1
    550    554     1
    550    559     1
    550    560     1
    551    555     1
    551    553     1
    551    554     1
    551    559     1
    551    560     1
    552    559     1
    552    560     1
    553    561     1
    553    556     1
    553    557     1
    553    558     1
    554    561     1
    554    556     1
    554    557     1
    554    558     1
    562    569     1
    562    570     1
    563    568     1
    563    566     1
    563    567     1
    563    572     1
    563    573     1
    564    568     1
    564    566     1
    564    567     1
    564    572     1
    564    573     1
    565    572     1
    565    573     1
    566    571     1
    566    574     1
    566    569     1
    566    570     1
    567    571     1
    567    574     1
    567    569     1
    567    570     1
    575    582     1
    575    583     1
    576    581     1
    576    579     1
    576    580     1
    576    585     1
    576    586     1
    577    581     1
    577    579     1
    577    580     1
    577    585     1
    577    586     1
    578    585     1
    578    586     1
    579    587     1
    579    582     1
    579    583     1
    579    584     1
    580    587     1
    580    582     1
    580    583     1
    580    584     1
    588    595     1
    588    596     1
    589    594     1
    589    592     1
    589    593     1
    589    598     1
    589    599     1
    590    594     1
    590    592     1
    590    593     1
    590    598     1
    590    599     1
    591    598     1
    591    599     1
    592    597     1
    592    600     1
    592    595     1
    592    596     1
    593    597     1
    593    600     1
    593    595     1
    593    596     1
    601    608     1
    601    609     1
    602    607     1
    602    605     1
    602    606     1
    602    611     1
    602    612     1
    603    607     1
    603    605     1
    603    606     1
    603    611     1
    603    612     1
    604    611     1
    604    612     1
    605    613     1
    605    608     1
    605    609     1
    605    610     1
    606    613     1
    606    608     1
    606    609     1
    606    610     1

[ angles ]
;    ai     aj     ak funct         c0         c1         c2         c3
      1      2      8     1   107.9700462 569.024000
      1      5     11     1   107.9700462 569.024000
      2      1      5     1   112.4800480 524.673600
      2      8     14     1   111.5100476 526.347200
      5     11     17     1   111.5100476 526.347200
      8     14     20     1   111.0400475 552.288000
     11     17     21     1   111.0400475 552.288000
     14     20     28     1   112.3500484 533.878400
     14     20     31     1   112.3500484 533.878400
     17     21     22     1   112.3500484 533.878400
     17     21     25     1   112.3500484 533.878400
     20     28     40     1   111.0400475 552.288000
     20     31     43     1   111.0400475 552.288000
     21     22     34     1   111.0400475 552.288000
     21     25     37     1   111.0400475 552.288000
     22     21     25     1   112.3500484 533.878400
     22     34     55     1   111.5100476 526.347200
     25     37     52     1   111.5100476 526.347200
     28     20     31     1   112.3500484 533.878400
     28     40     49     1   111.5100476 526.347200
     31     43     46     1   111.5100476 526.347200
     34     55    173     1   107.9700462 569.024000
     37     52    144     1   107.9700462 569.024000
     40     49    115     1   107.9700462 569.024000
     43     46     86     1   107.9700462 569.024000
     46     86     77     1   112.4800480 524.673600
     49    115    106     1   112.4800480 524.673600
     52    144    135     1   112.4800480 524.673600
     55    173    164     1   112.4800480 524.673600
     58     59     71     1   111.0400475 552.288000
     58     62     74     1   111.0400475 552.288000
     58     65     68     1   111.0400475 552.288000
     59     58     62     1   112.3500484 533.878400
     59     58     65     1   112.3500484 533.878400
     59     71     83     1   111.5100476 526.347200
     62     58     65     1   112.3500484 533.878400
     62     74     80     1   111.5100476 526.347200
     65     68     77     1   111.5100476 526.347200
     68     77     86     1   107.9700462 569.024000
     71     83    231     1   107.9700462 569.024000
     74     80    202     1   107.9700462 569.024000
     80    202    193     1   112.4800480 524.673600
     83    231    222     1   112.4800480 524.673600
     87     88    100     1   111.0400475 552.288000
     87     91    103     1   111.0400475 552.288000
     87     94     97     1   111.0400475 552.288000
     88     87     91     1   112.3500484 533.878400
     88     87     94     1   112.3500484 533.878400
     88    100    112     1   111.5100476 526.347200
     91     87     94     1   112.3500484 533.878400
     91    103    109     1   111.5100476 526.347200
     94     97    106     1   111.5100476 526.347200
     97    106    115     1   107.9700462 569.024000
    100    112    289     1   107.9700462 569.024000
    103    109    260     1   107.9700462 569.024000
    109    260    251     1   112.4800480 524.673600
    112    289    280     1   112.4800480 524.673600
    116    117    129     1   111.0400475 552.288000
    116    120    132     1   111.0400475 552.288000
    116    123    126     1   111.0400475 552.288000
    117    116    120     1   112.3500484 533.878400
    117    116    123     1   112.3500484 533.878400
    117    129    141     1   111.5100476 526.347200
    120    116    123     1   112.3500484 533.878400
    120    132    138     1   111.5100476 526.347200
    123    126    135     1   111.5100476 526.347200
    126    135    144     1   107.9700462 569.024000
    129    141    347     1   107.9700462 569.024000
    132    138    318     1   107.9700462 569.024000
    138    318    309     1   112.4800480 524.673600
    141    347    338     1   112.4800480 524.673600
    145    146    158     1   111.0400475 552.288000
    145    149    161     1   111.0400475 552.288000
    145    152    155     1   111.0400475 552.288000
    146    145    149     1   112.3500484 533.878400
    146    145    152     1   112.3500484 533.878400
    146    158    170     1   111.5100476 526.347200
    149    145    152     1   112.3500484 533.878400
    149    161    167     1   111.5100476 526.347200
    152    155    164     1   111.5100476 526.347200
    155    164    173     1   107.9700462 569.024000
    158    170    405     1   107.9700462 569.024000
    161    167    376     1   107.9700462 569.024000
    167    376    367     1   112.4800480 524.673600
    170    405    396     1   112.4800480 524.673600
    174    175    187     1   111.0400475 552.288000
    174    178    190     1   111.0400475 552.288000
    174    181    184     1   111.0400475 552.288000
    175    174    178     1   112.3500484 533.878400
    175    174    181     1   112.3500484 533.878400
    175    187    199     1   111.5100476 526.347200
    178    174    181     1   112.3500484 533.878400
    178    190    196     1   111.5100476 526.347200
    181    184    193     1   111.5100476 526.347200
    184    193    202     1   107.9700462 569.024000
    187    199    431     1   107.9700462 569.024000
    190    196    418     1   107.9700462 569.024000
    196    418    412     1   112.4800480 524.673600
    199    431    425     1   112.4800480 524.673600
    203    204    216     1   111.0400475 552.288000
    203    207    219     1   111.0400475 552.288000
    203    210    213     1   111.0400475 552.288000
    204    203    207     1   112.3500484 533.878400
    204    203    210     1   112.3500484 533.878400
    204    216    228     1   111.5100476 526.347200
    207    203    210     1   112.3500484 533.878400
    207    219    225     1   111.5100476 526.347200
    210    213    222     1   111.5100476 526.347200
    213    222    231     1   107.9700462 569.024000
    216    228    457     1   107.9700462 569.024000
    219    225    444     1   107.9700462 569.024000
    225    444    438     1   112.4800480 524.673600
    228    457    451     1   112.4800480 524.673600
    232    233    245     1   111.0400475 552.288000
    232    236    248     1   111.0400475 552.288000
    232    239    242     1   111.0400475 552.288000
    233    232    236     1   112.3500484 533.878400
    233    232    239     1   112.3500484 533.878400
    233    245    257     1   111.5100476 526.347200
    236    232    239     1   112.3500484 533.878400
    236    248    254     1   111.5100476 526.347200
    239    242    251     1   111.5100476 526.347200
    242    251    260     1   107.9700462 569.024000
    245    257    483     1   107.9700462 569.024000
    248    254    470     1   107.9700462 569.024000
    254    470    464     1   112.4800480 524.673600
    257    483    477     1   112.4800480 524.673600
    261    262    274     1   111.0400475 552.288000
    261    265    277     1   111.0400475 552.288000
    261    268    271     1   111.0400475 552.288000
    262    261    265     1   112.3500484 533.878400
    262    261    268     1   112.3500484 533.878400
    262    274    286     1   111.5100476 526.347200
    265    261    268     1   112.3500484 533.878400
    265    277    283     1   111.5100476 526.347200
    268    271    280     1   111.5100476 526.347200
    271    280    289     1   107.9700462 569.024000
    274    286    509     1   107.9700462 569.024000
    277    283    496     1   107.9700462 569.024000
    283    496    490     1   112.4800480 524.673600
    286    509    503     1   112.4800480 524.673600
    290    291    303     1   111.0400475 552.288000
    290    294    306     1   111.0400475 552.288000
    290    297    300     1   111.0400475 552.288000
    291    290    294     1   112.3500484 533.878400
    291    290    297     1   112.3500484 533.878400
    291    303    315     1   111.5100476 526.347200
    294    290    297     1   112.3500484 533.878400
    294    306    312     1   111.5100476 526.347200
    297    300    309     1   111.5100476 526.347200
    300    309    318     1   107.9700462 569.024000
    303    315    535     1   107.9700462 569.024000
    306    312    522     1   107.9700462 569.024000
    312    522    516     1   112.4800480 524.673600
    315    535    529     1   112.4800480 524.673600
    319    320    332     1   111.0400475 552.288000
    319    323    335     1   111.0400475 552.288000
    319    326    329     1   111.0400475 552.288000
    320    319    323     1   112.3500484 533.878400
    320    319    326     1   112.3500484 533.878400
    320    332    344     1   111.5100476 526.347200
    323    319    326     1   112.3500484 533.878400
    323    335    341     1   111.5100476 526.347200
    326    329    338     1   111.5100476 526.347200
    329    338    347     1   107.9700462 569.024000
    332    344    561     1   107.9700462 569.024000
    335    341    548     1   107.9700462 569.024000
    341    548    542     1   112.4800480 524.673600
    344    561    555     1   112.4800480 524.673600
    348    349    361     1   111.0400475 552.288000
    348    352    364     1   111.0400475 552.288000
    348    355    358     1   111.0400475 552.288000
    349    348    352     1   112.3500484 533.878400
    349    348    355     1   112.3500484 533.878400
    349    361    373     1   111.5100476 526.347200
    352    348    355     1   112.3500484 533.878400
    352    364    370     1   111.5100476 526.347200
    355    358    367     1   111.5100476 526.347200
    358    367    376     1   107.9700462 569.024000
    361    373    587     1   107.9700462 569.024000
    364    370    574     1   107.9700462 569.024000
    370    574    568     1   112.4800480 524.673600
    373    587    581     1   112.4800480 524.673600
    377    378    390     1   111.0400475 552.288000
    377    381    393     1   111.0400475 552.288000
    377    384    387     1   111.0400475 552.288000
    378    377    381     1   112.3500484 533.878400
    378    377    384     1   112.3500484 533.878400
    378    390    402     1   111.5100476 526.347200
    381    377    384     1   112.3500484 533.878400
    381    393    399     1   111.5100476 526.347200
    384    387    396     1   111.5100476 526.347200
    387    396    405     1   107.9700462 569.024000
    390    402    613     1   107.9700462 569.024000
    393    399    600     1   107.9700462 569.024000
    399    600    594     1   112.4800480 524.673600
    402    613    607     1   112.4800480 524.673600
    406    409    412     1   111.5100476 526.347200
    409    406    415     1   111.0400475 552.288000
    409    412    418     1   107.9700462 569.024000
    419    422    425     1   111.5100476 526.347200
    422    425    431     1   107.9700462 569.024000
    422    419    428     1   111.0400475 552.288000
    432    435    438     1   111.5100476 526.347200
    435    432    441     1   111.0400475 552.288000
    435    438    444     1   107.9700462 569.024000
    445    448    451     1   111.5100476 526.347200
    448    451    457     1   107.9700462 569.024000
    448    445    454     1   111.0400475 552.288000
    458    461    464     1   111.5100476 526.347200
    461    458    467     1   111.0400475 552.288000
    461    464    470     1   107.9700462 569.024000
    471    474    477     1   111.5100476 526.347200
    474    477    483     1   107.9700462 569.024000
    474    471    480     1   111.0400475 552.288000
    484    487    490     1   111.5100476 526.347200
    487    484    493     1   111.0400475 552.288000
    487    490    496     1   107.9700462 569.024000
    497    500    503     1   111.5100476 526.347200
    500    503    509     1   107.9700462 569.024000
    500    497    506     1   111.0400475 552.288000
    510    513    516     1   111.5100476 526.347200
    513    510    519     1   111.0400475 552.288000
    513    516    522     1   107.9700462 569.024000
    523    526    529     1   111.5100476 526.347200
    526    529    535     1   107.9700462 569.024000
    526    523    532     1   111.0400475 552.288000
    536    539    542     1   111.5100476 526.347200
    539    536    545     1   111.0400475 552.288000
    539    542    548     1   107.9700462 569.024000
    549    552    555     1   111.5100476 526.347200
    552    555    561     1   107.9700462 569.024000
    552    549    558     1   111.0400475 552.288000
    562    565    568     1   111.5100476 526.347200
    565    562    571     1   111.0400475 552.288000
    565    568    574     1   107.9700462 569.024000
    575    578    581     1   111.5100476 526.347200
    578    581    587     1   107.9700462 569.024000
    578    575    584     1   111.0400475 552.288000
    588    591    594     1   111.5100476 526.347200
    591    588    597     1   111.0400475 552.288000
    591    594    600     1   107.9700462 569.024000
    601    604    607     1   111.5100476 526.347200
    604    607    613     1   107.9700462 569.024000
    604    601    610     1   111.0400475 552.288000
      1      2      3     1   109.7800468 425.094400
      1      2      4     1   109.7800468 425.094400
      1      5      6     1   109.7800468 425.094400
      1      5      7     1   109.7800468 425.094400
      2      8      9     1   109.8000471 387.438400
      2      8     10     1   109.8000471 387.438400
      3      2      8     1   109.5600471 388.275200
      3      2      4     1   108.4600466 328.025600
      4      2      8     1   109.5600471 388.275200
      5     11     12     1   109.8000471 387.438400
      5     11     13     1   109.8000471 387.438400
      6      5     11     1   109.5600471 388.275200
      6      5      7     1   108.4600466 328.025600
      7      5     11     1   109.5600471 388.275200
      8     14     15     1   109.5600471 388.275200
      8     14     16     1   109.5600471 388.275200
      9      8     14     1   109.8000471 387.438400
      9      8     10     1   107.5800459 329.699200
     10      8     14     1   109.8000471 387.438400
     11     17     18     1   109.5600471 388.275200
     11     17     19     1   109.5600471 388.275200
     12     11     17     1   109.8000471 387.438400
     12     11     13     1   107.5800459 329.699200
     13     11     17     1   109.8000471 387.438400
     15     14     20     1   109.8800469 414.216000
     15     14     16     1   108.4600466 328.025600
     16     14     20     1   109.8800469 414.216000
     18     17     21     1   109.8800469 414.216000
     18     17     19     1   108.4600466 328.025600
     19     17     21     1   109.8800469 414.216000
     20     28     29     1   109.8800469 414.216000
     20     28     30     1   109.8800469 414.216000
     20     31     32     1   109.8800469 414.216000
     20     31     33     1   109.8800469 414.216000
     21     22     23     1   109.8800469 414.216000
     21     22     24     1   109.8800469 414.216000
     21     25     26     1   109.8800469 414.216000
     21     25     27     1   109.8800469 414.216000
     22     34     35     1   109.8000471 387.438400
     22     34     36     1   109.8000471 387.438400
     23     22     34     1   109.5600471 388.275200
     23     22     24     1   108.4600466 328.025600
     24     22     34     1   109.5600471 388.275200
     25     37     38     1   109.8000471 387.438400
     25     37     39     1   109.8000471 387.438400
     26     25     37     1   109.5600471 388.275200
     26     25     27     1   108.4600466 328.025600
     27     25     37     1   109.5600471 388.275200
     28     40     41     1   109.8000471 387.438400
     28     40     42     1   109.8000471 387.438400
     29     28     40     1   109.5600471 388.275200
     29     28     30     1   108.4600466 328.025600
     30     28     40     1   109.5600471 388.275200
     31     43     44     1   109.8000471 387.438400
     31     43     45     1   109.8000471 387.438400
     32     31     43     1   109.5600471 388.275200
     32     31     33     1   108.4600466 328.025600
     33     31     43     1   109.5600471 388.275200
     34     55     56     1   109.5600471 388.275200
     34     55     57     1   109.5600471 388.275200
     35     34     55     1   109.8000471 387.438400
     35     34     36     1   107.5800459 329.699200
     36     34     55     1   109.8000471 387.438400
     37     52     53     1   109.5600471 388.275200
     37     52     54     1   109.5600471 388.275200
     38     37     52     1   109.8000471 387.438400
     38     37     39     1   107.5800459 329.699200
     39     37     52     1   109.8000471 387.438400
     40     49     50     1   109.5600471 388.275200
     40     49     51     1   109.5600471 388.275200
     41     40     49     1   109.8000471 387.438400
     41     40     42     1   107.5800459 329.699200
     42     40     49     1   109.8000471 387.438400
     43     46     47     1   109.5600471 388.275200
     43     46     48     1   109.5600471 388.275200
     44     43     46     1   109.8000471 387.438400
     44     43     45     1   107.5800459 329.699200
     45     43     46     1   109.8000471 387.438400
     47     46     86     1   109.7800468 425.094400
     47     46     48     1   108.4600466 328.025600
     48     46     86     1   109.7800468 425.094400
     50     49    115     1   109.7800468 425.094400
     50     49     51     1   108.4600466 328.025600
     51     49    115     1   109.7800468 425.094400
     53     52    144     1   109.7800468 425.094400
     53     52     54     1   108.4600466 328.025600
     54     52    144     1   109.7800468 425.094400
     56     55    173     1   109.7800468 425.094400
     56     55     57     1   108.4600466 328.025600
     57     55    173     1   109.7800468 425.094400
     58     59     60     1   109.8800469 414.216000
     58     59     61     1   109.8800469 414.216000
     58     62     63     1   109.8800469 414.216000
     58     62     64     1   109.8800469 414.216000
     58     65     66     1   109.8800469 414.216000
     58     65     67     1   109.8800469 414.216000
     59     71     72     1   109.8000471 387.438400
     59     71     73     1   109.8000471 387.438400
     60     59     71     1   109.5600471 388.275200
     60     59     61     1   108.4600466 328.025600
     61     59     71     1   109.5600471 388.275200
     62     74     75     1   109.8000471 387.438400
     62     74     76     1   109.8000471 387.438400
     63     62     74     1   109.5600471 388.275200
     63     62     64     1   108.4600466 328.025600
     64     62     74     1   109.5600471 388.275200
     65     68     69     1   109.8000471 387.438400
     65     68     70     1   109.8000471 387.438400
     66     65     68     1   109.5600471 388.275200
     66     65     67     1   108.4600466 328.025600
     67     65     68     1   109.5600471 388.275200
     68     77     78     1   109.5600471 388.275200
     68     77     79     1   109.5600471 388.275200
     69     68     77     1   109.8000471 387.438400
     69     68     70     1   107.5800459 329.699200
     70     68     77     1   109.8000471 387.438400
     71     83     84     1   109.5600471 388.275200
     71     83     85     1   109.5600471 388.275200
     72     71     83     1   109.8000471 387.438400
     72     71     73     1   107.5800459 329.699200
     73     71     83     1   109.8000471 387.438400
     74     80     81     1   109.5600471 388.275200
     74     80     82     1   109.5600471 388.275200
     75     74     80     1   109.8000471 387.438400
     75     74     76     1   107.5800459 329.699200
     76     74     80     1   109.8000471 387.438400
     78     77     86     1   109.7800468 425.094400
     78     77     79     1   108.4600466 328.025600
     79     77     86     1   109.7800468 425.094400
     81     80    202     1   109.7800468 425.094400
     81     80     82     1   108.4600466 328.025600
     82     80    202     1   109.7800468 425.094400
     84     83    231     1   109.7800468 425.094400
     84     83     85     1   108.4600466 328.025600
     85     83    231     1   109.7800468 425.094400
     87     88     89     1   109.8800469 414.216000
     87     88     90     1   109.8800469 414.216000
     87     91     92     1   109.8800469 414.216000
     87     91     93     1   109.8800469 414.216000
     87     94     95     1   109.8800469 414.216000
     87     94     96     1   109.8800469 414.216000
     88    100    101     1   109.8000471 387.438400
     88    100    102     1   109.8000471 387.438400
     89     88    100     1   109.5600471 388.275200
     89     88     90     1   108.4600466 328.025600
     90     88    100     1   109.5600471 388.275200
     91    103    104     1   109.8000471 387.438400
     91    103    105     1   109.8000471 387.438400
     92     91    103     1   109.5600471 388.275200
     92     91     93     1   108.4600466 328.025600
     93     91    103     1   109.5600471 388.275200
     94     97     98     1   109.8000471 387.438400
     94     97     99     1   109.8000471 387.438400
     95     94     97     1   109.5600471 388.275200
     95     94     96     1   108.4600466 328.025600
     96     94     97     1   109.5600471 388.275200
     97    106    107     1   109.5600471 388.275200
     97    106    108     1   109.5600471 388.275200
     98     97    106     1   109.8000471 387.438400
     98     97     99     1   107.5800459 329.699200
     99     97    106     1   109.8000471 387.438400
    100    112    113     1   109.5600471 388.275200
    100    112    114     1   109.5600471 388.275200
    101    100    112     1   109.8000471 387.438400
    101    100    102     1   107.5800459 329.699200
    102    100    112     1   109.8000471 387.438400
    103    109    110     1   109.5600471 388.275200
    103    109    111     1   109.5600471 388.275200
    104    103    109     1   109.8000471 387.438400
    104    103    105     1   107.5800459 329.699200
    105    103    109     1   109.8000471 387.438400
    107    106    115     1   109.7800468 425.094400
    107    106    108     1   108.4600466 328.025600
    108    106    115     1   109.7800468 425.094400
    110    109    260     1   109.7800468 425.094400
    110    109    111     1   108.4600466 328.025600
    111    109    260     1   109.7800468 425.094400
    113    112    289     1   109.7800468 425.094400
    113    112    114     1   108.4600466 328.025600
    114    112    289     1   109.7800468 425.094400
    116    117    118     1   109.8800469 414.216000
    116    117    119     1   109.8800469 414.216000
    116    120    121     1   109.8800469 414.216000
    116    120    122     1   109.8800469 414.216000
    116    123    124     1   109.8800469 414.216000
    116    123    125     1   109.8800469 414.216000
    117    129    130     1   109.8000471 387.438400
    117    129    131     1   109.8000471 387.438400
    118    117    129     1   109.5600471 388.275200
    118    117    119     1   108.4600466 328.025600
    119    117    129     1   109.5600471 388.275200
    120    132    133     1   109.8000471 387.438400
    120    132    134     1   109.8000471 387.438400
    121    120    132     1   109.5600471 388.275200
    121    120    122     1   108.4600466 328.025600
    122    120    132     1   109.5600471 388.275200
    123    126    127     1   109.8000471 387.438400
    123    126    128     1   109.8000471 387.438400
    124    123    126     1   109.5600471 388.275200
    124    123    125     1   108.4600466 328.025600
    125    123    126     1   109.5600471 388.275200
    126    135    136     1   109.5600471 388.275200
    126    135    137     1   109.5600471 388.275200
    127    126    135     1   109.8000471 387.438400
    127    126    128     1   107.5800459 329.699200
    128    126    135     1   109.8000471 387.438400
    129    141    142     1   109.5600471 388.275200
    129    141    143     1   109.5600471 388.275200
    130    129    141     1   109.8000471 387.438400
    130    129    131     1   107.5800459 329.699200
    131    129    141     1   109.8000471 387.438400
    132    138    139     1   109.5600471 388.275200
    132    138    140     1   109.5600471 388.275200
    133    132    138     1   109.8000471 387.438400
    133    132    134     1   107.5800459 329.699200
    134    132    138     1   109.8000471 387.438400
    136    135    144     1   109.7800468 425.094400
    136    135    137     1   108.4600466 328.025600
    137    135    144     1   109.7800468 425.094400
    139    138    318     1   109.7800468 425.094400
    139    138    140     1   108.4600466 328.025600
    140    138    318     1   109.7800468 425.094400
    142    141    347     1   109.7800468 425.094400
    142    141    143     1   108.4600466 328.025600
    143    141    347     1   109.7800468 425.094400
    145    146    147     1   109.8800469 414.216000
    145    146    148     1   109.8800469 414.216000
    145    149    150     1   109.8800469 414.216000
    145    149    151     1   109.8800469 414.216000
    145    152    153     1   109.8800469 414.216000
    145    152    154     1   109.8800469 414.216000
    146    158    159     1   109.8000471 387.438400
    146    158    160     1   109.8000471 387.438400
    147    146    158     1   109.5600471 388.275200
    147    146    148     1   108.4600466 328.025600
    148    146    158     1   109.5600471 388.275200
    149    161    162     1   109.8000471 387.438400
    149    161    163     1   109.8000471 387.438400
    150    149    161     1   109.5600471 388.275200
    150    149    151     1   108.4600466 328.025600
    151    149    161     1   109.5600471 388.275200
    152    155    156     1   109.8000471 387.438400
    152    155    157     1   109.8000471 387.438400
    153    152    155     1   109.5600471 388.275200
    153    152    154     1   108.4600466 328.025600
    154    152    155     1   109.5600471 388.275200
    155    164    165     1   109.5600471 388.275200
    155    164    166     1   109.5600471 388.275200
    156    155    164     1   109.8000471 387.438400
    156    155    157     1   107.5800459 329.699200
    157    155    164     1   109.8000471 387.438400
    158    170    171     1   109.5600471 388.275200
    158    170    172     1   109.5600471 388.275200
    159    158    170     1   109.8000471 387.438400
    159    158    160     1   107.5800459 329.699200
    160    158    170     1   109.8000471 387.438400
    161    167    168     1   109.5600471 388.275200
    161    167    169     1   109.5600471 388.275200
    162    161    167     1   109.8000471 387.438400
    162    161    163     1   107.5800459 329.699200
    163    161    167     1   109.8000471 387.438400
    165    164    173     1   109.7800468 425.094400
    165    164    166     1   108.4600466 328.025600
    166    164    173     1   109.7800468 425.094400
    168    167    376     1   109.7800468 425.094400
    168    167    169     1   108.4600466 328.025600
    169    167    376     1   109.7800468 425.094400
    171    170    405     1   109.7800468 425.094400
    171    170    172     1   108.4600466 328.025600
    172    170    405     1   109.7800468 425.094400
    174    175    176     1   109.8800469 414.216000
    174    175    177     1   109.8800469 414.216000
    174    178    179     1   109.8800469 414.216000
    174    178    180     1   109.8800469 414.216000
    174    181    182     1   109.8800469 414.216000
    174    181    183     1   109.8800469 414.216000
    175    187    188     1   109.8000471 387.438400
    175    187    189     1   109.8000471 387.438400
    176    175    187     1   109.5600471 388.275200
    176    175    177     1   108.4600466 328.025600
    177    175    187     1   109.5600471 388.275200
    178    190    191     1   109.8000471 387.438400
    178    190    192     1   109.8000471 387.438400
    179    178    190     1   109.5600471 388.275200
    179    178    180     1   108.4600466 328.025600
    180    178    190     1   109.5600471 388.275200
    181    184    185     1   109.8000471 387.438400
    181    184    186     1   109.8000471 387.438400
    182    181    184     1   109.5600471 388.275200
    182    181    183     1   108.4600466 328.025600
    183    181    184     1   109.5600471 388.275200
    184    193    194     1   109.5600471 388.275200
    184    193    195     1   109.5600471 388.275200
    185    184    193     1   109.8000471 387.438400
    185    184    186     1   107.5800459 329.699200
    186    184    193     1   109.8000471 387.438400
    187    199    200     1   109.5600471 388.275200
    187    199    201     1   109.5600471 388.275200
    188    187    199     1   109.8000471 387.438400
    188    187    189     1   107.5800459 329.699200
    189    187    199     1   109.8000471 387.438400
    190    196    197     1   109.5600471 388.275200
    190    196    198     1   109.5600471 388.275200
    191    190    196     1   109.8000471 387.438400
    191    190    192     1   107.5800459 329.699200
    192    190    196     1   109.8000471 387.438400
    194    193    202     1   109.7800468 425.094400
    194    193    195     1   108.4600466 328.025600
    195    193    202     1   109.7800468 425.094400
    197    196    418     1   109.7800468 425.094400
    197    196    198     1   108.4600466 328.025600
    198    196    418     1   109.7800468 425.094400
    200    199    431     1   109.7800468 425.094400
    200    199    201     1   108.4600466 328.025600
    201    199    431     1   109.7800468 425.094400
    203    204    205     1   109.8800469 414.216000
    203    204    206     1   109.8800469 414.216000
    203    207    208     1   109.8800469 414.216000
    203    207    209     1   109.8800469 414.216000
    203    210    211     1   109.8800469 414.216000
    203    210    212     1   109.8800469 414.216000
    204    216    217     1   109.8000471 387.438400
    204    216    218     1   109.8000471 387.438400
    205    204    216     1   109.5600471 388.275200
    205    204    206     1   108.4600466 328.025600
    206    204    216     1   109.5600471 388.275200
    207    219    220     1   109.8000471 387.438400
    207    219    221     1   109.8000471 387.438400
    208    207    219     1   109.5600471 388.275200
    208    207    209     1   108.4600466 328.025600
    209    207    219     1   109.5600471 388.275200
    210    213    214     1   109.8000471 387.438400
    210    213    215     1   109.8000471 387.438400
    211    210    213     1   109.5600471 388.275200
    211    210    212     1   108.4600466 328.025600
    212    210    213     1   109.5600471 388.275200
    213    222    223     1   109.5600471 388.275200
    213    222    224     1   109.5600471 388.275200
    214    213    222     1   109.8000471 387.438400
    214    213    215     1   107.5800459 329.699200
    215    213    222     1   109.8000471 387.438400
    216    228    229     1   109.5600471 388.275200
    216    228    230     1   109.5600471 388.275200
    217    216    228     1   109.8000471 387.438400
    217    216    218     1   107.5800459 329.699200
    218    216    228     1   109.8000471 387.438400
    219    225    226     1   109.5600471 388.275200
    219    225    227     1   109.5600471 388.275200
    220    219    225     1   109.8000471 387.438400
    220    219    221     1   107.5800459 329.699200
    221    219    225     1   109.8000471 387.438400
    223    222    231     1   109.7800468 425.094400
    223    222    224     1   108.4600466 328.025600
    224    222    231     1   109.7800468 425.094400
    226    225    444     1   109.7800468 425.094400
    226    225    227     1   108.4600466 328.025600
    227    225    444     1   109.7800468 425.094400
    229    228    457     1   109.7800468 425.094400
    229    228    230     1   108.4600466 328.025600
    230    228    457     1   109.7800468 425.094400
    232    233    234     1   109.8800469 414.216000
    232    233    235     1   109.8800469 414.216000
    232    236    237     1   109.8800469 414.216000
    232    236    238     1   109.8800469 414.216000
    232    239    240     1   109.8800469 414.216000
    232    239    241     1   109.8800469 414.216000
    233    245    246     1   109.8000471 387.438400
    233    245    247     1   109.8000471 387.438400
    234    233    245     1   109.5600471 388.275200
    234    233    235     1   108.4600466 328.025600
    235    233    245     1   109.5600471 388.275200
    236    248    249     1   109.8000471 387.438400
    236    248    250     1   109.8000471 387.438400
    237    236    248     1   109.5600471 388.275200
    237    236    238     1   108.4600466 328.025600
    238    236    248     1   109.5600471 388.275200
    239    242    243     1   109.8000471 387.438400
    239    242    244     1   109.8000471 387.438400
    240    239    242     1   109.5600471 388.275200
    240    239    241     1   108.4600466 328.025600
    241    239    242     1   109.5600471 388.275200
    242    251    252     1   109.5600471 388.275200
    242    251    253     1   109.5600471 388.275200
    243    242    251     1   109.8000471 387.438400
    243    242    244     1   107.5800459 329.699200
    244    242    251     1   109.8000471 387.438400
    245    257    258     1   109.5600471 388.275200
    245    257    259     1   109.5600471 388.275200
    246    245    257     1   109.8000471 387.438400
    246    245    247     1   107.5800459 329.699200
    247    245    257     1   109.8000471 387.438400
    248    254    255     1   109.5600471 388.275200
    248    254    256     1   109.5600471 388.275200
    249    248    254     1   109.8000471 387.438400
    249    248    250     1   107.5800459 329.699200
    250    248    254     1   109.8000471 387.438400
    252    251    260     1   109.7800468 425.094400
    252    251    253     1   108.4600466 328.025600
    253    251    260     1   109.7800468 425.094400
    255    254    470     1   109.7800468 425.094400
    255    254    256     1   108.4600466 328.025600
    256    254    470     1   109.7800468 425.094400
    258    257    483     1   109.7800468 425.094400
    258    257    259     1   108.4600466 328.025600
    259    257    483     1   109.7800468 425.094400
    261    262    263     1   109.8800469 414.216000
    261    262    264     1   109.8800469 414.216000
    261    265    266     1   109.8800469 414.216000
    261    265    267     1   109.8800469 414.216000
    261    268    269     1   109.8800469 414.216000
    261    268    270     1   109.8800469 414.216000
    262    274    275     1   109.8000471 387.438400
    262    274    276     1   109.8000471 387.438400
    263    262    274     1   109.5600471 388.275200
    263    262    264     1   108.4600466 328.025600
    264    262    274     1   109.5600471 388.275200
    265    277    278     1   109.8000471 387.438400
    265    277    279     1   109.8000471 387.438400
    266    265    277     1   109.5600471 388.275200
    266    265    267     1   108.4600466 328.025600
    267    265    277     1   109.5600471 388.275200
    268    271    272     1   109.8000471 387.438400
    268    271    273     1   109.8000471 387.438400
    269    268    271     1   109.5600471 388.275200
    269    268    270     1   108.4600466 328.025600
    270    268    271     1   109.5600471 388.275200
    271    280    281     1   109.5600471 388.275200
    271    280    282     1   109.5600471 388.275200
    272    271    280     1   109.8000471 387.438400
    272    271    273     1   107.5800459 329.699200
    273    271    280     1   109.8000471 387.438400
    274    286    287     1   109.5600471 388.275200
    274    286    288     1   109.5600471 388.275200
    275    274    286     1   109.8000471 387.438400
    275    274    276     1   107.5800459 329.699200
    276    274    286     1   109.8000471 387.438400
    277    283    284     1   109.5600471 388.275200
    277    283    285     1   109.5600471 388.275200
    278    277    283     1   109.8000471 387.438400
    278    277    279     1   107.5800459 329.699200
    279    277    283     1   109.8000471 387.438400
    281    280    289     1   109.7800468 425.094400
    281    280    282     1   108.4600466 328.025600
    282    280    289     1   109.7800468 425.094400
    284    283    496     1   109.7800468 425.094400
    284    283    285     1   108.4600466 328.025600
    285    283    496     1   109.7800468 425.094400
    287    286    509     1   109.7800468 425.094400
    287    286    288     1   108.4600466 328.025600
    288    286    509     1   109.7800468 425.094400
    290    291    292     1   109.8800469 414.216000
    290    291    293     1   109.8800469 414.216000
    290    294    295     1   109.8800469 414.216000
    290    294    296     1   109.8800469 414.216000
    290    297    298     1   109.8800469 414.216000
    290    297    299     1   109.8800469 414.216000
    291    303    304     1   109.8000471 387.438400
    291    303    305     1   109.8000471 387.438400
    292    291    303     1   109.5600471 388.275200
    292    291    293     1   108.4600466 328.025600
    293    291    303     1   109.5600471 388.275200
    294    306    307     1   109.8000471 387.438400
    294    306    308     1   109.8000471 387.438400
    295    294    306     1   109.5600471 388.275200
    295    294    296     1   108.4600466 328.025600
    296    294    306     1   109.5600471 388.275200
    297    300    301     1   109.8000471 387.438400
    297    300    302     1   109.8000471 387.438400
    298    297    300     1   109.5600471 388.275200
    298    297    299     1   108.4600466 328.025600
    299    297    300     1   109.5600471 388.275200
    300    309    310     1   109.5600471 388.275200
    300    309    311     1   109.5600471 388.275200
    301    300    309     1   109.8000471 387.438400
    301    300    302     1   107.5800459 329.699200
    302    300    309     1   109.8000471 387.438400
    303    315    316     1   109.5600471 388.275200
    303    315    317     1   109.5600471 388.275200
    304    303    315     1   109.8000471 387.438400
    304    303    305     1   107.5800459 329.699200
    305    303    315     1   109.8000471 387.438400
    306    312    313     1   109.5600471 388.275200
    306    312    314     1   109.5600471 388.275200
    307    306    312     1   109.8000471 387.438400
    307    306    308     1   107.5800459 329.699200
    308    306    312     1   109.8000471 387.438400
    310    309    318     1   109.7800468 425.094400
    310    309    311     1   108.4600466 328.025600
    311    309    318     1   109.7800468 425.094400
    313    312    522     1   109.7800468 425.094400
    313    312    314     1   108.4600466 328.025600
    314    312    522     1   109.7800468 425.094400
    316    315    535     1   109.7800468 425.094400
    316    315    317     1   108.4600466 328.025600
    317    315    535     1   109.7800468 425.094400
    319    320    321     1   109.8800469 414.216000
    319    320    322     1   109.8800469 414.216000
    319    323    324     1   109.8800469 414.216000
    319    323    325     1   109.8800469 414.216000
    319    326    327     1   109.8800469 414.216000
    319    326    328     1   109.8800469 414.216000
    320    332    333     1   109.8000471 387.438400
    320    332    334     1   109.8000471 387.438400
    321    320    332     1   109.5600471 388.275200
    321    320    322     1   108.4600466 328.025600
    322    320    332     1   109.5600471 388.275200
    323    335    336     1   109.8000471 387.438400
    323    335    337     1   109.8000471 387.438400
    324    323    335     1   109.5600471 388.275200
    324    323    325     1   108.4600466 328.025600
    325    323    335     1   109.5600471 388.275200
    326    329    330     1   109.8000471 387.438400
    326    329    331     1   109.8000471 387.438400
    327    326    329     1   109.5600471 388.275200
    327    326    328     1   108.4600466 328.025600
    328    326    329     1   109.5600471 388.275200
    329    338    339     1   109.5600471 388.275200
    329    338    340     1   109.5600471 388.275200
    330    329    338     1   109.8000471 387.438400
    330    329    331     1   107.5800459 329.699200
    331    329    338     1   109.8000471 387.438400
    332    344    345     1   109.5600471 388.275200
    332    344    346     1   109.5600471 388.275200
    333    332    344     1   109.8000471 387.438400
    333    332    334     1   107.5800459 329.699200
    334    332    344     1   109.8000471 387.438400
    335    341    342     1   109.5600471 388.275200
    335    341    343     1   109.5600471 388.275200
    336    335    341     1   109.8000471 387.438400
    336    335    337     1   107.5800459 329.699200
    337    335    341     1   109.8000471 387.438400
    339    338    347     1   109.7800468 425.094400
    339    338    340     1   108.4600466 328.025600
    340    338    347     1   109.7800468 425.094400
    342    341    548     1   109.7800468 425.094400
    342    341    343     1   108.4600466 328.025600
    343    341    548     1   109.7800468 425.094400
    345    344    561     1   109.7800468 425.094400
    345    344    346     1   108.4600466 328.025600
    346    344    561     1   109.7800468 425.094400
    348    349    350     1   109.8800469 414.216000
    348    349    351     1   109.8800469 414.216000
    348    352    353     1   109.8800469 414.216000
    348    352    354     1   109.8800469 414.216000
    348    355    356     1   109.8800469 414.216000
    348    355    357     1   109.8800469 414.216000
    349    361    362     1   109.8000471 387.438400
    349    361    363     1   109.8000471 387.438400
    350    349    361     1   109.5600471 388.275200
    350    349    351     1   108.4600466 328.025600
    351    349    361     1   109.5600471 388.275200
    352    364    365     1   109.8000471 387.438400
    352    364    366     1   109.8000471 387.438400
    353    352    364     1   109.5600471 388.275200
    353    352    354     1   108.4600466 328.025600
    354    352    364     1   109.5600471 388.275200
    355    358    359     1   109.8000471 387.438400
    355    358    360     1   109.8000471 387.438400
    356    355    358     1   109.5600471 388.275200
    356    355    357     1   108.4600466 328.025600
    357    355    358     1   109.5600471 388.275200
    358    367    368     1   109.5600471 388.275200
    358    367    369     1   109.5600471 388.275200
    359    358    367     1   109.8000471 387.438400
    359    358    360     1   107.5800459 329.699200
    360    358    367     1   109.8000471 387.438400
    361    373    374     1   109.5600471 388.275200
    361    373    375     1   109.5600471 388.275200
    362    361    373     1   109.8000471 387.438400
    362    361    363     1   107.5800459 329.699200
    363    361    373     1   109.8000471 387.438400
    364    370    371     1   109.5600471 388.275200
    364    370    372     1   109.5600471 388.275200
    365    364    370     1   109.8000471 387.438400
    365    364    366     1   107.5800459 329.699200
    366    364    370     1   109.8000471 387.438400
    368    367    376     1   109.7800468 425.094400
    368    367    369     1   108.4600466 328.025600
    369    367    376     1   109.7800468 425.094400
    371    370    574     1   109.7800468 425.094400
    371    370    372     1   108.4600466 328.025600
    372    370    574     1   109.7800468 425.094400
    374    373    587     1   109.7800468 425.094400
    374    373    375     1   108.4600466 328.025600
    375    373    587     1   109.7800468 425.094400
    377    378    379     1   109.8800469 414.216000
    377    378    380     1   109.8800469 414.216000
    377    381    382     1   109.8800469 414.216000
    377    381    383     1   109.8800469 414.216000
    377    384    385     1   109.8800469 414.216000
    377    384    386     1   109.8800469 414.216000
    378    390    391     1   109.8000471 387.438400
    378    390    392     1   109.8000471 387.438400
    379    378    390     1   109.5600471 388.275200
    379    378    380     1   108.4600466 328.025600
    380    378    390     1   109.5600471 388.275200
    381    393    394     1   109.8000471 387.438400
    381    393    395     1   109.8000471 387.438400
    382    381    393     1   109.5600471 388.275200
    382    381    383     1   108.4600466 328.025600
    383    381    393     1   109.5600471 388.275200
    384    387    388     1   109.8000471 387.438400
    384    387    389     1   109.8000471 387.438400
    385    384    387     1   109.5600471 388.275200
    385    384    386     1   108.4600466 328.025600
    386    384    387     1   109.5600471 388.275200
    387    396    397     1   109.5600471 388.275200
    387    396    398     1   109.5600471 388.275200
    388    387    396     1   109.8000471 387.438400
    388    387    389     1   107.5800459 329.699200
    389    387    396     1   109.8000471 387.438400
    390    402    403     1   109.5600471 388.275200
    390    402    404     1   109.5600471 388.275200
    391    390    402     1   109.8000471 387.438400
    391    390    392     1   107.5800459 329.699200
    392    390    402     1   109.8000471 387.438400
    393    399    400     1   109.5600471 388.275200
    393    399    401     1   109.5600471 388.275200
    394    393    399     1   109.8000471 387.438400
    394    393    395     1   107.5800459 329.699200
    395    393    399     1   109.8000471 387.438400
    397    396    405     1   109.7800468 425.094400
    397    396    398     1   108.4600466 328.025600
    398    396    405     1   109.7800468 425.094400
    400    399    600     1   109.7800468 425.094400
    400    399    401     1   108.4600466 328.025600
    401    399    600     1   109.7800468 425.094400
    403    402    613     1   109.7800468 425.094400
    403    402    404     1   108.4600466 328.025600
    404    402    613     1   109.7800468 425.094400
    406    409    410     1   109.8000471 387.438400
    406    409    411     1   109.8000471 387.438400
    406    415    416     1   109.2900470 396.643200
    406    415    417     1   109.2900470 396.643200
    407    406    409     1   109.5600471 388.275200
    407    406    415     1   109.8800469 414.216000
    407    406    408     1   108.4600466 328.025600
    408    406    409     1   109.5600471 388.275200
    408    406    415     1   109.8800469 414.216000
    409    412    413     1   109.5600471 388.275200
    409    412    414     1   109.5600471 388.275200
    410    409    412     1   109.8000471 387.438400
    410    409    411     1   107.5800459 329.699200
    411    409    412     1   109.8000471 387.438400
    413    412    418     1   109.7800468 425.094400
    413    412    414     1   108.4600466 328.025600
    414    412    418     1   109.7800468 425.094400
    416    415    417     1   106.4000456 346.435200
    419    422    423     1   109.8000471 387.438400
    419    422    424     1   109.8000471 387.438400
    419    428    429     1   109.2900470 396.643200
    419    428    430     1   109.2900470 396.643200
    420    419    422     1   109.5600471 388.275200
    420    419    428     1   109.8800469 414.216000
    420    419    421     1   108.4600466 328.025600
    421    419    422     1   109.5600471 388.275200
    421    419    428     1   109.8800469 414.216000
    422    425    426     1   109.5600471 388.275200
    422    425    427     1   109.5600471 388.275200
    423    422    425     1   109.8000471 387.438400
    423    422    424     1   107.5800459 329.699200
    424    422    425     1   109.8000471 387.438400
    426    425    431     1   109.7800468 425.094400
    426    425    427     1   108.4600466 328.025600
    427    425    431     1   109.7800468 425.094400
    429    428    430     1   106.4000456 346.435200
    432    435    436     1   109.8000471 387.438400
    432    435    437     1   109.8000471 387.438400
    432    441    442     1   109.2900470 396.643200
    432    441    443     1   109.2900470 396.643200
    433    432    435     1   109.5600471 388.275200
    433    432    441     1   109.8800469 414.216000
    433    432    434     1   108.4600466 328.025600
    434    432    435     1   109.5600471 388.275200
    434    432    441     1   109.8800469 414.216000
    435    438    439     1   109.5600471 388.275200
    435    438    440     1   109.5600471 388.275200
    436    435    438     1   109.8000471 387.438400
    436    435    437     1   107.5800459 329.699200
    437    435    438     1   109.8000471 387.438400
    439    438    444     1   109.7800468 425.094400
    439    438    440     1   108.4600466 328.025600
    440    438    444     1   109.7800468 425.094400
    442    441    443     1   106.4000456 346.435200
    445    448    449     1   109.8000471 387.438400
    445    448    450     1   109.8000471 387.438400
    445    454    455     1   109.2900470 396.643200
    445    454    456     1   109.2900470 396.643200
    446    445    448     1   109.5600471 388.275200
    446    445    454     1   109.8800469 414.216000
    446    445    447     1   108.4600466 328.025600
    447    445    448     1   109.5600471 388.275200
    447    445    454     1   109.8800469 414.216000
    448    451    452     1   109.5600471 388.275200
    448    451    453     1   109.5600471 388.275200
    449    448    451     1   109.8000471 387.438400
    449    448    450     1   107.5800459 329.699200
    450    448    451     1   109.8000471 387.438400
    452    451    457     1   109.7800468 425.094400
    452    451    453     1   108.4600466 328.025600
    453    451    457     1   109.7800468 425.094400
    455    454    456     1   106.4000456 346.435200
    458    461    462     1   109.8000471 387.438400
    458    461    463     1   109.8000471 387.438400
    458    467    468     1   109.2900470 396.643200
    458    467    469     1   109.2900470 396.643200
    459    458    461     1   109.5600471 388.275200
    459    458    467     1   109.8800469 414.216000
    459    458    460     1   108.4600466 328.025600
    460    458    461     1   109.5600471 388.275200
    460    458    467     1   109.8800469 414.216000
    461    464    465     1   109.5600471 388.275200
    461    464    466     1   109.5600471 388.275200
    462    461    464     1   109.8000471 387.438400
    462    461    463     1   107.5800459 329.699200
    463    461    464     1   109.8000471 387.438400
    465    464    470     1   109.7800468 425.094400
    465    464    466     1   108.4600466 328.025600
    466    464    470     1   109.7800468 425.094400
    468    467    469     1   106.4000456 346.435200
    471    474    475     1   109.8000471 387.438400
    471    474    476     1   109.8000471 387.438400
    471    480    481     1   109.2900470 396.643200
    471    480    482     1   109.2900470 396.643200
    472    471    474     1   109.5600471 388.275200
    472    471    480     1   109.8800469 414.216000
    472    471    473     1   108.4600466 328.025600
    473    471    474     1   109.5600471 388.275200
    473    471    480     1   109.8800469 414.216000
    474    477    478     1   109.5600471 388.275200
    474    477    479     1   109.5600471 388.275200
    475    474    477     1   109.8000471 387.438400
    475    474    476     1   107.5800459 329.699200
    476    474    477     1   109.8000471 387.438400
    478    477    483     1   109.7800468 425.094400
    478    477    479     1   108.4600466 328.025600
    479    477    483     1   109.7800468 425.094400
    481    480    482     1   106.4000456 346.435200
    484    487    488     1   109.8000471 387.438400
    484    487    489     1   109.8000471 387.438400
    484    493    494     1   109.2900470 396.643200
    484    493    495     1   109.2900470 396.643200
    485    484    487     1   109.5600471 388.275200
    485    484    493     1   109.8800469 414.216000
    485    484    486     1   108.4600466 328.025600
    486    484    487     1   109.5600471 388.275200
    486    484    493     1   109.8800469 414.216000
    487    490    491     1   109.5600471 388.275200
    487    490    492     1   109.5600471 388.275200
    488    487    490     1   109.8000471 387.438400
    488    487    489     1   107.5800459 329.699200
    489    487    490     1   109.8000471 387.438400
    491    490    496     1   109.7800468 425.094400
    491    490    492     1   108.4600466 328.025600
    492    490    496     1   109.7800468 425.094400
    494    493    495     1   106.4000456 346.435200
    497    500    501     1   109.8000471 387.438400
    497    500    502     1   109.8000471 387.438400
    497    506    507     1   109.2900470 396.643200
    497    506    508     1   109.2900470 396.643200
    498    497    500     1   109.5600471 388.275200
    498    497    506     1   109.8800469 414.216000
    498    497    499     1   108.4600466 328.025600
    499    497    500     1   109.5600471 388.275200
    499    497    506     1   109.8800469 414.216000
    500    503    504     1   109.5600471 388.275200
    500    503    505     1   109.5600471 388.275200
    501    500    503     1   109.8000471 387.438400
    501    500    502     1   107.5800459 329.699200
    502    500    503     1   109.8000471 387.438400
    504    503    509     1   109.7800468 425.094400
    504    503    505     1   108.4600466 328.025600
    505    503    509     1   109.7800468 425.094400
    507    506    508     1   106.4000456 346.435200
    510    513    514     1   109.8000471 387.438400
    510    513    515     1   109.8000471 387.438400
    510    519    520     1   109.2900470 396.643200
    510    519    521     1   109.2900470 396.643200
    511    510    513     1   109.5600471 388.275200
    511    510    519     1   109.8800469 414.216000
    511    510    512     1   108.4600466 328.025600
    512    510    513     1   109.5600471 388.275200
    512    510    519     1   109.8800469 414.216000
    513    516    517     1   109.5600471 388.275200
    513    516    518     1   109.5600471 388.275200
    514    513    516     1   109.8000471 387.438400
    514    513    515     1   107.5800459 329.699200
    515    513    516     1   109.8000471 387.438400
    517    516    522     1   109.7800468 425.094400
    517    516    518     1   108.4600466 328.025600
    518    516    522     1   109.7800468 425.094400
    520    519    521     1   106.4000456 346.435200
    523    526    527     1   109.8000471 387.438400
    523    526    528     1   109.8000471 387.438400
    523    532    533     1   109.2900470 396.643200
    523    532    534     1   109.2900470 396.643200
    524    523    526     1   109.5600471 388.275200
    524    523    532     1   109.8800469 414.216000
    524    523    525     1   108.4600466 328.025600
    525    523    526     1   109.5600471 388.275200
    525    523    532     1   109.8800469 414.216000
    526    529    530     1   109.5600471 388.275200
    526    529    531     1   109.5600471 388.275200
    527    526    529     1   109.8000471 387.438400
    527    526    528     1   107.5800459 329.699200
    528    526    529     1   109.8000471 387.438400
    530    529    535     1   109.7800468 425.094400
    530    529    531     1   108.4600466 328.025600
    531    529    535     1   109.7800468 425.094400
    533    532    534     1   106.4000456 346.435200
    536    539    540     1   109.8000471 387.438400
    536    539    541     1   109.8000471 387.438400
    536    545    546     1   109.2900470 396.643200
    536    545    547     1   109.2900470 396.643200
    537    536    539     1   109.5600471 388.275200
    537    536    545     1   109.8800469 414.216000
    537    536    538     1   108.4600466 328.025600
    538    536    539     1   109.5600471 388.275200
    538    536    545     1   109.8800469 414.216000
    539    542    543     1   109.5600471 388.275200
    539    542    544     1   109.5600471 388.275200
    540    539    542     1   109.8000471 387.438400
    540    539    541     1   107.5800459 329.699200
    541    539    542     1   109.8000471 387.438400
    543    542    548     1   109.7800468 425.094400
    543    542    544     1   108.4600466 328.025600
    544    542    548     1   109.7800468 425.094400
    546    545    547     1   106.4000456 346.435200
    549    552    553     1   109.8000471 387.438400
    549    552    554     1   109.8000471 387.438400
    549    558    559     1   109.2900470 396.643200
    549    558    560     1   109.2900470 396.643200
    550    549    552     1   109.5600471 388.275200
    550    549    558     1   109.8800469 414.216000
    550    549    551     1   108.4600466 328.025600
    551    549    552     1   109.5600471 388.275200
    551    549    558     1   109.8800469 414.216000
    552    555    556     1   109.5600471 388.275200
    552    555    557     1   109.5600471 388.275200
    553    552    555     1   109.8000471 387.438400
    553    552    554     1   107.5800459 329.699200
    554    552    555     1   109.8000471 387.438400
    556    555    561     1   109.7800468 425.094400
    556    555    557     1   108.4600466 328.025600
    557    555    561     1   109.7800468 425.094400
    559    558    560     1   106.4000456 346.435200
    562    565    566     1   109.8000471 387.438400
    562    565    567     1   109.8000471 387.438400
    562    571    572     1   109.2900470 396.643200
    562    571    573     1   109.2900470 396.643200
    563    562    565     1   109.5600471 388.275200
    563    562    571     1   109.8800469 414.216000
    563    562    564     1   108.4600466 328.025600
    564    562    565     1   109.5600471 388.275200
    564    562    571     1   109.8800469 414.216000
    565    568    569     1   109.5600471 388.275200
    565    568    570     1   109.5600471 388.275200
    566    565    568     1   109.8000471 387.438400
    566    565    567     1   107.5800459 329.699200
    567    565    568     1   109.8000471 387.438400
    569    568    574     1   109.7800468 425.094400
    569    568    570     1   108.4600466 328.025600
    570    568    574     1   109.7800468 425.094400
    572    571    573     1   106.4000456 346.435200
    575    578    579     1   109.8000471 387.438400
    575    578    580     1   109.8000471 387.438400
    575    584    585     1   109.2900470 396.643200
    575    584    586     1   109.2900470 396.643200
    576    575    578     1   109.5600471 388.275200
    576    575    584     1   109.8800469 414.216000
    576    575    577     1   108.4600466 328.025600
    577    575    578     1   109.5600471 388.275200
    577    575    584     1   109.8800469 414.216000
    578    581    582     1   109.5600471 388.275200
    578    581    583     1   109.5600471 388.275200
    579    578    581     1   109.8000471 387.438400
    579    578    580     1   107.5800459 329.699200
    580    578    581     1   109.8000471 387.438400
    582    581    587     1   109.7800468 425.094400
    582    581    583     1   108.4600466 328.025600
    583    581    587     1   109.7800468 425.094400
    585    584    586     1   106.4000456 346.435200
    588    591    592     1   109.8000471 387.438400
    588    591    593     1   109.8000471 387.438400
    588    597    598     1   109.2900470 396.643200
    588    597    599     1   109.2900470 396.643200
    589    588    591     1   109.5600471 388.275200
    589    588    597     1   109.8800469 414.216000
    589    588    590     1   108.4600466 328.025600
    590    588    591     1   109.5600471 388.275200
    590    588    597     1   109.8800469 414.216000
    591    594    595     1   109.5600471 388.275200
    591    594    596     1   109.5600471 388.275200
    592    591    594     1   109.8000471 387.438400
    592    591    593     1   107.5800459 329.699200
    593    591    594     1   109.8000471 387.438400
    595    594    600     1   109.7800468 425.094400
    595    594    596     1   108.4600466 328.025600
    596    594    600     1   109.7800468 425.094400
    598    597    599     1   106.4000456 346.435200
    601    604    605     1   109.8000471 387.438400
    601    604    606     1   109.8000471 387.438400
    601    610    611     1   109.2900470 396.643200
    601    610    612     1   109.2900470 396.643200
    602    601    604     1   109.5600471 388.275200
    602    601    610     1   109.8800469 414.216000
    602    601    603     1   108.4600466 328.025600
    603    601    604     1   109.5600471 388.275200
    603    601    610     1   109.8800469 414.216000
    604    607    608     1   109.5600471 388.275200
    604    607    609     1   109.5600471 388.275200
    605    604    607     1   109.8000471 387.438400
    605    604    606     1   107.5800459 329.699200
    606    604    607     1   109.8000471 387.438400
    608    607    613     1   109.7800468 425.094400
    608    607    609     1   108.4600466 328.025600
    609    607    613     1   109.7800468 425.094400
    611    610    612     1   106.4000456 346.435200

[ dihedrals ]
;    ai     aj     ak     al funct         c0         c1         c2         c3         c4         c5
      1      2      8     14     1  0.0000000  0.6508444  3
      1      5     11     17     1  0.0000000  0.6508444  3
      2      1      5     11     1  180.0000771  0.4184000  2
      2      1      5     11     1  0.0000000  1.6024720  3
      2      8     14     20     1  0.0000000  0.6508444  3
      5      1      2      8     1  180.0000771  0.4184000  2
      5      1      2      8     1  0.0000000  1.6024720  3
      5     11     17     21     1  0.0000000  0.6508444  3
      8     14     20     28     1  180.0000771  2.0083200  2
      8     14     20     28     1  0.0000000  1.2552000  3
      8     14     20     31     1  180.0000771  2.0083200  2
      8     14     20     31     1  0.0000000  1.2552000  3
     11     17     21     22     1  180.0000771  2.0083200  2
     11     17     21     22     1  0.0000000  1.2552000  3
     11     17     21     25     1  180.0000771  2.0083200  2
     11     17     21     25     1  0.0000000  1.2552000  3
     14     20     28     40     1  180.0000771  2.0083200  2
     14     20     28     40     1  0.0000000  1.2552000  3
     14     20     31     43     1  180.0000771  2.0083200  2
     14     20     31     43     1  0.0000000  1.2552000  3
     17     21     22     34     1  180.0000771  2.0083200  2
     17     21     22     34     1  0.0000000  1.2552000  3
     17     21     25     37     1  180.0000771  2.0083200  2
     17     21     25     37     1  0.0000000  1.2552000  3
     20     28     40     49     1  0.0000000  0.6508444  3
     20     31     43     46     1  0.0000000  0.6508444  3
     21     22     34     55     1  0.0000000  0.6508444  3
     21     25     37     52     1  0.0000000  0.6508444  3
     22     21     25     37     1  180.0000771  2.0083200  2
     22     21     25     37     1  0.0000000  1.2552000  3
     22     34     55    173     1  0.0000000  0.6508444  3
     25     21     22     34     1  180.0000771  2.0083200  2
     25     21     22     34     1  0.0000000  1.2552000  3
     25     37     52    144     1  0.0000000  0.6508444  3
     28     20     31     43     1  180.0000771  2.0083200  2
     28     20     31     43     1  0.0000000  1.2552000  3
     28     40     49    115     1  0.0000000  0.6508444  3
     31     20     28     40     1  180.0000771  2.0083200  2
     31     20     28     40     1  0.0000000  1.2552000  3
     31     43     46     86     1  0.0000000  0.6508444  3
     34     55    173    164     1  180.0000771  0.4184000  2
     34     55    173    164     1  0.0000000  1.6024720  3
     37     52    144    135     1  180.0000771  0.4184000  2
     37     52    144    135     1  0.0000000  1.6024720  3
     40     49    115    106     1  180.0000771  0.4184000  2
     40     49    115    106     1  0.0000000  1.6024720  3
     43     46     86     77     1  180.0000771  0.4184000  2
     43     46     86     77     1  0.0000000  1.6024720  3
     46     86     77     68     1  180.0000771  0.4184000  2
     46     86     77     68     1  0.0000000  1.6024720  3
     49    115    106     97     1  180.0000771  0.4184000  2
     49    115    106     97     1  0.0000000  1.6024720  3
     52    144    135    126     1  180.0000771  0.4184000  2
     52    144    135    126     1  0.0000000  1.6024720  3
     55    173    164    155     1  180.0000771  0.4184000  2
     55    173    164    155     1  0.0000000  1.6024720  3
     58     59     71     83     1  0.0000000  0.6508444  3
     58     62     74     80     1  0.0000000  0.6508444  3
     58     65     68     77     1  0.0000000  0.6508444  3
     59     58     62     74     1  180.0000771  2.0083200  2
     59     58     62     74     1  0.0000000  1.2552000  3
     59     58     65     68     1  180.0000771  2.0083200  2
     59     58     65     68     1  0.0000000  1.2552000  3
     59     71     83    231     1  0.0000000  0.6508444  3
     62     58     59     71     1  180.0000771  2.0083200  2
     62     58     59     71     1  0.0000000  1.2552000  3
     62     58     65     68     1  180.0000771  2.0083200  2
     62     58     65     68     1  0.0000000  1.2552000  3
     62     74     80    202     1  0.0000000  0.6508444  3
     65     58     59     71     1  180.0000771  2.0083200  2
     65     58     59     71     1  0.0000000  1.2552000  3
     65     58     62     74     1  180.0000771  2.0083200  2
     65     58     62     74     1  0.0000000  1.2552000  3
     65     68     77     86     1  0.0000000  0.6508444  3
     71     83    231    222     1  180.0000771  0.4184000  2
     71     83    231    222     1  0.0000000  1.6024720  3
     74     80    202    193     1  180.0000771  0.4184000  2
     74     80    202    193     1  0.0000000  1.6024720  3
     80    202    193    184     1  180.0000771  0.4184000  2
     80    202    193    184     1  0.0000000  1.6024720  3
     83    231    222    213     1  180.0000771  0.4184000  2
     83    231    222    213     1  0.0000000  1.6024720  3
     87     88    100    112     1  0.0000000  0.6508444  3
     87     91    103    109     1  0.0000000  0.6508444  3
     87     94     97    106     1  0.0000000  0.6508444  3
     88     87     91    103     1  180.0000771  2.0083200  2
     88     87     91    103     1  0.0000000  1.2552000  3
     88     87     94     97     1  180.0000771  2.0083200  2
     88     87     94     97     1  0.0000000  1.2552000  3
     88    100    112    289     1  0.0000000  0.6508444  3
     91     87     88    100     1  180.0000771  2.0083200  2
     91     87     88    100     1  0.0000000  1.2552000  3
     91     87     94     97     1  180.0000771  2.0083200  2
     91     87     94     97     1  0.0000000  1.2552000  3
     91    103    109    260     1  0.0000000  0.6508444  3
     94     87     88    100     1  180.0000771  2.0083200  2
     94     87     88    100     1  0.0000000  1.2552000  3
     94     87     91    103     1  180.0000771  2.0083200  2
     94     87     91    103     1  0.0000000  1.2552000  3
     94     97    106    115     1  0.0000000  0.6508444  3
    100    112    289    280     1  180.0000771  0.4184000  2
    100    112    289    280     1  0.0000000  1.6024720  3
    103    109    260    251     1  180.0000771  0.4184000  2
    103    109    260    251     1  0.0000000  1.6024720  3
    109    260    251    242     1  180.0000771  0.4184000  2
    109    260    251    242     1  0.0000000  1.6024720  3
    112    289    280    271     1  180.0000771  0.4184000  2
    112    289    280    271     1  0.0000000  1.6024720  3
    116    117    129    141     1  0.0000000  0.6508444  3
    116    120    132    138     1  0.0000000  0.6508444  3
    116    123    126    135     1  0.0000000  0.6508444  3
    117    116    120    132     1  180.0000771  2.0083200  2
    117    116    120    132     1  0.0000000  1.2552000  3
    117    116    123    126     1  180.0000771  2.0083200  2
    117    116    123    126     1  0.0000000  1.2552000  3
    117    129    141    347     1  0.0000000  0.6508444  3
    120    116    117    129     1  180.0000771  2.0083200  2
    120    116    117    129     1  0.0000000  1.2552000  3
    120    116    123    126     1  180.0000771  2.0083200  2
    120    116    123    126     1  0.0000000  1.2552000  3
    120    132    138    318     1  0.0000000  0.6508444  3
    123    116    117    129     1  180.0000771  2.0083200  2
    123    116    117    129     1  0.0000000  1.2552000  3
    123    116    120    132     1  180.0000771  2.0083200  2
    123    116    120    132     1  0.0000000  1.2552000  3
    123    126    135    144     1  0.0000000  0.6508444  3
    129    141    347    338     1  180.0000771  0.4184000  2
    129    141    347    338     1  0.0000000  1.6024720  3
    132    138    318    309     1  180.0000771  0.4184000  2
    132    138    318    309     1  0.0000000  1.6024720  3
    138    318    309    300     1  180.0000771  0.4184000  2
    138    318    309    300     1  0.0000000  1.6024720  3
    141    347    338    329     1  180.0000771  0.4184000  2
    141    347    338    329     1  0.0000000  1.6024720  3
    145    146    158    170     1  0.0000000  0.6508444  3
    145    149    161    167     1  0.0000000  0.6508444  3
    145    152    155    164     1  0.0000000  0.6508444  3
    146    145    149    161     1  180.0000771  2.0083200  2
    146    145    149    161     1  0.0000000  1.2552000  3
    146    145    152    155     1  180.0000771  2.0083200  2
    146    145    152    155     1  0.0000000  1.2552000  3
    146    158    170    405     1  0.0000000  0.6508444  3
    149    145    146    158     1  180.0000771  2.0083200  2
    149    145    146    158     1  0.0000000  1.2552000  3
    149    145    152    155     1  180.0000771  2.0083200  2
    149    145    152    155     1  0.0000000  1.2552000  3
    149    161    167    376     1  0.0000000  0.6508444  3
    152    145    146    158     1  180.0000771  2.0083200  2
    152    145    146    158     1  0.0000000  1.2552000  3
    152    145    149    161     1  180.0000771  2.0083200  2
    152    145    149    161     1  0.0000000  1.2552000  3
    152    155    164    173     1  0.0000000  0.6508444  3
    158    170    405    396     1  180.0000771  0.4184000  2
    158    170    405    396     1  0.0000000  1.6024720  3
    161    167    376    367     1  180.0000771  0.4184000  2
    161    167    376    367     1  0.0000000  1.6024720  3
    167    376    367    358     1  180.0000771  0.4184000  2
    167    376    367    358     1  0.0000000  1.6024720  3
    170    405    396    387     1  180.0000771  0.4184000  2
    170    405    396    387     1  0.0000000  1.6024720  3
    174    175    187    199     1  0.0000000  0.6508444  3
    174    178    190    196     1  0.0000000  0.6508444  3
    174    181    184    193     1  0.0000000  0.6508444  3
    175    174    178    190     1  180.0000771  2.0083200  2
    175    174    178    190     1  0.0000000  1.2552000  3
    175    174    181    184     1  180.0000771  2.0083200  2
    175    174    181    184     1  0.0000000  1.2552000  3
    175    187    199    431     1  0.0000000  0.6508444  3
    178    174    175    187     1  180.0000771  2.0083200  2
    178    174    175    187     1  0.0000000  1.2552000  3
    178    174    181    184     1  180.0000771  2.0083200  2
    178    174    181    184     1  0.0000000  1.2552000  3
    178    190    196    418     1  0.0000000  0.6508444  3
    181    174    175    187     1  180.0000771  2.0083200  2
    181    174    175    187     1  0.0000000  1.2552000  3
    181    174    178    190     1  180.0000771  2.0083200  2
    181    174    178    190     1  0.0000000  1.2552000  3
    181    184    193    202     1  0.0000000  0.6508444  3
    187    199    431    425     1  180.0000771  0.4184000  2
    187    199    431    425     1  0.0000000  1.6024720  3
    190    196    418    412     1  180.0000771  0.4184000  2
    190    196    418    412     1  0.0000000  1.6024720  3
    196    418    412    409     1  180.0000771  0.4184000  2
    196    418    412    409     1  0.0000000  1.6024720  3
    199    431    425    422     1  180.0000771  0.4184000  2
    199    431    425    422     1  0.0000000  1.6024720  3
    203    204    216    228     1  0.0000000  0.6508444  3
    203    207    219    225     1  0.0000000  0.6508444  3
    203    210    213    222     1  0.0000000  0.6508444  3
    204    203    207    219     1  180.0000771  2.0083200  2
    204    203    207    219     1  0.0000000  1.2552000  3
    204    203    210    213     1  180.0000771  2.0083200  2
    204    203    210    213     1  0.0000000  1.2552000  3
    204    216    228    457     1  0.0000000  0.6508444  3
    207    203    204    216     1  180.0000771  2.0083200  2
    207    203    204    216     1  0.0000000  1.2552000  3
    207    203    210    213     1  180.0000771  2.0083200  2
    207    203    210    213     1  0.0000000  1.2552000  3
    207    219    225    444     1  0.0000000  0.6508444  3
    210    203    204    216     1  180.0000771  2.0083200  2
    210    203    204    216     1  0.0000000  1.2552000  3
    210    203    207    219     1  180.0000771  2.0083200  2
    210    203    207    219     1  0.0000000  1.2552000  3
    210    213    222    231     1  0.0000000  0.6508444  3
    216    228    457    451     1  180.0000771  0.4184000  2
    216    228    457    451     1  0.0000000  1.6024720  3
    219    225    444    438     1  180.0000771  0.4184000  2
    219    225    444    438     1  0.0000000  1.6024720  3
    225    444    438    435     1  180.0000771  0.4184000  2
    225    444    438    435     1  0.0000000  1.6024720  3
    228    457    451    448     1  180.0000771  0.4184000  2
    228    457    451    448     1  0.0000000  1.6024720  3
    232    233    245    257     1  0.0000000  0.6508444  3
    232    236    248    254     1  0.0000000  0.6508444  3
    232    239    242    251     1  0.0000000  0.6508444  3
    233    232    236    248     1  180.0000771  2.0083200  2
    233    232    236    248     1  0.0000000  1.2552000  3
    233    232    239    242     1  180.0000771  2.0083200  2
    233    232    239    242     1  0.0000000  1.2552000  3
    233    245    257    483     1  0.0000000  0.6508444  3
    236    232    233    245     1  180.0000771  2.0083200  2
    236    232    233    245     1  0.0000000  1.2552000  3
    236    232    239    242     1  180.0000771  2.0083200  2
    236    232    239    242     1  0.0000000  1.2552000  3
    236    248    254    470     1  0.0000000  0.6508444  3
    239    232    233    245     1  180.0000771  2.0083200  2
    239    232    233    245     1  0.0000000  1.2552000  3
    239    232    236    248     1  180.0000771  2.0083200  2
    239    232    236    248     1  0.0000000  1.2552000  3
    239    242    251    260     1  0.0000000  0.6508444  3
    245    257    483    477     1  180.0000771  0.4184000  2
    245    257    483    477     1  0.0000000  1.6024720  3
    248    254    470    464     1  180.0000771  0.4184000  2
    248    254    470    464     1  0.0000000  1.6024720  3
    254    470    464    461     1  180.0000771  0.4184000  2
    254    470    464    461     1  0.0000000  1.6024720  3
    257    483    477    474     1  180.0000771  0.4184000  2
    257    483    477    474     1  0.0000000  1.6024720  3
    261    262    274    286     1  0.0000000  0.6508444  3
    261    265    277    283     1  0.0000000  0.6508444  3
    261    268    271    280     1  0.0000000  0.6508444  3
    262    261    265    277     1  180.0000771  2.0083200  2
    262    261    265    277     1  0.0000000  1.2552000  3
    262    261    268    271     1  180.0000771  2.0083200  2
    262    261    268    271     1  0.0000000  1.2552000  3
    262    274    286    509     1  0.0000000  0.6508444  3
    265    261    262    274     1  180.0000771  2.0083200  2
    265    261    262    274     1  0.0000000  1.2552000  3
    265    261    268    271     1  180.0000771  2.0083200  2
    265    261    268    271     1  0.0000000  1.2552000  3
    265    277    283    496     1  0.0000000  0.6508444  3
    268    261    262    274     1  180.0000771  2.0083200  2
    268    261    262    274     1  0.0000000  1.2552000  3
    268    261    265    277     1  180.0000771  2.0083200  2
    268    261    265    277     1  0.0000000  1.2552000  3
    268    271    280    289     1  0.0000000  0.6508444  3
    274    286    509    503     1  180.0000771  0.4184000  2
    274    286    509    503     1  0.0000000  1.6024720  3
    277    283    496    490     1  180.0000771  0.4184000  2
    277    283    496    490     1  0.0000000  1.6024720  3
    283    496    490    487     1  180.0000771  0.4184000  2
    283    496    490    487     1  0.0000000  1.6024720  3
    286    509    503    500     1  180.0000771  0.4184000  2
    286    509    503    500     1  0.0000000  1.6024720  3
    290    291    303    315     1  0.0000000  0.6508444  3
    290    294    306    312     1  0.0000000  0.6508444  3
    290    297    300    309     1  0.0000000  0.6508444  3
    291    290    294    306     1  180.0000771  2.0083200  2
    291    290    294    306     1  0.0000000  1.2552000  3
    291    290    297    300     1  180.0000771  2.0083200  2
    291    290    297    300     1  0.0000000  1.2552000  3
    291    303    315    535     1  0.0000000  0.6508444  3
    294    290    291    303     1  180.0000771  2.0083200  2
    294    290    291    303     1  0.0000000  1.2552000  3
    294    290    297    300     1  180.0000771  2.0083200  2
    294    290    297    300     1  0.0000000  1.2552000  3
    294    306    312    522     1  0.0000000  0.6508444  3
    297    290    291    303     1  180.0000771  2.0083200  2
    297    290    291    303     1  0.0000000  1.2552000  3
    297    290    294    306     1  180.0000771  2.0083200  2
    297    290    294    306     1  0.0000000  1.2552000  3
    297    300    309    318     1  0.0000000  0.6508444  3
    303    315    535    529     1  180.0000771  0.4184000  2
    303    315    535    529     1  0.0000000  1.6024720  3
    306    312    522    516     1  180.0000771  0.4184000  2
    306    312    522    516     1  0.0000000  1.6024720  3
    312    522    516    513     1  180.0000771  0.4184000  2
    312    522    516    513     1  0.0000000  1.6024720  3
    315    535    529    526     1  180.0000771  0.4184000  2
    315    535    529    526     1  0.0000000  1.6024720  3
    319    320    332    344     1  0.0000000  0.6508444  3
    319    323    335    341     1  0.0000000  0.6508444  3
    319    326    329    338     1  0.0000000  0.6508444  3
    320    319    323    335     1  180.0000771  2.0083200  2
    320    319    323    335     1  0.0000000  1.2552000  3
    320    319    326    329     1  180.0000771  2.0083200  2
    320    319    326    329     1  0.0000000  1.2552000  3
    320    332    344    561     1  0.0000000  0.6508444  3
    323    319    320    332     1  180.0000771  2.0083200  2
    323    319    320    332     1  0.0000000  1.2552000  3
    323    319    326    329     1  180.0000771  2.0083200  2
    323    319    326    329     1  0.0000000  1.2552000  3
    323    335    341    548     1  0.0000000  0.6508444  3
    326    319    320    332     1  180.0000771  2.0083200  2
    326    319    320    332     1  0.0000000  1.2552000  3
    326    319    323    335     1  180.0000771  2.0083200  2
    326    319    323    335     1  0.0000000  1.2552000  3
    326    329    338    347     1  0.0000000  0.6508444  3
    332    344    561    555     1  180.0000771  0.4184000  2
    332    344    561    555     1  0.0000000  1.6024720  3
    335    341    548    542     1  180.0000771  0.4184000  2
    335    341    548    542     1  0.0000000  1.6024720  3
    341    548    542    539     1  180.0000771  0.4184000  2
    341    548    542    539     1  0.0000000  1.6024720  3
    344    561    555    552     1  180.0000771  0.4184000  2
    344    561    555    552     1  0.0000000  1.6024720  3
    348    349    361    373     1  0.0000000  0.6508444  3
    348    352    364    370     1  0.0000000  0.6508444  3
    348    355    358    367     1  0.0000000  0.6508444  3
    349    348    352    364     1  180.0000771  2.0083200  2
    349    348    352    364     1  0.0000000  1.2552000  3
    349    348    355    358     1  180.0000771  2.0083200  2
    349    348    355    358     1  0.0000000  1.2552000  3
    349    361    373    587     1  0.0000000  0.6508444  3
    352    348    349    361     1  180.0000771  2.0083200  2
    352    348    349    361     1  0.0000000  1.2552000  3
    352    348    355    358     1  180.0000771  2.0083200  2
    352    348    355    358     1  0.0000000  1.2552000  3
    352    364    370    574     1  0.0000000  0.6508444  3
    355    348    349    361     1  180.0000771  2.0083200  2
    355    348    349    361     1  0.0000000  1.2552000  3
    355    348    352    364     1  180.0000771  2.0083200  2
    355    348    352    364     1  0.0000000  1.2552000  3
    355    358    367    376     1  0.0000000  0.6508444  3
    361    373    587    581     1  180.0000771  0.4184000  2
    361    373    587    581     1  0.0000000  1.6024720  3
    364    370    574    568     1  180.0000771  0.4184000  2
    364    370    574    568     1  0.0000000  1.6024720  3
    370    574    568    565     1  180.0000771  0.4184000  2
    370    574    568    565     1  0.0000000  1.6024720  3
    373    587    581    578     1  180.0000771  0.4184000  2
    373    587    581    578     1  0.0000000  1.6024720  3
    377    378    390    402     1  0.0000000  0.6508444  3
    377    381    393    399     1  0.0000000  0.6508444  3
    377    384    387    396     1  0.0000000  0.6508444  3
    378    377    381    393     1  180.0000771  2.0083200  2
    378    377    381    393     1  0.0000000  1.2552000  3
    378    377    384    387     1  180.0000771  2.0083200  2
    378    377    384    387     1  0.0000000  1.2552000  3
    378    390    402    613     1  0.0000000  0.6508444  3
    381    377    378    390     1  180.0000771  2.0083200  2
    381    377    378    390     1  0.0000000  1.2552000  3
    381    377    384    387     1  180.0000771  2.0083200  2
    381    377    384    387     1  0.0000000  1.2552000  3
    381    393    399    600     1  0.0000000  0.6508444  3
    384    377    378    390     1  180.0000771  2.0083200  2
    384    377    378    390     1  0.0000000  1.2552000  3
    384    377    381    393     1  180.0000771  2.0083200  2
    384    377    381    393     1  0.0000000  1.2552000  3
    384    387    396    405     1  0.0000000  0.6508444  3
    390    402    613    607     1  180.0000771  0.4184000  2
    390    402    613    607     1  0.0000000  1.6024720  3
    393    399    600    594     1  180.0000771  0.4184000  2
    393    399    600    594     1  0.0000000  1.6024720  3
    399    600    594    591     1  180.0000771  0.4184000  2
    399    600    594    591     1  0.0000000  1.6024720  3
    402    613    607    604     1  180.0000771  0.4184000  2
    402    613    607    604     1  0.0000000  1.6024720  3
    406    409    412    418     1  0.0000000  0.6508444  3
    412    409    406    415     1  0.0000000  0.6508444  3
    419    422    425    431     1  0.0000000  0.6508444  3
    425    422    419    428     1  0.0000000  0.6508444  3
    432    435    438    444     1  0.0000000  0.6508444  3
    438    435    432    441     1  0.0000000  0.6508444  3
    445    448    451    457     1  0.0000000  0.6508444  3
    451    448    445    454     1  0.0000000  0.6508444  3
    458    461    464    470     1  0.0000000  0.6508444  3
    464    461    458    467     1  0.0000000  0.6508444  3
    471    474    477    483     1  0.0000000  0.6508444  3
    477    474    471    480     1  0.0000000  0.6508444  3
    484    487    490    496     1  0.0000000  0.6508444  3
    490    487    484    493     1  0.0000000  0.6508444  3
    497    500    503    509     1  0.0000000  0.6508444  3
    503    500    497    506     1  0.0000000  0.6508444  3
    510    513    516    522     1  0.0000000  0.6508444  3
    516    513    510    519     1  0.0000000  0.6508444  3
    523    526    529    535     1  0.0000000  0.6508444  3
    529    526    523    532     1  0.0000000  0.6508444  3
    536    539    542    548     1  0.0000000  0.6508444  3
    542    539    536    545     1  0.0000000  0.6508444  3
    549    552    555    561     1  0.0000000  0.6508444  3
    555    552    549    558     1  0.0000000  0.6508444  3
    562    565    568    574     1  0.0000000  0.6508444  3
    568    565    562    571     1  0.0000000  0.6508444  3
    575    578    581    587     1  0.0000000  0.6508444  3
    581    578    575    584     1  0.0000000  0.6508444  3
    588    591    594    600     1  0.0000000  0.6508444  3
    594    591    588    597     1  0.0000000  0.6508444  3
    601    604    607    613     1  0.0000000  0.6508444  3
    607    604    601    610     1  0.0000000  0.6508444  3
      1      2      8      9     1  0.0000000  1.0460000  1
      1      2      8      9     1  0.0000000  0.0000000  3
      1      2      8     10     1  0.0000000  1.0460000  1
      1      2      8     10     1  0.0000000  0.0000000  3
      1      5     11     12     1  0.0000000  1.0460000  1
      1      5     11     12     1  0.0000000  0.0000000  3
      1      5     11     13     1  0.0000000  1.0460000  1
      1      5     11     13     1  0.0000000  0.0000000  3
      2      1      5      6     1  0.0000000  1.6038667  3
      2      1      5      7     1  0.0000000  1.6038667  3
      2      8     14     15     1  0.0000000  0.6508444  3
      2      8     14     16     1  0.0000000  0.6508444  3
      5      1      2      3     1  0.0000000  1.6038667  3
      3      2      8     14     1  0.0000000  0.6508444  3
      3      2      8      9     1  0.0000000  0.6508444  3
      3      2      8     10     1  0.0000000  0.6508444  3
      5      1      2      4     1  0.0000000  1.6038667  3
      4      2      8     14     1  0.0000000  0.6508444  3
      4      2      8      9     1  0.0000000  0.6508444  3
      4      2      8     10     1  0.0000000  0.6508444  3
      5     11     17     18     1  0.0000000  0.6508444  3
      5     11     17     19     1  0.0000000  0.6508444  3
      6      5     11     17     1  0.0000000  0.6508444  3
      6      5     11     12     1  0.0000000  0.6508444  3
      6      5     11     13     1  0.0000000  0.6508444  3
      7      5     11     17     1  0.0000000  0.6508444  3
      7      5     11     12     1  0.0000000  0.6508444  3
      7      5     11     13     1  0.0000000  0.6508444  3
      9      8     14     20     1  0.0000000  0.6508444  3
      9      8     14     15     1  0.0000000  0.6508444  3
      9      8     14     16     1  0.0000000  0.6508444  3
     10      8     14     20     1  0.0000000  0.6508444  3
     10      8     14     15     1  0.0000000  0.6508444  3
     10      8     14     16     1  0.0000000  0.6508444  3
     12     11     17     21     1  0.0000000  0.6508444  3
     12     11     17     18     1  0.0000000  0.6508444  3
     12     11     17     19     1  0.0000000  0.6508444  3
     13     11     17     21     1  0.0000000  0.6508444  3
     13     11     17     18     1  0.0000000  0.6508444  3
     13     11     17     19     1  0.0000000  0.6508444  3
     14     20     28     29     1  0.0000000  1.2552000  3
     14     20     28     30     1  0.0000000  1.2552000  3
     14     20     31     32     1  0.0000000  1.2552000  3
     14     20     31     33     1  0.0000000  1.2552000  3
     15     14     20     28     1  0.0000000  1.2552000  3
     15     14     20     31     1  0.0000000  1.2552000  3
     16     14     20     28     1  0.0000000  1.2552000  3
     16     14     20     31     1  0.0000000  1.2552000  3
     17     21     22     23     1  0.0000000  1.2552000  3
     17     21     22     24     1  0.0000000  1.2552000  3
     17     21     25     26     1  0.0000000  1.2552000  3
     17     21     25     27     1  0.0000000  1.2552000  3
     18     17     21     22     1  0.0000000  1.2552000  3
     18     17     21     25     1  0.0000000  1.2552000  3
     19     17     21     22     1  0.0000000  1.2552000  3
     19     17     21     25     1  0.0000000  1.2552000  3
     20     28     40     41     1  0.0000000  0.6508444  3
     20     28     40     42     1  0.0000000  0.6508444  3
     20     31     43     44     1  0.0000000  0.6508444  3
     20     31     43     45     1  0.0000000  0.6508444  3
     21     22     34     35     1  0.0000000  0.6508444  3
     21     22     34     36     1  0.0000000  0.6508444  3
     21     25     37     38     1  0.0000000  0.6508444  3
     21     25     37     39     1  0.0000000  0.6508444  3
     22     21     25     26     1  0.0000000  1.2552000  3
     22     21     25     27     1  0.0000000  1.2552000  3
     22     34     55     56     1  0.0000000  0.6508444  3
     22     34     55     57     1  0.0000000  0.6508444  3
     23     22     21     25     1  0.0000000  1.2552000  3
     23     22     34     55     1  0.0000000  0.6508444  3
     23     22     34     35     1  0.0000000  0.6508444  3
     23     22     34     36     1  0.0000000  0.6508444  3
     24     22     21     25     1  0.0000000  1.2552000  3
     24     22     34     55     1  0.0000000  0.6508444  3
     24     22     34     35     1  0.0000000  0.6508444  3
     24     22     34     36     1  0.0000000  0.6508444  3
     25     37     52     53     1  0.0000000  0.6508444  3
     25     37     52     54     1  0.0000000  0.6508444  3
     26     25     37     52     1  0.0000000  0.6508444  3
     26     25     37     38     1  0.0000000  0.6508444  3
     26     25     37     39     1  0.0000000  0.6508444  3
     27     25     37     52     1  0.0000000  0.6508444  3
     27     25     37     38     1  0.0000000  0.6508444  3
     27     25     37     39     1  0.0000000  0.6508444  3
     28     20     31     32     1  0.0000000  1.2552000  3
     28     20     31     33     1  0.0000000  1.2552000  3
     28     40     49     50     1  0.0000000  0.6508444  3
     28     40     49     51     1  0.0000000  0.6508444  3
     29     28     20     31     1  0.0000000  1.2552000  3
     29     28     40     49     1  0.0000000  0.6508444  3
     29     28     40     41     1  0.0000000  0.6508444  3
     29     28     40     42     1  0.0000000  0.6508444  3
     30     28     20     31     1  0.0000000  1.2552000  3
     30     28     40     49     1  0.0000000  0.6508444  3
     30     28     40     41     1  0.0000000  0.6508444  3
     30     28     40     42     1  0.0000000  0.6508444  3
     31     43     46     47     1  0.0000000  0.6508444  3
     31     43     46     48     1  0.0000000  0.6508444  3
     32     31     43     46     1  0.0000000  0.6508444  3
     32     31     43     44     1  0.0000000  0.6508444  3
     32     31     43     45     1  0.0000000  0.6508444  3
     33     31     43     46     1  0.0000000  0.6508444  3
     33     31     43     44     1  0.0000000  0.6508444  3
     33     31     43     45     1  0.0000000  0.6508444  3
     35     34     55    173     1  0.0000000  1.0460000  1
     35     34     55    173     1  0.0000000  0.0000000  3
     35     34     55     56     1  0.0000000  0.6508444  3
     35     34     55     57     1  0.0000000  0.6508444  3
     36     34     55    173     1  0.0000000  1.0460000  1
     36     34     55    173     1  0.0000000  0.0000000  3
     36     34     55     56     1  0.0000000  0.6508444  3
     36     34     55     57     1  0.0000000  0.6508444  3
     38     37     52    144     1  0.0000000  1.0460000  1
     38     37     52    144     1  0.0000000  0.0000000  3
     38     37     52     53     1  0.0000000  0.6508444  3
     38     37     52     54     1  0.0000000  0.6508444  3
     39     37     52    144     1  0.0000000  1.0460000  1
     39     37     52    144     1  0.0000000  0.0000000  3
     39     37     52     53     1  0.0000000  0.6508444  3
     39     37     52     54     1  0.0000000  0.6508444  3
     41     40     49    115     1  0.0000000  1.0460000  1
     41     40     49    115     1  0.0000000  0.0000000  3
     41     40     49     50     1  0.0000000  0.6508444  3
     41     40     49     51     1  0.0000000  0.6508444  3
     42     40     49    115     1  0.0000000  1.0460000  1
     42     40     49    115     1  0.0000000  0.0000000  3
     42     40     49     50     1  0.0000000  0.6508444  3
     42     40     49     51     1  0.0000000  0.6508444  3
     44     43     46     86     1  0.0000000  1.0460000  1
     44     43     46     86     1  0.0000000  0.0000000  3
     44     43     46     47     1  0.0000000  0.6508444  3
     44     43     46     48     1  0.0000000  0.6508444  3
     45     43     46     86     1  0.0000000  1.0460000  1
     45     43     46     86     1  0.0000000  0.0000000  3
     45     43     46     47     1  0.0000000  0.6508444  3
     45     43     46     48     1  0.0000000  0.6508444  3
     46     86     77     78     1  0.0000000  1.6038667  3
     46     86     77     79     1  0.0000000  1.6038667  3
     47     46     86     77     1  0.0000000  1.6038667  3
     48     46     86     77     1  0.0000000  1.6038667  3
     49    115    106    107     1  0.0000000  1.6038667  3
     49    115    106    108     1  0.0000000  1.6038667  3
     50     49    115    106     1  0.0000000  1.6038667  3
     51     49    115    106     1  0.0000000  1.6038667  3
     52    144    135    136     1  0.0000000  1.6038667  3
     52    144    135    137     1  0.0000000  1.6038667  3
     53     52    144    135     1  0.0000000  1.6038667  3
     54     52    144    135     1  0.0000000  1.6038667  3
     55    173    164    165     1  0.0000000  1.6038667  3
     55    173    164    166     1  0.0000000  1.6038667  3
     56     55    173    164     1  0.0000000  1.6038667  3
     57     55    173    164     1  0.0000000  1.6038667  3
     58     59     71     72     1  0.0000000  0.6508444  3
     58     59     71     73     1  0.0000000  0.6508444  3
     58     62     74     75     1  0.0000000  0.6508444  3
     58     62     74     76     1  0.0000000  0.6508444  3
     58     65     68     69     1  0.0000000  0.6508444  3
     58     65     68     70     1  0.0000000  0.6508444  3
     59     58     62     63     1  0.0000000  1.2552000  3
     59     58     62     64     1  0.0000000  1.2552000  3
     59     58     65     66     1  0.0000000  1.2552000  3
     59     58     65     67     1  0.0000000  1.2552000  3
     59     71     83     84     1  0.0000000  0.6508444  3
     59     71     83     85     1  0.0000000  0.6508444  3
     60     59     58     62     1  0.0000000  1.2552000  3
     60     59     58     65     1  0.0000000  1.2552000  3
     60     59     71     83     1  0.0000000  0.6508444  3
     60     59     71     72     1  0.0000000  0.6508444  3
     60     59     71     73     1  0.0000000  0.6508444  3
     61     59     58     62     1  0.0000000  1.2552000  3
     61     59     58     65     1  0.0000000  1.2552000  3
     61     59     71     83     1  0.0000000  0.6508444  3
     61     59     71     72     1  0.0000000  0.6508444  3
     61     59     71     73     1  0.0000000  0.6508444  3
     62     58     65     66     1  0.0000000  1.2552000  3
     62     58     65     67     1  0.0000000  1.2552000  3
     62     74     80     81     1  0.0000000  0.6508444  3
     62     74     80     82     1  0.0000000  0.6508444  3
     63     62     58     65     1  0.0000000  1.2552000  3
     63     62     74     80     1  0.0000000  0.6508444  3
     63     62     74     75     1  0.0000000  0.6508444  3
     63     62     74     76     1  0.0000000  0.6508444  3
     64     62     58     65     1  0.0000000  1.2552000  3
     64     62     74     80     1  0.0000000  0.6508444  3
     64     62     74     75     1  0.0000000  0.6508444  3
     64     62     74     76     1  0.0000000  0.6508444  3
     65     68     77     78     1  0.0000000  0.6508444  3
     65     68     77     79     1  0.0000000  0.6508444  3
     66     65     68     77     1  0.0000000  0.6508444  3
     66     65     68     69     1  0.0000000  0.6508444  3
     66     65     68     70     1  0.0000000  0.6508444  3
     67     65     68     77     1  0.0000000  0.6508444  3
     67     65     68     69     1  0.0000000  0.6508444  3
     67     65     68     70     1  0.0000000  0.6508444  3
     69     68     77     86     1  0.0000000  1.0460000  1
     69     68     77     86     1  0.0000000  0.0000000  3
     69     68     77     78     1  0.0000000  0.6508444  3
     69     68     77     79     1  0.0000000  0.6508444  3
     70     68     77     86     1  0.0000000  1.0460000  1
     70     68     77     86     1  0.0000000  0.0000000  3
     70     68     77     78     1  0.0000000  0.6508444  3
     70     68     77     79     1  0.0000000  0.6508444  3
     72     71     83    231     1  0.0000000  1.0460000  1
     72     71     83    231     1  0.0000000  0.0000000  3
     72     71     83     84     1  0.0000000  0.6508444  3
     72     71     83     85     1  0.0000000  0.6508444  3
     73     71     83    231     1  0.0000000  1.0460000  1
     73     71     83    231     1  0.0000000  0.0000000  3
     73     71     83     84     1  0.0000000  0.6508444  3
     73     71     83     85     1  0.0000000  0.6508444  3
     75     74     80    202     1  0.0000000  1.0460000  1
     75     74     80    202     1  0.0000000  0.0000000  3
     75     74     80     81     1  0.0000000  0.6508444  3
     75     74     80     82     1  0.0000000  0.6508444  3
     76     74     80    202     1  0.0000000  1.0460000  1
     76     74     80    202     1  0.0000000  0.0000000  3
     76     74     80     81     1  0.0000000  0.6508444  3
     76     74     80     82     1  0.0000000  0.6508444  3
     80    202    193    194     1  0.0000000  1.6038667  3
     80    202    193    195     1  0.0000000  1.6038667  3
     81     80    202    193     1  0.0000000  1.6038667  3
     82     80    202    193     1  0.0000000  1.6038667  3
     83    231    222    223     1  0.0000000  1.6038667  3
     83    231    222    224     1  0.0000000  1.6038667  3
     84     83    231    222     1  0.0000000  1.6038667  3
     85     83    231    222     1  0.0000000  1.6038667  3
     87     88    100    101     1  0.0000000  0.6508444  3
     87     88    100    102     1  0.0000000  0.6508444  3
     87     91    103    104     1  0.0000000  0.6508444  3
     87     91    103    105     1  0.0000000  0.6508444  3
     87     94     97     98     1  0.0000000  0.6508444  3
     87     94     97     99     1  0.0000000  0.6508444  3
     88     87     91     92     1  0.0000000  1.2552000  3
     88     87     91     93     1  0.0000000  1.2552000  3
     88     87     94     95     1  0.0000000  1.2552000  3
     88     87     94     96     1  0.0000000  1.2552000  3
     88    100    112    113     1  0.0000000  0.6508444  3
     88    100    112    114     1  0.0000000  0.6508444  3
     89     88     87     91     1  0.0000000  1.2552000  3
     89     88     87     94     1  0.0000000  1.2552000  3
     89     88    100    112     1  0.0000000  0.6508444  3
     89     88    100    101     1  0.0000000  0.6508444  3
     89     88    100    102     1  0.0000000  0.6508444  3
     90     88     87     91     1  0.0000000  1.2552000  3
     90     88     87     94     1  0.0000000  1.2552000  3
     90     88    100    112     1  0.0000000  0.6508444  3
     90     88    100    101     1  0.0000000  0.6508444  3
     90     88    100    102     1  0.0000000  0.6508444  3
     91     87     94     95     1  0.0000000  1.2552000  3
     91     87     94     96     1  0.0000000  1.2552000  3
     91    103    109    110     1  0.0000000  0.6508444  3
     91    103    109    111     1  0.0000000  0.6508444  3
     92     91     87     94     1  0.0000000  1.2552000  3
     92     91    103    109     1  0.0000000  0.6508444  3
     92     91    103    104     1  0.0000000  0.6508444  3
     92     91    103    105     1  0.0000000  0.6508444  3
     93     91     87     94     1  0.0000000  1.2552000  3
     93     91    103    109     1  0.0000000  0.6508444  3
     93     91    103    104     1  0.0000000  0.6508444  3
     93     91    103    105     1  0.0000000  0.6508444  3
     94     97    106    107     1  0.0000000  0.6508444  3
     94     97    106    108     1  0.0000000  0.6508444  3
     95     94     97    106     1  0.0000000  0.6508444  3
     95     94     97     98     1  0.0000000  0.6508444  3
     95     94     97     99     1  0.0000000  0.6508444  3
     96     94     97    106     1  0.0000000  0.6508444  3
     96     94     97     98     1  0.0000000  0.6508444  3
     96     94     97     99     1  0.0000000  0.6508444  3
     98     97    106    115     1  0.0000000  1.0460000  1
     98     97    106    115     1  0.0000000  0.0000000  3
     98     97    106    107     1  0.0000000  0.6508444  3
     98     97    106    108     1  0.0000000  0.6508444  3
     99     97    106    115     1  0.0000000  1.0460000  1
     99     97    106    115     1  0.0000000  0.0000000  3
     99     97    106    107     1  0.0000000  0.6508444  3
     99     97    106    108     1  0.0000000  0.6508444  3
    101    100    112    289     1  0.0000000  1.0460000  1
    101    100    112    289     1  0.0000000  0.0000000  3
    101    100    112    113     1  0.0000000  0.6508444  3
    101    100    112    114     1  0.0000000  0.6508444  3
    102    100    112    289     1  0.0000000  1.0460000  1
    102    100    112    289     1  0.0000000  0.0000000  3
    102    100    112    113     1  0.0000000  0.6508444  3
    102    100    112    114     1  0.0000000  0.6508444  3
    104    103    109    260     1  0.0000000  1.0460000  1
    104    103    109    260     1  0.0000000  0.0000000  3
    104    103    109    110     1  0.0000000  0.6508444  3
    104    103    109    111     1  0.0000000  0.6508444  3
    105    103    109    260     1  0.0000000  1.0460000  1
    105    103    109    260     1  0.0000000  0.0000000  3
    105    103    109    110     1  0.0000000  0.6508444  3
    105    103    109    111     1  0.0000000  0.6508444  3
    109    260    251    252     1  0.0000000  1.6038667  3
    109    260    251    253     1  0.0000000  1.6038667  3
    110    109    260    251     1  0.0000000  1.6038667  3
    111    109    260    251     1  0.0000000  1.6038667  3
    112    289    280    281     1  0.0000000  1.6038667  3
    112    289    280    282     1  0.0000000  1.6038667  3
    113    112    289    280     1  0.0000000  1.6038667  3
    114    112    289    280     1  0.0000000  1.6038667  3
    116    117    129    130     1  0.0000000  0.6508444  3
    116    117    129    131     1  0.0000000  0.6508444  3
    116    120    132    133     1  0.0000000  0.6508444  3
    116    120    132    134     1  0.0000000  0.6508444  3
    116    123    126    127     1  0.0000000  0.6508444  3
    116    123    126    128     1  0.0000000  0.6508444  3
    117    116    120    121     1  0.0000000  1.2552000  3
    117    116    120    122     1  0.0000000  1.2552000  3
    117    116    123    124     1  0.0000000  1.2552000  3
    117    116    123    125     1  0.0000000  1.2552000  3
    117    129    141    142     1  0.0000000  0.6508444  3
    117    129    141    143     1  0.0000000  0.6508444  3
    118    117    116    120     1  0.0000000  1.2552000  3
    118    117    116    123     1  0.0000000  1.2552000  3
    118    117    129    141     1  0.0000000  0.6508444  3
    118    117    129    130     1  0.0000000  0.6508444  3
    118    117    129    131     1  0.0000000  0.6508444  3
    119    117    116    120     1  0.0000000  1.2552000  3
    119    117    116    123     1  0.0000000  1.2552000  3
    119    117    129    141     1  0.0000000  0.6508444  3
    119    117    129    130     1  0.0000000  0.6508444  3
    119    117    129    131     1  0.0000000  0.6508444  3
    120    116    123    124     1  0.0000000  1.2552000  3
    120    116    123    125     1  0.0000000  1.2552000  3
    120    132    138    139     1  0.0000000  0.6508444  3
    120    132    138    140     1  0.0000000  0.6508444  3
    121    120    116    123     1  0.0000000  1.2552000  3
    121    120    132    138     1  0.0000000  0.6508444  3
    121    120    132    133     1  0.0000000  0.6508444  3
    121    120    132    134     1  0.0000000  0.6508444  3
    122    120    116    123     1  0.0000000  1.2552000  3
    122    120    132    138     1  0.0000000  0.6508444  3
    122    120    132    133     1  0.0000000  0.6508444  3
    122    120    132    134     1  0.0000000  0.6508444  3
    123    126    135    136     1  0.0000000  0.6508444  3
    123    126    135    137     1  0.0000000  0.6508444  3
    124    123    126    135     1  0.0000000  0.6508444  3
    124    123    126    127     1  0.0000000  0.6508444  3
    124    123    126    128     1  0.0000000  0.6508444  3
    125    123    126    135     1  0.0000000  0.6508444  3
    125    123    126    127     1  0.0000000  0.6508444  3
    125    123    126    128     1  0.0000000  0.6508444  3
    127    126    135    144     1  0.0000000  1.0460000  1
    127    126    135    144     1  0.0000000  0.0000000  3
    127    126    135    136     1  0.0000000  0.6508444  3
    127    126    135    137     1  0.0000000  0.6508444  3
    128    126    135    144     1  0.0000000  1.0460000  1
    128    126    135    144     1  0.0000000  0.0000000  3
    128    126    135    136     1  0.0000000  0.6508444  3
    128    126    135    137     1  0.0000000  0.6508444  3
    130    129    141    347     1  0.0000000  1.0460000  1
    130    129    141    347     1  0.0000000  0.0000000  3
    130    129    141    142     1  0.0000000  0.6508444  3
    130    129    141    143     1  0.0000000  0.6508444  3
    131    129    141    347     1  0.0000000  1.0460000  1
    131    129    141    347     1  0.0000000  0.0000000  3
    131    129    141    142     1  0.0000000  0.6508444  3
    131    129    141    143     1  0.0000000  0.6508444  3
    133    132    138    318     1  0.0000000  1.0460000  1
    133    132    138    318     1  0.0000000  0.0000000  3
    133    132    138    139     1  0.0000000  0.6508444  3
    133    132    138    140     1  0.0000000  0.6508444  3
    134    132    138    318     1  0.0000000  1.0460000  1
    134    132    138    318     1  0.0000000  0.0000000  3
    134    132    138    139     1  0.0000000  0.6508444  3
    134    132    138    140     1  0.0000000  0.6508444  3
    138    318    309    310     1  0.0000000  1.6038667  3
    138    318    309    311     1  0.0000000  1.6038667  3
    139    138    318    309     1  0.0000000  1.6038667  3
    140    138    318    309     1  0.0000000  1.6038667  3
    141    347    338    339     1  0.0000000  1.6038667  3
    141    347    338    340     1  0.0000000  1.6038667  3
    142    141    347    338     1  0.0000000  1.6038667  3
    143    141    347    338     1  0.0000000  1.6038667  3
    145    146    158    159     1  0.0000000  0.6508444  3
    145    146    158    160     1  0.0000000  0.6508444  3
    145    149    161    162     1  0.0000000  0.6508444  3
    145    149    161    163     1  0.0000000  0.6508444  3
    145    152    155    156     1  0.0000000  0.6508444  3
    145    152    155    157     1  0.0000000  0.6508444  3
    146    145    149    150     1  0.0000000  1.2552000  3
    146    145    149    151     1  0.0000000  1.2552000  3
    146    145    152    153     1  0.0000000  1.2552000  3
    146    145    152    154     1  0.0000000  1.2552000  3
    146    158    170    171     1  0.0000000  0.6508444  3
    146    158    170    172     1  0.0000000  0.6508444  3
    147    146    145    149     1  0.0000000  1.2552000  3
    147    146    145    152     1  0.0000000  1.2552000  3
    147    146    158    170     1  0.0000000  0.6508444  3
    147    146    158    159     1  0.0000000  0.6508444  3
    147    146    158    160     1  0.0000000  0.6508444  3
    148    146    145    149     1  0.0000000  1.2552000  3
    148    146    145    152     1  0.0000000  1.2552000  3
    148    146    158    170     1  0.0000000  0.6508444  3
    148    146    158    159     1  0.0000000  0.6508444  3
    148    146    158    160     1  0.0000000  0.6508444  3
    149    145    152    153     1  0.0000000  1.2552000  3
    149    145    152    154     1  0.0000000  1.2552000  3
    149    161    167    168     1  0.0000000  0.6508444  3
    149    161    167    169     1  0.0000000  0.6508444  3
    150    149    145    152     1  0.0000000  1.2552000  3
    150    149    161    167     1  0.0000000  0.6508444  3
    150    149    161    162     1  0.0000000  0.6508444  3
    150    149    161    163     1  0.0000000  0.6508444  3
    151    149    145    152     1  0.0000000  1.2552000  3
    151    149    161    167     1  0.0000000  0.6508444  3
    151    149    161    162     1  0.0000000  0.6508444  3
    151    149    161    163     1  0.0000000  0.6508444  3
    152    155    164    165     1  0.0000000  0.6508444  3
    152    155    164    166     1  0.0000000  0.6508444  3
    153    152    155    164     1  0.0000000  0.6508444  3
    153    152    155    156     1  0.0000000  0.6508444  3
    153    152    155    157     1  0.0000000  0.6508444  3
    154    152    155    164     1  0.0000000  0.6508444  3
    154    152    155    156     1  0.0000000  0.6508444  3
    154    152    155    157     1  0.0000000  0.6508444  3
    156    155    164    173     1  0.0000000  1.0460000  1
    156    155    164    173     1  0.0000000  0.0000000  3
    156    155    164    165     1  0.0000000  0.6508444  3
    156    155    164    166     1  0.0000000  0.6508444  3
    157    155    164    173     1  0.0000000  1.0460000  1
    157    155    164    173     1  0.0000000  0.0000000  3
    157    155    164    165     1  0.0000000  0.6508444  3
    157    155    164    166     1  0.0000000  0.6508444  3
    159    158    170    405     1  0.0000000  1.0460000  1
    159    158    170    405     1  0.0000000  0.0000000  3
    159    158    170    171     1  0.0000000  0.6508444  3
    159    158    170    172     1  0.0000000  0.6508444  3
    160    158    170    405     1  0.0000000  1.0460000  1
    160    158    170    405     1  0.0000000  0.0000000  3
    160    158    170    171     1  0.0000000  0.6508444  3
    160    158    170    172     1  0.0000000  0.6508444  3
    162    161    167    376     1  0.0000000  1.0460000  1
    162    161    167    376     1  0.0000000  0.0000000  3
    162    161    167    168     1  0.0000000  0.6508444  3
    162    161    167    169     1  0.0000000  0.6508444  3
    163    161    167    376     1  0.0000000  1.0460000  1
    163    161    167    376     1  0.0000000  0.0000000  3
    163    161    167    168     1  0.0000000  0.6508444  3
    163    161    167    169     1  0.0000000  0.6508444  3
    167    376    367    368     1  0.0000000  1.6038667  3
    167    376    367    369     1  0.0000000  1.6038667  3
    168    167    376    367     1  0.0000000  1.6038667  3
    169    167    376    367     1  0.0000000  1.6038667  3
    170    405    396    397     1  0.0000000  1.6038667  3
    170    405    396    398     1  0.0000000  1.6038667  3
    171    170    405    396     1  0.0000000  1.6038667  3
    172    170    405    396     1  0.0000000  1.6038667  3
    174    175    187    188     1  0.0000000  0.6508444  3
    174    175    187    189     1  0.0000000  0.6508444  3
    174    178    190    191     1  0.0000000  0.6508444  3
    174    178    190    192     1  0.0000000  0.6508444  3
    174    181    184    185     1  0.0000000  0.6508444  3
    174    181    184    186     1  0.0000000  0.6508444  3
    175    174    178    179     1  0.0000000  1.2552000  3
    175    174    178    180     1  0.0000000  1.2552000  3
    175    174    181    182     1  0.0000000  1.2552000  3
    175    174    181    183     1  0.0000000  1.2552000  3
    175    187    199    200     1  0.0000000  0.6508444  3
    175    187    199    201     1  0.0000000  0.6508444  3
    176    175    174    178     1  0.0000000  1.2552000  3
    176    175    174    181     1  0.0000000  1.2552000  3
    176    175    187    199     1  0.0000000  0.6508444  3
    176    175    187    188     1  0.0000000  0.6508444  3
    176    175    187    189     1  0.0000000  0.6508444  3
    177    175    174    178     1  0.0000000  1.2552000  3
    177    175    174    181     1  0.0000000  1.2552000  3
    177    175    187    199     1  0.0000000  0.6508444  3
    177    175    187    188     1  0.0000000  0.6508444  3
    177    175    187    189     1  0.0000000  0.6508444  3
    178    174    181    182     1  0.0000000  1.2552000  3
    178    174    181    183     1  0.0000000  1.2552000  3
    178    190    196    197     1  0.0000000  0.6508444  3
    178    190    196    198     1  0.0000000  0.6508444  3
    179    178    174    181     1  0.0000000  1.2552000  3
    179    178    190    196     1  0.0000000  0.6508444  3
    179    178    190    191     1  0.0000000  0.6508444  3
    179    178    190    192     1  0.0000000  0.6508444  3
    180    178    174    181     1  0.0000000  1.2552000  3
    180    178    190    196     1  0.0000000  0.6508444  3
    180    178    190    191     1  0.0000000  0.6508444  3
    180    178    190    192     1  0.0000000  0.6508444  3
    181    184    193    194     1  0.0000000  0.6508444  3
    181    184    193    195     1  0.0000000  0.6508444  3
    182    181    184    193     1  0.0000000  0.6508444  3
    182    181    184    185     1  0.0000000  0.6508444  3
    182    181    184    186     1  0.0000000  0.6508444  3
    183    181    184    193     1  0.0000000  0.6508444  3
    183    181    184    185     1  0.0000000  0.6508444  3
    183    181    184    186     1  0.0000000  0.6508444  3
    185    184    193    202     1  0.0000000  1.0460000  1
    185    184    193    202     1  0.0000000  0.0000000  3
    185    184    193    194     1  0.0000000  0.6508444  3
    185    184    193    195     1  0.0000000  0.6508444  3
    186    184    193    202     1  0.0000000  1.0460000  1
    186    184    193    202     1  0.0000000  0.0000000  3
    186    184    193    194     1  0.0000000  0.6508444  3
    186    184    193    195     1  0.0000000  0.6508444  3
    188    187    199    431     1  0.0000000  1.0460000  1
    188    187    199    431     1  0.0000000  0.0000000  3
    188    187    199    200     1  0.0000000  0.6508444  3
    188    187    199    201     1  0.0000000  0.6508444  3
    189    187    199    431     1  0.0000000  1.0460000  1
    189    187    199    431     1  0.0000000  0.0000000  3
    189    187    199    200     1  0.0000000  0.6508444  3
    189    187    199    201     1  0.0000000  0.6508444  3
    191    190    196    418     1  0.0000000  1.0460000  1
    191    190    196    418     1  0.0000000  0.0000000  3
    191    190    196    197     1  0.0000000  0.6508444  3
    191    190    196    198     1  0.0000000  0.6508444  3
    192    190    196    418     1  0.0000000  1.0460000  1
    192    190    196    418     1  0.0000000  0.0000000  3
    192    190    196    197     1  0.0000000  0.6508444  3
    192    190    196    198     1  0.0000000  0.6508444  3
    196    418    412    413     1  0.0000000  1.6038667  3
    196    418    412    414     1  0.0000000  1.6038667  3
    197    196    418    412     1  0.0000000  1.6038667  3
    198    196    418    412     1  0.0000000  1.6038667  3
    199    431    425    426     1  0.0000000  1.6038667  3
    199    431    425    427     1  0.0000000  1.6038667  3
    200    199    431    425     1  0.0000000  1.6038667  3
    201    199    431    425     1  0.0000000  1.6038667  3
    203    204    216    217     1  0.0000000  0.6508444  3
    203    204    216    218     1  0.0000000  0.6508444  3
    203    207    219    220     1  0.0000000  0.6508444  3
    203    207    219    221     1  0.0000000  0.6508444  3
    203    210    213    214     1  0.0000000  0.6508444  3
    203    210    213    215     1  0.0000000  0.6508444  3
    204    203    207    208     1  0.0000000  1.2552000  3
    204    203    207    209     1  0.0000000  1.2552000  3
    204    203    210    211     1  0.0000000  1.2552000  3
    204    203    210    212     1  0.0000000  1.2552000  3
    204    216    228    229     1  0.0000000  0.6508444  3
    204    216    228    230     1  0.0000000  0.6508444  3
    205    204    203    207     1  0.0000000  1.2552000  3
    205    204    203    210     1  0.0000000  1.2552000  3
    205    204    216    228     1  0.0000000  0.6508444  3
    205    204    216    217     1  0.0000000  0.6508444  3
    205    204    216    218     1  0.0000000  0.6508444  3
    206    204    203    207     1  0.0000000  1.2552000  3
    206    204    203    210     1  0.0000000  1.2552000  3
    206    204    216    228     1  0.0000000  0.6508444  3
    206    204    216    217     1  0.0000000  0.6508444  3
    206    204    216    218     1  0.0000000  0.6508444  3
    207    203    210    211     1  0.0000000  1.2552000  3
    207    203    210    212     1  0.0000000  1.2552000  3
    207    219    225    226     1  0.0000000  0.6508444  3
    207    219    225    227     1  0.0000000  0.6508444  3
    208    207    203    210     1  0.0000000  1.2552000  3
    208    207    219    225     1  0.0000000  0.6508444  3
    208    207    219    220     1  0.0000000  0.6508444  3
    208    207    219    221     1  0.0000000  0.6508444  3
    209    207    203    210     1  0.0000000  1.2552000  3
    209    207    219    225     1  0.0000000  0.6508444  3
    209    207    219    220     1  0.0000000  0.6508444  3
    209    207    219    221     1  0.0000000  0.6508444  3
    210    213    222    223     1  0.0000000  0.6508444  3
    210    213    222    224     1  0.0000000  0.6508444  3
    211    210    213    222     1  0.0000000  0.6508444  3
    211    210    213    214     1  0.0000000  0.6508444  3
    211    210    213    215     1  0.0000000  0.6508444  3
    212    210    213    222     1  0.0000000  0.6508444  3
    212    210    213    214     1  0.0000000  0.6508444  3
    212    210    213    215     1  0.0000000  0.6508444  3
    214    213    222    231     1  0.0000000  1.0460000  1
    214    213    222    231     1  0.0000000  0.0000000  3
    214    213    222    223     1  0.0000000  0.6508444  3
    214    213    222    224     1  0.0000000  0.6508444  3
    215    213    222    231     1  0.0000000  1.0460000  1
    215    213    222    231     1  0.0000000  0.0000000  3
    215    213    222    223     1  0.0000000  0.6508444  3
    215    213    222    224     1  0.0000000  0.6508444  3
    217    216    228    457     1  0.0000000  1.0460000  1
    217    216    228    457     1  0.0000000  0.0000000  3
    217    216    228    229     1  0.0000000  0.6508444  3
    217    216    228    230     1  0.0000000  0.6508444  3
    218    216    228    457     1  0.0000000  1.0460000  1
    218    216    228    457     1  0.0000000  0.0000000  3
    218    216    228    229     1  0.0000000  0.6508444  3
    218    216    228    230     1  0.0000000  0.6508444  3
    220    219    225    444     1  0.0000000  1.0460000  1
    220    219    225    444     1  0.0000000  0.0000000  3
    220    219    225    226     1  0.0000000  0.6508444  3
    220    219    225    227     1  0.0000000  0.6508444  3
    221    219    225    444     1  0.0000000  1.0460000  1
    221    219    225    444     1  0.0000000  0.0000000  3
    221    219    225    226     1  0.0000000  0.6508444  3
    221    219    225    227     1  0.0000000  0.6508444  3
    225    444    438    439     1  0.0000000  1.6038667  3
    225    444    438    440     1  0.0000000  1.6038667  3
    226    225    444    438     1  0.0000000  1.6038667  3
    227    225    444    438     1  0.0000000  1.6038667  3
    228    457    451    452     1  0.0000000  1.6038667  3
    228    457    451    453     1  0.0000000  1.6038667  3
    229    228    457    451     1  0.0000000  1.6038667  3
    230    228    457    451     1  0.0000000  1.6038667  3
    232    233    245    246     1  0.0000000  0.6508444  3
    232    233    245    247     1  0.0000000  0.6508444  3
    232    236    248    249     1  0.0000000  0.6508444  3
    232    236    248    250     1  0.0000000  0.6508444  3
    232    239    242    243     1  0.0000000  0.6508444  3
    232    239    242    244     1  0.0000000  0.6508444  3
    233    232    236    237     1  0.0000000  1.2552000  3
    233    232    236    238     1  0.0000000  1.2552000  3
    233    232    239    240     1  0.0000000  1.2552000  3
    233    232    239    241     1  0.0000000  1.2552000  3
    233    245    257    258     1  0.0000000  0.6508444  3
    233    245    257    259     1  0.0000000  0.6508444  3
    234    233    232    236     1  0.0000000  1.2552000  3
    234    233    232    239     1  0.0000000  1.2552000  3
    234    233    245    257     1  0.0000000  0.6508444  3
    234    233    245    246     1  0.0000000  0.6508444  3
    234    233    245    247     1  0.0000000  0.6508444  3
    235    233    232    236     1  0.0000000  1.2552000  3
    235    233    232    239     1  0.0000000  1.2552000  3
    235    233    245    257     1  0.0000000  0.6508444  3
    235    233    245    246     1  0.0000000  0.6508444  3
    235    233    245    247     1  0.0000000  0.6508444  3
    236    232    239    240     1  0.0000000  1.2552000  3
    236    232    239    241     1  0.0000000  1.2552000  3
    236    248    254    255     1  0.0000000  0.6508444  3
    236    248    254    256     1  0.0000000  0.6508444  3
    237    236    232    239     1  0.0000000  1.2552000  3
    237    236    248    254     1  0.0000000  0.6508444  3
    237    236    248    249     1  0.0000000  0.6508444  3
    237    236    248    250     1  0.0000000  0.6508444  3
    238    236    232    239     1  0.0000000  1.2552000  3
    238    236    248    254     1  0.0000000  0.6508444  3
    238    236    248    249     1  0.0000000  0.6508444  3
    238    236    248    250     1  0.0000000  0.6508444  3
    239    242    251    252     1  0.0000000  0.6508444  3
    239    242    251    253     1  0.0000000  0.6508444  3
    240    239    242    251     1  0.0000000  0.6508444  3
    240    239    242    243     1  0.0000000  0.6508444  3
    240    239    242    244     1  0.0000000  0.6508444  3
    241    239    242    251     1  0.0000000  0.6508444  3
    241    239    242    243     1  0.0000000  0.6508444  3
    241    239    242    244     1  0.0000000  0.6508444  3
    243    242    251    260     1  0.0000000  1.0460000  1
    243    242    251    260     1  0.0000000  0.0000000  3
    243    242    251    252     1  0.0000000  0.6508444  3
    243    242    251    253     1  0.0000000  0.6508444  3
    244    242    251    260     1  0.0000000  1.0460000  1
    244    242    251    260     1  0.0000000  0.0000000  3
    244    242    251    252     1  0.0000000  0.6508444  3
    244    242    251    253     1  0.0000000  0.6508444  3
    246    245    257    483     1  0.0000000  1.0460000  1
    246    245    257    483     1  0.0000000  0.0000000  3
    246    245    257    258     1  0.0000000  0.6508444  3
    246    245    257    259     1  0.0000000  0.6508444  3
    247    245    257    483     1  0.0000000  1.0460000  1
    247    245    257    483     1  0.0000000  0.0000000  3
    247    245    257    258     1  0.0000000  0.6508444  3
    247    245    257    259     1  0.0000000  0.6508444  3
    249    248    254    470     1  0.0000000  1.0460000  1
    249    248    254    470     1  0.0000000  0.0000000  3
    249    248    254    255     1  0.0000000  0.6508444  3
    249    248    254    256     1  0.0000000  0.6508444  3
    250    248    254    470     1  0.0000000  1.0460000  1
    250    248    254    470     1  0.0000000  0.0000000  3
    250    248    254    255     1  0.0000000  0.6508444  3
    250    248    254    256     1  0.0000000  0.6508444  3
    254    470    464    465     1  0.0000000  1.6038667  3
    254    470    464    466     1  0.0000000  1.6038667  3
    255    254    470    464     1  0.0000000  1.6038667  3
    256    254    470    464     1  0.0000000  1.6038667  3
    257    483    477    478     1  0.0000000  1.6038667  3
    257    483    477    479     1  0.0000000  1.6038667  3
    258    257    483    477     1  0.0000000  1.6038667  3
    259    257    483    477     1  0.0000000  1.6038667  3
    261    262    274    275     1  0.0000000  0.6508444  3
    261    262    274    276     1  0.0000000  0.6508444  3
    261    265    277    278     1  0.0000000  0.6508444  3
    261    265    277    279     1  0.0000000  0.6508444  3
    261    268    271    272     1  0.0000000  0.6508444  3
    261    268    271    273     1  0.0000000  0.6508444  3
    262    261    265    266     1  0.0000000  1.2552000  3
    262    261    265    267     1  0.0000000  1.2552000  3
    262    261    268    269     1  0.0000000  1.2552000  3
    262    261    268    270     1  0.0000000  1.2552000  3
    262    274    286    287     1  0.0000000  0.6508444  3
    262    274    286    288     1  0.0000000  0.6508444  3
    263    262    261    265     1  0.0000000  1.2552000  3
    263    262    261    268     1  0.0000000  1.2552000  3
    263    262    274    286     1  0.0000000  0.6508444  3
    263    262    274    275     1  0.0000000  0.6508444  3
    263    262    274    276     1  0.0000000  0.6508444  3
    264    262    261    265     1  0.0000000  1.2552000  3
    264    262    261    268     1  0.0000000  1.2552000  3
    264    262    274    286     1  0.0000000  0.6508444  3
    264    262    274    275     1  0.0000000  0.6508444  3
    264    262    274    276     1  0.0000000  0.6508444  3
    265    261    268    269     1  0.0000000  1.2552000  3
    265    261    268    270     1  0.0000000  1.2552000  3
    265    277    283    284     1  0.0000000  0.6508444  3
    265    277    283    285     1  0.0000000  0.6508444  3
    266    265    261    268     1  0.0000000  1.2552000  3
    266    265    277    283     1  0.0000000  0.6508444  3
    266    265    277    278     1  0.0000000  0.6508444  3
    266    265    277    279     1  0.0000000  0.6508444  3
    267    265    261    268     1  0.0000000  1.2552000  3
    267    265    277    283     1  0.0000000  0.6508444  3
    267    265    277    278     1  0.0000000  0.6508444  3
    267    265    277    279     1  0.0000000  0.6508444  3
    268    271    280    281     1  0.0000000  0.6508444  3
    268    271    280    282     1  0.0000000  0.6508444  3
    269    268    271    280     1  0.0000000  0.6508444  3
    269    268    271    272     1  0.0000000  0.6508444  3
    269    268    271    273     1  0.0000000  0.6508444  3
    270    268    271    280     1  0.0000000  0.6508444  3
    270    268    271    272     1  0.0000000  0.6508444  3
    270    268    271    273     1  0.0000000  0.6508444  3
    272    271    280    289     1  0.0000000  1.0460000  1
    272    271    280    289     1  0.0000000  0.0000000  3
    272    271    280    281     1  0.0000000  0.6508444  3
    272    271    280    282     1  0.0000000  0.6508444  3
    273    271    280    289     1  0.0000000  1.0460000  1
    273    271    280    289     1  0.0000000  0.0000000  3
    273    271    280    281     1  0.0000000  0.6508444  3
    273    271    280    282     1  0.0000000  0.6508444  3
    275    274    286    509     1  0.0000000  1.0460000  1
    275    274    286    509     1  0.0000000  0.0000000  3
    275    274    286    287     1  0.0000000  0.6508444  3
    275    274    286    288     1  0.0000000  0.6508444  3
    276    274    286    509     1  0.0000000  1.0460000  1
    276    274    286    509     1  0.0000000  0.0000000  3
    276    274    286    287     1  0.0000000  0.6508444  3
    276    274    286    288     1  0.0000000  0.6508444  3
    278    277    283    496     1  0.0000000  1.0460000  1
    278    277    283    496     1  0.0000000  0.0000000  3
    278    277    283    284     1  0.0000000  0.6508444  3
    278    277    283    285     1  0.0000000  0.6508444  3
    279    277    283    496     1  0.0000000  1.0460000  1
    279    277    283    496     1  0.0000000  0.0000000  3
    279    277    283    284     1  0.0000000  0.6508444  3
    279    277    283    285     1  0.0000000  0.6508444  3
    283    496    490    491     1  0.0000000  1.6038667  3
    283    496    490    492     1  0.0000000  1.6038667  3
    284    283    496    490     1  0.0000000  1.6038667  3
    285    283    496    490     1  0.0000000  1.6038667  3
    286    509    503    504     1  0.0000000  1.6038667  3
    286    509    503    505     1  0.0000000  1.6038667  3
    287    286    509    503     1  0.0000000  1.6038667  3
    288    286    509    503     1  0.0000000  1.6038667  3
    290    291    303    304     1  0.0000000  0.6508444  3
    290    291    303    305     1  0.0000000  0.6508444  3
    290    294    306    307     1  0.0000000  0.6508444  3
    290    294    306    308     1  0.0000000  0.6508444  3
    290    297    300    301     1  0.0000000  0.6508444  3
    290    297    300    302     1  0.0000000  0.6508444  3
    291    290    294    295     1  0.0000000  1.2552000  3
    291    290    294    296     1  0.0000000  1.2552000  3
    291    290    297    298     1  0.0000000  1.2552000  3
    291    290    297    299     1  0.0000000  1.2552000  3
    291    303    315    316     1  0.0000000  0.6508444  3
    291    303    315    317     1  0.0000000  0.6508444  3
    292    291    290    294     1  0.0000000  1.2552000  3
    292    291    290    297     1  0.0000000  1.2552000  3
    292    291    303    315     1  0.0000000  0.6508444  3
    292    291    303    304     1  0.0000000  0.6508444  3
    292    291    303    305     1  0.0000000  0.6508444  3
    293    291    290    294     1  0.0000000  1.2552000  3
    293    291    290    297     1  0.0000000  1.2552000  3
    293    291    303    315     1  0.0000000  0.6508444  3
    293    291    303    304     1  0.0000000  0.6508444  3
    293    291    303    305     1  0.0000000  0.6508444  3
    294    290    297    298     1  0.0000000  1.2552000  3
    294    290    297    299     1  0.0000000  1.2552000  3
    294    306    312    313     1  0.0000000  0.6508444  3
    294    306    312    314     1  0.0000000  0.6508444  3
    295    294    290    297     1  0.0000000  1.2552000  3
    295    294    306    312     1  0.0000000  0.6508444  3
    295    294    306    307     1  0.0000000  0.6508444  3
    295    294    306    308     1  0.0000000  0.6508444  3
    296    294    290    297     1  0.0000000  1.2552000  3
    296    294    306    312     1  0.0000000  0.6508444  3
    296    294    306    307     1  0.0000000  0.6508444  3
    296    294    306    308     1  0.0000000  0.6508444  3
    297    300    309    310     1  0.0000000  0.6508444  3
    297    300    309    311     1  0.0000000  0.6508444  3
    298    297    300    309     1  0.0000000  0.6508444  3
    298    297    300    301     1  0.0000000  0.6508444  3
    298    297    300    302     1  0.0000000  0.6508444  3
    299    297    300    309     1  0.0000000  0.6508444  3
    299    297    300    301     1  0.0000000  0.6508444  3
    299    297    300    302     1  0.0000000  0.6508444  3
    301    300    309    318     1  0.0000000  1.0460000  1
    301    300    309    318     1  0.0000000  0.0000000  3
    301    300    309    310     1  0.0000000  0.6508444  3
    301    300    309    311     1  0.0000000  0.6508444  3
    302    300    309    318     1  0.0000000  1.0460000  1
    302    300    309    318     1  0.0000000  0.0000000  3
    302    300    309    310     1  0.0000000  0.6508444  3
    302    300    309    311     1  0.0000000  0.6508444  3
    304    303    315    535     1  0.0000000  1.0460000  1
    304    303    315    535     1  0.0000000  0.0000000  3
    304    303    315    316     1  0.0000000  0.6508444  3
    304    303    315    317     1  0.0000000  0.6508444  3
    305    303    315    535     1  0.0000000  1.0460000  1
    305    303    315    535     1  0.0000000  0.0000000  3
    305    303    315    316     1  0.0000000  0.6508444  3
    305    303    315    317     1  0.0000000  0.6508444  3
    307    306    312    522     1  0.0000000  1.0460000  1
    307    306    312    522     1  0.0000000  0.0000000  3
    307    306    312    313     1  0.0000000  0.6508444  3
    307    306    312    314     1  0.0000000  0.6508444  3
    308    306    312    522     1  0.0000000  1.0460000  1
    308    306    312    522     1  0.0000000  0.0000000  3
    308    306    312    313     1  0.0000000  0.6508444  3
    308    306    312    314     1  0.0000000  0.6508444  3
    312    522    516    517     1  0.0000000  1.6038667  3
    312    522    516    518     1  0.0000000  1.6038667  3
    313    312    522    516     1  0.0000000  1.6038667  3
    314    312    522    516     1  0.0000000  1.6038667  3
    315    535    529    530     1  0.0000000  1.6038667  3
    315    535    529    531     1  0.0000000  1.6038667  3
    316    315    535    529     1  0.0000000  1.6038667  3
    317    315    535    529     1  0.0000000  1.6038667  3
    319    320    332    333     1  0.0000000  0.6508444  3
    319    320    332    334     1  0.0000000  0.6508444  3
    319    323    335    336     1  0.0000000  0.6508444  3
    319    323    335    337     1  0.0000000  0.6508444  3
    319    326    329    330     1  0.0000000  0.6508444  3
    319    326    329    331     1  0.0000000  0.6508444  3
    320    319    323    324     1  0.0000000  1.2552000  3
    320    319    323    325     1  0.0000000  1.2552000  3
    320    319    326    327     1  0.0000000  1.2552000  3
    320    319    326    328     1  0.0000000  1.2552000  3
    320    332    344    345     1  0.0000000  0.6508444  3
    320    332    344    346     1  0.0000000  0.6508444  3
    321    320    319    323     1  0.0000000  1.2552000  3
    321    320    319    326     1  0.0000000  1.2552000  3
    321    320    332    344     1  0.0000000  0.6508444  3
    321    320    332    333     1  0.0000000  0.6508444  3
    321    320    332    334     1  0.0000000  0.6508444  3
    322    320    319    323     1  0.0000000  1.2552000  3
    322    320    319    326     1  0.0000000  1.2552000  3
    322    320    332    344     1  0.0000000  0.6508444  3
    322    320    332    333     1  0.0000000  0.6508444  3
    322    320    332    334     1  0.0000000  0.6508444  3
    323    319    326    327     1  0.0000000  1.2552000  3
    323    319    326    328     1  0.0000000  1.2552000  3
    323    335    341    342     1  0.0000000  0.6508444  3
    323    335    341    343     1  0.0000000  0.6508444  3
    324    323    319    326     1  0.0000000  1.2552000  3
    324    323    335    341     1  0.0000000  0.6508444  3
    324    323    335    336     1  0.0000000  0.6508444  3
    324    323    335    337     1  0.0000000  0.6508444  3
    325    323    319    326     1  0.0000000  1.2552000  3
    325    323    335    341     1  0.0000000  0.6508444  3
    325    323    335    336     1  0.0000000  0.6508444  3
    325    323    335    337     1  0.0000000  0.6508444  3
    326    329    338    339     1  0.0000000  0.6508444  3
    326    329    338    340     1  0.0000000  0.6508444  3
    327    326    329    338     1  0.0000000  0.6508444  3
    327    326    329    330     1  0.0000000  0.6508444  3
    327    326    329    331     1  0.0000000  0.6508444  3
    328    326    329    338     1  0.0000000  0.6508444  3
    328    326    329    330     1  0.0000000  0.6508444  3
    328    326    329    331     1  0.0000000  0.6508444  3
    330    329    338    347     1  0.0000000  1.0460000  1
    330    329    338    347     1  0.0000000  0.0000000  3
    330    329    338    339     1  0.0000000  0.6508444  3
    330    329    338    340     1  0.0000000  0.6508444  3
    331    329    338    347     1  0.0000000  1.0460000  1
    331    329    338    347     1  0.0000000  0.0000000  3
    331    329    338    339     1  0.0000000  0.6508444  3
    331    329    338    340     1  0.0000000  0.6508444  3
    333    332    344    561     1  0.0000000  1.0460000  1
    333    332    344    561     1  0.0000000  0.0000000  3
    333    332    344    345     1  0.0000000  0.6508444  3
    333    332    344    346     1  0.0000000  0.6508444  3
    334    332    344    561     1  0.0000000  1.0460000  1
    334    332    344    561     1  0.0000000  0.0000000  3
    334    332    344    345     1  0.0000000  0.6508444  3
    334    332    344    346     1  0.0000000  0.6508444  3
    336    335    341    548     1  0.0000000  1.0460000  1
    336    335    341    548     1  0.0000000  0.0000000  3
    336    335    341    342     1  0.0000000  0.6508444  3
    336    335    341    343     1  0.0000000  0.6508444  3
    337    335    341    548     1  0.0000000  1.0460000  1
    337    335    341    548     1  0.0000000  0.0000000  3
    337    335    341    342     1  0.0000000  0.6508444  3
    337    335    341    343     1  0.0000000  0.6508444  3
    341    548    542    543     1  0.0000000  1.6038667  3
    341    548    542    544     1  0.0000000  1.6038667  3
    342    341    548    542     1  0.0000000  1.6038667  3
    343    341    548    542     1  0.0000000  1.6038667  3
    344    561    555    556     1  0.0000000  1.6038667  3
    344    561    555    557     1  0.0000000  1.6038667  3
    345    344    561    555     1  0.0000000  1.6038667  3
    346    344    561    555     1  0.0000000  1.6038667  3
    348    349    361    362     1  0.0000000  0.6508444  3
    348    349    361    363     1  0.0000000  0.6508444  3
    348    352    364    365     1  0.0000000  0.6508444  3
    348    352    364    366     1  0.0000000  0.6508444  3
    348    355    358    359     1  0.0000000  0.6508444  3
    348    355    358    360     1  0.0000000  0.6508444  3
    349    348    352    353     1  0.0000000  1.2552000  3
    349    348    352    354     1  0.0000000  1.2552000  3
    349    348    355    356     1  0.0000000  1.2552000  3
    349    348    355    357     1  0.0000000  1.2552000  3
    349    361    373    374     1  0.0000000  0.6508444  3
    349    361    373    375     1  0.0000000  0.6508444  3
    350    349    348    352     1  0.0000000  1.2552000  3
    350    349    348    355     1  0.0000000  1.2552000  3
    350    349    361    373     1  0.0000000  0.6508444  3
    350    349    361    362     1  0.0000000  0.6508444  3
    350    349    361    363     1  0.0000000  0.6508444  3
    351    349    348    352     1  0.0000000  1.2552000  3
    351    349    348    355     1  0.0000000  1.2552000  3
    351    349    361    373     1  0.0000000  0.6508444  3
    351    349    361    362     1  0.0000000  0.6508444  3
    351    349    361    363     1  0.0000000  0.6508444  3
    352    348    355    356     1  0.0000000  1.2552000  3
    352    348    355    357     1  0.0000000  1.2552000  3
    352    364    370    371     1  0.0000000  0.6508444  3
    352    364    370    372     1  0.0000000  0.6508444  3
    353    352    348    355     1  0.0000000  1.2552000  3
    353    352    364    370     1  0.0000000  0.6508444  3
    353    352    364    365     1  0.0000000  0.6508444  3
    353    352    364    366     1  0.0000000  0.6508444  3
    354    352    348    355     1  0.0000000  1.2552000  3
    354    352    364    370     1  0.0000000  0.6508444  3
    354    352    364    365     1  0.0000000  0.6508444  3
    354    352    364    366     1  0.0000000  0.6508444  3
    355    358    367    368     1  0.0000000  0.6508444  3
    355    358    367    369     1  0.0000000  0.6508444  3
    356    355    358    367     1  0.0000000  0.6508444  3
    356    355    358    359     1  0.0000000  0.6508444  3
    356    355    358    360     1  0.0000000  0.6508444  3
    357    355    358    367     1  0.0000000  0.6508444  3
    357    355    358    359     1  0.0000000  0.6508444  3
    357    355    358    360     1  0.0000000  0.6508444  3
    359    358    367    376     1  0.0000000  1.0460000  1
    359    358    367    376     1  0.0000000  0.0000000  3
    359    358    367    368     1  0.0000000  0.6508444  3
    359    358    367    369     1  0.0000000  0.6508444  3
    360    358    367    376     1  0.0000000  1.0460000  1
    360    358    367    376     1  0.0000000  0.0000000  3
    360    358    367    368     1  0.0000000  0.6508444  3
    360    358    367    369     1  0.0000000  0.6508444  3
    362    361    373    587     1  0.0000000  1.0460000  1
    362    361    373    587     1  0.0000000  0.0000000  3
    362    361    373    374     1  0.0000000  0.6508444  3
    362    361    373    375     1  0.0000000  0.6508444  3
    363    361    373    587     1  0.0000000  1.0460000  1
    363    361    373    587     1  0.0000000  0.0000000  3
    363    361    373    374     1  0.0000000  0.6508444  3
    363    361    373    375     1  0.0000000  0.6508444  3
    365    364    370    574     1  0.0000000  1.0460000  1
    365    364    370    574     1  0.0000000  0.0000000  3
    365    364    370    371     1  0.0000000  0.6508444  3
    365    364    370    372     1  0.0000000  0.6508444  3
    366    364    370    574     1  0.0000000  1.0460000  1
    366    364    370    574     1  0.0000000  0.0000000  3
    366    364    370    371     1  0.0000000  0.6508444  3
    366    364    370    372     1  0.0000000  0.6508444  3
    370    574    568    569     1  0.0000000  1.6038667  3
    370    574    568    570     1  0.0000000  1.6038667  3
    371    370    574    568     1  0.0000000  1.6038667  3
    372    370    574    568     1  0.0000000  1.6038667  3
    373    587    581    582     1  0.0000000  1.6038667  3
    373    587    581    583     1  0.0000000  1.6038667  3
    374    373    587    581     1  0.0000000  1.6038667  3
    375    373    587    581     1  0.0000000  1.6038667  3
    377    378    390    391     1  0.0000000  0.6508444  3
    377    378    390    392     1  0.0000000  0.6508444  3
    377    381    393    394     1  0.0000000  0.6508444  3
    377    381    393    395     1  0.0000000  0.6508444  3
    377    384    387    388     1  0.0000000  0.6508444  3
    377    384    387    389     1  0.0000000  0.6508444  3
    378    377    381    382     1  0.0000000  1.2552000  3
    378    377    381    383     1  0.0000000  1.2552000  3
    378    377    384    385     1  0.0000000  1.2552000  3
    378    377    384    386     1  0.0000000  1.2552000  3
    378    390    402    403     1  0.0000000  0.6508444  3
    378    390    402    404     1  0.0000000  0.6508444  3
    379    378    377    381     1  0.0000000  1.2552000  3
    379    378    377    384     1  0.0000000  1.2552000  3
    379    378    390    402     1  0.0000000  0.6508444  3
    379    378    390    391     1  0.0000000  0.6508444  3
    379    378    390    392     1  0.0000000  0.6508444  3
    380    378    377    381     1  0.0000000  1.2552000  3
    380    378    377    384     1  0.0000000  1.2552000  3
    380    378    390    402     1  0.0000000  0.6508444  3
    380    378    390    391     1  0.0000000  0.6508444  3
    380    378    390    392     1  0.0000000  0.6508444  3
    381    377    384    385     1  0.0000000  1.2552000  3
    381    377    384    386     1  0.0000000  1.2552000  3
    381    393    399    400     1  0.0000000  0.6508444  3
    381    393    399    401     1  0.0000000  0.6508444  3
    382    381    377    384     1  0.0000000  1.2552000  3
    382    381    393    399     1  0.0000000  0.6508444  3
    382    381    393    394     1  0.0000000  0.6508444  3
    382    381    393    395     1  0.0000000  0.6508444  3
    383    381    377    384     1  0.0000000  1.2552000  3
    383    381    393    399     1  0.0000000  0.6508444  3
    383    381    393    394     1  0.0000000  0.6508444  3
    383    381    393    395     1  0.0000000  0.6508444  3
    384    387    396    397     1  0.0000000  0.6508444  3
    384    387    396    398     1  0.0000000  0.6508444  3
    385    384    387    396     1  0.0000000  0.6508444  3
    385    384    387    388     1  0.0000000  0.6508444  3
    385    384    387    389     1  0.0000000  0.6508444  3
    386    384    387    396     1  0.0000000  0.6508444  3
    386    384    387    388     1  0.0000000  0.6508444  3
    386    384    387    389     1  0.0000000  0.6508444  3
    388    387    396    405     1  0.0000000  1.0460000  1
    388    387    396    405     1  0.0000000  0.0000000  3
    388    387    396    397     1  0.0000000  0.6508444  3
    388    387    396    398     1  0.0000000  0.6508444  3
    389    387    396    405     1  0.0000000  1.0460000  1
    389    387    396    405     1  0.0000000  0.0000000  3
    389    387    396    397     1  0.0000000  0.6508444  3
    389    387    396    398     1  0.0000000  0.6508444  3
    391    390    402    613     1  0.0000000  1.0460000  1
    391    390    402    613     1  0.0000000  0.0000000  3
    391    390    402    403     1  0.0000000  0.6508444  3
    391    390    402    404     1  0.0000000  0.6508444  3
    392    390    402    613     1  0.0000000  1.0460000  1
    392    390    402    613     1  0.0000000  0.0000000  3
    392    390    402    403     1  0.0000000  0.6508444  3
    392    390    402    404     1  0.0000000  0.6508444  3
    394    393    399    600     1  0.0000000  1.0460000  1
    394    393    399    600     1  0.0000000  0.0000000  3
    394    393    399    400     1  0.0000000  0.6508444  3
    394    393    399    401     1  0.0000000  0.6508444  3
    395    393    399    600     1  0.0000000  1.0460000  1
    395    393    399    600     1  0.0000000  0.0000000  3
    395    393    399    400     1  0.0000000  0.6508444  3
    395    393    399    401     1  0.0000000  0.6508444  3
    399    600    594    595     1  0.0000000  1.6038667  3
    399    600    594    596     1  0.0000000  1.6038667  3
    400    399    600    594     1  0.0000000  1.6038667  3
    401    399    600    594     1  0.0000000  1.6038667  3
    402    613    607    608     1  0.0000000  1.6038667  3
    402    613    607    609     1  0.0000000  1.6038667  3
    403    402    613    607     1  0.0000000  1.6038667  3
    404    402    613    607     1  0.0000000  1.6038667  3
    406    409    412    413     1  0.0000000  0.6508444  3
    406    409    412    414     1  0.0000000  0.6508444  3
    407    406    409    412     1  0.0000000  0.6508444  3
    407    406    409    410     1  0.0000000  0.6508444  3
    407    406    409    411     1  0.0000000  0.6508444  3
    407    406    415    416     1  0.0000000  1.2552000  3
    407    406    415    417     1  0.0000000  1.2552000  3
    408    406    409    412     1  0.0000000  0.6508444  3
    408    406    409    410     1  0.0000000  0.6508444  3
    408    406    409    411     1  0.0000000  0.6508444  3
    408    406    415    416     1  0.0000000  1.2552000  3
    408    406    415    417     1  0.0000000  1.2552000  3
    409    406    415    416     1  0.0000000  1.2552000  3
    409    406    415    417     1  0.0000000  1.2552000  3
    410    409    406    415     1  0.0000000  0.6508444  3
    410    409    412    418     1  0.0000000  1.0460000  1
    410    409    412    418     1  0.0000000  0.0000000  3
    410    409    412    413     1  0.0000000  0.6508444  3
    410    409    412    414     1  0.0000000  0.6508444  3
    411    409    406    415     1  0.0000000  0.6508444  3
    411    409    412    418     1  0.0000000  1.0460000  1
    411    409    412    418     1  0.0000000  0.0000000  3
    411    409    412    413     1  0.0000000  0.6508444  3
    411    409    412    414     1  0.0000000  0.6508444  3
    419    422    425    426     1  0.0000000  0.6508444  3
    419    422    425    427     1  0.0000000  0.6508444  3
    420    419    422    425     1  0.0000000  0.6508444  3
    420    419    422    423     1  0.0000000  0.6508444  3
    420    419    422    424     1  0.0000000  0.6508444  3
    420    419    428    429     1  0.0000000  1.2552000  3
    420    419    428    430     1  0.0000000  1.2552000  3
    421    419    422    425     1  0.0000000  0.6508444  3
    421    419    422    423     1  0.0000000  0.6508444  3
    421    419    422    424     1  0.0000000  0.6508444  3
    421    419    428    429     1  0.0000000  1.2552000  3
    421    419    428    430     1  0.0000000  1.2552000  3
    422    419    428    429     1  0.0000000  1.2552000  3
    422    419    428    430     1  0.0000000  1.2552000  3
    423    422    425    431     1  0.0000000  1.0460000  1
    423    422    425    431     1  0.0000000  0.0000000  3
    423    422    425    426     1  0.0000000  0.6508444  3
    423    422    425    427     1  0.0000000  0.6508444  3
    423    422    419    428     1  0.0000000  0.6508444  3
    424    422    425    431     1  0.0000000  1.0460000  1
    424    422    425    431     1  0.0000000  0.0000000  3
    424    422    425    426     1  0.0000000  0.6508444  3
    424    422    425    427     1  0.0000000  0.6508444  3
    424    422    419    428     1  0.0000000  0.6508444  3
    432    435    438    439     1  0.0000000  0.6508444  3
    432    435    438    440     1  0.0000000  0.6508444  3
    433    432    435    438     1  0.0000000  0.6508444  3
    433    432    435    436     1  0.0000000  0.6508444  3
    433    432    435    437     1  0.0000000  0.6508444  3
    433    432    441    442     1  0.0000000  1.2552000  3
    433    432    441    443     1  0.0000000  1.2552000  3
    434    432    435    438     1  0.0000000  0.6508444  3
    434    432    435    436     1  0.0000000  0.6508444  3
    434    432    435    437     1  0.0000000  0.6508444  3
    434    432    441    442     1  0.0000000  1.2552000  3
    434    432    441    443     1  0.0000000  1.2552000  3
    435    432    441    442     1  0.0000000  1.2552000  3
    435    432    441    443     1  0.0000000  1.2552000  3
    436    435    432    441     1  0.0000000  0.6508444  3
    436    435    438    444     1  0.0000000  1.0460000  1
    436    435    438    444     1  0.0000000  0.0000000  3
    436    435    438    439     1  0.0000000  0.6508444  3
    436    435    438    440     1  0.0000000  0.6508444  3
    437    435    432    441     1  0.0000000  0.6508444  3
    437    435    438    444     1  0.0000000  1.0460000  1
    437    435    438    444     1  0.0000000  0.0000000  3
    437    435    438    439     1  0.0000000  0.6508444  3
    437    435    438    440     1  0.0000000  0.6508444  3
    445    448    451    452     1  0.0000000  0.6508444  3
    445    448    451    453     1  0.0000000  0.6508444  3
    446    445    448    451     1  0.0000000  0.6508444  3
    446    445    448    449     1  0.0000000  0.6508444  3
    446    445    448    450     1  0.0000000  0.6508444  3
    446    445    454    455     1  0.0000000  1.2552000  3
    446    445    454    456     1  0.0000000  1.2552000  3
    447    445    448    451     1  0.0000000  0.6508444  3
    447    445    448    449     1  0.0000000  0.6508444  3
    447    445    448    450     1  0.0000000  0.6508444  3
    447    445    454    455     1  0.0000000  1.2552000  3
    447    445    454    456     1  0.0000000  1.2552000  3
    448    445    454    455     1  0.0000000  1.2552000  3
    448    445    454    456     1  0.0000000  1.2552000  3
    449    448    451    457     1  0.0000000  1.0460000  1
    449    448    451    457     1  0.0000000  0.0000000  3
    449    448    451    452     1  0.0000000  0.6508444  3
    449    448    451    453     1  0.0000000  0.6508444  3
    449    448    445    454     1  0.0000000  0.6508444  3
    450    448    451    457     1  0.0000000  1.0460000  1
    450    448    451    457     1  0.0000000  0.0000000  3
    450    448    451    452     1  0.0000000  0.6508444  3
    450    448    451    453     1  0.0000000  0.6508444  3
    450    448    445    454     1  0.0000000  0.6508444  3
    458    461    464    465     1  0.0000000  0.6508444  3
    458    461    464    466     1  0.0000000  0.6508444  3
    459    458    461    464     1  0.0000000  0.6508444  3
    459    458    461    462     1  0.0000000  0.6508444  3
    459    458    461    463     1  0.0000000  0.6508444  3
    459    458    467    468     1  0.0000000  1.2552000  3
    459    458    467    469     1  0.0000000  1.2552000  3
    460    458    461    464     1  0.0000000  0.6508444  3
    460    458    461    462     1  0.0000000  0.6508444  3
    460    458    461    463     1  0.0000000  0.6508444  3
    460    458    467    468     1  0.0000000  1.2552000  3
    460    458    467    469     1  0.0000000  1.2552000  3
    461    458    467    468     1  0.0000000  1.2552000  3
    461    458    467    469     1  0.0000000  1.2552000  3
    462    461    458    467     1  0.0000000  0.6508444  3
    462    461    464    470     1  0.0000000  1.0460000  1
    462    461    464    470     1  0.0000000  0.0000000  3
    462    461    464    465     1  0.0000000  0.6508444  3
    462    461    464    466     1  0.0000000  0.6508444  3
    463    461    458    467     1  0.0000000  0.6508444  3
    463    461    464    470     1  0.0000000  1.0460000  1
    463    461    464    470     1  0.0000000  0.0000000  3
    463    461    464    465     1  0.0000000  0.6508444  3
    463    461    464    466     1  0.0000000  0.6508444  3
    471    474    477    478     1  0.0000000  0.6508444  3
    471    474    477    479     1  0.0000000  0.6508444  3
    472    471    474    477     1  0.0000000  0.6508444  3
    472    471    474    475     1  0.0000000  0.6508444  3
    472    471    474    476     1  0.0000000  0.6508444  3
    472    471    480    481     1  0.0000000  1.2552000  3
    472    471    480    482     1  0.0000000  1.2552000  3
    473    471    474    477     1  0.0000000  0.6508444  3
    473    471    474    475     1  0.0000000  0.6508444  3
    473    471    474    476     1  0.0000000  0.6508444  3
    473    471    480    481     1  0.0000000  1.2552000  3
    473    471    480    482     1  0.0000000  1.2552000  3
    474    471    480    481     1  0.0000000  1.2552000  3
    474    471    480    482     1  0.0000000  1.2552000  3
    475    474    477    483     1  0.0000000  1.0460000  1
    475    474    477    483     1  0.0000000  0.0000000  3
    475    474    477    478     1  0.0000000  0.6508444  3
    475    474    477    479     1  0.0000000  0.6508444  3
    475    474    471    480     1  0.0000000  0.6508444  3
    476    474    477    483     1  0.0000000  1.0460000  1
    476    474    477    483     1  0.0000000  0.0000000  3
    476    474    477    478     1  0.0000000  0.6508444  3
    476    474    477    479     1  0.0000000  0.6508444  3
    476    474    471    480     1  0.0000000  0.6508444  3
    484    487    490    491     1  0.0000000  0.6508444  3
    484    487    490    492     1  0.0000000  0.6508444  3
    485    484    487    490     1  0.0000000  0.6508444  3
    485    484    487    488     1  0.0000000  0.6508444  3
    485    484    487    489     1  0.0000000  0.6508444  3
    485    484    493    494     1  0.0000000  1.2552000  3
    485    484    493    495     1  0.0000000  1.2552000  3
    486    484    487    490     1  0.0000000  0.6508444  3
    486    484    487    488     1  0.0000000  0.6508444  3
    486    484    487    489     1  0.0000000  0.6508444  3
    486    484    493    494     1  0.0000000  1.2552000  3
    486    484    493    495     1  0.0000000  1.2552000  3
    487    484    493    494     1  0.0000000  1.2552000  3
    487    484    493    495     1  0.0000000  1.2552000  3
    488    487    484    493     1  0.0000000  0.6508444  3
    488    487    490    496     1  0.0000000  1.0460000  1
    488    487    490    496     1  0.0000000  0.0000000  3
    488    487    490    491     1  0.0000000  0.6508444  3
    488    487    490    492     1  0.0000000  0.6508444  3
    489    487    484    493     1  0.0000000  0.6508444  3
    489    487    490    496     1  0.0000000  1.0460000  1
    489    487    490    496     1  0.0000000  0.0000000  3
    489    487    490    491     1  0.0000000  0.6508444  3
    489    487    490    492     1  0.0000000  0.6508444  3
    497    500    503    504     1  0.0000000  0.6508444  3
    497    500    503    505     1  0.0000000  0.6508444  3
    498    497    500    503     1  0.0000000  0.6508444  3
    498    497    500    501     1  0.0000000  0.6508444  3
    498    497    500    502     1  0.0000000  0.6508444  3
    498    497    506    507     1  0.0000000  1.2552000  3
    498    497    506    508     1  0.0000000  1.2552000  3
    499    497    500    503     1  0.0000000  0.6508444  3
    499    497    500    501     1  0.0000000  0.6508444  3
    499    497    500    502     1  0.0000000  0.6508444  3
    499    497    506    507     1  0.0000000  1.2552000  3
    499    497    506    508     1  0.0000000  1.2552000  3
    500    497    506    507     1  0.0000000  1.2552000  3
    500    497    506    508     1  0.0000000  1.2552000  3
    501    500    503    509     1  0.0000000  1.0460000  1
    501    500    503    509     1  0.0000000  0.0000000  3
    501    500    503    504     1  0.0000000  0.6508444  3
    501    500    503    505     1  0.0000000  0.6508444  3
    501    500    497    506     1  0.0000000  0.6508444  3
    502    500    503    509     1  0.0000000  1.0460000  1
    502    500    503    509     1  0.0000000  0.0000000  3
    502    500    503    504     1  0.0000000  0.6508444  3
    502    500    503    505     1  0.0000000  0.6508444  3
    502    500    497    506     1  0.0000000  0.6508444  3
    510    513    516    517     1  0.0000000  0.6508444  3
    510    513    516    518     1  0.0000000  0.6508444  3
    511    510    513    516     1  0.0000000  0.6508444  3
    511    510    513    514     1  0.0000000  0.6508444  3
    511    510    513    515     1  0.0000000  0.6508444  3
    511    510    519    520     1  0.0000000  1.2552000  3
    511    510    519    521     1  0.0000000  1.2552000  3
    512    510    513    516     1  0.0000000  0.6508444  3
    512    510    513    514     1  0.0000000  0.6508444  3
    512    510    513    515     1  0.0000000  0.6508444  3
    512    510    519    520     1  0.0000000  1.2552000  3
    512    510    519    521     1  0.0000000  1.2552000  3
    513    510    519    520     1  0.0000000  1.2552000  3
    513    510    519    521     1  0.0000000  1.2552000  3
    514    513    510    519     1  0.0000000  0.6508444  3
    514    513    516    522     1  0.0000000  1.0460000  1
    514    513    516    522     1  0.0000000  0.0000000  3
    514    513    516    517     1  0.0000000  0.6508444  3
    514    513    516    518     1  0.0000000  0.6508444  3
    515    513    510    519     1  0.0000000  0.6508444  3
    515    513    516    522     1  0.0000000  1.0460000  1
    515    513    516    522     1  0.0000000  0.0000000  3
    515    513    516    517     1  0.0000000  0.6508444  3
    515    513    516    518     1  0.0000000  0.6508444  3
    523    526    529    530     1  0.0000000  0.6508444  3
    523    526    529    531     1  0.0000000  0.6508444  3
    524    523    526    529     1  0.0000000  0.6508444  3
    524    523    526    527     1  0.0000000  0.6508444  3
    524    523    526    528     1  0.0000000  0.6508444  3
    524    523    532    533     1  0.0000000  1.2552000  3
    524    523    532    534     1  0.0000000  1.2552000  3
    525    523    526    529     1  0.0000000  0.6508444  3
    525    523    526    527     1  0.0000000  0.6508444  3
    525    523    526    528     1  0.0000000  0.6508444  3
    525    523    532    533     1  0.0000000  1.2552000  3
    525    523    532    534     1  0.0000000  1.2552000  3
    526    523    532    533     1  0.0000000  1.2552000  3
    526    523    532    534     1  0.0000000  1.2552000  3
    527    526    529    535     1  0.0000000  1.0460000  1
    527    526    529    535     1  0.0000000  0.0000000  3
    527    526    529    530     1  0.0000000  0.6508444  3
    527    526    529    531     1  0.0000000  0.6508444  3
    527    526    523    532     1  0.0000000  0.6508444  3
    528    526    529    535     1  0.0000000  1.0460000  1
    528    526    529    535     1  0.0000000  0.0000000  3
    528    526    529    530     1  0.0000000  0.6508444  3
    528    526    529    531     1  0.0000000  0.6508444  3
    528    526    523    532     1  0.0000000  0.6508444  3
    536    539    542    543     1  0.0000000  0.6508444  3
    536    539    542    544     1  0.0000000  0.6508444  3
    537    536    539    542     1  0.0000000  0.6508444  3
    537    536    539    540     1  0.0000000  0.6508444  3
    537    536    539    541     1  0.0000000  0.6508444  3
    537    536    545    546     1  0.0000000  1.2552000  3
    537    536    545    547     1  0.0000000  1.2552000  3
    538    536    539    542     1  0.0000000  0.6508444  3
    538    536    539    540     1  0.0000000  0.6508444  3
    538    536    539    541     1  0.0000000  0.6508444  3
    538    536    545    546     1  0.0000000  1.2552000  3
    538    536    545    547     1  0.0000000  1.2552000  3
    539    536    545    546     1  0.0000000  1.2552000  3
    539    536    545    547     1  0.0000000  1.2552000  3
    540    539    536    545     1  0.0000000  0.6508444  3
    540    539    542    548     1  0.0000000  1.0460000  1
    540    539    542    548     1  0.0000000  0.0000000  3
    540    539    542    543     1  0.0000000  0.6508444  3
    540    539    542    544     1  0.0000000  0.6508444  3
    541    539    536    545     1  0.0000000  0.6508444  3
    541    539    542    548     1  0.0000000  1.0460000  1
    541    539    542    548     1  0.0000000  0.0000000  3
    541    539    542    543     1  0.0000000  0.6508444  3
    541    539    542    544     1  0.0000000  0.6508444  3
    549    552    555    556     1  0.0000000  0.6508444  3
    549    552    555    557     1  0.0000000  0.6508444  3
    550    549    552    555     1  0.0000000  0.6508444  3
    550    549    552    553     1  0.0000000  0.6508444  3
    550    549    552    554     1  0.0000000  0.6508444  3
    550    549    558    559     1  0.0000000  1.2552000  3
    550    549    558    560     1  0.0000000  1.2552000  3
    551    549    552    555     1  0.0000000  0.6508444  3
    551    549    552    553     1  0.0000000  0.6508444  3
    551    549    552    554     1  0.0000000  0.6508444  3
    551    549    558    559     1  0.0000000  1.2552000  3
    551    549    558    560     1  0.0000000  1.2552000  3
    552    549    558    559     1  0.0000000  1.2552000  3
    552    549    558    560     1  0.0000000  1.2552000  3
    553    552    555    561     1  0.0000000  1.0460000  1
    553    552    555    561     1  0.0000000  0.0000000  3
    553    552    555    556     1  0.0000000  0.6508444  3
    553    552    555    557     1  0.0000000  0.6508444  3
    553    552    549    558     1  0.0000000  0.6508444  3
    554    552    555    561     1  0.0000000  1.0460000  1
    554    552    555    561     1  0.0000000  0.0000000  3
    554    552    555    556     1  0.0000000  0.6508444  3
    554    552    555    557     1  0.0000000  0.6508444  3
    554    552    549    558     1  0.0000000  0.6508444  3
    562    565    568    569     1  0.0000000  0.6508444  3
    562    565    568    570     1  0.0000000  0.6508444  3
    563    562    565    568     1  0.0000000  0.6508444  3
    563    562    565    566     1  0.0000000  0.6508444  3
    563    562    565    567     1  0.0000000  0.6508444  3
    563    562    571    572     1  0.0000000  1.2552000  3
    563    562    571    573     1  0.0000000  1.2552000  3
    564    562    565    568     1  0.0000000  0.6508444  3
    564    562    565    566     1  0.0000000  0.6508444  3
    564    562    565    567     1  0.0000000  0.6508444  3
    564    562    571    572     1  0.0000000  1.2552000  3
    564    562    571    573     1  0.0000000  1.2552000  3
    565    562    571    572     1  0.0000000  1.2552000  3
    565    562    571    573     1  0.0000000  1.2552000  3
    566    565    562    571     1  0.0000000  0.6508444  3
    566    565    568    574     1  0.0000000  1.0460000  1
    566    565    568    574     1  0.0000000  0.0000000  3
    566    565    568    569     1  0.0000000  0.6508444  3
    566    565    568    570     1  0.0000000  0.6508444  3
    567    565    562    571     1  0.0000000  0.6508444  3
    567    565    568    574     1  0.0000000  1.0460000  1
    567    565    568    574     1  0.0000000  0.0000000  3
    567    565    568    569     1  0.0000000  0.6508444  3
    567    565    568    570     1  0.0000000  0.6508444  3
    575    578    581    582     1  0.0000000  0.6508444  3
    575    578    581    583     1  0.0000000  0.6508444  3
    576    575    578    581     1  0.0000000  0.6508444  3
    576    575    578    579     1  0.0000000  0.6508444  3
    576    575    578    580     1  0.0000000  0.6508444  3
    576    575    584    585     1  0.0000000  1.2552000  3
    576    575    584    586     1  0.0000000  1.2552000  3
    577    575    578    581     1  0.0000000  0.6508444  3
    577    575    578    579     1  0.0000000  0.6508444  3
    577    575    578    580     1  0.0000000  0.6508444  3
    577    575    584    585     1  0.0000000  1.2552000  3
    577    575    584    586     1  0.0000000  1.2552000  3
    578    575    584    585     1  0.0000000  1.2552000  3
    578    575    584    586     1  0.0000000  1.2552000  3
    579    578    581    587     1  0.0000000  1.0460000  1
    579    578    581    587     1  0.0000000  0.0000000  3
    579    578    581    582     1  0.0000000  0.6508444  3
    579    578    581    583     1  0.0000000  0.6508444  3
    579    578    575    584     1  0.0000000  0.6508444  3
    580    578    581    587     1  0.0000000  1.0460000  1
    580    578    581    587     1  0.0000000  0.0000000  3
    580    578    581    582     1  0.0000000  0.6508444  3
    580    578    581    583     1  0.0000000  0.6508444  3
    580    578    575    584     1  0.0000000  0.6508444  3
    588    591    594    595     1  0.0000000  0.6508444  3
    588    591    594    596     1  0.0000000  0.6508444  3
    589    588    591    594     1  0.0000000  0.6508444  3
    589    588    591    592     1  0.0000000  0.6508444  3
    589    588    591    593     1  0.0000000  0.6508444  3
    589    588    597    598     1  0.0000000  1.2552000  3
    589    588    597    599     1  0.0000000  1.2552000  3
    590    588    591    594     1  0.0000000  0.6508444  3
    590    588    591    592     1  0.0000000  0.6508444  3
    590    588    591    593     1  0.0000000  0.6508444  3
    590    588    597    598     1  0.0000000  1.2552000  3
    590    588    597    599     1  0.0000000  1.2552000  3
    591    588    597    598     1  0.0000000  1.2552000  3
    591    588    597    599     1  0.0000000  1.2552000  3
    592    591    588    597     1  0.0000000  0.6508444  3
    592    591    594    600     1  0.0000000  1.0460000  1
    592    591    594    600     1  0.0000000  0.0000000  3
    592    591    594    595     1  0.0000000  0.6508444  3
    592    591    594    596     1  0.0000000  0.6508444  3
    593    591    588    597     1  0.0000000  0.6508444  3
    593    591    594    600     1  0.0000000  1.0460000  1
    593    591    594    600     1  0.0000000  0.0000000  3
    593    591    594    595     1  0.0000000  0.6508444  3
    593    591    594    596     1  0.0000000  0.6508444  3
    601    604    607    608     1  0.0000000  0.6508444  3
    601    604    607    609     1  0.0000000  0.6508444  3
    602    601    604    607     1  0.0000000  0.6508444  3
    602    601    604    605     1  0.0000000  0.6508444  3
    602    601    604    606     1  0.0000000  0.6508444  3
    602    601    610    611     1  0.0000000  1.2552000  3
    602    601    610    612     1  0.0000000  1.2552000  3
    603    601    604    607     1  0.0000000  0.6508444  3
    603    601    604    605     1  0.0000000  0.6508444  3
    603    601    604    606     1  0.0000000  0.6508444  3
    603    601    610    611     1  0.0000000  1.2552000  3
    603    601    610    612     1  0.0000000  1.2552000  3
    604    601    610    611     1  0.0000000  1.2552000  3
    604    601    610    612     1  0.0000000  1.2552000  3
    605    604    607    613     1  0.0000000  1.0460000  1
    605    604    607    613     1  0.0000000  0.0000000  3
    605    604    607    608     1  0.0000000  0.6508444  3
    605    604    607    609     1  0.0000000  0.6508444  3
    605    604    601    610     1  0.0000000  0.6508444  3
    606    604    607    613     1  0.0000000  1.0460000  1
    606    604    607    613     1  0.0000000  0.0000000  3
    606    604    607    608     1  0.0000000  0.6508444  3
    606    604    607    609     1  0.0000000  0.6508444  3
    606    604    601    610     1  0.0000000  0.6508444  3

;[ system ]
;; Name
;Generic title
;
;[ molecules ]
;; Compound       #mols
;g3npocore_petim      1
