G3NPOcore-PETIM in water
42755
    1aaa     O1    1   6.145   4.509   6.289  0.0557  0.5114 -0.0511
    1aaa     C1    2   6.216   4.409   6.355 -0.0723 -0.0725 -0.1624
    1aaa     H1    3   6.191   4.412   6.462  3.5594  0.4296  0.8301
    1aaa     H2    4   6.326   4.419   6.351 -0.1025  2.7523  2.2044
    1aaa     C2    5   6.191   4.643   6.330 -0.3172  0.2839 -0.8300
    1aaa     H3    6   6.292   4.655   6.289 -0.0445  0.5404 -0.1032
    1aaa     H4    7   6.205   4.656   6.438 -0.7935 -0.4928 -0.6638
    1aaa     C3    8   6.174   4.277   6.292  0.4306  0.1514  0.6826
    1aaa     H5    9   6.201   4.269   6.186 -1.5831  1.8298 -0.0282
    1aaa     H6   10   6.064   4.277   6.290  0.4030  1.3500 -2.0125
    1aaa     C4   11   6.091   4.745   6.273  0.2268  0.4722 -0.2426
    1aaa     H7   12   6.121   4.839   6.320  1.7149 -0.0180 -0.1494
    1aaa     H8   13   5.990   4.721   6.308 -0.1547  2.4042  0.0698
    1aaa     C5   14   6.223   4.156   6.381  0.0698  0.7123 -0.3721
    1aaa     H9   15   6.313   4.191   6.433 -0.3472 -1.3968  1.9817
    1aaa    H10   16   6.153   4.127   6.461  1.6768  0.4096  0.9582
    1aaa     C6   17   6.105   4.767   6.122 -0.0677 -0.5704 -0.2166
    1aaa    H11   18   6.099   4.672   6.069 -1.9270 -0.5245 -0.1373
    1aaa    H12   19   6.205   4.804   6.094 -1.1797  1.7881 -1.3576
    1aaa     N1   20   6.265   4.029   6.310  0.1515 -0.3016  0.6086
    1aaa     N2   21   6.016   4.874   6.063  0.0129 -0.5580 -0.8110
    1aaa     C7   22   6.063   4.917   5.929  0.3184  0.6185  0.9649
    1aaa    H13   23   6.162   4.964   5.930  0.0516  1.2090  2.4243
    1aaa    H14   24   6.086   4.834   5.861 -0.4779 -0.1262  1.5855
    1aaa     C8   25   5.871   4.835   6.078  0.9293 -0.0346  0.4482
    1aaa    H15   26   5.831   4.843   6.179 -0.8016  2.5073 -0.3277
    1aaa    H16   27   5.814   4.918   6.033 -0.3101 -0.4408  1.2477
    1aaa     C9   28   6.392   4.051   6.239  0.1507  0.2627  0.0055
    1aaa    H17   29   6.391   4.127   6.161  1.3398 -0.0129 -0.3029
    1aaa    H18   30   6.469   4.088   6.307  0.5492  0.8245 -0.7460
    1aaa    C10   31   6.158   3.983   6.217  0.2715 -0.0490 -0.0042
    1aaa    H19   32   6.140   4.064   6.146  1.9540  0.3621  0.0076
    1aaa    H20   33   6.199   3.901   6.157  0.2248  1.9524 -2.9321
    1aaa    C11   34   5.983   5.016   5.842 -1.4128 -0.1377 -0.2040
    1aaa    H21   35   5.900   4.957   5.800  0.3327 -0.5060 -3.4642
    1aaa    H22   36   5.952   5.089   5.917 -1.4683  0.7437 -1.0653
    1aaa    C12   37   5.813   4.710   6.004  0.9314  0.6159  0.3759
    1aaa    H23   38   5.710   4.742   5.987  0.2399 -1.3221  0.7209
    1aaa    H24   39   5.864   4.704   5.907  1.3963 -1.3034  0.7113
    1aaa    C13   40   6.455   3.917   6.192 -0.2031 -1.2045  0.0411
    1aaa    H25   41   6.430   3.831   6.255 -1.7676 -0.2403  0.8211
    1aaa    H26   42   6.404   3.898   6.097 -0.1544  2.7780 -0.9624
    1aaa    C14   43   6.025   3.929   6.283  0.7003  0.4408 -0.2153
    1aaa    H27   44   5.986   3.998   6.359  2.8411 -1.8656  3.2670
    1aaa    H28   45   5.942   3.922   6.211  1.2710 -0.8693 -0.7716
    1aaa    C15   46   6.056   3.798   6.356 -0.4466  0.0899 -0.3342
    1aaa    H29   47   6.113   3.818   6.448 -2.2838  1.4197  0.5854
    1aaa    H30   48   5.965   3.759   6.402 -0.5877  0.2573 -0.4697
    1aaa    C16   49   6.608   3.927   6.164 -0.3565 -0.6391 -0.2947
    1aaa    H31   50   6.663   3.950   6.257  0.1695 -2.1104 -0.2172
    1aaa    H32   51   6.646   3.827   6.138  0.6363  0.2017 -2.2969
    1aaa    C17   52   5.816   4.583   6.085 -0.3135  0.3111 -0.3604
    1aaa    H33   53   5.912   4.575   6.137 -1.6440  0.6780  2.3970
    1aaa    H34   54   5.740   4.606   6.162 -1.6778 -0.9594 -1.2725
    1aaa    C18   55   6.060   5.105   5.734 -0.1165 -0.2705 -0.4181
    1aaa    H35   56   6.075   5.203   5.782 -2.3949 -0.5693  1.0481
    1aaa    H36   57   6.161   5.066   5.716 -0.3380 -0.4788 -1.2503
    2bbb     N1   58   6.257   3.557   5.867  0.4262 -0.0107  0.4718
    2bbb     C1   59   6.370   3.625   5.803 -0.5974  0.3902  0.0888
    2bbb     H1   60   6.335   3.717   5.753  2.2496  0.8644 -1.1919
    2bbb     H2   61   6.404   3.563   5.720  0.6055 -0.0360  0.8816
    2bbb     C2   62   6.149   3.510   5.773  0.1478 -0.4144  0.1283
    2bbb     H3   63   6.086   3.433   5.819  0.7531 -1.0087 -0.0249
    2bbb     H4   64   6.189   3.466   5.681 -3.0243  0.0442 -1.6380
    2bbb     C3   65   6.206   3.629   5.988 -0.4653 -0.4669 -0.3051
    2bbb     H5   66   6.166   3.728   5.964 -0.4955 -0.4767 -0.2945
    2bbb     H6   67   6.287   3.636   6.062 -1.9609 -0.0385  1.3554
    2bbb     C4   68   6.102   3.551   6.058 -0.0273  0.5583  0.0335
    2bbb     H7   69   6.142   3.466   6.114 -1.1663 -0.1821 -0.2429
    2bbb     H8   70   6.022   3.510   5.995  1.4307  0.4906 -1.8475
    2bbb     C5   71   6.489   3.666   5.889  0.0294 -0.4056 -0.2439
    2bbb     H9   72   6.440   3.736   5.958 -0.6427 -1.5250  0.4400
    2bbb    H10   73   6.552   3.727   5.822 -0.1070 -1.1558 -1.0838
    2bbb     C6   74   6.050   3.621   5.731  0.1961  0.5324 -0.3111
    2bbb    H11   75   6.084   3.726   5.724  0.1735  0.4162 -3.3838
    2bbb    H12   76   5.971   3.623   5.807  0.4434  1.3817 -0.0606
    2bbb     C7   77   6.031   3.642   6.166 -0.2591 -0.1123 -0.2562
    2bbb    H13   78   5.962   3.576   6.221 -1.8480  0.3599 -1.5846
    2bbb    H14   79   5.982   3.726   6.115  2.3337 -0.0473 -2.9067
    2bbb     C8   80   5.983   3.583   5.593  0.0449 -0.4220  0.1208
    2bbb    H15   81   5.896   3.644   5.565  1.0896  0.3060 -1.7229
    2bbb    H16   82   5.950   3.479   5.593 -0.9193 -0.1404 -1.2806
    2bbb     C9   83   6.566   3.552   5.960 -0.5745  0.0023  0.5093
    2bbb    H17   84   6.520   3.539   6.059  0.1518 -1.2683  0.7045
    2bbb    H18   85   6.671   3.579   5.978 -0.1355 -1.2639 -0.0856
    2bbb     O1   86   6.116   3.698   6.276  0.0731  0.8840  0.3549
    3bbb     N1   87   6.914   3.896   5.694 -0.8646 -0.4882 -0.4774
    3bbb     C1   88   6.966   3.757   5.723 -0.3963 -0.5882  0.0188
    3bbb     H1   89   6.921   3.726   5.819 -1.1204  0.3845  0.0051
    3bbb     H2   90   7.075   3.758   5.734 -0.1405  1.7872 -1.9279
    3bbb     C2   91   6.962   3.961   5.568 -0.0708 -0.4274 -0.0851
    3bbb     H3   92   6.903   4.048   5.538 -0.0900 -0.6263 -0.6465
    3bbb     H4   93   6.959   3.889   5.485  0.4694 -0.3921 -0.1374
    3bbb     C3   94   6.910   3.983   5.814 -0.5431 -0.6442  0.2132
    3bbb     H5   95   6.914   4.088   5.784  2.1527 -0.5680  0.5879
    3bbb     H6   96   7.008   3.980   5.863 -0.4635 -1.4087  0.0235
    3bbb     C4   97   6.786   3.945   5.901 -0.0117 -0.1589  0.1538
    3bbb     H7   98   6.795   3.841   5.937  3.3052 -0.6887 -1.7837
    3bbb     H8   99   6.697   3.951   5.838 -0.2915  2.0417  0.7105
    3bbb     C5  100   6.916   3.660   5.608 -0.3406  0.6557 -0.3921
    3bbb     H9  101   6.931   3.555   5.637  1.3541  1.2878  1.2067
    3bbb    H10  102   6.966   3.680   5.513  1.3467  0.5205  0.4341
    3bbb     C6  103   7.111   3.995   5.585  0.1736 -0.1485 -0.0574
    3bbb    H11  104   7.163   3.904   5.616 -1.6401 -0.7929  1.2205
    3bbb    H12  105   7.130   4.078   5.654 -0.7358 -0.1711  0.2394
    3bbb     C7  106   6.764   4.043   6.018 -0.3985 -0.3856  0.6676
    3bbb    H13  107   6.768   4.145   5.978 -0.6078 -0.2524  0.9784
    3bbb    H14  108   6.842   4.046   6.096  1.6873 -3.0703 -1.1404
    3bbb     C8  109   7.185   4.045   5.461 -0.8386 -0.7922 -0.1164
    3bbb    H15  110   7.213   3.980   5.377  2.5945  1.1503 -0.6538
    3bbb    H16  111   7.284   4.080   5.494 -1.3565  1.5331 -0.8597
    3bbb     C9  112   6.761   3.681   5.585  1.1668  0.4316  0.4936
    3bbb    H17  113   6.727   3.784   5.600  0.3454  0.2406  0.0088
    3bbb    H18  114   6.710   3.634   5.670 -2.1338  1.9339 -0.4863
    3bbb     O1  115   6.631   4.026   6.063  0.8757 -0.4778  0.2413
    4bbb     N1  116   5.988   4.111   5.877 -0.0575 -0.4207 -0.0059
    4bbb     C1  117   5.911   4.032   5.783 -0.3056  0.3109  0.3369
    4bbb     H1  118   5.964   4.013   5.689 -2.0695 -0.5055 -0.5485
    4bbb     H2  119   5.829   4.095   5.746 -1.4488 -0.5955  1.2611
    4bbb     C2  120   6.131   4.137   5.838 -0.3506 -0.1289  0.1519
    4bbb     H3  121   6.171   4.197   5.921  0.0873 -0.2701  0.0468
    4bbb     H4  122   6.144   4.190   5.742 -0.3342 -3.4424 -1.8271
    4bbb     C3  123   5.930   4.242   5.918  0.2580  1.0075 -0.0672
    4bbb     H5  124   5.907   4.301   5.828  0.5717 -0.7451 -1.3645
    4bbb     H6  125   6.001   4.293   5.984 -0.2890  0.3743  1.0358
    4bbb     C4  126   5.788   4.222   5.986 -0.3513  0.4863  0.5057
    4bbb     H7  127   5.791   4.130   6.046 -0.0035 -0.6983 -1.2515
    4bbb     H8  128   5.698   4.212   5.924 -0.9051 -0.2602  1.3957
    4bbb     C5  129   5.842   3.903   5.835 -0.0886 -0.6244  0.2942
    4bbb     H9  130   5.804   3.927   5.935 -0.0325 -0.6610  0.3240
    4bbb    H10  131   5.910   3.818   5.852  0.4581 -0.1330  0.5775
    4bbb     C6  132   6.227   4.017   5.834 -0.2671  0.3713  0.0037
    4bbb    H11  133   6.199   3.934   5.769  0.7907 -0.5821  0.7191
    4bbb    H12  134   6.220   3.974   5.934  0.6101 -1.6763 -0.7615
    4bbb     C7  135   5.778   4.341   6.077  0.5298 -0.5033 -0.1288
    4bbb    H13  136   5.866   4.334   6.142 -0.0998  0.9755  0.9082
    4bbb    H14  137   5.687   4.331   6.137 -1.6372 -0.9983 -3.2251
    4bbb     C8  138   6.373   4.047   5.800  0.2382  0.3613  0.1856
    4bbb    H15  139   6.431   3.970   5.851 -0.6058 -2.2030 -2.4459
    4bbb    H16  140   6.390   4.147   5.844  0.9375  0.7135 -0.8663
    4bbb     C9  141   5.731   3.847   5.742  0.3735 -0.5019  0.0039
    4bbb    H17  142   5.759   3.809   5.643 -1.2563 -1.6672 -0.0650
    4bbb    H18  143   5.663   3.931   5.724  0.4002 -0.4640  0.0806
    4bbb     O1  144   5.785   4.464   6.003  0.0678 -0.1368 -0.3970
    5bbb     N1  145   5.878   4.817   5.340  1.3441 -0.4263  0.3887
    5bbb     C1  146   5.948   4.711   5.417  0.5725  0.3050  0.0038
    5bbb     H1  147   6.055   4.732   5.429  0.3834  0.0581  2.7666
    5bbb     H2  148   5.952   4.613   5.369  3.5235  0.4644 -0.2778
    5bbb     C2  149   5.741   4.780   5.277  0.9142 -0.0649 -0.4440
    5bbb     H3  150   5.714   4.862   5.209 -0.3489 -1.4193 -1.6255
    5bbb     H4  151   5.662   4.788   5.353 -0.7914  1.6768 -2.2685
    5bbb     C3  152   5.892   4.957   5.396 -0.1673  0.6004 -0.3461
    5bbb     H5  153   5.837   4.962   5.491 -0.9588  0.0249 -0.7616
    5bbb     H6  154   5.847   5.034   5.332 -0.1790 -0.5176 -1.7161
    5bbb     C4  155   6.038   4.995   5.429 -0.2344  0.0362 -0.4947
    5bbb     H7  156   6.084   5.002   5.329 -1.5298  0.5140 -1.0827
    5bbb     H8  157   6.103   4.929   5.488  2.0520  1.6336 -1.0657
    5bbb     C5  158   5.879   4.691   5.559 -0.4965 -0.4141  0.0153
    5bbb     H9  159   5.780   4.652   5.535 -0.4720  0.6103 -1.9218
    5bbb    H10  160   5.872   4.784   5.616  1.3742  0.3412 -0.8923
    5bbb     C6  161   5.732   4.645   5.198 -0.2984 -0.2173 -0.2546
    5bbb    H11  162   5.746   4.565   5.271 -1.3518 -0.7413 -0.6169
    5bbb    H12  163   5.812   4.634   5.123 -0.5240  0.8183 -0.6694
    5bbb     C7  164   6.039   5.132   5.497  0.1057  0.0196 -0.1439
    5bbb    H13  165   5.977   5.201   5.437 -3.1051 -1.3461  1.3458
    5bbb    H14  166   6.141   5.173   5.502  0.6948 -1.1297 -1.9007
    5bbb     C8  167   5.593   4.617   5.129  0.1715  0.1910  0.5841
    5bbb    H15  168   5.596   4.520   5.077  2.3469  0.1364  0.7392
    5bbb    H16  169   5.570   4.686   5.047 -3.4903 -0.8921  0.4993
    5bbb     C9  170   5.946   4.578   5.640 -0.4173 -0.0327 -0.5101
    5bbb    H17  171   5.951   4.490   5.573 -1.5304 -1.6225  1.3818
    5bbb    H18  172   5.872   4.559   5.718  0.2681 -0.3206  0.0856
    5bbb     O1  173   5.969   5.122   5.623 -0.5652 -0.3519 -0.4811
    6bbb     N1  174   6.095   4.096   5.361  0.8177 -0.1184  0.3023
    6bbb     C1  175   6.107   4.233   5.425 -0.6960 -0.4556  0.5621
    6bbb     H1  176   6.084   4.240   5.532  1.0550 -0.6363  0.9791
    6bbb     H2  177   6.027   4.298   5.388 -0.1790 -0.7403 -1.1027
    6bbb     C2  178   6.115   4.086   5.212  0.1537  0.1065 -0.4718
    6bbb     H3  179   6.065   3.994   5.179  3.0856 -3.1172  3.0376
    6bbb     H4  180   6.220   4.082   5.181  0.6101  1.3612  0.8135
    6bbb     C3  181   6.158   3.981   5.433 -0.4520 -0.2992 -0.3151
    6bbb     H5  182   6.175   4.014   5.536  1.7132 -2.2557  0.0539
    6bbb     H6  183   6.257   3.961   5.390 -1.3301 -1.6182 -1.9026
    6bbb     C4  184   6.068   3.853   5.445  0.6809  0.5350 -0.0509
    6bbb     H7  185   6.008   3.839   5.354 -1.6970  1.3233  1.3048
    6bbb     H8  186   5.989   3.856   5.520  0.9542 -3.5964  0.6562
    6bbb     C5  187   6.245   4.318   5.413  0.6641  0.4485 -0.2678
    6bbb     H9  188   6.306   4.280   5.330  0.2931 -1.6664  0.3503
    6bbb    H10  189   6.311   4.301   5.499  0.9976  2.5182 -0.0778
    6bbb     C6  190   6.053   4.199   5.128 -0.4005  0.6135 -0.2048
    6bbb    H11  191   6.097   4.292   5.165  1.4380 -1.3404  2.9396
    6bbb    H12  192   5.943   4.206   5.126 -0.4508 -0.1102 -0.5422
    6bbb     C7  193   6.164   3.727   5.471 -0.3886 -1.2069  0.1847
    6bbb    H13  194   6.225   3.747   5.560 -1.3128 -0.3873  0.6577
    6bbb    H14  195   6.229   3.711   5.385 -0.1011 -1.8963  0.5171
    6bbb     C8  196   6.098   4.192   4.979  0.0270  0.4694  0.0912
    6bbb    H15  197   6.081   4.098   4.927  2.1194  0.8085 -1.3184
    6bbb    H16  198   6.207   4.203   4.980  0.3179 -1.9794  0.7016
    6bbb     C9  199   6.230   4.470   5.412  0.0979 -0.0017 -0.1128
    6bbb    H17  200   6.145   4.489   5.477 -1.1979 -1.0043 -1.4345
    6bbb    H18  201   6.209   4.509   5.311 -0.5270 -2.4157 -0.9786
    6bbb     O1  202   6.086   3.606   5.489 -0.1286  0.0345 -0.3291
    7bbb     N1  203   6.682   3.165   5.552  0.1162  0.1927  0.4974
    7bbb     C1  204   6.552   3.085   5.547  0.2737 -0.1754 -0.3140
    7bbb     H1  205   6.539   3.051   5.650  0.1348 -0.2908 -0.3708
    7bbb     H2  206   6.573   2.992   5.493 -3.2401 -1.2969  0.0281
    7bbb     C2  207   6.721   3.204   5.407 -0.2687 -0.3160 -0.6380
    7bbb     H3  208   6.641   3.265   5.364 -1.6289  0.1530  2.3502
    7bbb     H4  209   6.747   3.106   5.366 -0.6130 -0.3246 -0.8403
    7bbb     C3  210   6.688   3.273   5.653  0.1576  0.9888  0.0278
    7bbb     H5  211   6.618   3.352   5.621 -1.0438  0.7412  1.8730
    7bbb     H6  212   6.788   3.317   5.666  0.3921  0.9384 -1.4240
    7bbb     C4  213   6.650   3.226   5.800  0.0301 -0.1597  0.3397
    7bbb     H7  214   6.714   3.144   5.834  0.1565 -0.2308 -0.0699
    7bbb     H8  215   6.549   3.183   5.808  0.3187 -1.3982 -1.8701
    7bbb     C5  216   6.429   3.162   5.492  0.6507  0.8877  0.1933
    7bbb     H9  217   6.446   3.175   5.385 -0.7623 -0.6818 -0.2642
    7bbb    H10  218   6.425   3.263   5.536  0.4212  1.7143 -1.6061
    7bbb     C6  219   6.853   3.276   5.400  0.5272  0.6091  0.3919
    7bbb    H11  220   6.829   3.378   5.432  0.6690  0.7670  0.0010
    7bbb    H12  221   6.881   3.287   5.294  1.8655 -1.4549  0.4742
    7bbb     C7  222   6.669   3.341   5.899 -0.2291  0.2371  0.4505
    7bbb    H13  223   6.765   3.393   5.891  0.9879 -1.7274  1.3876
    7bbb    H14  224   6.671   3.294   5.998  0.0159 -1.4488 -0.3038
    7bbb     C8  225   6.984   3.217   5.457  0.1456 -0.0150 -0.3602
    7bbb    H15  226   6.997   3.111   5.432 -1.2175 -0.1228 -0.7192
    7bbb    H16  227   6.981   3.221   5.566  0.5233  1.1835 -0.3797
    7bbb     C9  228   6.288   3.090   5.515 -0.4972 -0.4435  0.1053
    7bbb    H17  229   6.242   3.102   5.614 -0.3644  1.2159 -0.0072
    7bbb    H18  230   6.305   2.985   5.490  1.0965 -0.2892  0.4636
    7bbb     O1  231   6.553   3.432   5.886 -0.4371 -0.1868  0.6176
    8bbb     N1  232   7.233   4.510   5.035 -0.4285 -0.0010 -0.1541
    8bbb     C1  233   7.212   4.634   5.124 -1.2611  0.4267  0.1310
    8bbb     H1  234   7.307   4.660   5.172 -0.9002 -0.1860 -0.2283
    8bbb     H2  235   7.128   4.623   5.194 -0.4832 -0.2767  0.9877
    8bbb     C2  236   7.316   4.529   4.911 -0.5184 -0.3842  0.4674
    8bbb     H3  237   7.404   4.586   4.944 -0.8204  0.4128 -0.0624
    8bbb     H4  238   7.260   4.587   4.836  2.1594  0.4674 -1.0098
    8bbb     C3  239   7.263   4.387   5.115 -0.6719 -0.0717  0.8451
    8bbb     H5  240   7.367   4.381   5.148 -0.0418 -0.3603 -1.0589
    8bbb     H6  241   7.260   4.303   5.044  0.3731  0.4940  0.1033
    8bbb     C4  242   7.168   4.349   5.227  0.2180  0.0474 -0.5368
    8bbb     H7  243   7.063   4.346   5.193 -1.4064  3.1308  3.3882
    8bbb     H8  244   7.179   4.419   5.310 -0.2843 -1.0548  0.5073
    8bbb     C5  245   7.167   4.761   5.054  0.2803 -0.1152  0.1506
    8bbb     H9  246   7.242   4.789   4.979  1.3043  0.3067  1.2854
    8bbb    H10  247   7.179   4.838   5.131  0.1582  0.9897 -0.9026
    8bbb     C6  248   7.364   4.401   4.836  0.2170 -0.1303 -0.8464
    8bbb    H11  249   7.284   4.327   4.841  0.7328 -0.6284  1.0503
    8bbb    H12  250   7.445   4.353   4.892 -2.0422  0.7884  3.7369
    8bbb     C7  251   7.200   4.206   5.284  0.2924  0.2654 -0.5361
    8bbb    H13  252   7.306   4.203   5.312  0.2398  0.1149 -0.3555
    8bbb    H14  253   7.179   4.132   5.205 -5.0145  2.2046 -1.3269
    8bbb     C8  254   7.390   4.429   4.691  0.5500 -0.4826 -0.7436
    8bbb    H15  255   7.295   4.449   4.639  0.9784  0.0212 -1.3473
    8bbb    H16  256   7.444   4.347   4.643  0.7848 -0.7609 -0.0089
    8bbb     C9  257   7.023   4.757   4.993  0.0613  0.8015  0.5323
    8bbb    H17  258   7.011   4.662   4.939 -0.7497  1.1446  0.0931
    8bbb    H18  259   7.009   4.840   4.922 -2.3310 -0.0661 -0.1000
    8bbb     O1  260   7.125   4.161   5.400  0.4258 -0.2401 -0.3933
    9bbb     N1  261   6.511   3.637   5.067  0.0496  0.3366 -0.0530
    9bbb     C1  262   6.367   3.678   5.043  0.3988 -0.2250  0.0055
    9bbb     H1  263   6.298   3.627   5.112 -1.7251  2.1691 -0.2001
    9bbb     H2  264   6.338   3.650   4.941 -0.9580 -0.2982  0.3937
    9bbb     C2  265   6.532   3.498   5.011  0.7621  1.0024  0.5521
    9bbb     H3  266   6.511   3.491   4.904  0.4793  1.8569  0.5460
    9bbb     H4  267   6.470   3.427   5.067 -2.3051  2.9021 -0.1649
    9bbb     C3  268   6.571   3.673   5.196 -0.0206  0.6365 -0.0178
    9bbb     H5  269   6.575   3.782   5.211 -1.1444  0.4821  1.5915
    9bbb     H6  270   6.677   3.648   5.179 -0.0277  0.5604  0.0508
    9bbb     C4  271   6.522   3.591   5.316  0.1955 -0.1683 -0.1505
    9bbb     H7  272   6.559   3.488   5.305 -2.3099 -1.2022  0.2548
    9bbb     H8  273   6.412   3.584   5.310  0.1996  0.4339 -0.9574
    9bbb     C5  274   6.346   3.824   5.064 -0.5228  0.2471 -0.5207
    9bbb     H9  275   6.381   3.851   5.165 -2.9688  1.9555 -0.0393
    9bbb    H10  276   6.239   3.847   5.070 -0.2186  1.7064 -0.0591
    9bbb     C6  277   6.683   3.447   5.019  0.6192  0.2920 -0.0818
    9bbb    H11  278   6.729   3.464   5.117 -1.2860 -1.1974  1.1503
    9bbb    H12  279   6.734   3.513   4.947 -0.2382  0.1823 -0.8168
    9bbb     C7  280   6.580   3.660   5.441 -0.3038  0.0644 -0.2743
    9bbb    H13  281   6.514   3.634   5.525 -0.9510  0.3067 -0.7101
    9bbb    H14  282   6.573   3.769   5.436 -1.7308 -0.0783 -1.8050
    9bbb     C8  283   6.700   3.299   4.978 -0.3101  0.0443 -0.2574
    9bbb    H15  284   6.808   3.282   4.971 -0.2511 -0.7920  1.9473
    9bbb    H16  285   6.662   3.284   4.875  0.3828 -2.7081 -0.2039
    9bbb     C9  286   6.412   3.913   4.950  0.6932  0.6975 -0.0763
    9bbb    H17  287   6.509   3.866   4.929  0.8201  1.0484 -0.2912
    9bbb    H18  288   6.439   4.015   4.984  0.9308 -0.2462  2.8856
    9bbb     O1  289   6.716   3.630   5.462 -0.3838 -0.5110  0.4956
   10bbb     N1  290   6.677   4.047   5.265 -0.2082 -0.0083 -0.0386
   10bbb     C1  291   6.596   4.142   5.187  0.1218  0.3856 -0.8032
   10bbb     H1  292   6.492   4.152   5.220  0.5060  0.7246  0.3597
   10bbb     H2  293   6.594   4.104   5.084  2.0845 -2.5209  0.1401
   10bbb     C2  294   6.801   3.994   5.213  0.1210  0.0121 -0.4754
   10bbb     H3  295   6.825   3.902   5.268 -1.5161  0.6448  1.4238
   10bbb     H4  296   6.883   4.064   5.234 -2.1864  2.9798 -0.7342
   10bbb     C3  297   6.677   4.053   5.414 -0.3473 -0.3360  0.2562
   10bbb     H5  298   6.735   4.142   5.442  0.2207 -0.0211 -1.7744
   10bbb     H6  299   6.713   3.961   5.462 -2.4281 -1.6098 -0.5141
   10bbb     C4  300   6.536   4.054   5.471  0.3124  0.5785  0.4328
   10bbb     H7  301   6.481   3.982   5.410  0.2000  1.1351 -0.1391
   10bbb     H8  302   6.486   4.150   5.450  2.4022  1.1747 -2.2361
   10bbb     C5  303   6.656   4.282   5.191 -0.7163 -0.3204 -0.4047
   10bbb     H9  304   6.763   4.276   5.170 -0.4338 -0.5897  1.0033
   10bbb    H10  305   6.637   4.326   5.290 -0.8657 -1.7051  0.1984
   10bbb     C6  306   6.811   3.945   5.066 -0.0942  0.0282  0.4891
   10bbb    H11  307   6.788   4.024   4.994 -1.4595 -0.0189  0.8442
   10bbb    H12  308   6.724   3.878   5.073 -1.7145  1.8994 -0.6431
   10bbb     C7  309   6.522   4.029   5.614  0.1009 -0.2041  0.5129
   10bbb    H13  310   6.596   4.096   5.658  0.7681 -0.1048 -0.7177
   10bbb    H14  311   6.553   3.925   5.632 -0.6444 -0.2955  1.3178
   10bbb     C8  312   6.942   3.862   5.021 -0.0823  0.0830  1.0163
   10bbb    H15  313   7.036   3.918   5.014 -0.0854  0.1002  1.1045
   10bbb    H16  314   6.927   3.830   4.918  0.1789  1.3173  0.5711
   10bbb     C9  315   6.606   4.374   5.079  0.0009 -0.3811  0.7425
   10bbb    H17  316   6.626   4.317   4.988  3.2534  0.2845  0.9108
   10bbb    H18  317   6.672   4.459   5.059 -0.6725  0.0928  0.4866
   10bbb     O1  318   6.391   4.052   5.658  0.3604  0.0063 -0.7397
   11bbb     N1  319   5.230   3.765   5.881  0.3639 -0.4495 -0.3044
   11bbb     C1  320   5.196   3.682   6.000  0.7141 -0.0891 -0.0233
   11bbb     H1  321   5.228   3.724   6.096  0.4403  0.9693 -0.3914
   11bbb     H2  322   5.255   3.590   5.989  0.2334 -0.2759 -1.2069
   11bbb     C2  323   5.182   3.903   5.906 -0.2263 -0.2611  0.3384
   11bbb     H3  324   5.255   3.958   5.967 -0.3715 -0.3594  0.5987
   11bbb     H4  325   5.083   3.918   5.952  0.1146  0.0764  0.9727
   11bbb     C3  326   5.374   3.770   5.858 -0.3775 -0.8513 -0.0846
   11bbb     H5  327   5.419   3.800   5.954  0.9312 -0.5760 -0.7509
   11bbb     H6  328   5.400   3.850   5.788  1.7384  2.4112  3.9507
   11bbb     C4  329   5.449   3.642   5.817  0.6563 -0.5568  0.3260
   11bbb     H7  330   5.379   3.575   5.767 -1.1213  1.5921 -0.2233
   11bbb     H8  331   5.480   3.583   5.904 -0.5404 -2.0953 -0.2618
   11bbb     C5  332   5.048   3.633   6.006 -0.5466 -0.0041  0.6068
   11bbb     H9  333   5.013   3.619   5.903 -1.1829  1.3621  0.6178
   11bbb    H10  334   4.985   3.708   6.056 -1.7701 -1.6003  1.5432
   11bbb     C6  335   5.172   3.990   5.780 -0.4580  0.4958  0.2810
   11bbb    H11  336   5.109   3.927   5.715  1.9668 -0.5711 -1.1829
   11bbb    H12  337   5.269   4.003   5.731  1.1456 -1.2628  2.7832
   11bbb     C7  338   5.572   3.679   5.730 -0.5883  0.1598  0.4348
   11bbb    H13  339   5.555   3.733   5.636  0.1507  0.4745  0.4741
   11bbb    H14  340   5.622   3.584   5.707 -0.6310  0.6372 -1.8539
   11bbb     C8  341   5.099   4.127   5.816  0.0698  0.2358  0.5405
   11bbb    H15  342   5.001   4.090   5.848  1.1374 -2.0294  1.4417
   11bbb    H16  343   5.101   4.192   5.728  1.9031 -0.3711  0.0944
   11bbb     C9  344   5.034   3.493   6.075 -0.1676  0.0577  0.0006
   11bbb    H17  345   4.933   3.452   6.060 -0.3534  0.7781 -0.8446
   11bbb    H18  346   5.044   3.505   6.183 -1.7004 -0.6479  0.2460
   11bbb     O1  347   5.661   3.747   5.819  0.4099  0.0483 -0.2688
   12bbb     N1  348   5.463   4.497   5.641  0.0520 -0.5340 -0.2733
   12bbb     C1  349   5.500   4.637   5.689 -0.1152 -0.2061  0.3367
   12bbb     H1  350   5.533   4.699   5.605 -1.0230  1.2411  1.0080
   12bbb     H2  351   5.587   4.627   5.755  0.5044  0.8140 -0.3009
   12bbb     C2  352   5.481   4.387   5.746  0.1704 -0.4236 -0.1645
   12bbb     H3  353   5.388   4.386   5.803  1.0850 -0.9811  1.3682
   12bbb     H4  354   5.566   4.412   5.810 -0.1265 -0.7321  0.3617
   12bbb     C3  355   5.345   4.487   5.553 -0.3423 -0.1798 -0.5122
   12bbb     H5  356   5.256   4.525   5.604  0.6988 -0.4540  1.5923
   12bbb     H6  357   5.328   4.383   5.523 -2.4879 -0.2464  0.7526
   12bbb     C4  358   5.362   4.575   5.429 -1.0520 -0.5109  0.1181
   12bbb     H7  359   5.364   4.680   5.459 -0.4351 -0.5860  0.3518
   12bbb     H8  360   5.273   4.568   5.365 -0.4718 -0.2538 -0.7420
   12bbb     C5  361   5.391   4.705   5.775 -0.1410 -0.4082  0.0261
   12bbb     H9  362   5.425   4.699   5.879  2.4312 -1.1546 -0.7759
   12bbb    H10  363   5.290   4.662   5.773 -0.9817  1.4799  0.2500
   12bbb     C6  364   5.500   4.254   5.688 -0.2629  0.5638  0.0670
   12bbb    H11  365   5.419   4.221   5.623  0.4147  0.1914 -0.6063
   12bbb    H12  366   5.502   4.174   5.763  1.5956 -0.9514 -1.4955
   12bbb     C7  367   5.475   4.532   5.337 -0.6637  0.0657  0.2366
   12bbb    H13  368   5.462   4.431   5.296  0.8282  1.2415 -3.5588
   12bbb    H14  369   5.571   4.517   5.386  0.6388 -0.6647 -2.3419
   12bbb     C8  370   5.636   4.247   5.609  0.4043  0.2627 -0.6113
   12bbb    H15  371   5.722   4.277   5.671 -1.4986 -1.4079  3.1760
   12bbb    H16  372   5.631   4.309   5.518  0.5765  0.6662 -0.3478
   12bbb     C9  373   5.386   4.855   5.749 -0.1914 -0.5302  0.7390
   12bbb    H17  374   5.300   4.894   5.804 -0.4713 -1.3712  0.9238
   12bbb    H18  375   5.362   4.866   5.643 -0.0944 -1.9366  0.5473
   12bbb     O1  376   5.480   4.622   5.224 -0.0322  0.0348  0.2288
   13bbb     N1  377   6.473   4.459   5.968  0.7945  0.3068  0.3731
   13bbb     C1  378   6.517   4.366   6.072  0.1352 -0.3764  0.4784
   13bbb     H1  379   6.518   4.259   6.048  1.1396 -0.3058  0.1532
   13bbb     H2  380   6.448   4.386   6.155 -3.5392 -2.2367 -1.8655
   13bbb     C2  381   6.580   4.477   5.860 -0.3769 -0.4777 -0.4200
   13bbb     H3  382   6.668   4.509   5.917 -0.1831 -1.4070 -0.1923
   13bbb     H4  383   6.554   4.561   5.794 -0.7452  0.6110  1.0302
   13bbb     C3  384   6.330   4.436   5.925  0.4300 -0.3433  0.2170
   13bbb     H5  385   6.268   4.433   6.016  1.3967  1.8655  1.0237
   13bbb     H6  386   6.316   4.341   5.872  1.0008  0.3376 -1.1945
   13bbb     C4  387   6.277   4.547   5.836 -0.6210  0.0717  0.4391
   13bbb     H7  388   6.338   4.567   5.747 -1.5900  0.7329 -0.1024
   13bbb     H8  389   6.282   4.641   5.892 -0.6335  1.8301 -2.3074
   13bbb     C5  390   6.656   4.394   6.129  0.2992 -0.4900  0.2157
   13bbb     H9  391   6.661   4.503   6.146  0.8655 -0.5456  0.4040
   13bbb    H10  392   6.735   4.358   6.064 -0.5751  0.5873 -1.5080
   13bbb     C6  393   6.618   4.349   5.781 -0.1973 -0.7436 -0.4449
   13bbb    H11  394   6.534   4.317   5.719 -1.7424  0.5460  0.9123
   13bbb    H12  395   6.631   4.262   5.846  1.9833 -0.1396  0.0119
   13bbb     C7  396   6.127   4.522   5.797 -0.3236  0.2278 -0.6411
   13bbb    H13  397   6.068   4.527   5.889  0.2755  0.8527 -0.2829
   13bbb    H14  398   6.112   4.423   5.753  0.4549  0.5915 -1.7887
   13bbb     C8  399   6.741   4.368   5.688 -0.0049  0.2400 -0.5761
   13bbb    H15  400   6.765   4.282   5.624 -0.7123 -0.4727  0.0920
   13bbb    H16  401   6.829   4.396   5.747 -1.5438  1.6824  1.1633
   13bbb     C9  402   6.671   4.325   6.265 -0.0375  0.3356 -0.5572
   13bbb    H17  403   6.635   4.222   6.253  1.4623 -0.5560  1.8809
   13bbb    H18  404   6.615   4.366   6.350  2.3924 -3.4921  3.2933
   13bbb     O1  405   6.074   4.616   5.699 -0.1845  0.3228 -0.3396
   14ccc     C1  406   6.027   4.423   4.555  0.5761 -0.2779  0.4815
   14ccc     H1  407   6.086   4.515   4.551  1.7771 -0.9952  1.0510
   14ccc     H2  408   6.091   4.342   4.516  1.1700  0.3012  0.2332
   14ccc     C2  409   5.975   4.394   4.695 -0.5889 -0.4077  0.1639
   14ccc     H3  410   5.982   4.483   4.759 -0.1902 -0.4672  0.2034
   14ccc     H4  411   5.872   4.355   4.697 -1.6174  1.8799 -2.0921
   14ccc     C3  412   6.063   4.291   4.765  0.0777  0.4586 -0.4704
   14ccc     H5  413   6.166   4.312   4.735 -0.3045  0.5546 -1.8002
   14ccc     H6  414   6.034   4.193   4.724 -0.3551  1.2097 -2.0126
   14ccc     N1  415   5.916   4.450   4.455 -0.2640  0.1383 -0.1216
   14ccc     H7  416   5.848   4.374   4.459  0.4798 -0.6545 -1.4393
   14ccc     H8  417   5.869   4.528   4.499 -1.2912  0.5054 -1.7917
   14ccc     O1  418   6.039   4.300   4.908 -0.3501  0.8430  0.6217
   15ccc     C1  419   6.428   4.890   5.542 -0.0581 -0.3085 -0.1146
   15ccc     H1  420   6.389   4.935   5.450 -0.4124  0.0875  0.2225
   15ccc     H2  421   6.347   4.903   5.615 -0.1309 -0.3777 -0.1829
   15ccc     C2  422   6.465   4.736   5.531  0.2791  0.3686 -0.0064
   15ccc     H3  423   6.547   4.720   5.460 -0.5388  2.2036 -1.4728
   15ccc     H4  424   6.494   4.697   5.629  1.3551  0.3327 -0.3365
   15ccc     C3  425   6.336   4.666   5.478 -0.9019 -0.0909 -0.3523
   15ccc     H5  426   6.316   4.711   5.380 -0.2999  1.8156  0.3485
   15ccc     H6  427   6.248   4.690   5.540 -0.4477 -0.6034  0.5185
   15ccc     N1  428   6.537   4.965   5.604 -0.5397 -0.4220 -0.0845
   15ccc     H7  429   6.582   4.997   5.519  0.9155 -0.5234  0.6188
   15ccc     H8  430   6.498   5.050   5.646  1.0209  0.0494  0.4965
   15ccc     O1  431   6.354   4.529   5.462  0.0279 -0.1483 -0.5606
   16ccc     C1  432   7.284   3.500   5.573 -0.2295  1.0515  0.8053
   16ccc     H1  433   7.224   3.562   5.505 -0.5278 -2.4830 -2.4969
   16ccc     H2  434   7.312   3.555   5.664  1.0886 -1.7481  2.2151
   16ccc     C2  435   7.231   3.353   5.601 -0.6465 -0.0984 -0.0295
   16ccc     H3  436   7.302   3.299   5.664  0.0451 -0.2920 -0.9425
   16ccc     H4  437   7.132   3.360   5.647 -0.8593 -0.5237 -0.4149
   16ccc     C3  438   7.220   3.266   5.474 -0.4221  0.4680  0.7510
   16ccc     H5  439   7.235   3.160   5.496  0.9996  0.3372 -0.6835
   16ccc     H6  440   7.297   3.303   5.405 -1.0449  1.1800  0.4175
   16ccc     N1  441   7.413   3.496   5.509 -0.5616 -0.0334  0.2880
   16ccc     H7  442   7.455   3.564   5.572 -1.1049 -1.3060  2.1221
   16ccc     H8  443   7.458   3.412   5.545 -1.6766 -0.8647 -0.2151
   16ccc     O1  444   7.098   3.290   5.405  0.3820 -0.2552 -0.1568
   17ccc     C1  445   6.162   3.394   5.236  0.2212 -0.0805  0.0073
   17ccc     H1  446   6.186   3.490   5.283 -0.0035 -0.1792  0.3239
   17ccc     H2  447   6.250   3.331   5.216  0.8276  0.7745 -0.0623
   17ccc     C2  448   6.060   3.319   5.332  0.0749  0.2174  0.1957
   17ccc     H3  449   5.977   3.383   5.363  0.8675  1.3552  0.0790
   17ccc     H4  450   6.030   3.235   5.268  3.0295  0.5212 -1.8009
   17ccc     C3  451   6.128   3.267   5.460  0.3166 -0.4516 -0.9480
   17ccc     H5  452   6.053   3.246   5.537  1.5372 -0.6339  0.2305
   17ccc     H6  453   6.194   3.348   5.493 -2.0331  1.0986  0.1870
   17ccc     N1  454   6.115   3.431   5.099  0.2654 -0.7927 -0.1426
   17ccc     H7  455   6.023   3.475   5.099 -0.0732 -1.3092 -2.7078
   17ccc     H8  456   6.187   3.487   5.053  0.0632 -0.0553  0.4169
   17ccc     O1  457   6.193   3.146   5.416  0.3063 -0.1429 -0.4772
   18ccc     C1  458   7.499   4.823   4.689 -0.0929  0.1664 -0.3718
   18ccc     H1  459   7.399   4.852   4.657 -0.5132 -0.5792  0.2400
   18ccc     H2  460   7.477   4.769   4.782 -0.1088  1.0045  0.1263
   18ccc     C2  461   7.567   4.736   4.587  0.4302 -0.1011  0.6318
   18ccc     H3  462   7.569   4.788   4.491 -0.9819 -0.6504  0.2815
   18ccc     H4  463   7.670   4.710   4.617  1.6265  4.0869  0.7643
   18ccc     C3  464   7.491   4.607   4.567  0.1180  0.1218  0.0990
   18ccc     H5  465   7.535   4.551   4.484  0.7941  3.3337 -1.8769
   18ccc     H6  466   7.394   4.633   4.523  0.6879  0.3900 -1.0284
   18ccc     N1  467   7.572   4.939   4.735  0.8266 -0.1794 -0.5078
   18ccc     H7  468   7.562   5.000   4.654  1.8738 -1.3988 -1.6147
   18ccc     H8  469   7.509   4.977   4.806  0.6833  0.0710 -0.7669
   18ccc     O1  470   7.474   4.541   4.691 -0.4417  0.1586  0.4008
   19ccc     C1  471   6.566   4.818   5.162 -0.5689 -0.0459  0.6839
   19ccc     H1  472   6.541   4.780   5.062  0.7517 -0.9429  0.6729
   19ccc     H2  473   6.486   4.789   5.231 -0.7268  0.5053  0.7385
   19ccc     C2  474   6.696   4.749   5.196 -0.1516  0.2860 -0.5362
   19ccc     H3  475   6.742   4.793   5.286 -0.8791 -3.0630  1.6753
   19ccc     H4  476   6.682   4.643   5.222 -1.0306 -0.0764 -2.3330
   19ccc     C3  477   6.796   4.748   5.081  0.4143  0.0502  0.1551
   19ccc     H5  478   6.774   4.830   5.012 -0.3087 -0.0722  0.2272
   19ccc     H6  479   6.781   4.650   5.033  0.8843  0.4793 -0.8970
   19ccc     N1  480   6.569   4.962   5.137  0.5932  0.1799  0.8573
   19ccc     H7  481   6.621   4.974   5.051  0.8124  0.2379  0.9959
   19ccc     H8  482   6.477   4.979   5.097  2.1749  0.0183 -3.2276
   19ccc     O1  483   6.932   4.772   5.108  0.3859 -0.2359 -0.0819
   20ccc     C1  484   6.395   3.046   5.105 -0.4387  0.0450 -0.4185
   20ccc     H1  485   6.392   3.153   5.131 -1.8957 -0.0263 -0.2485
   20ccc     H2  486   6.367   3.023   5.002  1.4050 -2.6683 -0.4099
   20ccc     C2  487   6.537   2.995   5.129 -0.3008 -0.1486  0.3047
   20ccc     H3  488   6.560   3.011   5.235  1.3841  0.2705 -0.0979
   20ccc     H4  489   6.549   2.886   5.117 -1.4480 -0.3442  0.7560
   20ccc     C3  490   6.647   3.073   5.056  0.0644  0.2014  0.1611
   20ccc     H5  491   6.649   3.048   4.949  2.2524  2.3068 -0.3769
   20ccc     H6  492   6.737   3.034   5.104 -1.0489 -1.4188  1.0310
   20ccc     N1  493   6.306   2.981   5.202  0.1210  0.3517 -0.2862
   20ccc     H7  494   6.345   3.005   5.293 -1.6093  1.3546  0.2414
   20ccc     H8  495   6.222   3.038   5.195  0.1166  0.4619  0.5342
   20ccc     O1  496   6.634   3.215   5.075 -0.0833  0.2405  0.1210
   21ccc     C1  497   6.254   3.831   4.577  0.3186  0.6816  0.2661
   21ccc     H1  498   6.349   3.782   4.553  0.9753  1.1682  1.7558
   21ccc     H2  499   6.202   3.771   4.653  0.8799 -0.7814 -0.4686
   21ccc     C2  500   6.282   3.972   4.614 -0.2970 -0.4987 -0.3295
   21ccc     H3  501   6.317   4.030   4.527 -1.7500  0.4293 -0.3341
   21ccc     H4  502   6.187   4.018   4.644 -0.4607 -0.9909 -0.0857
   21ccc     C3  503   6.384   3.981   4.726  0.0445 -0.0902  0.0705
   21ccc     H5  504   6.422   4.081   4.748  0.8082 -0.6894  1.5654
   21ccc     H6  505   6.472   3.926   4.691  1.7532  3.5134 -1.9145
   21ccc     N1  506   6.169   3.835   4.455  0.3366 -0.1933  0.3417
   21ccc     H7  507   6.234   3.822   4.377  0.0723  0.4527  0.0097
   21ccc     H8  508   6.127   3.743   4.461  0.8760 -0.4456  0.3414
   21ccc     O1  509   6.321   3.919   4.840  0.0849 -0.4810 -0.3377
   22ccc     C1  510   7.178   3.455   5.121  0.6127  0.2644  0.5818
   22ccc     H1  511   7.276   3.502   5.109  1.1799 -1.2632 -1.2207
   22ccc     H2  512   7.169   3.371   5.190  0.4980  1.0206  1.5073
   22ccc     C2  513   7.057   3.543   5.163  0.8848 -0.2140 -0.5420
   22ccc     H3  514   6.964   3.489   5.179  0.7870  0.7213  2.8024
   22ccc     H4  515   7.078   3.596   5.256 -1.5908  0.5101 -0.3222
   22ccc     C3  516   7.037   3.652   5.052  0.0700  0.6106 -0.2858
   22ccc     H5  517   6.986   3.612   4.963 -1.3652  1.4217  0.1428
   22ccc     H6  518   7.132   3.701   5.027 -1.2101  3.2680 -0.2164
   22ccc     N1  519   7.147   3.402   4.985  0.0144 -0.5979  0.2861
   22ccc     H7  520   7.047   3.411   4.966  0.1599 -1.9047 -1.3783
   22ccc     H8  521   7.175   3.477   4.923  0.2253 -0.0929  0.9893
   22ccc     O1  522   6.958   3.753   5.112  0.1204 -0.4512 -0.4183
   23ccc     C1  523   6.213   4.623   4.932  0.2344  0.4367  0.3654
   23ccc     H1  524   6.263   4.713   4.894  1.2979 -0.8809 -1.5116
   23ccc     H2  525   6.200   4.559   4.845  1.4474  1.2711 -0.4700
   23ccc     C2  526   6.295   4.549   5.044 -0.3000 -0.0775  0.1857
   23ccc     H3  527   6.345   4.620   5.111  0.1359  1.7541 -1.9656
   23ccc     H4  528   6.231   4.483   5.104 -0.9261 -0.3505 -0.7691
   23ccc     C3  529   6.411   4.470   4.982 -0.0228  0.2208 -0.5296
   23ccc     H5  530   6.484   4.546   4.953  0.3142  0.7565  1.5360
   23ccc     H6  531   6.384   4.399   4.903 -1.1349 -0.9559  0.8653
   23ccc     N1  532   6.073   4.645   4.984 -0.0986  0.3500 -0.7686
   23ccc     H7  533   6.014   4.652   4.901 -1.7646  1.3146  0.4442
   23ccc     H8  534   6.054   4.549   5.010  0.9090  0.0172 -1.1779
   23ccc     O1  535   6.469   4.402   5.097 -0.6831  0.3840  0.1397
   24ccc     C1  536   5.289   4.293   6.168  0.4724 -0.4481  0.0606
   24ccc     H1  537   5.206   4.246   6.223 -0.8404 -0.2565 -1.6770
   24ccc     H2  538   5.350   4.208   6.134  0.8149 -0.1172 -0.1546
   24ccc     C2  539   5.223   4.385   6.056 -0.3318 -0.5097  0.1102
   24ccc     H3  540   5.179   4.474   6.103  2.1445  0.8389  0.0564
   24ccc     H4  541   5.310   4.415   5.995 -2.0091  2.2624 -1.1067
   24ccc     C3  542   5.119   4.312   5.962  0.1506  0.3515  0.0083
   24ccc     H5  543   5.089   4.384   5.885  0.8311  0.8956  0.2458
   24ccc     H6  544   5.028   4.293   6.020  0.6452  0.5946  0.8800
   24ccc     N1  545   5.377   4.372   6.254  0.7656 -0.3611 -0.2521
   24ccc     H7  546   5.430   4.308   6.313  1.0692 -0.8922 -1.0943
   24ccc     H8  547   5.445   4.415   6.191  0.4306 -1.6346 -1.5156
   24ccc     O1  548   5.175   4.191   5.918 -0.2239  0.1166 -0.0437
   25ccc     C1  549   5.329   3.283   5.837 -1.5995  0.3896 -0.5029
   25ccc     H1  550   5.321   3.333   5.740 -0.2187 -2.3870 -2.1866
   25ccc     H2  551   5.355   3.359   5.911 -1.6990  2.3316 -2.3736
   25ccc     C2  552   5.191   3.212   5.869  0.4620 -0.2308 -0.7116
   25ccc     H3  553   5.165   3.148   5.784 -4.1746  0.3502 -0.0063
   25ccc     H4  554   5.195   3.133   5.946 -0.9580  0.1739 -0.1975
   25ccc     C3  555   5.081   3.319   5.903 -0.0338  0.8443 -0.6665
   25ccc     H5  556   4.984   3.270   5.918 -0.0799  1.1702  0.1498
   25ccc     H6  557   5.071   3.388   5.819  1.0920  1.2625 -0.4754
   25ccc     N1  558   5.442   3.187   5.804 -0.4568 -0.4648  0.3484
   25ccc     H7  559   5.518   3.239   5.760 -1.1963  0.2126 -0.1550
   25ccc     H8  560   5.480   3.126   5.877  0.8608  1.2018  1.1126
   25ccc     O1  561   5.119   3.389   6.028  0.0177  0.1216  0.4478
   26ccc     C1  562   5.634   3.965   5.302  0.6916 -0.1027 -0.3093
   26ccc     H1  563   5.690   3.876   5.333 -0.3782 -1.5666 -2.3854
   26ccc     H2  564   5.548   3.966   5.371  1.3842 -1.3679  0.6275
   26ccc     C2  565   5.712   4.086   5.330 -0.1102 -0.0176  0.4378
   26ccc     H3  566   5.802   4.080   5.267 -0.0549 -2.7393  0.6593
   26ccc     H4  567   5.651   4.173   5.304  0.2019  0.7862  2.2664
   26ccc     C3  568   5.763   4.092   5.471 -0.4522 -0.2802 -0.8102
   26ccc     H5  569   5.848   4.161   5.468 -0.6071 -0.0889 -0.7876
   26ccc     H6  570   5.813   3.996   5.494  2.8147  1.6752  1.0146
   26ccc     N1  571   5.579   3.949   5.169  0.1875  0.6218 -0.5924
   26ccc     H7  572   5.661   3.934   5.109  0.0870 -0.9996 -0.3689
   26ccc     H8  573   5.542   3.854   5.167  0.9336  0.3044 -0.0013
   26ccc     O1  574   5.654   4.113   5.560  0.0327 -0.0740 -0.2793
   27ccc     C1  575   5.668   5.258   5.693  0.1392 -0.1369  0.1163
   27ccc     H1  576   5.736   5.322   5.751 -0.5236  2.7615 -2.0434
   27ccc     H2  577   5.689   5.243   5.587 -0.5880 -2.0823  0.2139
   27ccc     C2  578   5.633   5.129   5.767  0.5236 -0.3114  0.4308
   27ccc     H3  579   5.731   5.080   5.761  1.5320  1.6060  0.5093
   27ccc     H4  580   5.623   5.147   5.874  1.1667 -0.7956  0.5769
   27ccc     C3  581   5.514   5.050   5.709  0.0823  0.6615  0.1046
   27ccc     H5  582   5.533   5.040   5.601  1.9909  0.3893  0.4222
   27ccc     H6  583   5.423   5.109   5.723 -0.1834 -0.2080  2.5835
   27ccc     N1  584   5.558   5.337   5.703 -0.1045 -0.1755  0.2156
   27ccc     H7  585   5.494   5.294   5.636  0.2827  0.0798 -0.3172
   27ccc     H8  586   5.514   5.308   5.791  0.8603  0.3683  0.8969
   27ccc     O1  587   5.511   4.921   5.772 -0.4145  0.0822 -0.0493
   28ccc     C1  588   6.851   4.718   5.555 -0.9532  0.3232  0.0948
   28ccc     H1  589   6.928   4.795   5.549  0.9526 -1.3543  1.4809
   28ccc     H2  590   6.769   4.750   5.490 -0.0355  0.4330 -1.0532
   28ccc     C2  591   6.906   4.587   5.517 -0.0369  0.6157 -0.2608
   28ccc     H3  592   6.963   4.599   5.424  0.4601  0.4621  0.0179
   28ccc     H4  593   6.981   4.544   5.584  0.0520  1.7934  0.4232
   28ccc     C3  594   6.788   4.487   5.484  0.2150 -0.5213 -0.3434
   28ccc     H5  595   6.823   4.388   5.453  2.3513  0.2042 -0.3544
   28ccc     H6  596   6.729   4.530   5.403 -0.7278  2.0569  1.5655
   28ccc     N1  597   6.795   4.723   5.691 -0.3108 -0.3979  0.5312
   28ccc     H7  598   6.742   4.636   5.690  0.4596 -0.8930 -0.8868
   28ccc     H8  599   6.886   4.711   5.735  0.1511 -0.7149 -0.4730
   28ccc     O1  600   6.700   4.476   5.604 -0.7676  0.2773  0.1901
   29ccc     C1  601   7.038   4.138   6.559  1.2537 -0.3138  0.6873
   29ccc     H1  602   7.006   4.197   6.645  1.2355  0.4002  0.2026
   29ccc     H2  603   7.006   4.034   6.571  1.7965 -0.6070 -0.2543
   29ccc     C2  604   6.993   4.195   6.422 -0.6513  0.1251  0.5187
   29ccc     H3  605   7.040   4.293   6.413  0.2684 -0.1798  1.7654
   29ccc     H4  606   7.049   4.142   6.344  1.8465  1.6939  1.1526
   29ccc     C3  607   6.840   4.215   6.407  0.4657 -0.9450  0.1040
   29ccc     H5  608   6.802   4.268   6.495  0.8351  0.2426 -0.4292
   29ccc     H6  609   6.805   4.114   6.381  0.7581 -0.5207 -2.1192
   29ccc     N1  610   7.184   4.140   6.558  0.0709 -0.1913 -0.4795
   29ccc     H7  611   7.217   4.235   6.542  0.4575 -0.6611 -2.9965
   29ccc     H8  612   7.213   4.124   6.654 -0.9976 -0.1117 -0.1312
   29ccc     O1  613   6.812   4.304   6.303 -0.2730  0.4924 -0.4722
   30SOL     OW  614   0.423   2.785   0.510 -0.0324  0.1483 -0.0123
   30SOL    HW1  615   0.386   2.744   0.588  0.5367  1.8330  1.2036
   30SOL    HW2  616   0.372   2.865   0.498  0.9297  0.7356 -0.3718
   31SOL     OW  617   7.211   0.534   4.483 -0.1754  0.7091  0.1499
   31SOL    HW1  618   7.180   0.444   4.473 -1.5445  0.8629  2.3078
   31SOL    HW2  619   7.277   0.544   4.415 -1.0302 -1.4405 -1.1097
   32SOL     OW  620   4.647   6.083   1.659 -0.5905 -0.1469  0.4190
   32SOL    HW1  621   4.632   6.135   1.579  0.7955 -0.0549  0.1922
   32SOL    HW2  622   4.562   6.082   1.703 -0.6319  2.5341  0.5481
   33SOL     OW  623   7.354   4.191   6.322 -0.3549  0.0184  0.1166
   33SOL    HW1  624   7.313   4.175   6.238 -1.1695  2.0347  0.0697
   33SOL    HW2  625   7.282   4.191   6.385  0.2605 -1.6340  0.8694
   34SOL     OW  626   0.798   6.362   5.161 -0.1610 -0.5083 -0.3065
   34SOL    HW1  627   0.850   6.346   5.082  0.1296  2.5828 -0.8631
   34SOL    HW2  628   0.849   6.426   5.211 -2.3008  0.8980  0.2362
   35SOL     OW  629   6.156   3.922   1.488  0.0568 -0.3937 -0.3298
   35SOL    HW1  630   6.225   3.858   1.500  0.7213  0.4682  0.6158
   35SOL    HW2  631   6.140   3.958   1.576 -0.2172  0.8083 -0.8438
   36SOL     OW  632   4.178   6.685   5.821 -0.2406 -0.1438  0.2509
   36SOL    HW1  633   4.127   6.697   5.742  1.5818 -0.0210 -0.9610
   36SOL    HW2  634   4.213   6.772   5.841  2.2872 -0.7782 -0.9956
   37SOL     OW  635   5.250   5.173   1.192  0.3898  0.0798  0.9718
   37SOL    HW1  636   5.181   5.114   1.224  0.4007 -0.0905  0.6914
   37SOL    HW2  637   5.205   5.232   1.132  0.4894 -0.0386  0.7800
   38SOL     OW  638   0.167   4.428   5.566 -0.5487 -0.2047  0.2332
   38SOL    HW1  639   0.156   4.384   5.482 -1.0832 -0.3563  0.3817
   38SOL    HW2  640   0.211   4.362   5.621  0.2037  0.0502 -0.0570
   39SOL     OW  641   4.711   7.283   0.013 -0.4944 -0.1934 -0.5254
   39SOL    HW1  642   4.694   7.202  -0.034 -0.6645 -1.0841  1.0100
   39SOL    HW2  643   4.755   7.255   0.093 -1.4925  1.1366  0.5175
   40SOL     OW  644   0.897   1.047   3.987 -0.3201 -0.1815  0.0239
   40SOL    HW1  645   0.831   0.979   3.998 -0.9036 -0.2605 -3.1893
   40SOL    HW2  646   0.854   1.114   3.933  1.4252  0.9748 -0.0206
   41SOL     OW  647   2.936   5.204   1.158  0.4853  0.2934  0.2016
   41SOL    HW1  648   3.008   5.142   1.166  0.3627  0.1872  0.4832
   41SOL    HW2  649   2.875   5.162   1.098  0.2817  0.0219  0.5894
   42SOL     OW  650   6.309   0.383   0.371  0.0442  0.4464  0.2796
   42SOL    HW1  651   6.338   0.468   0.404  4.2298 -0.8842  0.6690
   42SOL    HW2  652   6.308   0.326   0.447 -1.7385 -0.1379 -0.1340
   43SOL     OW  653   6.765   1.932   7.429  0.1085 -0.8564 -0.4549
   43SOL    HW1  654   6.696   1.943   7.363  0.8433  0.5495 -1.0273
   43SOL    HW2  655   6.772   1.837   7.439 -1.1087 -1.0627 -1.2379
   44SOL     OW  656   5.492   4.285   0.506 -0.0662  0.3029 -0.2011
   44SOL    HW1  657   5.545   4.258   0.581 -0.8173 -0.1237  0.1852
   44SOL    HW2  658   5.522   4.229   0.434  0.3193  0.3790 -0.0994
   45SOL     OW  659   4.479   2.720   1.808 -0.4421  0.1472 -0.0983
   45SOL    HW1  660   4.488   2.661   1.733  2.1792 -2.0675  1.7523
   45SOL    HW2  661   4.565   2.763   1.814 -1.4092  2.1151  0.2719
   46SOL     OW  662   4.408   7.148   4.494 -0.0058  0.0124  0.3946
   46SOL    HW1  663   4.411   7.113   4.405  1.6777 -0.0367  0.4439
   46SOL    HW2  664   4.416   7.072   4.551 -3.0160 -0.1969  0.7137
   47SOL     OW  665   1.587   3.002   2.382 -0.6545  0.1765 -0.2097
   47SOL    HW1  666   1.526   2.938   2.345 -0.0771  1.0884 -2.9516
   47SOL    HW2  667   1.632   2.954   2.452 -0.2708 -2.4448 -2.0799
   48SOL     OW  668   4.472   3.357   0.634  0.5473  0.6911 -0.0110
   48SOL    HW1  669   4.552   3.381   0.586  0.7962  1.1410  0.6061
   48SOL    HW2  670   4.481   3.263   0.649  1.1103  0.7850  0.2987
   49SOL     OW  671   6.700   7.437   0.004 -0.5076  0.3205  0.2047
   49SOL    HW1  672   6.618   7.392   0.025 -0.0365 -0.9162 -0.5526
   49SOL    HW2  673   6.769   7.381   0.039  0.0361  1.5681  1.2213
   50SOL     OW  674   2.557   1.340   0.243 -0.6889  0.1956  0.0688
   50SOL    HW1  675   2.580   1.356   0.151  0.9353  2.1512  0.7273
   50SOL    HW2  676   2.612   1.401   0.292 -0.6798 -1.5971  2.4432
   51SOL     OW  677   5.963   0.050   7.044 -0.0125  0.2118 -0.0967
   51SOL    HW1  678   6.025  -0.019   7.070  1.8334  1.6190 -0.5163
   51SOL    HW2  679   5.951   0.102   7.124  1.5660  1.5067 -0.6292
   52SOL     OW  680   7.068   2.062   6.399  0.2489 -0.3029  0.3438
   52SOL    HW1  681   7.089   2.140   6.348  1.1263  0.0457  1.2067
   52SOL    HW2  682   7.134   1.998   6.373 -0.4609 -0.7569 -0.3517
   53SOL     OW  683   3.661   7.167   7.461  0.5740  0.2052 -0.3819
   53SOL    HW1  684   3.703   7.156   7.546  1.0124 -1.0821 -0.7440
   53SOL    HW2  685   3.732   7.159   7.398  0.0653 -0.0783 -0.9263
   54SOL     OW  686   7.338   5.255   1.474  0.1449  0.3085  0.1826
   54SOL    HW1  687   7.393   5.304   1.413 -1.2675  1.3452 -0.2995
   54SOL    HW2  688   7.374   5.275   1.560  1.8950 -0.8379 -0.2325
   55SOL     OW  689   4.599   3.121   2.748 -0.3542  0.1721 -0.2007
   55SOL    HW1  690   4.631   3.070   2.673  0.8919  0.8981 -0.2002
   55SOL    HW2  691   4.640   3.079   2.824  0.7056  1.1416 -0.2026
   56SOL     OW  692   3.151   0.816   3.653  0.2212  0.3208 -0.2229
   56SOL    HW1  693   3.241   0.848   3.648  0.7172 -1.1688 -1.8890
   56SOL    HW2  694   3.124   0.808   3.561 -2.1454  2.0965  0.2423
   57SOL     OW  695   2.586   3.597   4.040  0.1505  0.2322 -0.4562
   57SOL    HW1  696   2.542   3.514   4.057 -0.2062  0.5880  0.4011
   57SOL    HW2  697   2.532   3.663   4.083 -0.7047  1.1979 -2.8329
   58SOL     OW  698   1.533   5.595   2.662 -0.5709  0.3644  0.6870
   58SOL    HW1  699   1.478   5.522   2.691 -1.2653  0.6636  0.1521
   58SOL    HW2  700   1.544   5.580   2.568  1.6824 -0.6236  1.0436
   59SOL     OW  701   1.173   6.551   1.094  0.3264 -0.5152  0.3541
   59SOL    HW1  702   1.113   6.495   1.044 -1.8232  2.7744 -1.0666
   59SOL    HW2  703   1.258   6.507   1.086 -1.2176 -3.7309 -0.2466
   60SOL     OW  704   5.960   6.473   2.279 -0.0358  0.0932 -0.2232
   60SOL    HW1  705   6.018   6.468   2.355  1.0300 -3.6730 -1.0661
   60SOL    HW2  706   6.013   6.515   2.211  0.3734  0.0662  0.0729
   61SOL     OW  707   1.296   5.241   6.930  0.8037  0.8241 -0.0526
   61SOL    HW1  708   1.275   5.149   6.943 -1.5301  1.1167 -1.1963
   61SOL    HW2  709   1.388   5.241   6.901  0.8169 -1.1293 -0.1543
   62SOL     OW  710   5.297   5.712   6.262  0.2445 -0.4161 -0.6112
   62SOL    HW1  711   5.382   5.705   6.306 -0.2990 -2.7025  0.2291
   62SOL    HW2  712   5.244   5.765   6.321 -0.0827 -2.3870  0.9999
   63SOL     OW  713   0.860   0.957   0.529 -0.7350 -0.4602 -0.2806
   63SOL    HW1  714   0.817   0.964   0.615 -0.2358 -0.2241 -0.0462
   63SOL    HW2  715   0.950   0.984   0.545 -0.4161 -1.2315 -0.7111
   64SOL     OW  716   6.079   3.557   4.777 -0.7498  0.0596 -0.1176
   64SOL    HW1  717   6.053   3.494   4.844 -1.1089  0.5775  0.2416
   64SOL    HW2  718   6.029   3.531   4.700  0.4922 -1.2162 -0.5380
   65SOL     OW  719   4.146   6.523   3.698  0.4893 -0.3778  0.3083
   65SOL    HW1  720   4.067   6.501   3.748 -0.2437  1.0568 -0.1496
   65SOL    HW2  721   4.118   6.518   3.607  0.0083  3.0120  0.1561
   66SOL     OW  722   2.236   6.175   0.211  0.3922  0.0480  0.2804
   66SOL    HW1  723   2.229   6.269   0.226 -2.0758  0.3194 -1.9220
   66SOL    HW2  724   2.299   6.167   0.139 -1.2479  0.2816 -1.2291
   67SOL     OW  725   6.285   7.397   2.555  0.0673  0.2228 -0.4860
   67SOL    HW1  726   6.259   7.391   2.463 -1.0446 -0.2950 -0.1629
   67SOL    HW2  727   6.238   7.474   2.588  1.0884  0.8816 -0.5305
   68SOL     OW  728   0.385   3.931   1.671 -0.1436  0.2471  0.2656
   68SOL    HW1  729   0.474   3.923   1.635 -0.7481 -0.9887 -1.0344
   68SOL    HW2  730   0.331   3.876   1.614 -1.6767  0.6253  1.3044
   69SOL     OW  731   1.917   1.138   2.325 -0.1893  0.0277 -0.8107
   69SOL    HW1  732   1.866   1.067   2.285 -0.7305  0.2653 -0.5568
   69SOL    HW2  733   2.003   1.100   2.341 -1.0584 -1.2557  1.2168
   70SOL     OW  734   1.062   5.427   4.438  0.1102  0.2075  0.1526
   70SOL    HW1  735   0.990   5.483   4.466 -1.0522 -0.6444 -0.9985
   70SOL    HW2  736   1.102   5.396   4.519  0.5442  2.3608  0.8132
   71SOL     OW  737   3.175   6.073   0.347  0.6612 -0.0234 -0.2461
   71SOL    HW1  738   3.178   6.141   0.414  1.8498  0.5046 -0.8045
   71SOL    HW2  739   3.204   5.993   0.391 -0.9114 -0.2568  0.4574
   72SOL     OW  740   6.030   4.783   0.225  0.3112 -0.3290  0.0065
   72SOL    HW1  741   5.985   4.867   0.233  1.9208  0.5244  0.6207
   72SOL    HW2  742   6.044   4.772   0.131 -2.2525 -1.2631 -0.3391
   73SOL     OW  743   3.124   2.405   3.809 -0.0011 -0.8228 -0.7671
   73SOL    HW1  744   3.053   2.468   3.806 -0.2884 -1.0723  0.1536
   73SOL    HW2  745   3.159   2.403   3.720 -0.2334  0.3332 -0.9001
   74SOL     OW  746   1.673   1.483   1.600  0.0760 -0.5256 -0.2375
   74SOL    HW1  747   1.708   1.493   1.511 -0.5604 -0.8141 -0.5272
   74SOL    HW2  748   1.654   1.390   1.608  2.5633 -0.9951  1.1406
   75SOL     OW  749   6.542   5.792   1.574 -0.4737  0.3835  0.2021
   75SOL    HW1  750   6.475   5.774   1.509 -0.9660  0.9818  0.5328
   75SOL    HW2  751   6.504   5.859   1.631 -0.2035 -0.3771  1.3256
   76SOL     OW  752   7.349   2.323   6.398  0.4554  0.0103 -0.0545
   76SOL    HW1  753   7.331   2.285   6.484 -0.9821  2.0320  0.6113
   76SOL    HW2  754   7.266   2.315   6.351  1.0840 -0.5971 -1.0871
   77SOL     OW  755   2.752   4.281   5.636  0.3614 -0.2292 -0.2527
   77SOL    HW1  756   2.782   4.319   5.718 -0.1048  2.0875 -1.0599
   77SOL    HW2  757   2.658   4.268   5.648  0.2444  0.3617 -0.4818
   78SOL     OW  758   1.507   2.381   5.754 -0.1728 -0.1515 -0.2604
   78SOL    HW1  759   1.412   2.385   5.751 -0.1891  3.1734  1.2318
   78SOL    HW2  760   1.527   2.342   5.840 -0.0569 -3.0141 -1.4681
   79SOL     OW  761   2.309   6.677   4.262  0.3562 -0.0413  0.2821
   79SOL    HW1  762   2.240   6.625   4.221  0.1864  1.7164 -1.8781
   79SOL    HW2  763   2.383   6.617   4.270 -0.7477 -1.3934  0.6615
   80SOL     OW  764   1.586   7.219   3.532  0.7961 -0.2323 -0.3865
   80SOL    HW1  765   1.542   7.215   3.447 -0.2462 -1.4967  0.1775
   80SOL    HW2  766   1.675   7.247   3.511  0.1040  1.1539 -1.6924
   81SOL     OW  767   2.070   6.140   3.974 -0.8529  0.4285 -0.0763
   81SOL    HW1  768   2.022   6.194   3.911 -0.0375  0.7574 -0.4248
   81SOL    HW2  769   2.108   6.070   3.921 -1.4741 -0.2038  0.2958
   82SOL     OW  770   0.582   5.453   5.330 -0.4167  0.2851  0.1775
   82SOL    HW1  771   0.486   5.449   5.322 -0.5792  1.4774  1.2809
   82SOL    HW2  772   0.611   5.494   5.249 -0.9951  1.3964  0.5160
   83SOL     OW  773   3.411   2.308   7.218  0.1352  0.3012 -0.6851
   83SOL    HW1  774   3.505   2.296   7.234  0.0403  0.4268 -0.0065
   83SOL    HW2  775   3.407   2.340   7.128  0.7422  0.2513 -0.7393
   84SOL     OW  776   3.691   3.451   6.397 -0.4180  0.3024 -0.0955
   84SOL    HW1  777   3.732   3.501   6.327 -0.4277 -1.0653 -1.1139
   84SOL    HW2  778   3.643   3.516   6.448 -1.1155  1.2367 -1.8592
   85SOL     OW  779   2.506   1.024   4.386 -0.3660 -0.2690  0.3842
   85SOL    HW1  780   2.508   1.039   4.481  1.6092 -0.7791  0.4663
   85SOL    HW2  781   2.559   0.946   4.373  1.6316  1.2799 -1.3553
   86SOL     OW  782   1.319   1.536   0.058 -0.0994 -0.0963  0.3404
   86SOL    HW1  783   1.265   1.466   0.020  1.4675 -2.5811  2.3905
   86SOL    HW2  784   1.378   1.491   0.118  2.3475  2.8111  0.3426
   87SOL     OW  785   2.114   2.352   6.822 -0.0636  0.3097  0.4523
   87SOL    HW1  786   2.070   2.393   6.747 -2.0097  1.3526  2.0750
   87SOL    HW2  787   2.184   2.413   6.845  1.1953 -0.4995 -1.0713
   88SOL     OW  788   7.099   6.495   1.567  0.4367  0.3135  0.1129
   88SOL    HW1  789   7.076   6.463   1.655 -1.4952  0.6180 -0.2508
   88SOL    HW2  790   7.100   6.590   1.575  0.0742  0.3476 -0.2425
   89SOL     OW  791   6.495   3.109   3.059  0.0959 -0.1951  0.2248
   89SOL    HW1  792   6.589   3.131   3.063  0.0181  0.0497  0.7259
   89SOL    HW2  793   6.493   3.015   3.046  0.4062 -0.4871  2.0613
   90SOL     OW  794   7.019   6.310   6.965 -0.1290 -0.1031 -0.3627
   90SOL    HW1  795   7.024   6.224   6.923 -0.4870  0.3504 -1.3371
   90SOL    HW2  796   7.036   6.373   6.895  3.4667  0.5896  0.8963
   91SOL     OW  797   4.877   4.042   1.339  0.6783 -0.5861 -0.8376
   91SOL    HW1  798   4.808   4.094   1.381  1.4931 -1.2710  1.5339
   91SOL    HW2  799   4.949   4.104   1.326  1.0588 -0.7186  0.4811
   92SOL     OW  800   4.277   1.523   5.811  0.4117  0.4504 -0.2251
   92SOL    HW1  801   4.329   1.546   5.888  1.6568 -0.9102 -0.5980
   92SOL    HW2  802   4.286   1.598   5.753  0.0022  1.2117  0.6663
   93SOL     OW  803   3.079   6.479   3.502 -0.1293 -0.0806  0.0319
   93SOL    HW1  804   3.057   6.531   3.425  0.2951 -0.4609 -0.3555
   93SOL    HW2  805   3.019   6.405   3.498 -0.1854 -0.0403  0.1314
   94SOL     OW  806   6.787   5.271   7.239 -0.1310  0.4407 -0.3704
   94SOL    HW1  807   6.832   5.190   7.264  2.4284  2.0500  0.5033
   94SOL    HW2  808   6.782   5.267   7.144  0.8341 -0.2936 -0.4018
   95SOL     OW  809   2.404   3.402   7.199 -0.3329 -0.2684  0.4380
   95SOL    HW1  810   2.495   3.429   7.203  0.0072 -1.3191  0.0278
   95SOL    HW2  811   2.362   3.449   7.271 -0.0382  2.2353 -0.8983
   96SOL     OW  812   3.357   5.435   3.782 -0.7307  0.6267  0.0378
   96SOL    HW1  813   3.396   5.410   3.865  0.8341  0.2736 -0.7708
   96SOL    HW2  814   3.364   5.531   3.780  0.4649  0.5540 -0.2366
   97SOL     OW  815   0.775   4.209   2.609  0.0310  0.7710  0.1657
   97SOL    HW1  816   0.702   4.186   2.552 -0.1885 -0.1149  0.7751
   97SOL    HW2  817   0.756   4.164   2.692  1.0534  0.8606  0.4677
   98SOL     OW  818   3.306   0.418   1.761 -0.1208 -0.0929  0.5831
   98SOL    HW1  819   3.339   0.447   1.846  0.0290 -0.5432  0.6807
   98SOL    HW2  820   3.357   0.466   1.697 -0.8981  0.9833  0.7503
   99SOL     OW  821   0.944   0.999   1.953  0.3693 -0.3485 -0.3950
   99SOL    HW1  822   0.900   1.008   1.868  0.8002 -1.0954 -0.7135
   99SOL    HW2  823   0.901   0.925   1.995 -0.9026  0.9757  0.7389
  100SOL     OW  824   5.878   1.779   4.161 -0.1348 -0.0511  0.2005
  100SOL    HW1  825   5.911   1.753   4.247  0.9486 -1.1759 -0.5177
  100SOL    HW2  826   5.925   1.860   4.141  1.3843 -1.0043 -0.2915
  101SOL     OW  827   2.284   5.377   0.419  0.2306 -0.0719 -0.2953
  101SOL    HW1  828   2.308   5.454   0.472 -0.5362 -0.8001  1.1853
  101SOL    HW2  829   2.267   5.308   0.484 -1.8224 -0.7175 -1.4216
  102SOL     OW  830   2.719   5.650   0.881 -0.6038 -0.2420 -0.6360
  102SOL    HW1  831   2.671   5.691   0.810 -1.6926  0.9096  0.7075
  102SOL    HW2  832   2.785   5.714   0.906 -0.8936 -0.1973  0.0505
  103SOL     OW  833   4.180   2.448   3.226 -0.1145  0.2597  0.2578
  103SOL    HW1  834   4.162   2.354   3.234  2.0126 -0.2080  0.0739
  103SOL    HW2  835   4.275   2.455   3.233 -0.1478  2.3244 -0.6282
  104SOL     OW  836   6.541   4.172   2.835  0.4345 -0.4408 -0.5748
  104SOL    HW1  837   6.461   4.134   2.801 -0.0074 -0.1095  0.0624
  104SOL    HW2  838   6.588   4.205   2.758 -1.2623  1.7145 -0.7794
  105SOL     OW  839   6.831   0.667   1.882 -0.4463 -0.5797 -0.0336
  105SOL    HW1  840   6.800   0.751   1.848 -2.2850 -1.5027 -0.7884
  105SOL    HW2  841   6.797   0.664   1.972  0.0019 -0.3336  0.1458
  106SOL     OW  842   4.059   3.765   4.395  0.4659 -0.0648  0.0830
  106SOL    HW1  843   3.990   3.700   4.379  0.3972  0.4291 -1.8371
  106SOL    HW2  844   4.134   3.713   4.425 -0.0814 -0.8496  0.1322
  107SOL     OW  845   1.276   4.694   5.120 -0.3574 -0.4225 -0.2010
  107SOL    HW1  846   1.289   4.600   5.124  0.5874 -0.2436  1.9600
  107SOL    HW2  847   1.364   4.730   5.106 -0.8966  0.1241 -2.6460
  108SOL     OW  848   4.091   6.967   6.860  0.0412 -0.3250 -0.0647
  108SOL    HW1  849   4.092   6.980   6.765 -1.9361  2.0925  0.1734
  108SOL    HW2  850   4.147   7.037   6.894 -1.6486  0.7036  0.6763
  109SOL     OW  851   4.925   2.033   3.597 -0.0705  0.5495  0.2114
  109SOL    HW1  852   4.851   2.000   3.647 -1.7277  0.5998 -2.0957
  109SOL    HW2  853   4.952   1.960   3.542 -0.1160  1.3246 -0.8548
  110SOL     OW  854   1.719   4.546   0.704 -0.4486  0.4519  0.1043
  110SOL    HW1  855   1.762   4.461   0.707 -0.4846  0.4269  3.3190
  110SOL    HW2  856   1.772   4.602   0.761 -2.3927  1.5110  0.9927
  111SOL     OW  857   4.426   6.069   4.932 -0.0645 -0.4922 -0.4417
  111SOL    HW1  858   4.410   6.057   4.839 -0.4749 -1.4599 -0.2559
  111SOL    HW2  859   4.354   6.124   4.962  0.0834 -0.1584 -0.6936
  112SOL     OW  860   1.478   1.758   4.578  0.1995  0.5514  0.3109
  112SOL    HW1  861   1.479   1.781   4.485  0.2928 -0.0006  0.1728
  112SOL    HW2  862   1.392   1.720   4.593  0.9903 -1.5530 -0.1103
  113SOL     OW  863   5.442   6.148   7.235 -0.6987  0.1226  0.1415
  113SOL    HW1  864   5.525   6.162   7.282 -0.9111 -0.9957  0.8794
  113SOL    HW2  865   5.415   6.060   7.259 -2.1106  0.4658 -0.1100
  114SOL     OW  866   5.030   3.945   1.683  0.5283  0.3605 -0.4473
  114SOL    HW1  867   5.125   3.938   1.693  0.5222 -0.4305 -0.9081
  114SOL    HW2  868   5.017   3.952   1.589  0.1292  0.5909 -0.3758
  115SOL     OW  869   4.927   0.717   3.809 -0.1972  0.3932 -0.3722
  115SOL    HW1  870   4.884   0.707   3.724  0.5451  0.2027 -0.7343
  115SOL    HW2  871   4.952   0.629   3.835 -0.9461  0.3823  0.3319
  116SOL     OW  872   5.909   3.999   7.223 -0.1766 -0.7872  0.3544
  116SOL    HW1  873   5.817   3.992   7.248  0.1401 -0.1501  1.8190
  116SOL    HW2  874   5.910   3.984   7.128 -2.1666  1.9467 -0.2220
  117SOL     OW  875   4.683   6.231   5.422  0.0722  0.4206  0.1706
  117SOL    HW1  876   4.726   6.292   5.362  0.4752  1.5811  1.5946
  117SOL    HW2  877   4.755   6.183   5.463 -0.1780 -0.0097  0.1126
  118SOL     OW  878   0.283   1.822   4.162  0.1417  0.4268  0.1170
  118SOL    HW1  879   0.252   1.747   4.111 -1.8534  1.8580 -0.9113
  118SOL    HW2  880   0.216   1.834   4.229  1.5869 -0.0131  1.7118
  119SOL     OW  881   2.884   1.136   3.687 -0.1018  0.3924 -0.0475
  119SOL    HW1  882   2.912   1.113   3.598  1.8846 -0.4537  0.7265
  119SOL    HW2  883   2.962   1.120   3.741 -1.6715 -0.5838  2.0881
  120SOL     OW  884   3.637   7.242   1.494  0.4234  1.1332  0.1687
  120SOL    HW1  885   3.606   7.170   1.441 -0.8132  0.2133  2.0510
  120SOL    HW2  886   3.619   7.320   1.442 -0.1914  0.2317 -1.0028
  121SOL     OW  887   1.043   7.239   1.385  0.1771  0.0296  0.7305
  121SOL    HW1  888   1.084   7.276   1.306  1.1364 -1.4545  0.4921
  121SOL    HW2  889   1.117   7.215   1.441 -0.4503 -0.4317  1.3759
  122SOL     OW  890   6.334   2.474   5.399 -0.2596  0.5171  0.0782
  122SOL    HW1  891   6.318   2.563   5.369 -0.2975  0.1665 -1.0054
  122SOL    HW2  892   6.429   2.470   5.411 -0.3837  1.0511  1.3402
  123SOL     OW  893   7.410   6.360   5.394 -0.4769  0.1194  0.5692
  123SOL    HW1  894   7.480   6.298   5.418  1.3185  1.3234 -1.2804
  123SOL    HW2  895   7.390   6.339   5.303 -1.5965  0.6875  0.6757
  124SOL     OW  896   0.378   3.108   4.876  0.4563  0.2210  0.0577
  124SOL    HW1  897   0.434   3.166   4.825 -0.5524  0.9656 -0.2344
  124SOL    HW2  898   0.317   3.167   4.920 -0.3919 -0.5983  0.0064
  125SOL     OW  899   4.369   0.458   2.275 -0.4016  0.2406  0.2226
  125SOL    HW1  900   4.428   0.463   2.200  0.4573  1.3654  0.9359
  125SOL    HW2  901   4.342   0.549   2.290 -2.6003 -0.2811 -0.2790
  126SOL     OW  902   3.930   4.426   6.940  0.2216  0.5000 -0.3958
  126SOL    HW1  903   3.915   4.332   6.945  0.0624  0.5704  1.1850
  126SOL    HW2  904   3.873   4.457   6.870 -1.6683 -0.2486  0.7251
  127SOL     OW  905   0.186   1.871   0.177 -0.0589 -0.0014  0.0575
  127SOL    HW1  906   0.192   1.964   0.199 -0.7992  0.3009 -0.9239
  127SOL    HW2  907   0.096   1.847   0.200  0.6186 -0.9431  1.9223
  128SOL     OW  908   2.265   4.086   4.607 -0.0945 -0.1533 -0.0329
  128SOL    HW1  909   2.179   4.048   4.622  0.4998 -1.2776  0.6455
  128SOL    HW2  910   2.247   4.174   4.574 -1.4976 -0.8550 -1.2471
  129SOL     OW  911   0.907   2.678   4.976  0.4310 -0.3065 -0.1782
  129SOL    HW1  912   0.885   2.625   4.899 -1.7143 -1.3571  1.0626
  129SOL    HW2  913   0.961   2.621   5.030  0.4068 -0.2367 -0.0813
  130SOL     OW  914   4.890   1.125   1.557  0.0050  0.2674  0.0219
  130SOL    HW1  915   4.883   1.188   1.486 -3.8226  0.0244 -0.0210
  130SOL    HW2  916   4.906   1.178   1.635 -0.5767  1.0293 -0.3651
  131SOL     OW  917   6.743   4.686   2.229 -0.5680 -0.1044 -0.5369
  131SOL    HW1  918   6.688   4.634   2.170 -0.6003 -0.2046 -0.4181
  131SOL    HW2  919   6.761   4.628   2.303 -1.2917  0.3245 -0.0106
  132SOL     OW  920   2.843   1.056   2.880 -0.1970 -0.3781 -0.4938
  132SOL    HW1  921   2.882   0.969   2.892  0.8073  0.3234  2.3292
  132SOL    HW2  922   2.897   1.098   2.813  1.6593 -0.7545  0.6664
  133SOL     OW  923   2.168   1.930   5.993 -0.0012 -0.7237  0.5147
  133SOL    HW1  924   2.186   1.917   5.900 -1.2712 -2.2756  0.4428
  133SOL    HW2  925   2.241   1.886   6.038 -0.1496 -1.2414  0.2526
  134SOL     OW  926   3.001   3.344   1.131  0.2480  0.6649 -0.8101
  134SOL    HW1  927   2.946   3.278   1.089 -0.4216 -0.5347  1.7763
  134SOL    HW2  928   2.939   3.408   1.166  0.6576  0.7384 -0.2001
  135SOL     OW  929   6.006   6.466   0.670 -0.1220  0.5786  0.3781
  135SOL    HW1  930   6.023   6.373   0.684 -2.1614  0.0522 -0.2299
  135SOL    HW2  931   6.093   6.506   0.665  0.9232 -1.6799 -1.8736
  136SOL     OW  932   2.032   7.151   0.692 -0.2921  0.1017  0.1561
  136SOL    HW1  933   1.956   7.180   0.640 -0.0817  1.6115  0.6385
  136SOL    HW2  934   2.103   7.143   0.628 -0.6365 -0.5351 -0.1670
  137SOL     OW  935   6.511   2.279   0.833  0.2418  0.2717 -0.0014
  137SOL    HW1  936   6.470   2.316   0.911  2.7573  0.2356  1.4397
  137SOL    HW2  937   6.605   2.282   0.851  0.7992 -3.9286 -1.1035
  138SOL     OW  938   4.343   4.946   0.742 -0.1753  0.6100 -0.5605
  138SOL    HW1  939   4.347   4.947   0.647 -0.9443  0.1331 -0.6119
  138SOL    HW2  940   4.298   4.863   0.763  0.9222  0.1944  0.2501
  139SOL     OW  941   5.486   4.516   3.146  0.4188 -0.1951 -0.5668
  139SOL    HW1  942   5.509   4.431   3.110 -0.4162 -0.1543 -1.2470
  139SOL    HW2  943   5.393   4.507   3.170  0.6972  0.0877  0.6723
  140SOL     OW  944   3.389   4.820   0.881  0.6284  0.4353 -0.4602
  140SOL    HW1  945   3.435   4.757   0.936 -0.5154  1.5737  2.0084
  140SOL    HW2  946   3.305   4.778   0.861  0.9797  0.0859 -1.2249
  141SOL     OW  947   5.244   0.271   6.645 -0.0992 -0.1653  0.3840
  141SOL    HW1  948   5.180   0.244   6.712 -0.0132 -1.9725 -0.2074
  141SOL    HW2  949   5.191   0.305   6.574 -0.2424  0.8476  0.9567
  142SOL     OW  950   1.065   1.903   5.043 -0.3146  0.0269 -0.4458
  142SOL    HW1  951   1.151   1.861   5.045 -0.0492  0.4342 -2.2122
  142SOL    HW2  952   1.072   1.969   4.975 -1.1515  2.0497  1.3103
  143SOL     OW  953   2.427   1.804   2.969  0.3077  0.1510  0.0157
  143SOL    HW1  954   2.432   1.892   2.932 -1.2525  0.0912 -0.4182
  143SOL    HW2  955   2.513   1.765   2.951  0.2354  0.7669 -1.9239
  144SOL     OW  956   3.819   2.470   3.939  0.2968 -0.1073 -0.0066
  144SOL    HW1  957   3.746   2.440   3.993  0.5443 -0.8908 -0.0883
  144SOL    HW2  958   3.787   2.460   3.849  0.0539  0.7510 -0.0222
  145SOL     OW  959   7.170   6.276   6.506 -0.0327  0.3186 -0.3690
  145SOL    HW1  960   7.240   6.333   6.473 -0.0841  0.5461 -0.0901
  145SOL    HW2  961   7.210   6.189   6.509  0.2284  0.4415 -0.2506
  146SOL     OW  962   3.302   6.020   3.644  0.1454 -0.0266 -0.5555
  146SOL    HW1  963   3.348   6.040   3.725  1.0455  1.4875 -1.4068
  146SOL    HW2  964   3.315   6.097   3.588 -2.2101 -0.1399 -1.3828
  147SOL     OW  965   3.704   7.540   2.858 -0.4241  0.6005 -0.4072
  147SOL    HW1  966   3.714   7.593   2.937 -0.7943 -0.0792  0.1104
  147SOL    HW2  967   3.609   7.533   2.847 -0.3815 -0.1063 -0.3599
  148SOL     OW  968   3.776   4.597   4.304  0.1330 -0.7267 -0.0387
  148SOL    HW1  969   3.715   4.524   4.298 -0.8586  0.1813 -1.5861
  148SOL    HW2  970   3.779   4.634   4.216  0.6077  1.1120  0.6918
  149SOL     OW  971   2.069   5.797   4.948 -0.7829  0.4128 -0.2306
  149SOL    HW1  972   2.070   5.823   5.040 -2.1681 -2.2032  0.6559
  149SOL    HW2  973   2.160   5.804   4.920  0.2609 -1.3744  2.2483
  150SOL     OW  974   4.734   0.146   7.352 -0.0269 -0.2728 -0.3857
  150SOL    HW1  975   4.711   0.054   7.360 -2.5274  0.3608  0.4838
  150SOL    HW2  976   4.738   0.161   7.257  0.8852 -1.3278 -0.5434
  151SOL     OW  977   0.511   6.641   3.263 -0.0815 -0.0222 -0.5193
  151SOL    HW1  978   0.587   6.698   3.255 -0.2962  0.2846 -0.3945
  151SOL    HW2  979   0.442   6.698   3.297 -0.8205  0.1092 -2.1450
  152SOL     OW  980   7.214   2.789   3.930 -0.5534 -0.4351 -0.2974
  152SOL    HW1  981   7.270   2.783   3.853  0.0970  3.0952 -0.2350
  152SOL    HW2  982   7.267   2.754   4.001  0.7905  0.8512 -0.6320
  153SOL     OW  983   2.296   1.345   1.298 -0.6939 -0.6186 -0.0167
  153SOL    HW1  984   2.216   1.361   1.347 -1.7730 -2.0281 -1.2367
  153SOL    HW2  985   2.276   1.374   1.209  0.0304 -1.3002 -0.4173
  154SOL     OW  986   3.188   7.084   0.742 -0.0183 -0.2807  0.3643
  154SOL    HW1  987   3.271   7.128   0.722 -0.5086  0.7493  0.4958
  154SOL    HW2  988   3.134   7.153   0.781 -0.6952 -1.1105  0.9132
  155SOL     OW  989   1.473   0.589   6.119 -0.3965 -0.5016  0.2749
  155SOL    HW1  990   1.568   0.580   6.108 -0.4621  0.3146 -1.0334
  155SOL    HW2  991   1.443   0.631   6.039 -1.9204 -1.0337  0.5421
  156SOL     OW  992   6.775   3.750   4.323  0.5713  0.5246 -0.3943
  156SOL    HW1  993   6.779   3.656   4.341  2.4733  0.6934  0.2071
  156SOL    HW2  994   6.770   3.791   4.409 -0.5858  0.9899 -0.6630
  157SOL     OW  995   2.756   7.473   2.260 -0.6751 -0.7243  0.2133
  157SOL    HW1  996   2.814   7.398   2.248  1.9032  1.1851 -0.0184
  157SOL    HW2  997   2.712   7.484   2.176 -0.5788 -1.5362  0.0489
  158SOL     OW  998   6.501   2.368   0.562  0.2356  0.0555  0.4397
  158SOL    HW1  999   6.500   2.288   0.509  0.8490 -1.0924  2.0356
  158SOL    HW2 1000   6.500   2.335   0.653  0.0794  1.8883  1.1362
  159SOL     OW 1001   0.916   1.742   2.195  0.2149  0.0906  0.6819
  159SOL    HW1 1002   0.951   1.829   2.213 -2.0522  0.9841  1.1709
  159SOL    HW2 1003   0.887   1.746   2.104  2.4943 -1.0836 -0.1569
  160SOL     OW 1004   1.912   6.246   6.850 -0.0368  0.0460 -0.1146
  160SOL    HW1 1005   1.971   6.170   6.850 -0.0271  0.0410  0.7443
  160SOL    HW2 1006   1.935   6.294   6.770  0.5650 -0.3914 -0.2131
  161SOL     OW 1007   6.349   5.104   6.930  0.3411  0.7236  0.3755
  161SOL    HW1 1008   6.259   5.071   6.927  1.2057 -1.7927 -1.2851
  161SOL    HW2 1009   6.347   5.183   6.875 -0.4159 -0.7623 -1.8944
  162SOL     OW 1010   2.123   0.718   2.304 -0.3851  0.5675  0.4328
  162SOL    HW1 1011   2.083   0.654   2.362 -0.4274  0.7036  0.5540
  162SOL    HW2 1012   2.093   0.693   2.217  1.6730 -1.1590  0.1459
  163SOL     OW 1013   1.366   3.903   0.195 -0.3762  0.1862 -0.2739
  163SOL    HW1 1014   1.313   3.983   0.195  0.1705  0.5896  1.4771
  163SOL    HW2 1015   1.456   3.934   0.193 -0.1384 -0.3241  1.2432
  164SOL     OW 1016   3.480   0.155   0.409  0.0607 -0.4720  0.0170
  164SOL    HW1 1017   3.492   0.078   0.353 -1.2085 -0.0757 -0.8458
  164SOL    HW2 1018   3.385   0.164   0.418  0.2279  0.1587  1.2964
  165SOL     OW 1019   1.286   5.508   0.288 -0.5158  0.1983  0.0812
  165SOL    HW1 1020   1.249   5.431   0.244 -1.8202  0.8147  0.0361
  165SOL    HW2 1021   1.364   5.530   0.236 -0.3695 -0.8343 -0.1512
  166SOL     OW 1022   6.903   3.357   2.807  0.3984  0.2469 -0.3612
  166SOL    HW1 1023   6.907   3.269   2.768 -2.5328 -0.9216  1.6311
  166SOL    HW2 1024   6.971   3.357   2.874 -1.7797 -1.9489  2.0435
  167SOL     OW 1025   3.606   3.946   4.340  0.6309  0.5359 -0.0833
  167SOL    HW1 1026   3.671   3.917   4.275  1.1798  0.3742  0.5325
  167SOL    HW2 1027   3.563   4.021   4.298  1.0609  0.5115 -0.5886
  168SOL     OW 1028   1.450   5.084   4.954 -0.1709  0.1966  0.3798
  168SOL    HW1 1029   1.520   5.149   4.953  0.7986 -0.8056  1.0695
  168SOL    HW2 1030   1.376   5.130   4.993  0.6358  0.7611  1.2887
  169SOL     OW 1031   4.939   4.126   2.095 -0.3021 -0.1133 -0.4633
  169SOL    HW1 1032   4.929   4.072   2.016  1.4004 -0.4727 -0.4907
  169SOL    HW2 1033   4.947   4.215   2.062  0.9200 -0.3171 -0.7747
  170SOL     OW 1034   6.225   4.356   3.842 -0.1069 -0.0860  0.1169
  170SOL    HW1 1035   6.310   4.400   3.846 -0.5094  0.6306  1.1590
  170SOL    HW2 1036   6.215   4.314   3.927 -1.5026  1.2139  0.6278
  171SOL     OW 1037   1.233   3.189   3.806  0.2491 -0.0655  0.2436
  171SOL    HW1 1038   1.191   3.148   3.730 -0.4163 -1.3422  1.2527
  171SOL    HW2 1039   1.218   3.282   3.795 -1.3030 -0.3639 -0.3645
  172SOL     OW 1040   2.319   1.038   0.154 -0.7033  0.3375 -0.7916
  172SOL    HW1 1041   2.339   1.020   0.063 -2.1328  1.1576 -1.3038
  172SOL    HW2 1042   2.284   1.127   0.154 -2.4818 -0.3011  0.2490
  173SOL     OW 1043   6.813   4.399   2.982 -0.3772  0.1957  0.1521
  173SOL    HW1 1044   6.894   4.440   2.952 -0.8680  2.5125  1.7224
  173SOL    HW2 1045   6.809   4.419   3.076 -2.6712  0.0325  0.1422
  174SOL     OW 1046   2.941   0.277   2.290  0.4771 -0.5743  0.2402
  174SOL    HW1 1047   2.848   0.294   2.274  0.7117  0.1291 -0.4439
  174SOL    HW2 1048   2.944   0.237   2.376 -0.5398 -1.3742 -0.0772
  175SOL     OW 1049   0.902   7.391   5.048 -0.2090  0.2238 -0.1198
  175SOL    HW1 1050   0.840   7.324   5.073  0.1457 -0.7756 -1.7633
  175SOL    HW2 1051   0.927   7.433   5.130 -1.7005 -0.5313  0.7484
  176SOL     OW 1052   6.638   5.623   3.598  0.4480  0.0394 -0.2574
  176SOL    HW1 1053   6.709   5.568   3.564 -0.1039 -0.0078 -1.4050
  176SOL    HW2 1054   6.675   5.665   3.676  0.8251 -2.0928  0.7702
  177SOL     OW 1055   1.518   2.517   1.953 -0.4333  0.4371  0.3998
  177SOL    HW1 1056   1.490   2.471   2.033 -0.0426  1.2144  1.0026
  177SOL    HW2 1057   1.611   2.497   1.946 -0.3202  0.9114  0.5190
  178SOL     OW 1058   2.914   1.851   0.059 -0.3413  0.2984  0.4371
  178SOL    HW1 1059   2.913   1.942   0.030  2.0813  0.2315 -0.0374
  178SOL    HW2 1060   2.939   1.801  -0.019 -1.1518 -0.7457  0.8192
  179SOL     OW 1061   6.787   1.430   1.343 -0.7126  0.0639 -0.3597
  179SOL    HW1 1062   6.761   1.459   1.430  0.1487 -0.7525  0.1937
  179SOL    HW2 1063   6.720   1.366   1.318 -1.1223  0.5149 -0.4303
  180SOL     OW 1064   2.810   6.894   0.070  0.1361 -0.4679  0.6362
  180SOL    HW1 1065   2.809   6.979   0.027 -1.0557 -0.5138  0.5614
  180SOL    HW2 1066   2.733   6.849   0.037 -0.1256 -0.9690  1.8913
  181SOL     OW 1067   6.029   5.245   3.541 -0.5432  0.0911 -0.5169
  181SOL    HW1 1068   6.097   5.229   3.606 -1.4273 -3.6392 -0.3193
  181SOL    HW2 1069   6.067   5.214   3.459 -1.7577 -1.5839 -0.4868
  182SOL     OW 1070   2.454   7.505   5.163 -0.0557  0.2256  0.0003
  182SOL    HW1 1071   2.543   7.528   5.136  0.1939  0.0863  0.6789
  182SOL    HW2 1072   2.440   7.418   5.127  0.5047 -0.2177  0.8065
  183SOL     OW 1073   1.981   1.086   6.769 -1.0076 -0.4144  0.0360
  183SOL    HW1 1074   2.046   1.032   6.725 -0.4174  0.9264 -0.7802
  183SOL    HW2 1075   2.028   1.128   6.840 -0.9732  0.5296 -0.5314
  184SOL     OW 1076   1.639   0.091   5.485  0.2960  0.1849 -0.0002
  184SOL    HW1 1077   1.592   0.032   5.425  0.2371  1.0447 -0.8262
  184SOL    HW2 1078   1.724   0.106   5.442 -0.5438  2.5254 -1.0302
  185SOL     OW 1079   5.367   2.866   2.559 -0.4085 -0.1086  0.5275
  185SOL    HW1 1080   5.347   2.887   2.651 -0.2341  1.1905  0.2960
  185SOL    HW2 1081   5.360   2.771   2.554  0.2955 -0.2847  2.0664
  186SOL     OW 1082   3.313   2.612   4.502  0.3528  0.4732  0.0723
  186SOL    HW1 1083   3.317   2.701   4.467 -0.0600 -0.2140 -1.8184
  186SOL    HW2 1084   3.222   2.586   4.490  0.7774 -0.6989 -0.6896
  187SOL     OW 1085   1.664   6.318   3.222  0.5707  0.2592 -0.2819
  187SOL    HW1 1086   1.703   6.378   3.286  1.3966  0.3820 -0.8805
  187SOL    HW2 1087   1.723   6.323   3.146  0.2252 -0.7332 -0.6243
  188SOL     OW 1088   3.793   2.449   3.313  0.2750  0.0317  0.1703
  188SOL    HW1 1089   3.711   2.400   3.305  0.3735 -0.3439  1.1832
  188SOL    HW2 1090   3.854   2.402   3.256  0.9143 -2.3490  2.5761
  189SOL     OW 1091   3.738   5.786   2.577  0.3938 -0.0592 -0.0445
  189SOL    HW1 1092   3.703   5.697   2.579  1.4188 -0.4722 -0.1726
  189SOL    HW2 1093   3.833   5.775   2.581  0.4979  1.0862  1.3080
  190SOL     OW 1094   5.279   0.496   0.100  0.0892 -0.3356  0.0371
  190SOL    HW1 1095   5.366   0.460   0.088  0.4370  1.1169 -2.4947
  190SOL    HW2 1096   5.232   0.429   0.150  2.0688 -2.0431 -0.2537
  191SOL     OW 1097   1.443   5.453   5.791  0.0991 -0.4472  0.0253
  191SOL    HW1 1098   1.483   5.415   5.713 -0.0281 -0.7775  0.1167
  191SOL    HW2 1099   1.449   5.547   5.778 -0.7459 -0.4890 -0.8140
  192SOL     OW 1100   6.290   4.435   2.862  0.2456  0.1586 -0.0158
  192SOL    HW1 1101   6.385   4.440   2.873  0.2393 -0.5780  0.4133
  192SOL    HW2 1102   6.268   4.344   2.883 -0.5461  0.3054 -0.1846
  193SOL     OW 1103   2.447   6.362   6.758  0.3374  0.1069  0.0812
  193SOL    HW1 1104   2.537   6.340   6.783  0.2178  0.0815  0.5127
  193SOL    HW2 1105   2.427   6.305   6.684  0.1166 -1.0810  1.0208
  194SOL     OW 1106   5.189   3.896   3.558  0.3133  0.5480 -0.1993
  194SOL    HW1 1107   5.209   3.823   3.499  0.8825  0.1674  0.4514
  194SOL    HW2 1108   5.218   3.866   3.644 -1.5081  0.6532  0.4905
  195SOL     OW 1109   5.418   3.492   0.291 -0.1096  0.5743  0.2640
  195SOL    HW1 1110   5.406   3.584   0.265  2.3473  0.3267 -2.1809
  195SOL    HW2 1111   5.399   3.442   0.212  1.3206 -0.7764  0.7231
  196SOL     OW 1112   3.168   3.234   4.218  0.3401  0.0392  0.2630
  196SOL    HW1 1113   3.083   3.241   4.172  1.3995 -0.8576 -1.9920
  196SOL    HW2 1114   3.200   3.324   4.221  0.6558  0.0451 -1.7393
  197SOL     OW 1115   6.140   2.391   2.988  0.5805 -0.5404  0.9464
  197SOL    HW1 1116   6.086   2.325   3.031 -1.6385  1.6326  1.7777
  197SOL    HW2 1117   6.080   2.434   2.926  1.4417  1.6650  1.5501
  198SOL     OW 1118   5.475   6.210   4.395  0.2333  0.8410  0.0424
  198SOL    HW1 1119   5.520   6.134   4.358 -2.5028  0.1333 -2.1540
  198SOL    HW2 1120   5.479   6.276   4.325  1.9428  2.5577  1.6515
  199SOL     OW 1121   5.240   1.881   4.276  0.1867  0.4656  0.2175
  199SOL    HW1 1122   5.189   1.946   4.325  0.7844 -0.0204  1.5138
  199SOL    HW2 1123   5.318   1.928   4.248  0.6640  0.3069  1.2351
  200SOL     OW 1124   0.396   4.117   0.404  0.1169  0.0681 -0.3841
  200SOL    HW1 1125   0.448   4.044   0.370  0.0519 -0.8106  1.2904
  200SOL    HW2 1126   0.447   4.195   0.382  1.1364 -0.6233 -0.5610
  201SOL     OW 1127   4.446   0.148   2.901 -0.0070 -0.3078  0.1810
  201SOL    HW1 1128   4.390   0.102   2.964  0.2892  1.1404  1.5935
  201SOL    HW2 1129   4.535   0.133   2.934  0.1196  0.8716  0.4184
  202SOL     OW 1130   7.170   4.785   1.405  0.0001  0.5004 -0.1633
  202SOL    HW1 1131   7.250   4.836   1.391  0.0181  0.6582  0.4836
  202SOL    HW2 1132   7.099   4.848   1.394  0.0398  0.8237  1.2008
  203SOL     OW 1133   0.912   2.547   6.435 -0.3671 -0.7693  0.4989
  203SOL    HW1 1134   0.851   2.474   6.451 -2.0245  0.4680  0.0831
  203SOL    HW2 1135   0.932   2.542   6.342  1.9236 -2.4087  0.9721
  204SOL     OW 1136   3.469   5.332   4.038 -1.0849 -0.2600  0.0189
  204SOL    HW1 1137   3.457   5.304   4.129  0.2016 -0.7112  0.0737
  204SOL    HW2 1138   3.482   5.250   3.990 -2.1256 -0.0479 -0.6441
  205SOL     OW 1139   2.765   5.017   6.655 -0.1389  0.1063  0.2000
  205SOL    HW1 1140   2.678   5.033   6.692  0.4046  0.9291  1.1883
  205SOL    HW2 1141   2.822   5.009   6.732  0.6033 -0.7824 -0.4287
  206SOL     OW 1142   3.644   3.026   3.067  0.0625 -0.1380  0.3543
  206SOL    HW1 1143   3.670   3.023   2.975  0.8756 -1.1766  0.5994
  206SOL    HW2 1144   3.609   2.939   3.084  1.7943 -0.6549  1.5384
  207SOL     OW 1145   2.379   7.559   6.987 -0.2874  0.2554 -0.2107
  207SOL    HW1 1146   2.334   7.512   6.917 -0.5568 -0.5916  0.5003
  207SOL    HW2 1147   2.472   7.547   6.968 -0.3576 -0.1033 -0.3435
  208SOL     OW 1148   2.787   6.164   5.182  0.1453  0.3849 -0.0772
  208SOL    HW1 1149   2.866   6.184   5.132  0.4539 -0.9896 -0.1857
  208SOL    HW2 1150   2.766   6.245   5.228  0.8572  1.1515 -1.0800
  209SOL     OW 1151   1.157   0.174   3.406 -0.1545  0.0349 -0.0822
  209SOL    HW1 1152   1.122   0.189   3.318 -0.2363  0.2571 -0.0136
  209SOL    HW2 1153   1.085   0.135   3.455  0.8972 -3.4196 -1.0452
  210SOL     OW 1154   0.241   7.213   5.929 -0.2396  0.0478 -0.4493
  210SOL    HW1 1155   0.259   7.275   5.858  0.8680 -0.0939 -0.3057
  210SOL    HW2 1156   0.296   7.242   6.001 -1.9351  0.6531  0.6466
  211SOL     OW 1157   7.016   2.971   5.230  0.1952 -0.0176  0.0833
  211SOL    HW1 1158   6.933   2.996   5.190 -1.0227  2.4724  3.7276
  211SOL    HW2 1159   6.996   2.892   5.281 -0.2751  1.1528  1.7684
  212SOL     OW 1160   5.269   1.597   5.179  0.2050  0.1015  0.0780
  212SOL    HW1 1161   5.282   1.545   5.100 -4.6788  1.0276 -1.7298
  212SOL    HW2 1162   5.210   1.545   5.233 -0.2958  1.4294  0.8668
  213SOL     OW 1163   3.566   6.282   3.631  0.0417  0.1657  0.4950
  213SOL    HW1 1164   3.657   6.257   3.651 -0.1197  0.4382  1.6441
  213SOL    HW2 1165   3.518   6.262   3.711 -0.9119  0.0872 -0.0835
  214SOL     OW 1166   2.118   2.987   2.883 -0.1999 -0.0715  0.0885
  214SOL    HW1 1167   2.180   2.916   2.901  1.1383  0.7164 -1.2516
  214SOL    HW2 1168   2.040   2.942   2.850  0.3507 -0.9716 -0.0172
  215SOL     OW 1169   3.097   6.836   6.771  0.2507 -0.4443  0.0971
  215SOL    HW1 1170   3.161   6.773   6.739  0.8712  0.5781 -0.7349
  215SOL    HW2 1171   3.130   6.864   6.856  0.4685 -0.5439  0.0438
  216SOL     OW 1172   4.545   4.652   6.085  0.5151  0.3436 -0.6697
  216SOL    HW1 1173   4.575   4.563   6.107  1.1831 -0.1161 -3.1659
  216SOL    HW2 1174   4.580   4.706   6.156 -1.6351 -1.5494  2.0781
  217SOL     OW 1175   3.440   6.735   1.515  0.0299  0.0709  0.1297
  217SOL    HW1 1176   3.442   6.736   1.611 -0.0522 -2.6002  0.2526
  217SOL    HW2 1177   3.348   6.753   1.494 -0.0350  0.2926  0.5834
  218SOL     OW 1178   1.662   2.877   1.451  0.1055  0.6136 -0.3003
  218SOL    HW1 1179   1.623   2.912   1.371 -1.0511  1.9824  0.8133
  218SOL    HW2 1180   1.599   2.811   1.481 -0.0556  0.9377  0.0878
  219SOL     OW 1181   1.600   1.092   3.716  0.2817 -0.1287  0.4502
  219SOL    HW1 1182   1.505   1.101   3.706  0.1857  0.7830  1.9082
  219SOL    HW2 1183   1.637   1.154   3.653 -0.0551 -0.9345 -0.5664
  220SOL     OW 1184   5.533   1.451   2.230  0.1176  0.2049 -0.0837
  220SOL    HW1 1185   5.583   1.379   2.191  1.1517  0.7468  0.1993
  220SOL    HW2 1186   5.558   1.528   2.178 -0.3805  0.4933  0.1036
  221SOL     OW 1187   2.994   6.421   2.092  0.5856 -0.2903  0.5813
  221SOL    HW1 1188   2.960   6.332   2.103 -1.0939  0.0187 -1.5412
  221SOL    HW2 1189   2.919   6.477   2.111  1.2303  0.6293  0.4743
  222SOL     OW 1190   7.093   4.638   2.246  0.4242  0.0198 -0.3116
  222SOL    HW1 1191   7.013   4.657   2.197  0.0958  1.1419  0.6098
  222SOL    HW2 1192   7.162   4.635   2.179 -0.2893 -0.3908 -1.0484
  223SOL     OW 1193   6.076   1.722   0.942 -0.4801 -0.5030  0.4681
  223SOL    HW1 1194   6.004   1.762   0.893  0.4205  0.5752 -0.0369
  223SOL    HW2 1195   6.051   1.630   0.951 -1.3276 -0.4296 -0.8152
  224SOL     OW 1196   3.805   6.905   6.431 -0.7563  0.4163  0.0335
  224SOL    HW1 1197   3.897   6.905   6.403 -0.0705  2.6868  1.9865
  224SOL    HW2 1198   3.774   6.993   6.411 -1.3702  0.8651  2.6767
  225SOL     OW 1199   2.425   3.944   3.079  0.7313  0.6633  0.1051
  225SOL    HW1 1200   2.488   3.901   3.137 -0.7660 -0.2803  1.1230
  225SOL    HW2 1201   2.474   4.016   3.040  2.9387 -1.0801 -0.5591
  226SOL     OW 1202   2.043   5.158   2.521  0.4416  0.3381  0.6595
  226SOL    HW1 1203   2.029   5.199   2.435  1.6778  0.0425  0.2934
  226SOL    HW2 1204   1.957   5.159   2.562 -0.3638 -0.2336 -0.9031
  227SOL     OW 1205   1.572   4.542   4.969 -0.5780  0.2876 -0.2185
  227SOL    HW1 1206   1.489   4.500   4.991 -0.4957  0.0780 -0.3041
  227SOL    HW2 1207   1.551   4.636   4.963 -0.7008  0.2881  0.2470
  228SOL     OW 1208   0.775   3.875   1.051  0.8151  0.2826 -0.0319
  228SOL    HW1 1209   0.720   3.952   1.035  2.3044  1.3639 -0.2680
  228SOL    HW2 1210   0.864   3.908   1.039  1.4764 -1.6633 -0.7681
  229SOL     OW 1211   0.459   2.817   2.482  0.0624 -0.2489 -0.1567
  229SOL    HW1 1212   0.377   2.811   2.433  0.1843 -0.5769 -0.3225
  229SOL    HW2 1213   0.431   2.828   2.573 -0.1644 -0.0711 -0.2450
  230SOL     OW 1214   6.941   2.481   3.287 -0.5490 -0.0269 -0.1665
  230SOL    HW1 1215   6.949   2.472   3.382 -2.2785 -2.4267 -0.1549
  230SOL    HW2 1216   6.850   2.508   3.273 -0.4445 -0.1341 -1.1500
  231SOL     OW 1217   3.057   3.113   6.522  0.6918 -0.1037 -0.7257
  231SOL    HW1 1218   3.028   3.103   6.613  1.9770  2.0867  0.0042
  231SOL    HW2 1219   3.049   3.026   6.485 -2.3928 -0.5461  0.6869
  232SOL     OW 1220   4.764   1.182   2.018  0.1327  0.3390  0.1459
  232SOL    HW1 1221   4.670   1.162   2.014 -0.7323  3.7244  0.2515
  232SOL    HW2 1222   4.796   1.161   1.931 -0.5980 -1.1804  0.1993
  233SOL     OW 1223   1.383   2.617   2.494  0.0600  0.6210 -0.7929
  233SOL    HW1 1224   1.405   2.524   2.502 -0.3236  0.5900 -0.0162
  233SOL    HW2 1225   1.441   2.662   2.555  0.4699  0.9379 -1.4024
  234SOL     OW 1226   1.546   4.134   4.616  0.0122 -0.5223 -0.6223
  234SOL    HW1 1227   1.466   4.185   4.610  0.5178  0.2568 -0.7956
  234SOL    HW2 1228   1.576   4.124   4.525  0.0317 -0.9424 -0.5731
  235SOL     OW 1229   5.116   0.513   3.766  0.2299  0.2365  0.1876
  235SOL    HW1 1230   5.036   0.529   3.716  0.9106 -0.2468 -1.0971
  235SOL    HW2 1231   5.120   0.418   3.776  0.3990  0.2922  0.6918
  236SOL     OW 1232   5.117   0.984   2.625 -0.0465 -0.0755 -0.0924
  236SOL    HW1 1233   5.043   1.032   2.589 -0.0220  0.1346  0.1280
  236SOL    HW2 1234   5.164   0.949   2.549  0.4421  1.0090 -0.3150
  237SOL     OW 1235   1.504   2.208   5.026 -0.2947  0.0625 -0.1242
  237SOL    HW1 1236   1.576   2.235   4.969 -0.4990  1.1036  0.1064
  237SOL    HW2 1237   1.547   2.175   5.105 -0.0445 -0.5095 -0.4865
  238SOL     OW 1238   2.446   6.702   3.695 -0.7399 -0.2139  0.6944
  238SOL    HW1 1239   2.539   6.681   3.698 -0.5937  0.5167  1.7879
  238SOL    HW2 1240   2.403   6.617   3.693 -0.0750 -0.5804  1.4903
  239SOL     OW 1241   6.701   6.790   5.312 -0.4586 -0.1979 -0.1824
  239SOL    HW1 1242   6.770   6.851   5.285 -1.1458  0.6759 -0.0164
  239SOL    HW2 1243   6.620   6.833   5.286 -0.9198 -2.0372 -2.0624
  240SOL     OW 1244   3.692   1.128   5.630  0.1138 -0.2841 -0.0066
  240SOL    HW1 1245   3.703   1.098   5.720 -0.3848 -0.2010  0.0805
  240SOL    HW2 1246   3.679   1.223   5.638  1.6601 -0.0128 -0.2790
  241SOL     OW 1247   5.836   7.490   1.234 -0.1606 -0.2828  0.2987
  241SOL    HW1 1248   5.746   7.465   1.253  0.0950 -0.3403  1.4653
  241SOL    HW2 1249   5.846   7.473   1.140 -0.8475 -1.8559  0.4847
  242SOL     OW 1250   7.444   5.836   1.451  0.0509  0.3769 -0.2482
  242SOL    HW1 1251   7.486   5.767   1.399  0.5393  0.2277  0.3401
  242SOL    HW2 1252   7.511   5.904   1.457  0.5632 -0.2452  1.4786
  243SOL     OW 1253   3.954   7.545   1.998  0.4241 -0.2439  0.1539
  243SOL    HW1 1254   3.990   7.496   1.924 -0.2016 -0.7131  0.1550
  243SOL    HW2 1255   3.904   7.481   2.048 -2.5105  0.7763 -1.1906
  244SOL     OW 1256   4.088   4.684   5.062  0.9721  0.2429  0.2301
  244SOL    HW1 1257   4.019   4.636   5.015 -0.8922  3.3834 -0.5237
  244SOL    HW2 1258   4.166   4.673   5.008  0.2228 -0.6388 -0.7170
  245SOL     OW 1259   5.018   2.175   3.873 -0.7544 -0.1210 -0.0508
  245SOL    HW1 1260   5.035   2.102   3.813  0.5315 -0.8936  1.2000
  245SOL    HW2 1261   5.040   2.253   3.822 -1.6226 -0.6082 -1.2320
  246SOL     OW 1262   0.834   0.040   4.371 -0.3696  0.2766 -0.3221
  246SOL    HW1 1263   0.852   0.053   4.278 -0.0041 -0.2463 -0.3254
  246SOL    HW2 1264   0.755   0.092   4.387  0.7521  2.1302 -0.4397
  247SOL     OW 1265   5.692   1.634   1.432 -0.3806 -0.1608 -0.4310
  247SOL    HW1 1266   5.642   1.712   1.410  1.0693  1.3823  1.3991
  247SOL    HW2 1267   5.668   1.614   1.522  1.0282 -0.3695 -0.0715
  248SOL     OW 1268   0.459   1.256   5.639  0.1080 -0.3808 -0.1581
  248SOL    HW1 1269   0.417   1.192   5.582  1.3873 -2.4814  1.0948
  248SOL    HW2 1270   0.403   1.261   5.716 -0.1882  0.3148 -0.4163
  249SOL     OW 1271   3.125   0.515   5.649  0.3263  0.4509  0.0424
  249SOL    HW1 1272   3.084   0.600   5.636 -0.1767  0.0208 -1.3973
  249SOL    HW2 1273   3.057   0.462   5.691  0.6076  0.7290  0.8524
  250SOL     OW 1274   4.150   2.258   4.836 -0.0442 -0.4767  0.2783
  250SOL    HW1 1275   4.102   2.339   4.816  1.4238  0.1417 -0.9835
  250SOL    HW2 1276   4.232   2.267   4.787  0.1532 -2.7421  0.1030
  251SOL     OW 1277   1.194   4.382   1.829  0.5509 -0.1187  0.4201
  251SOL    HW1 1278   1.160   4.385   1.918 -0.7260 -0.7004 -0.0294
  251SOL    HW2 1279   1.237   4.296   1.822  1.1309  0.1491  0.6336
  252SOL     OW 1280   4.424   6.465   5.136  0.1975  0.0307  0.3742
  252SOL    HW1 1281   4.405   6.379   5.099 -0.0476 -0.4332  1.5398
  252SOL    HW2 1282   4.392   6.460   5.226 -0.3461  1.5282  0.2954
  253SOL     OW 1283   0.651   4.408   5.657 -0.0781  0.1810  0.2555
  253SOL    HW1 1284   0.665   4.314   5.667  1.5521  0.1670 -1.5908
  253SOL    HW2 1285   0.738   4.447   5.663 -0.4192  1.2987 -1.2299
  254SOL     OW 1286   6.569   6.529   6.441 -0.4418  0.1366  0.4285
  254SOL    HW1 1287   6.607   6.471   6.376  1.3144  0.5320  1.0543
  254SOL    HW2 1288   6.583   6.485   6.524 -3.4432 -0.7849  0.5790
  255SOL     OW 1289   3.707   5.971   1.796  0.1380  0.3828  0.3702
  255SOL    HW1 1290   3.758   5.891   1.798  0.2361  0.4172 -0.4233
  255SOL    HW2 1291   3.752   6.031   1.855  1.6332  0.7744 -1.1059
  256SOL     OW 1292   4.491   4.093   6.610 -0.0912  0.0501  0.1616
  256SOL    HW1 1293   4.564   4.070   6.553 -0.3016 -1.6286  0.5245
  256SOL    HW2 1294   4.531   4.106   6.696 -0.0312  0.7102  0.0431
  257SOL     OW 1295   2.578   0.383   4.167 -0.2157  0.1922  0.3242
  257SOL    HW1 1296   2.554   0.292   4.151 -0.7549  0.5068 -0.7742
  257SOL    HW2 1297   2.659   0.395   4.117  1.0117 -0.2144  2.1119
  258SOL     OW 1298   2.784   0.450   1.201  0.0858 -0.0759 -0.1510
  258SOL    HW1 1299   2.822   0.531   1.236 -1.7171  1.5302 -1.6814
  258SOL    HW2 1300   2.694   0.449   1.234 -1.3876  1.0198 -3.6849
  259SOL     OW 1301   3.836   0.609   6.630 -0.0945 -0.8074 -1.4277
  259SOL    HW1 1302   3.810   0.628   6.721  2.8030 -0.6004 -0.5502
  259SOL    HW2 1303   3.876   0.522   6.634 -1.7515 -1.7209 -2.9842
  260SOL     OW 1304   4.535   3.042   0.253 -0.2379 -0.4326 -0.1383
  260SOL    HW1 1305   4.573   3.128   0.273 -0.9967 -0.4884  1.7593
  260SOL    HW2 1306   4.594   2.979   0.297  0.0583 -0.8642 -1.1339
  261SOL     OW 1307   1.686   3.798   4.620  0.6160  0.0900 -0.1877
  261SOL    HW1 1308   1.746   3.725   4.609 -0.2566 -0.5469 -0.8267
  261SOL    HW2 1309   1.642   3.806   4.535 -1.0839 -0.2554  0.6161
  262SOL     OW 1310   3.010   5.457   1.295  0.1259 -0.5446 -0.5569
  262SOL    HW1 1311   2.976   5.379   1.251 -0.8541 -1.2835  1.3674
  262SOL    HW2 1312   3.095   5.429   1.331  0.3256 -0.3490 -0.8749
  263SOL     OW 1313   1.951   5.405   4.877  0.0688  0.0254  0.0485
  263SOL    HW1 1314   1.952   5.313   4.849 -2.5555 -0.4470  1.2038
  263SOL    HW2 1315   2.039   5.421   4.911  0.1324 -2.5600  1.2932
  264SOL     OW 1316   4.679   0.513   4.154  0.0265  0.0697  0.3260
  264SOL    HW1 1317   4.687   0.460   4.234 -0.5227  2.1337  1.8309
  264SOL    HW2 1318   4.586   0.529   4.145  0.1949  0.8846 -0.0242
  265SOL     OW 1319   3.954   6.479   4.482 -0.6022 -0.1656  0.5133
  265SOL    HW1 1320   3.876   6.424   4.477 -0.9803  0.3021  1.1645
  265SOL    HW2 1321   4.011   6.435   4.544 -1.6334  1.0240  2.4105
  266SOL     OW 1322   1.275   2.857   1.656 -0.5352 -0.0991 -0.6499
  266SOL    HW1 1323   1.231   2.931   1.699 -1.5945 -0.6862 -0.7077
  266SOL    HW2 1324   1.221   2.781   1.677  2.4144 -1.5745  2.4762
  267SOL     OW 1325   4.437   4.165   2.503 -0.4353  0.3890  0.4080
  267SOL    HW1 1326   4.498   4.206   2.564  0.0029 -0.7056  0.7152
  267SOL    HW2 1327   4.366   4.132   2.557 -0.6597  0.5063  0.1901
  268SOL     OW 1328   1.157   5.620   5.078  0.4631  0.1627  0.3885
  268SOL    HW1 1329   1.128   5.705   5.112 -0.5114  0.2764 -0.6966
  268SOL    HW2 1330   1.122   5.615   4.990  0.8655 -1.1998  0.2739
  269SOL     OW 1331   0.197   0.453   1.693 -0.2296 -0.8292 -0.3771
  269SOL    HW1 1332   0.211   0.360   1.711  1.0814 -0.6977 -0.6226
  269SOL    HW2 1333   0.233   0.466   1.605 -1.7052 -0.3664 -0.9467
  270SOL     OW 1334   6.389   4.412   4.532 -0.3511  0.3139 -0.3833
  270SOL    HW1 1335   6.456   4.433   4.467 -1.2082 -0.7534 -1.6617
  270SOL    HW2 1336   6.374   4.494   4.579  1.2656  0.7621 -0.6071
  271SOL     OW 1337   0.797   4.354   3.867 -0.1854  0.6031 -0.0397
  271SOL    HW1 1338   0.726   4.329   3.807  0.2251 -0.6513 -0.0315
  271SOL    HW2 1339   0.863   4.285   3.856  0.3271  0.8844  1.1377
  272SOL     OW 1340   1.345   7.207   0.388 -0.6512 -0.1072  0.2647
  272SOL    HW1 1341   1.440   7.221   0.392 -0.7589  0.7052  0.3083
  272SOL    HW2 1342   1.335   7.114   0.369  0.1673 -0.0988 -0.2880
  273SOL     OW 1343   1.904   4.810   6.117  0.1842 -0.4154 -0.6165
  273SOL    HW1 1344   1.926   4.761   6.197 -0.6690 -0.9723 -0.7012
  273SOL    HW2 1345   1.841   4.754   6.072  1.2226 -0.4461 -2.0729
  274SOL     OW 1346   3.933   7.184   5.303 -0.1309  0.5833  0.2371
  274SOL    HW1 1347   3.844   7.149   5.308 -0.1177  0.1338 -1.7272
  274SOL    HW2 1348   3.922   7.273   5.269 -0.0607  2.1264  3.8727
  275SOL     OW 1349   3.143   4.680   5.880 -0.0960 -0.6256  0.3556
  275SOL    HW1 1350   3.225   4.730   5.877 -0.5853  0.1627 -0.0536
  275SOL    HW2 1351   3.094   4.718   5.952  0.0538 -1.3635  0.8579
  276SOL     OW 1352   6.423   6.219   3.495  0.1162  0.3998 -0.5420
  276SOL    HW1 1353   6.426   6.180   3.582  1.3052  0.7556 -0.4059
  276SOL    HW2 1354   6.444   6.311   3.509 -1.2516  0.8062 -1.0285
  277SOL     OW 1355   3.833   4.762   4.916 -0.3637  0.2610  0.2167
  277SOL    HW1 1356   3.812   4.836   4.859  0.2449  0.5894  0.4162
  277SOL    HW2 1357   3.806   4.790   5.003 -1.5676 -0.3542  0.0679
  278SOL     OW 1358   4.030   5.005   1.990  0.1078  0.0993 -0.2590
  278SOL    HW1 1359   4.038   4.951   1.912 -1.4761 -1.0141  0.3001
  278SOL    HW2 1360   4.120   5.018   2.021  0.8384  1.2136 -2.6476
  279SOL     OW 1361   3.996   6.139   0.363 -0.7351 -0.4374 -0.2997
  279SOL    HW1 1362   4.084   6.130   0.327 -0.5802  0.1938 -0.1104
  279SOL    HW2 1363   3.981   6.234   0.364 -1.3087 -0.5285 -0.0838
  280SOL     OW 1364   5.541   4.910   4.129 -0.7281 -0.2840 -0.3032
  280SOL    HW1 1365   5.530   5.000   4.101  1.9661 -0.1478 -1.1944
  280SOL    HW2 1366   5.483   4.860   4.072 -0.3747  0.6603 -1.5361
  281SOL     OW 1367   6.213   0.920   2.228 -0.2749  0.3087 -0.0522
  281SOL    HW1 1368   6.237   0.830   2.251  2.0669  0.3841 -1.8448
  281SOL    HW2 1369   6.240   0.972   2.304 -0.1490 -0.3131  0.3321
  282SOL     OW 1370   2.082   6.461   1.026 -0.6252  0.2044 -0.1201
  282SOL    HW1 1371   2.002   6.438   1.073 -0.3030  1.0707  0.8978
  282SOL    HW2 1372   2.151   6.411   1.070 -0.1995  1.6288  0.9085
  283SOL     OW 1373   1.018   1.690   7.132 -0.5079  0.0375 -0.2357
  283SOL    HW1 1374   0.963   1.721   7.060 -1.4446 -2.4256 -0.6763
  283SOL    HW2 1375   0.965   1.622   7.175  1.7390 -1.6649  0.0127
  284SOL     OW 1376   5.631   5.800   4.097  0.0851  0.5348 -0.0649
  284SOL    HW1 1377   5.612   5.838   4.012 -0.3248 -0.9088 -0.6417
  284SOL    HW2 1378   5.706   5.742   4.081 -1.6797 -1.8825 -0.1076
  285SOL     OW 1379   2.254   1.489   6.429 -0.2830  0.0082 -0.3119
  285SOL    HW1 1380   2.180   1.491   6.367 -0.3800 -1.3719 -0.2557
  285SOL    HW2 1381   2.331   1.473   6.375 -0.3239 -0.8535 -0.1266
  286SOL     OW 1382   4.018   5.764   2.569 -0.2416 -0.3196  0.1189
  286SOL    HW1 1383   4.062   5.765   2.654  0.9847 -2.6364 -0.4198
  286SOL    HW2 1384   4.088   5.759   2.505 -1.1692  0.9914 -1.0561
  287SOL     OW 1385   5.111   5.062   0.813 -0.0849  0.1209  0.2768
  287SOL    HW1 1386   5.141   5.086   0.726 -0.0157  0.4865  0.4000
  287SOL    HW2 1387   5.174   4.996   0.842  0.3207  0.5268  0.3371
  288SOL     OW 1388   3.950   3.287   2.055  0.0484 -0.5265 -0.9479
  288SOL    HW1 1389   3.962   3.232   2.133 -0.3558 -0.2188 -0.6655
  288SOL    HW2 1390   4.039   3.316   2.033  0.1672 -0.6076 -0.5918
  289SOL     OW 1391   3.242   0.882   2.611  0.1982 -0.2642  0.2464
  289SOL    HW1 1392   3.174   0.939   2.575  0.2872  0.2201  0.8305
  289SOL    HW2 1393   3.273   0.928   2.689 -0.5305 -1.6619  1.4113
  290SOL     OW 1394   1.811   1.606   5.600 -0.0218  0.1375  0.1719
  290SOL    HW1 1395   1.728   1.615   5.553 -0.6177  0.0768  1.1792
  290SOL    HW2 1396   1.859   1.540   5.551 -1.3247 -1.1830  0.5959
  291SOL     OW 1397   4.920   1.632   4.697 -0.7545 -0.0379 -0.3897
  291SOL    HW1 1398   4.985   1.653   4.630  0.9090 -0.6828  0.9265
  291SOL    HW2 1399   4.836   1.632   4.651  0.3124 -0.4162 -2.4432
  292SOL     OW 1400   6.788   6.797   1.745  0.1073 -0.3812  0.1483
  292SOL    HW1 1401   6.777   6.755   1.660 -1.3319 -0.4032  0.3288
  292SOL    HW2 1402   6.710   6.852   1.756 -1.0211 -2.2596  2.5023
  293SOL     OW 1403   6.657   5.161   6.246 -0.1649 -0.2260  0.0051
  293SOL    HW1 1404   6.705   5.162   6.163  0.3809 -0.7395  0.3084
  293SOL    HW2 1405   6.565   5.157   6.220 -0.0131 -0.1278 -0.5757
  294SOL     OW 1406   6.556   5.316   2.995 -0.3090 -0.4758 -0.1092
  294SOL    HW1 1407   6.609   5.394   2.979  0.8297 -1.0252  0.7354
  294SOL    HW2 1408   6.617   5.255   3.039 -1.3333 -1.5891 -0.1792
  295SOL     OW 1409   4.016   2.574   3.659  0.0221 -0.3040  0.1618
  295SOL    HW1 1410   4.103   2.576   3.698 -0.3486  2.0095  1.0330
  295SOL    HW2 1411   3.968   2.644   3.703 -1.9966 -0.8696 -0.9761
  296SOL     OW 1412   3.092   5.553   5.517  0.3805  0.1199 -0.4777
  296SOL    HW1 1413   3.177   5.532   5.479  1.9661 -0.7160  3.1343
  296SOL    HW2 1414   3.095   5.648   5.532  0.0018  0.3444 -1.6818
  297SOL     OW 1415   1.134   6.123   2.571 -0.6461  0.2539  0.3764
  297SOL    HW1 1416   1.214   6.098   2.618 -0.4645 -1.3616 -0.7056
  297SOL    HW2 1417   1.063   6.083   2.621 -0.7354  1.1924  1.0105
  298SOL     OW 1418   1.109   7.213   5.974 -0.0997  0.5535  0.3273
  298SOL    HW1 1419   1.081   7.124   5.955  0.1008  0.4981  0.2841
  298SOL    HW2 1420   1.184   7.203   6.033 -1.4925  0.7577  2.2235
  299SOL     OW 1421   6.216   2.629   5.792 -0.1128  0.2206 -0.2792
  299SOL    HW1 1422   6.151   2.647   5.724 -0.0205 -1.6513 -0.8955
  299SOL    HW2 1423   6.171   2.571   5.854 -0.3369  2.2017  1.5438
  300SOL     OW 1424   5.329   7.229   2.189  0.0297 -0.1553  0.2724
  300SOL    HW1 1425   5.290   7.145   2.165 -0.1528  0.5824 -2.2417
  300SOL    HW2 1426   5.419   7.207   2.215 -0.7616 -1.3699  2.2466
  301SOL     OW 1427   5.786   4.120   4.912  0.3053  0.2471 -0.5810
  301SOL    HW1 1428   5.866   4.150   4.955  1.2846 -2.0177 -0.7008
  301SOL    HW2 1429   5.816   4.062   4.842 -1.4359 -1.0387 -0.3341
  302SOL     OW 1430   6.251   5.384   7.144  0.0701  0.4319 -0.0777
  302SOL    HW1 1431   6.341   5.353   7.155  0.4104  1.1099 -0.8748
  302SOL    HW2 1432   6.199   5.303   7.141  0.6812  0.0194  0.0986
  303SOL     OW 1433   4.447   4.337   4.325  0.2233  0.1600  0.1253
  303SOL    HW1 1434   4.460   4.367   4.235 -0.2885 -2.9332 -1.1250
  303SOL    HW2 1435   4.369   4.384   4.355 -0.5436  0.1237 -1.6765
  304SOL     OW 1436   6.909   2.520   4.255  0.2496 -0.4861 -0.3046
  304SOL    HW1 1437   6.968   2.583   4.214 -0.3996  0.4270  0.1514
  304SOL    HW2 1438   6.863   2.569   4.323 -1.7111 -0.9133 -1.2488
  305SOL     OW 1439   3.926   3.073   6.735 -0.2307  0.2820 -0.2686
  305SOL    HW1 1440   3.896   2.995   6.688 -0.7541  0.6591 -0.5809
  305SOL    HW2 1441   3.895   3.146   6.681 -1.2368  0.7351  0.8824
  306SOL     OW 1442   0.011   4.228   6.519 -0.1911  0.2175  0.0927
  306SOL    HW1 1443   0.013   4.138   6.487  1.2924  0.1825  0.1902
  306SOL    HW2 1444  -0.048   4.274   6.459  0.3592 -0.4503 -0.9918
  307SOL     OW 1445   3.351   3.381   0.793 -0.1383 -0.2781  0.5051
  307SOL    HW1 1446   3.330   3.378   0.699  1.2274  0.0616  0.1672
  307SOL    HW2 1447   3.392   3.467   0.805 -0.9139 -0.0377  1.5612
  308SOL     OW 1448   4.659   5.353   5.905 -0.2198 -0.0655 -0.2487
  308SOL    HW1 1449   4.730   5.290   5.891 -1.1212 -0.8471 -1.6141
  308SOL    HW2 1450   4.661   5.408   5.826  0.3293  1.4270  0.7664
  309SOL     OW 1451   3.187   0.499   0.975  0.5052 -0.2026  0.2744
  309SOL    HW1 1452   3.155   0.587   0.993  2.8672  0.5582  1.1257
  309SOL    HW2 1453   3.110   0.451   0.945 -1.2754  1.5717  1.7494
  310SOL     OW 1454   0.372   3.363   1.147 -0.0211 -0.4247  0.2813
  310SOL    HW1 1455   0.308   3.312   1.198  0.3585 -0.0135  1.2010
  310SOL    HW2 1456   0.369   3.325   1.059 -3.0797  0.9452 -0.3151
  311SOL     OW 1457   6.946   6.275   0.751 -0.3210 -0.0739  0.4684
  311SOL    HW1 1458   6.890   6.322   0.812 -1.7764 -0.2219 -0.6842
  311SOL    HW2 1459   6.911   6.298   0.665  1.0043 -0.6887 -0.2542
  312SOL     OW 1460   6.666   1.720   4.941  0.2366  0.2290 -0.1298
  312SOL    HW1 1461   6.627   1.634   4.957  0.5762 -0.3616 -2.1464
  312SOL    HW2 1462   6.760   1.706   4.952  0.2557  0.4656  0.0167
  313SOL     OW 1463   5.446   1.623   5.901 -0.3959 -0.1779  0.1144
  313SOL    HW1 1464   5.401   1.648   5.981 -1.0037 -0.9935  0.0415
  313SOL    HW2 1465   5.537   1.611   5.927 -0.7408 -1.2863  0.8986
  314SOL     OW 1466   0.017   1.361   2.292 -0.4173  0.0746 -0.1096
  314SOL    HW1 1467   0.059   1.391   2.372  0.3792  0.4124 -0.6447
  314SOL    HW2 1468  -0.008   1.441   2.246 -2.5273 -0.1041  0.6246
  315SOL     OW 1469   2.014   7.288   0.333 -0.0095  0.3760 -0.0788
  315SOL    HW1 1470   1.972   7.273   0.248  1.5079  0.2340 -0.8387
  315SOL    HW2 1471   2.091   7.340   0.313  0.6756 -0.1185  1.1469
  316SOL     OW 1472   1.023   0.002   3.597 -0.1154 -0.1663  0.3711
  316SOL    HW1 1473   0.987  -0.076   3.553  2.8360 -1.5669  0.1860
  316SOL    HW2 1474   1.116  -0.016   3.604  0.6464  3.2574  0.6736
  317SOL     OW 1475   7.242   5.276   5.173 -0.2630  0.5742  0.2112
  317SOL    HW1 1476   7.188   5.207   5.211 -0.0290 -0.0705 -0.5853
  317SOL    HW2 1477   7.186   5.318   5.108 -0.0959  0.4947  0.0142
  318SOL     OW 1478   4.811   7.039   2.567 -0.0474 -0.3298 -0.3104
  318SOL    HW1 1479   4.730   7.025   2.616  0.7463  0.1196  1.1875
  318SOL    HW2 1480   4.784   7.088   2.490 -1.2830 -0.7229 -0.1478
  319SOL     OW 1481   4.038   0.219   2.006  0.2263  0.2814  0.6318
  319SOL    HW1 1482   4.123   0.209   2.049  0.4880  0.0837  0.0802
  319SOL    HW2 1483   4.003   0.131   2.001 -1.0018  0.5667  2.7780
  320SOL     OW 1484   4.842   5.798   1.810 -0.2459  0.4414  0.2890
  320SOL    HW1 1485   4.751   5.770   1.794 -0.0965 -0.7309  1.3183
  320SOL    HW2 1486   4.833   5.877   1.863 -0.6760  2.5742 -2.6772
  321SOL     OW 1487   3.746   5.890   1.399  0.4380 -0.5915 -0.2028
  321SOL    HW1 1488   3.757   5.915   1.308  0.1910 -0.9842 -0.3427
  321SOL    HW2 1489   3.703   5.966   1.440  0.3990 -0.4832 -0.4474
  322SOL     OW 1490   4.830   4.871   1.509  0.1064 -0.7237  0.1910
  322SOL    HW1 1491   4.814   4.940   1.446 -0.5964  0.9963  2.1325
  322SOL    HW2 1492   4.828   4.915   1.594 -2.2001 -3.3835  1.6856
  323SOL     OW 1493   0.095   2.490   1.467  0.5727 -0.0865 -0.0309
  323SOL    HW1 1494   0.169   2.447   1.425 -0.2392 -0.8192 -0.7490
  323SOL    HW2 1495   0.051   2.420   1.516 -0.3761  0.0479 -0.6664
  324SOL     OW 1496   2.048   3.905   4.591 -0.1420 -0.1558 -0.0870
  324SOL    HW1 1497   1.993   3.890   4.514 -1.2768 -3.5375  1.1854
  324SOL    HW2 1498   1.998   3.966   4.645 -0.5122  0.2913 -0.9098
  325SOL     OW 1499   0.688   2.010   6.511 -0.2688  0.0795 -0.1414
  325SOL    HW1 1500   0.760   1.960   6.472  0.9935  0.6036  1.4083
  325SOL    HW2 1501   0.727   2.052   6.588 -2.4665 -0.3895  1.3070
  326SOL     OW 1502   3.477   2.584   5.165  0.1339 -0.4162  0.5753
  326SOL    HW1 1503   3.482   2.604   5.258 -0.2507 -0.2441  0.5600
  326SOL    HW2 1504   3.411   2.515   5.158  1.4209 -1.6927  0.6187
  327SOL     OW 1505   0.517   5.111   6.426  1.0493 -0.0036  0.1057
  327SOL    HW1 1506   0.552   5.109   6.337  1.5017 -1.9921  0.2691
  327SOL    HW2 1507   0.561   5.037   6.470 -0.9337 -0.5578  1.2734
  328SOL     OW 1508   3.907   3.932   2.171  0.3876 -0.3823  0.3372
  328SOL    HW1 1509   3.939   3.847   2.201  1.3561 -0.7328 -1.5801
  328SOL    HW2 1510   3.980   3.992   2.185 -0.1671  0.0979  1.3375
  329SOL     OW 1511   2.670   5.778   5.454 -0.0185 -0.8888 -0.2659
  329SOL    HW1 1512   2.723   5.858   5.454 -1.7489  0.3463 -1.1156
  329SOL    HW2 1513   2.728   5.710   5.486  1.3792  0.8196  1.0068
  330SOL     OW 1514   6.880   2.722   1.212  0.3612  0.0341 -0.0337
  330SOL    HW1 1515   6.906   2.634   1.239  0.5420  0.2234  0.4148
  330SOL    HW2 1516   6.795   2.709   1.168  0.4077 -0.3659 -0.0155
  331SOL     OW 1517   0.981   1.481   1.918  0.0937 -0.3582 -0.3985
  331SOL    HW1 1518   1.020   1.504   1.834  1.3079  0.4652  0.3426
  331SOL    HW2 1519   1.039   1.414   1.954  1.1615  1.1618  0.8958
  332SOL     OW 1520   2.600   5.544   2.550 -0.7076 -0.3485 -0.2651
  332SOL    HW1 1521   2.566   5.471   2.499  0.5868 -0.1684 -1.4649
  332SOL    HW2 1522   2.586   5.621   2.494  1.8115 -0.3071 -1.0068
  333SOL     OW 1523   5.234   4.544   0.744 -0.2690 -0.5324  0.7703
  333SOL    HW1 1524   5.183   4.469   0.713 -0.3886 -0.0944 -0.1077
  333SOL    HW2 1525   5.275   4.579   0.665  0.0408  0.1374  1.2239
  334SOL     OW 1526   2.856   1.872   0.474  0.3365 -0.2213 -0.6181
  334SOL    HW1 1527   2.903   1.932   0.416  1.8779 -0.9301 -0.1669
  334SOL    HW2 1528   2.802   1.928   0.530  1.9816  0.8047  0.0100
  335SOL     OW 1529   4.373   5.288   3.908 -0.7359 -0.8005  0.0042
  335SOL    HW1 1530   4.432   5.354   3.872 -2.2243  0.9722  0.6643
  335SOL    HW2 1531   4.319   5.261   3.834 -1.7628  0.5921  0.2063
  336SOL     OW 1532   7.527   1.585   6.309 -0.4167  0.6835  0.2357
  336SOL    HW1 1533   7.544   1.679   6.305 -0.8939  0.8443  1.5964
  336SOL    HW2 1534   7.440   1.575   6.269 -0.7665  0.9445  0.9243
  337SOL     OW 1535   3.177   4.846   4.788 -0.7235 -0.5320  0.0450
  337SOL    HW1 1536   3.093   4.808   4.814 -1.4018  1.4842  1.0089
  337SOL    HW2 1537   3.160   4.884   4.702 -1.5451  1.9142  1.2155
  338SOL     OW 1538   6.696   6.637   0.594  0.0899  0.2142  0.0282
  338SOL    HW1 1539   6.693   6.618   0.501 -2.0595 -0.1280  0.1055
  338SOL    HW2 1540   6.697   6.733   0.599 -0.3822  0.2412 -0.3539
  339SOL     OW 1541   5.488   1.169   5.842  0.4814 -0.0703  0.0768
  339SOL    HW1 1542   5.504   1.239   5.906  0.1352  0.0085  0.0831
  339SOL    HW2 1543   5.462   1.094   5.895  0.5436 -0.1091  0.0514
  340SOL     OW 1544   4.944   6.025   1.331 -0.1186  0.2717  0.3323
  340SOL    HW1 1545   4.910   5.936   1.323  1.6129 -0.4328  0.4287
  340SOL    HW2 1546   5.016   6.018   1.393  0.0494  1.7569  0.3432
  341SOL     OW 1547   0.475   5.203   4.034 -0.0219  0.0295  0.0663
  341SOL    HW1 1548   0.525   5.205   3.953 -0.4313 -1.0358 -0.2324
  341SOL    HW2 1549   0.387   5.177   4.008 -0.4900  0.8916  0.7071
  342SOL     OW 1550   0.119   0.764   1.301 -0.3791 -0.2427 -0.1513
  342SOL    HW1 1551   0.193   0.820   1.324  1.6166 -0.6618 -4.4732
  342SOL    HW2 1552   0.046   0.824   1.285 -0.1562  0.4561  1.3326
  343SOL     OW 1553   6.039   5.721   1.422 -0.0450 -0.1483 -0.1518
  343SOL    HW1 1554   5.989   5.723   1.340  0.6861  0.8018 -0.6014
  343SOL    HW2 1555   5.974   5.741   1.490 -0.8132 -1.6855 -0.3840
  344SOL     OW 1556   4.505   3.784   2.295  0.3561  0.0995  0.2994
  344SOL    HW1 1557   4.558   3.861   2.272 -0.1653  1.0391  2.0316
  344SOL    HW2 1558   4.567   3.724   2.336  0.3011  0.7598  1.3846
  345SOL     OW 1559   3.577   6.112   2.920  0.1079 -0.0301  0.6330
  345SOL    HW1 1560   3.594   6.018   2.922  3.0073  0.4135  2.3795
  345SOL    HW2 1561   3.501   6.124   2.976  0.1105 -1.2552  0.9309
  346SOL     OW 1562   0.052   1.184   2.077 -0.5029  0.2606  0.6122
  346SOL    HW1 1563   0.025   1.100   2.114 -2.6090  1.2203  1.4188
  346SOL    HW2 1564   0.040   1.247   2.148  0.7768  1.3155 -0.0622
  347SOL     OW 1565   0.694   5.529   5.979 -0.0596 -0.3967  0.3378
  347SOL    HW1 1566   0.629   5.491   6.038  0.0556 -0.9113  0.1313
  347SOL    HW2 1567   0.778   5.516   6.025 -0.1650  1.0865  1.0448
  348SOL     OW 1568   5.309   6.877   5.478 -0.1979 -0.0314 -0.1002
  348SOL    HW1 1569   5.217   6.899   5.462 -0.0557  1.0101  0.4365
  348SOL    HW2 1570   5.319   6.788   5.444 -1.2505  0.0785 -0.7255
  349SOL     OW 1571   1.419   1.531   2.664  0.3585  0.7274  0.2274
  349SOL    HW1 1572   1.468   1.449   2.671 -1.3321 -0.2177  1.5800
  349SOL    HW2 1573   1.340   1.507   2.615 -0.3003  1.4601  0.9157
  350SOL     OW 1574   1.798   3.209   1.228 -0.4840 -0.2206 -0.1155
  350SOL    HW1 1575   1.735   3.253   1.285  0.5715 -0.0463  0.9481
  350SOL    HW2 1576   1.854   3.279   1.195 -0.5468 -0.4299 -0.6820
  351SOL     OW 1577   4.171   1.757   3.965  0.0834 -0.0747 -0.3263
  351SOL    HW1 1578   4.086   1.793   3.938  0.7676  0.7933 -1.3644
  351SOL    HW2 1579   4.187   1.686   3.903  1.1680  1.2486 -1.6265
  352SOL     OW 1580   3.980   3.008   4.757  0.6679  0.1460  0.1549
  352SOL    HW1 1581   3.959   3.102   4.764  3.2119  0.7536  0.6246
  352SOL    HW2 1582   4.039   2.991   4.831 -0.8233 -2.2087  0.9043
  353SOL     OW 1583   6.403   1.263   3.359  0.5329 -0.0809 -1.0325
  353SOL    HW1 1584   6.440   1.294   3.277  0.2840 -0.3314 -1.2404
  353SOL    HW2 1585   6.342   1.194   3.334  2.4565 -2.1231 -0.4796
  354SOL     OW 1586   5.111   2.112   1.968 -0.1064  0.1859  0.1968
  354SOL    HW1 1587   5.101   2.202   2.000  2.0081  0.3064  0.6440
  354SOL    HW2 1588   5.078   2.115   1.878 -0.1699  1.3873  0.2459
  355SOL     OW 1589   5.883   0.438   0.637  0.2791  0.0515  0.1036
  355SOL    HW1 1590   5.854   0.497   0.568 -1.8659 -0.8870  0.1115
  355SOL    HW2 1591   5.897   0.354   0.593 -0.2221 -0.3279  0.6525
  356SOL     OW 1592   0.263   5.736   0.626 -0.3797 -0.1312 -0.3007
  356SOL    HW1 1593   0.320   5.674   0.581 -0.7134 -0.0154 -0.9006
  356SOL    HW2 1594   0.254   5.809   0.564 -1.4489 -0.3030 -0.3683
  357SOL     OW 1595   0.785   6.692   2.893  0.5471 -0.3199 -0.1167
  357SOL    HW1 1596   0.821   6.603   2.890  0.2553 -0.6760  3.2079
  357SOL    HW2 1597   0.690   6.679   2.887  0.4873 -0.2719  0.6953
  358SOL     OW 1598   4.822   0.967   6.063  0.2110 -0.2129 -0.5850
  358SOL    HW1 1599   4.830   0.879   6.099 -0.5926  0.6293  1.8589
  358SOL    HW2 1600   4.912   0.999   6.056  0.5285  0.6354  3.8505
  359SOL     OW 1601   4.413   6.937   4.919 -0.2588 -0.4185 -0.0695
  359SOL    HW1 1602   4.363   6.950   5.000  0.4390  0.7149  0.2046
  359SOL    HW2 1603   4.460   7.019   4.907 -0.2952 -0.5947 -1.6024
  360SOL     OW 1604   0.397   1.134   3.567 -0.4541  0.0499 -0.2899
  360SOL    HW1 1605   0.359   1.221   3.570 -1.3340 -0.3354  2.2287
  360SOL    HW2 1606   0.354   1.090   3.494 -1.6177  1.0370 -0.2142
  361SOL     OW 1607   0.668   0.533   1.488  0.3620 -0.1835  0.0204
  361SOL    HW1 1608   0.580   0.500   1.473  1.0826 -2.6094  0.7187
  361SOL    HW2 1609   0.687   0.587   1.411 -0.8948 -1.4386 -1.2258
  362SOL     OW 1610   5.595   3.471   7.092 -0.3848 -0.1646  0.3859
  362SOL    HW1 1611   5.520   3.502   7.142 -0.1637 -1.2035  1.3881
  362SOL    HW2 1612   5.591   3.376   7.098  0.7306 -0.2490  0.0308
  363SOL     OW 1613   1.790   7.095   5.743  0.2887  0.3396 -0.6271
  363SOL    HW1 1614   1.865   7.119   5.797 -0.2302  1.1069 -0.2197
  363SOL    HW2 1615   1.775   7.173   5.688  0.3804 -0.1659 -1.3813
  364SOL     OW 1616   0.055   1.571   0.018  0.3312 -0.4119  0.2650
  364SOL    HW1 1617  -0.009   1.641   0.005  0.6733  0.5817  3.1458
  364SOL    HW2 1618   0.054   1.522  -0.064 -1.9067  1.3416 -0.8772
  365SOL     OW 1619   5.744   5.756   3.526 -0.2946  0.2014 -0.4254
  365SOL    HW1 1620   5.780   5.826   3.471  0.6045  0.2751  0.2324
  365SOL    HW2 1621   5.650   5.762   3.514 -0.1999  1.2357 -0.7400
  366SOL     OW 1622   5.093   7.203   5.340  0.4380  0.1112 -0.1600
  366SOL    HW1 1623   5.057   7.288   5.316 -1.1004 -0.8586 -1.5023
  366SOL    HW2 1624   5.148   7.178   5.266  0.3029 -0.3774 -0.0990
  367SOL     OW 1625   1.328   4.283   3.551  0.1651  0.0191 -0.0941
  367SOL    HW1 1626   1.419   4.304   3.528  0.8495 -2.7899 -0.3173
  367SOL    HW2 1627   1.282   4.284   3.467  0.3168 -0.0022 -0.1784
  368SOL     OW 1628   1.546   0.770   3.169  0.4532 -0.1034  0.3715
  368SOL    HW1 1629   1.537   0.865   3.173 -0.3826 -0.1851  0.5138
  368SOL    HW2 1630   1.519   0.740   3.256 -4.5650 -0.8442 -1.1217
  369SOL     OW 1631   1.548   7.117   1.261 -0.4938  0.1829  0.2832
  369SOL    HW1 1632   1.593   7.144   1.341  1.6783 -0.3392 -0.6701
  369SOL    HW2 1633   1.565   7.023   1.254 -2.3547 -0.1884  0.1928
  370SOL     OW 1634   2.704   2.586   3.043  0.3262 -0.3273  0.9446
  370SOL    HW1 1635   2.680   2.566   3.134  0.7717 -1.2457  0.8732
  370SOL    HW2 1636   2.796   2.611   3.048  0.1062  0.5242  0.8587
  371SOL     OW 1637   5.934   1.960   2.836 -0.1309 -0.0246 -0.1835
  371SOL    HW1 1638   6.001   1.898   2.866 -3.1771 -3.9446 -0.6722
  371SOL    HW2 1639   5.950   1.970   2.743  1.1056  0.9857  0.1170
  372SOL     OW 1640   0.223   0.205   1.934  0.6475  0.2070 -0.0758
  372SOL    HW1 1641   0.155   0.253   1.981  0.1927  1.4649 -1.8862
  372SOL    HW2 1642   0.185   0.118   1.919  0.8381 -0.2487  1.8581
  373SOL     OW 1643   5.709   3.228   0.093  0.8403 -0.0608  0.1027
  373SOL    HW1 1644   5.720   3.241  -0.001 -1.2771 -0.7458 -0.2880
  373SOL    HW2 1645   5.698   3.134   0.104  3.5533 -0.3348  1.4048
  374SOL     OW 1646   5.470   2.662   1.457 -0.0900 -0.2116  0.6175
  374SOL    HW1 1647   5.490   2.574   1.424  0.0378  0.2144 -0.4499
  374SOL    HW2 1648   5.500   2.721   1.389  0.0765  0.6879  1.4500
  375SOL     OW 1649   1.926   3.438   1.162  0.2162  0.2661  0.0717
  375SOL    HW1 1650   1.913   3.525   1.200  0.4545  1.1298 -1.7205
  375SOL    HW2 1651   1.922   3.452   1.067 -0.6637 -1.8255 -0.2743
  376SOL     OW 1652   4.047   2.096   1.700  0.4712  0.1481  0.4255
  376SOL    HW1 1653   4.100   2.140   1.766 -0.8067  1.4896  0.6149
  376SOL    HW2 1654   3.971   2.064   1.747  0.0564  0.1834 -0.2073
  377SOL     OW 1655   4.236   4.245   6.061 -0.0562 -0.1884  0.3211
  377SOL    HW1 1656   4.326   4.257   6.032 -0.2303  1.3562  0.3034
  377SOL    HW2 1657   4.228   4.302   6.138 -0.9328 -0.5307  0.4996
  378SOL     OW 1658   7.406   1.905   7.444 -0.5502  0.5038 -0.1557
  378SOL    HW1 1659   7.482   1.963   7.445  0.0705 -0.2763  0.7665
  378SOL    HW2 1660   7.389   1.889   7.352  1.1913 -0.2773 -0.3800
  379SOL     OW 1661   2.411   6.367   1.877 -0.2151  0.6662  0.3585
  379SOL    HW1 1662   2.427   6.281   1.837 -0.5372  1.6723 -2.1632
  379SOL    HW2 1663   2.482   6.422   1.843 -0.0016  1.4207  1.9546
  380SOL     OW 1664   3.391   6.714   2.282 -0.1950 -0.3957 -0.5634
  380SOL    HW1 1665   3.429   6.643   2.230 -0.3590  0.0739 -1.3327
  380SOL    HW2 1666   3.464   6.773   2.300 -0.0508 -0.7651  0.1080
  381SOL     OW 1667   1.125   1.595   3.067  0.2211  0.3901 -0.3539
  381SOL    HW1 1668   1.073   1.666   3.029  0.9331  1.0157 -0.1802
  381SOL    HW2 1669   1.060   1.533   3.101 -0.4148  1.3822  0.2737
  382SOL     OW 1670   6.400   5.279   3.229  0.2108 -0.5174  0.3963
  382SOL    HW1 1671   6.429   5.367   3.250  0.5298 -0.8221  1.2668
  382SOL    HW2 1672   6.424   5.267   3.137  2.1582 -0.4796  0.8653
  383SOL     OW 1673   6.437   4.660   3.384  0.4686 -0.1054  0.1547
  383SOL    HW1 1674   6.460   4.569   3.365  1.8464 -0.0404  1.3112
  383SOL    HW2 1675   6.507   4.712   3.343 -1.5467  0.6696 -2.5832
  384SOL     OW 1676   5.566   2.808   1.228 -0.0411  0.8373  0.2085
  384SOL    HW1 1677   5.624   2.884   1.220  2.0057 -0.2749  2.9250
  384SOL    HW2 1678   5.595   2.749   1.158  0.9310  1.0448  0.4208
  385SOL     OW 1679   7.336   6.358   1.574 -0.5744  0.2759 -0.2093
  385SOL    HW1 1680   7.280   6.281   1.586  0.0363 -0.4673 -1.8897
  385SOL    HW2 1681   7.276   6.427   1.544 -1.2191  0.6755  1.8397
  386SOL     OW 1682   2.417   5.825   0.923  0.2414 -0.3195  0.1387
  386SOL    HW1 1683   2.420   5.741   0.878 -0.4522  0.1716 -0.8765
  386SOL    HW2 1684   2.358   5.811   0.997 -0.2564 -0.6117 -0.3030
  387SOL     OW 1685   0.608   1.743   4.924  0.4091  0.0292 -0.1581
  387SOL    HW1 1686   0.550   1.742   4.848 -1.6657 -0.1384  1.3327
  387SOL    HW2 1687   0.581   1.667   4.975  3.2772 -1.1676 -0.2807
  388SOL     OW 1688   7.042   7.112   4.937 -0.5562  0.2129 -0.2003
  388SOL    HW1 1689   7.125   7.126   4.893 -0.5118  0.3950 -0.0593
  388SOL    HW2 1690   6.989   7.063   4.874  0.3776 -1.8031  0.4752
  389SOL     OW 1691   6.100   1.085   6.619  0.2810 -0.2222  0.3082
  389SOL    HW1 1692   6.037   1.119   6.555 -0.7825  1.0344  1.9689
  389SOL    HW2 1693   6.186   1.111   6.584 -0.2410  0.1211 -0.7789
  390SOL     OW 1694   6.013   2.243   2.041 -0.7368 -0.8796  0.5483
  390SOL    HW1 1695   5.976   2.156   2.027 -0.0585 -1.0315 -0.4699
  390SOL    HW2 1696   6.067   2.233   2.120 -0.5641 -1.4227  0.3711
  391SOL     OW 1697   7.413   5.345   3.871 -0.0046  0.6344  0.4454
  391SOL    HW1 1698   7.496   5.372   3.910  1.1232 -0.8948 -0.7696
  391SOL    HW2 1699   7.387   5.267   3.921 -0.9034  1.2674  1.0103
  392SOL     OW 1700   0.157   6.386   6.115 -0.1821 -0.0694  0.1168
  392SOL    HW1 1701   0.172   6.308   6.063  0.5697  0.1851 -0.0629
  392SOL    HW2 1702   0.062   6.391   6.125 -0.2211 -1.2105  0.4560
  393SOL     OW 1703   1.474   3.720   6.231 -0.3163 -0.6869  0.0032
  393SOL    HW1 1704   1.561   3.760   6.234  0.1902 -1.6417 -1.2712
  393SOL    HW2 1705   1.448   3.715   6.323 -0.0140  1.6503  0.2874
  394SOL     OW 1706   5.216   3.452   2.502 -0.4240  0.0737  0.2789
  394SOL    HW1 1707   5.283   3.437   2.569  2.2075  0.5748 -2.0421
  394SOL    HW2 1708   5.247   3.530   2.455 -3.3935  1.1184 -0.1319
  395SOL     OW 1709   2.868   2.866   5.405 -0.1871  0.0045 -0.0904
  395SOL    HW1 1710   2.834   2.950   5.373 -2.2000 -0.3625  0.9146
  395SOL    HW2 1711   2.885   2.815   5.326 -0.6660  0.7102 -0.6658
  396SOL     OW 1712   1.530   1.264   4.863  0.9143  0.5342 -0.1658
  396SOL    HW1 1713   1.469   1.191   4.873 -0.9943  1.9858 -0.5895
  396SOL    HW2 1714   1.474   1.341   4.858  2.6861  1.8008 -2.3954
  397SOL     OW 1715   3.037   6.397   1.559 -0.2399 -0.0526  0.0907
  397SOL    HW1 1716   3.054   6.487   1.586 -0.2081 -0.0726  0.1381
  397SOL    HW2 1717   3.023   6.350   1.641  0.2707 -0.2001  0.0973
  398SOL     OW 1718   2.942   7.441   6.735  0.5403 -0.0326  0.2634
  398SOL    HW1 1719   2.908   7.483   6.656  1.3806 -1.4305 -0.8726
  398SOL    HW2 1720   2.952   7.513   6.797 -2.2675  0.8061 -0.0858
  399SOL     OW 1721   3.645   6.706   2.138 -0.3364 -0.4227  0.1922
  399SOL    HW1 1722   3.709   6.651   2.095  0.0926  0.8044 -0.7940
  399SOL    HW2 1723   3.689   6.790   2.150 -0.6041 -0.5662  2.6225
  400SOL     OW 1724   5.691   4.830   6.517  0.3371  0.5245  0.0805
  400SOL    HW1 1725   5.753   4.876   6.461 -0.4692  0.8160 -0.5907
  400SOL    HW2 1726   5.708   4.738   6.502  0.9761  0.5944  0.3292
  401SOL     OW 1727   0.961   7.406   4.743  0.0983  0.4180 -0.1485
  401SOL    HW1 1728   1.050   7.432   4.721  0.5820 -1.4736 -0.6583
  401SOL    HW2 1729   0.956   7.411   4.838  0.1654  2.1670 -0.2022
  402SOL     OW 1730   3.953   2.107   2.521 -0.1693  0.4978 -0.5022
  402SOL    HW1 1731   3.922   2.067   2.440 -2.4210  2.1622 -0.5532
  402SOL    HW2 1732   4.006   2.182   2.493 -0.0682  0.4602 -0.4155
  403SOL     OW 1733   1.128   2.746   5.402  1.2969 -0.2937  0.1979
  403SOL    HW1 1734   1.066   2.818   5.413  1.4710  0.1596 -1.4977
  403SOL    HW2 1735   1.167   2.734   5.488  0.0134  0.4708  0.9178
  404SOL     OW 1736   1.659   3.072   7.562 -0.3223 -0.6164  0.3925
  404SOL    HW1 1737   1.613   3.101   7.640 -0.0712 -1.3982  0.8440
  404SOL    HW2 1738   1.650   3.144   7.500 -0.2605  0.1373  1.2448
  405SOL     OW 1739   3.089   0.854   3.913 -0.7355 -0.3775  0.0072
  405SOL    HW1 1740   3.137   0.779   3.947 -0.7320  0.0452  0.9690
  405SOL    HW2 1741   3.082   0.838   3.819 -0.5799 -1.4855  0.1753
  406SOL     OW 1742   2.286   0.022   2.228 -0.0011  0.1337 -0.0468
  406SOL    HW1 1743   2.378   0.034   2.253 -0.5155  0.2710  1.9716
  406SOL    HW2 1744   2.280  -0.070   2.203  1.0337  0.5371 -1.9686
  407SOL     OW 1745   4.460   4.557   0.531 -0.1114 -0.2180  0.3639
  407SOL    HW1 1746   4.386   4.592   0.582 -1.1379 -0.9286 -0.5802
  407SOL    HW2 1747   4.434   4.571   0.440  1.0369 -0.2900  0.0119
  408SOL     OW 1748   5.031   6.447   4.271 -0.0830  0.4249 -0.1817
  408SOL    HW1 1749   5.000   6.534   4.247 -1.1628  0.1509  0.1671
  408SOL    HW2 1750   4.975   6.387   4.221  0.1285 -0.0788  0.1777
  409SOL     OW 1751   1.694   3.136   0.891 -0.2978 -0.5160 -0.4113
  409SOL    HW1 1752   1.654   3.188   0.961  1.0854  0.1944 -0.1132
  409SOL    HW2 1753   1.645   3.054   0.891 -1.5768  0.2226  0.0855
  410SOL     OW 1754   2.089   5.054   1.454  0.8713  0.0239 -0.3576
  410SOL    HW1 1755   2.130   5.140   1.450  0.6152  0.1557 -0.1528
  410SOL    HW2 1756   2.142   4.999   1.395  1.5984  0.0866  0.2236
  411SOL     OW 1757   4.158   1.969   7.474  0.7083  0.2764 -0.2046
  411SOL    HW1 1758   4.155   1.874   7.466  0.0757  0.1543  1.2795
  411SOL    HW2 1759   4.197   1.998   7.391 -1.3933 -1.1016 -1.7900
  412SOL     OW 1760   4.792   4.971   3.810  0.3527 -0.0535  0.2002
  412SOL    HW1 1761   4.875   5.015   3.827  0.7525 -0.3017 -0.9764
  412SOL    HW2 1762   4.808   4.922   3.729 -1.0436  0.1732 -0.2356
  413SOL     OW 1763   1.184   1.583   0.841 -0.0343  0.1982  0.4246
  413SOL    HW1 1764   1.143   1.599   0.926 -1.9216 -0.9436 -0.2051
  413SOL    HW2 1765   1.270   1.549   0.862  1.0738  3.4714  1.8050
  414SOL     OW 1766   1.187   7.254   3.494  0.6431  0.1879  0.2760
  414SOL    HW1 1767   1.166   7.326   3.435  0.7235 -0.1604 -0.1759
  414SOL    HW2 1768   1.236   7.295   3.566  0.9490  0.5319 -0.1286
  415SOL     OW 1769   1.830   3.792   0.301 -0.4176  0.3090  0.4688
  415SOL    HW1 1770   1.919   3.758   0.306 -0.0991  1.2554  1.2480
  415SOL    HW2 1771   1.800   3.767   0.213  1.3733  1.8433 -0.6435
  416SOL     OW 1772   0.510   5.216   3.038  0.3056 -0.5067  0.2100
  416SOL    HW1 1773   0.446   5.269   2.992  0.7823  0.0273  0.1495
  416SOL    HW2 1774   0.548   5.275   3.103  1.2659 -0.6014 -0.2550
  417SOL     OW 1775   4.576   1.618   1.435 -0.0174 -0.6226  0.2140
  417SOL    HW1 1776   4.624   1.562   1.496  0.0380 -1.4569 -0.5746
  417SOL    HW2 1777   4.620   1.605   1.351  1.7791  2.7429  0.4795
  418SOL     OW 1778   3.393   4.157   7.115  0.0952  0.1493 -0.0214
  418SOL    HW1 1779   3.457   4.192   7.177  0.1683  1.3715 -0.7633
  418SOL    HW2 1780   3.424   4.070   7.094  0.8264  0.2580  0.5910
  419SOL     OW 1781   5.370   4.782   2.591  0.1860  0.3786 -0.0094
  419SOL    HW1 1782   5.338   4.717   2.529 -1.1637  0.4447  0.5984
  419SOL    HW2 1783   5.412   4.849   2.536 -2.7596  1.4782 -1.0895
  420SOL     OW 1784   5.897   6.035   5.813  0.3554  0.5854 -0.1116
  420SOL    HW1 1785   5.813   6.042   5.858 -1.1445  0.7042 -2.7541
  420SOL    HW2 1786   5.945   5.968   5.863 -2.4245 -1.6110 -0.1361
  421SOL     OW 1787   1.244   1.121   1.132 -0.0175 -0.3626  0.2022
  421SOL    HW1 1788   1.276   1.138   1.220 -1.2496 -2.0554  1.0635
  421SOL    HW2 1789   1.160   1.167   1.127  0.6453  0.7904 -0.5771
  422SOL     OW 1790   7.324   2.399   3.359 -0.5946  0.3294  0.5825
  422SOL    HW1 1791   7.324   2.494   3.345 -0.4177  0.1115 -1.0352
  422SOL    HW2 1792   7.263   2.365   3.294  3.3749 -1.1464 -2.7724
  423SOL     OW 1793   2.339   1.120   4.640  0.2790  0.0011 -0.6255
  423SOL    HW1 1794   2.303   1.032   4.650  0.5262 -0.0059  0.2537
  423SOL    HW2 1795   2.301   1.170   4.713  1.3956  0.2025 -0.1623
  424SOL     OW 1796   0.266   7.409   5.743 -0.4683 -0.7943 -0.1682
  424SOL    HW1 1797   0.352   7.445   5.722  0.3823 -0.8528  2.6762
  424SOL    HW2 1798   0.231   7.467   5.811 -2.3258 -1.2299 -0.6951
  425SOL     OW 1799   3.778   1.029   2.141 -0.7750 -0.1565  0.6539
  425SOL    HW1 1800   3.800   1.115   2.106  0.0970 -0.7687 -0.3524
  425SOL    HW2 1801   3.791   1.038   2.236 -1.7200  1.1012  0.6992
  426SOL     OW 1802   2.368   1.991   1.635  0.3632 -0.0647  0.4769
  426SOL    HW1 1803   2.366   2.085   1.614  2.0306 -0.3776 -1.4238
  426SOL    HW2 1804   2.355   1.987   1.730  0.8656  2.1425  0.6916
  427SOL     OW 1805   3.441   6.022   1.893  0.0255  0.2068  0.7653
  427SOL    HW1 1806   3.506   5.952   1.893 -0.0117  0.1106 -1.5528
  427SOL    HW2 1807   3.358   5.978   1.910  0.2161 -0.0548  1.0252
  428SOL     OW 1808   5.409   0.876   5.508 -0.0867 -0.7404 -0.2750
  428SOL    HW1 1809   5.462   0.955   5.499 -1.8834  0.8323  1.8604
  428SOL    HW2 1810   5.426   0.846   5.598 -1.8487 -0.8907  0.0303
  429SOL     OW 1811   2.383   3.065   4.220 -0.5524  0.4925 -0.3785
  429SOL    HW1 1812   2.322   2.994   4.241 -1.1890  0.9067 -0.7637
  429SOL    HW2 1813   2.377   3.125   4.295  1.1328 -0.5751  0.6700
  430SOL     OW 1814   6.262   6.056   6.731  0.1668  0.3406  0.0169
  430SOL    HW1 1815   6.353   6.059   6.760 -0.0846  1.2335  0.7395
  430SOL    HW2 1816   6.235   6.148   6.727 -0.4533  0.1304 -1.0088
  431SOL     OW 1817   6.651   7.132   3.072  0.1461  0.2614 -0.2761
  431SOL    HW1 1818   6.724   7.086   3.114 -0.8426 -2.4331 -1.2779
  431SOL    HW2 1819   6.584   7.138   3.140 -0.5503 -1.9454 -0.6635
  432SOL     OW 1820   3.540   4.471   6.537 -0.2120  0.3879 -0.1385
  432SOL    HW1 1821   3.507   4.535   6.473  2.0791 -0.4937 -2.3418
  432SOL    HW2 1822   3.524   4.386   6.497  0.4486 -0.2494  0.8979
  433SOL     OW 1823   1.302   1.529   6.463  0.0329  0.4892 -0.2469
  433SOL    HW1 1824   1.219   1.520   6.415  0.4379 -0.8735 -0.7295
  433SOL    HW2 1825   1.276   1.530   6.555 -0.5206 -0.0926 -0.3896
  434SOL     OW 1826   5.603   7.276   3.848 -0.0086 -0.1657 -0.4836
  434SOL    HW1 1827   5.613   7.266   3.753 -0.5977  2.4417 -0.8887
  434SOL    HW2 1828   5.514   7.245   3.866  0.3047 -1.2029 -0.6679
  435SOL     OW 1829   7.292   2.669   1.766  0.0471 -0.2391 -0.0359
  435SOL    HW1 1830   7.224   2.736   1.762 -0.1733 -0.4687 -0.1432
  435SOL    HW2 1831   7.349   2.689   1.692  1.2909  1.2175  1.2310
  436SOL     OW 1832   3.730   0.904   6.504 -0.0618 -0.4824 -0.1400
  436SOL    HW1 1833   3.766   0.928   6.589  0.5287 -1.3330 -0.1315
  436SOL    HW2 1834   3.780   0.957   6.441  0.1182 -0.5037 -0.0161
  437SOL     OW 1835   6.483   5.038   4.597  0.5672  0.0142  0.0386
  437SOL    HW1 1836   6.417   5.088   4.550 -0.4231 -0.7949  0.5165
  437SOL    HW2 1837   6.464   5.054   4.690  1.6251  0.4989  0.1855
  438SOL     OW 1838   2.661   0.250   6.905  0.3662  0.2551  0.3091
  438SOL    HW1 1839   2.718   0.197   6.962  1.3966  1.4336  0.4310
  438SOL    HW2 1840   2.652   0.198   6.825  0.5156 -0.5497  0.7997
  439SOL     OW 1841   2.479   4.978   0.700 -0.3961  0.9749  0.8667
  439SOL    HW1 1842   2.513   4.980   0.611 -1.7977  2.6833  0.3250
  439SOL    HW2 1843   2.539   5.034   0.750 -1.1486  2.2539  0.3759
  440SOL     OW 1844   0.183   1.243   0.864  0.5261  0.3765  0.2849
  440SOL    HW1 1845   0.264   1.248   0.813  0.3995  0.6266  0.1054
  440SOL    HW2 1846   0.207   1.274   0.951  0.3048  1.8964 -0.1560
  441SOL     OW 1847   7.425   5.493   6.033 -0.0356 -0.2786 -0.3901
  441SOL    HW1 1848   7.439   5.451   6.117 -0.4959  0.4381  0.0562
  441SOL    HW2 1849   7.447   5.585   6.048  2.6976 -0.5923 -1.8017
  442SOL     OW 1850   4.871   2.114   0.901 -0.1257 -0.4173 -0.3068
  442SOL    HW1 1851   4.891   2.132   0.993  3.1512  3.8180 -1.5028
  442SOL    HW2 1852   4.924   2.037   0.879  1.5583  0.3713  0.7431
  443SOL     OW 1853   3.143   2.290   1.242  0.1007 -0.5492 -0.4528
  443SOL    HW1 1854   3.123   2.225   1.309  1.4792  0.9912  1.5779
  443SOL    HW2 1855   3.233   2.273   1.217 -0.1017 -0.5144 -1.2540
  444SOL     OW 1856   5.882   1.457   0.090 -0.3159 -0.0653 -0.2958
  444SOL    HW1 1857   5.816   1.515   0.127 -1.1046 -1.1783  0.1089
  444SOL    HW2 1858   5.846   1.430   0.005 -0.5095 -0.8532  0.0241
  445SOL     OW 1859   1.628   1.099   5.613 -0.4277  0.3800  0.3881
  445SOL    HW1 1860   1.630   1.027   5.677  1.9841 -1.1617 -1.2584
  445SOL    HW2 1861   1.535   1.111   5.593 -0.9749 -1.5158  1.5587
  446SOL     OW 1862   3.037   0.372   3.550  0.0658  0.3338  0.1198
  446SOL    HW1 1863   2.981   0.301   3.582  0.2694 -0.1629 -0.5988
  446SOL    HW2 1864   3.119   0.330   3.526 -0.2582  0.5573 -1.5732
  447SOL     OW 1865   6.329   4.892   6.538  0.4706  0.5924 -0.3905
  447SOL    HW1 1866   6.304   4.824   6.600  0.6086 -0.3091 -1.3038
  447SOL    HW2 1867   6.414   4.923   6.570  0.2432  0.5996  0.2284
  448SOL     OW 1868   0.783   0.463   3.089 -0.0141  0.5254  0.2980
  448SOL    HW1 1869   0.807   0.528   3.154 -0.2139  1.1997 -0.2829
  448SOL    HW2 1870   0.716   0.409   3.132  0.0123  0.8254  0.7179
  449SOL     OW 1871   7.546   1.814   6.631  0.5644 -0.4249  0.1133
  449SOL    HW1 1872   7.627   1.798   6.582 -0.1119 -2.3279 -0.4794
  449SOL    HW2 1873   7.560   1.773   6.716  0.4186 -0.2679  0.2145
  450SOL     OW 1874   0.208   6.049   6.245 -0.7325  0.5291  0.5281
  450SOL    HW1 1875   0.204   6.094   6.160 -1.0709  0.5448  0.5514
  450SOL    HW2 1876   0.251   5.966   6.226  0.4011  1.0807  0.5777
  451SOL     OW 1877   4.895   2.178   7.121 -0.2160  0.4325 -0.3638
  451SOL    HW1 1878   4.867   2.215   7.204 -0.8911 -1.1539  0.1547
  451SOL    HW2 1879   4.842   2.223   7.055  0.8833  2.2566 -0.0404
  452SOL     OW 1880   2.223   2.787   3.513 -0.4383  0.0854 -0.2186
  452SOL    HW1 1881   2.227   2.765   3.420 -0.5771  1.3395 -0.5328
  452SOL    HW2 1882   2.207   2.703   3.556 -1.5111 -0.3697 -1.4216
  453SOL     OW 1883   5.998   2.037   2.575 -0.2818 -0.4026  0.1388
  453SOL    HW1 1884   5.915   2.055   2.531 -0.3077 -0.2033  0.2634
  453SOL    HW2 1885   6.029   2.124   2.601  1.2866 -0.1688 -2.2524
  454SOL     OW 1886   4.630   3.709   4.284  0.2461  0.3294  0.2294
  454SOL    HW1 1887   4.619   3.614   4.289  0.0010  0.2824 -0.8854
  454SOL    HW2 1888   4.630   3.738   4.375  0.1825 -0.7214  0.5803
  455SOL     OW 1889   2.382   0.036   3.627 -0.6370  0.0732 -0.8044
  455SOL    HW1 1890   2.323   0.099   3.667 -0.7585 -1.7824  2.2833
  455SOL    HW2 1891   2.327  -0.015   3.568 -1.8361 -0.6352  0.8657
  456SOL     OW 1892   5.540   2.283   6.828 -0.2459  0.5128 -0.2479
  456SOL    HW1 1893   5.477   2.222   6.864  0.0764  0.2309 -0.1510
  456SOL    HW2 1894   5.607   2.292   6.896  0.7534 -0.5984 -1.0423
  457SOL     OW 1895   1.176   6.719   0.381 -0.0544 -0.3817  0.5351
  457SOL    HW1 1896   1.160   6.633   0.342 -0.1048 -0.1178 -0.0314
  457SOL    HW2 1897   1.112   6.725   0.452  1.2895 -1.6461  1.9239
  458SOL     OW 1898   0.804   0.820   0.101 -0.0842  0.0056 -0.0401
  458SOL    HW1 1899   0.787   0.877   0.027 -1.3468 -1.2378 -0.7644
  458SOL    HW2 1900   0.795   0.876   0.178  1.2093  1.3073 -0.7996
  459SOL     OW 1901   3.476   4.520   0.175  0.4513 -0.6936  0.0578
  459SOL    HW1 1902   3.540   4.524   0.246  0.9308  0.3779 -0.4085
  459SOL    HW2 1903   3.399   4.479   0.214  1.6527 -2.7361  0.4376
  460SOL     OW 1904   5.491   3.412   2.617 -0.3599 -0.1469 -0.1477
  460SOL    HW1 1905   5.518   3.367   2.697 -1.0796 -0.8778 -0.2944
  460SOL    HW2 1906   5.567   3.407   2.559 -0.1435 -0.4238  0.1579
  461SOL     OW 1907   6.124   3.495   0.542 -0.2690 -0.0101 -0.2971
  461SOL    HW1 1908   6.148   3.579   0.580 -1.3084  0.0670  0.2355
  461SOL    HW2 1909   6.203   3.465   0.497  1.0059 -0.0747  1.8503
  462SOL     OW 1910   0.996   5.556   0.472 -0.0276  0.1789 -0.6119
  462SOL    HW1 1911   0.926   5.554   0.406  0.2390  1.3265 -0.9426
  462SOL    HW2 1912   1.062   5.614   0.436 -0.5567  2.1301  1.3316
  463SOL     OW 1913   3.718   1.922   2.563 -0.2930  0.4683 -0.2770
  463SOL    HW1 1914   3.775   1.994   2.592  0.5871 -0.4526  0.3861
  463SOL    HW2 1915   3.651   1.964   2.509  0.9964  1.6082 -1.0651
  464SOL     OW 1916   6.152   7.275   2.762 -0.3593  0.0660 -0.3897
  464SOL    HW1 1917   6.218   7.244   2.824 -1.4721  0.4406  1.0552
  464SOL    HW2 1918   6.198   7.284   2.679  1.1687 -0.5544  0.3601
  465SOL     OW 1919   3.356   4.584   6.377  0.2588  0.4760  0.0553
  465SOL    HW1 1920   3.317   4.516   6.323  0.7217 -2.0722  2.6938
  465SOL    HW2 1921   3.283   4.615   6.432  0.1821  1.7807 -0.7354
  466SOL     OW 1922   2.785   3.856   0.817 -0.3447  0.1065 -0.7348
  466SOL    HW1 1923   2.764   3.920   0.885 -1.2883 -1.3082  0.3507
  466SOL    HW2 1924   2.873   3.881   0.788  1.7722 -1.3072  3.5974
  467SOL     OW 1925   0.194   1.419   1.086 -0.8109  0.0298  0.1552
  467SOL    HW1 1926   0.237   1.472   1.019 -2.1398  0.0616 -0.6904
  467SOL    HW2 1927   0.253   1.426   1.162  0.6626  0.0806 -0.9338
  468SOL     OW 1928   7.110   6.047   5.311 -0.5082  0.6469 -0.3159
  468SOL    HW1 1929   7.025   6.084   5.289  0.5635  1.7850 -2.8426
  468SOL    HW2 1930   7.138   6.002   5.232  0.9766 -0.2810  0.6917
  469SOL     OW 1931   1.971   4.143   1.452 -0.1444 -0.9331  0.5552
  469SOL    HW1 1932   1.991   4.153   1.545  0.1337 -1.4125  0.5500
  469SOL    HW2 1933   2.046   4.181   1.407  0.5445 -2.2275  0.5370
  470SOL     OW 1934   7.139   3.107   1.982  0.1685 -0.0355  0.2972
  470SOL    HW1 1935   7.047   3.110   2.009  0.2123 -2.0022  0.8619
  470SOL    HW2 1936   7.188   3.142   2.057 -0.1647  3.2075 -0.8581
  471SOL     OW 1937   2.530   2.919   7.451 -0.1931  0.4291  0.2478
  471SOL    HW1 1938   2.595   2.965   7.399  1.9803 -0.4704  1.9654
  471SOL    HW2 1939   2.516   2.836   7.405  0.4549  0.3361  0.2022
  472SOL     OW 1940   5.722   1.613   2.063 -0.1089  0.4325 -0.5749
  472SOL    HW1 1941   5.705   1.693   2.013  2.0493  1.2132 -0.1988
  472SOL    HW2 1942   5.687   1.543   2.008  0.8513  1.3884 -2.5213
  473SOL     OW 1943   0.779   0.721   0.436 -0.1742  0.5655  0.0509
  473SOL    HW1 1944   0.849   0.657   0.428 -1.2785 -0.5182 -1.7891
  473SOL    HW2 1945   0.822   0.801   0.466  1.7100 -0.2538 -0.3340
  474SOL     OW 1946   3.516   3.932   3.572 -0.7009 -0.1853  0.1506
  474SOL    HW1 1947   3.504   3.838   3.583  1.6851 -0.8188 -1.6822
  474SOL    HW2 1948   3.536   3.943   3.479  2.3118  1.6671  0.8621
  475SOL     OW 1949   4.860   7.367   2.525 -0.5685 -0.3180  0.0541
  475SOL    HW1 1950   4.871   7.423   2.448  0.4046 -1.1069 -0.4079
  475SOL    HW2 1951   4.937   7.311   2.525 -1.5012 -1.6601  0.5089
  476SOL     OW 1952   1.416   6.902   4.486  0.7294 -0.1886  0.3081
  476SOL    HW1 1953   1.466   6.978   4.517  0.3154  0.3833 -0.3748
  476SOL    HW2 1954   1.393   6.925   4.396 -0.0190 -0.8184  0.3321
  477SOL     OW 1955   3.688   4.116   2.746 -0.4872  0.1723  0.8422
  477SOL    HW1 1956   3.685   4.166   2.827 -3.2709  0.9129  0.3996
  477SOL    HW2 1957   3.669   4.180   2.677  4.1494  0.0842 -0.8360
  478SOL     OW 1958   6.394   2.086   4.785  0.3724 -0.0752 -0.0139
  478SOL    HW1 1959   6.359   2.020   4.845 -0.4826 -1.4730 -1.9396
  478SOL    HW2 1960   6.479   2.109   4.822 -1.4014  1.6367  3.5272
  479SOL     OW 1961   1.135   3.117   3.551 -0.2534  0.0952  0.6970
  479SOL    HW1 1962   1.162   3.094   3.463  3.3161  2.2625  1.0152
  479SOL    HW2 1963   1.080   3.194   3.540 -2.7593 -1.6614  0.2791
  480SOL     OW 1964   1.819   5.715   6.603 -0.5582 -0.0040 -0.6883
  480SOL    HW1 1965   1.832   5.753   6.690 -0.2350  1.0393 -1.1728
  480SOL    HW2 1966   1.802   5.623   6.620 -0.8321  0.2388  0.5051
  481SOL     OW 1967   6.113   2.714   0.657 -0.2207  0.0130 -0.1705
  481SOL    HW1 1968   6.171   2.785   0.685 -1.0845  0.6448  0.0653
  481SOL    HW2 1969   6.170   2.655   0.607  1.0059 -0.2531  1.4231
  482SOL     OW 1970   0.327   3.073   7.381  0.0933 -0.4753 -0.1447
  482SOL    HW1 1971   0.258   3.132   7.409  1.1128  0.7867 -0.1982
  482SOL    HW2 1972   0.382   3.061   7.459 -0.9247 -2.6362  0.3235
  483SOL     OW 1973   3.345   6.026   6.319  0.1717 -0.5787  0.1055
  483SOL    HW1 1974   3.400   5.949   6.304 -0.5491 -1.3287  1.1702
  483SOL    HW2 1975   3.255   5.994   6.309 -0.1132  0.3807 -0.5318
  484SOL     OW 1976   5.251   7.130   2.515  0.0473 -0.1076  0.3132
  484SOL    HW1 1977   5.185   7.129   2.584  1.7828 -1.1867  2.0495
  484SOL    HW2 1978   5.326   7.174   2.554  0.9553 -0.4119 -1.0138
  485SOL     OW 1979   1.790   4.370   3.888  0.1332  0.2824 -0.2517
  485SOL    HW1 1980   1.772   4.464   3.895 -2.7996 -0.2065  0.0043
  485SOL    HW2 1981   1.786   4.351   3.794  0.0030  0.2752 -0.2437
  486SOL     OW 1982   3.283   5.870   2.940 -0.1219 -0.2177  0.1938
  486SOL    HW1 1983   3.259   5.778   2.937  0.4642 -0.3683  0.0826
  486SOL    HW2 1984   3.378   5.870   2.951 -0.3894  0.3513  3.2383
  487SOL     OW 1985   5.903   7.380   0.229  0.8417 -0.2601 -0.2407
  487SOL    HW1 1986   5.905   7.284   0.223  1.6508 -0.1818 -1.8518
  487SOL    HW2 1987   5.820   7.405   0.190  1.1493 -0.2690 -0.9170
  488SOL     OW 1988   1.236   4.562   3.662  0.5326 -0.5626 -0.0276
  488SOL    HW1 1989   1.307   4.542   3.723  1.9936  1.0449 -1.1042
  488SOL    HW2 1990   1.241   4.492   3.597 -0.0867 -1.4694  0.8710
  489SOL     OW 1991   0.252   5.482   3.155 -0.1818  0.1925 -0.2973
  489SOL    HW1 1992   0.265   5.503   3.247  1.9965 -1.4867 -0.1570
  489SOL    HW2 1993   0.236   5.388   3.154 -1.9031  0.4403 -1.5348
  490SOL     OW 1994   5.647   4.200   1.361  0.1306 -0.2596 -0.6495
  490SOL    HW1 1995   5.590   4.165   1.292 -1.4275  1.0954 -0.1190
  490SOL    HW2 1996   5.589   4.254   1.415  1.2804 -1.2722  1.7604
  491SOL     OW 1997   4.736   6.430   1.194  0.2959 -0.2072  0.3991
  491SOL    HW1 1998   4.670   6.465   1.134 -0.1250 -0.2526  0.8213
  491SOL    HW2 1999   4.717   6.336   1.198 -0.3207 -0.0644  1.3499
  492SOL     OW 2000   3.258   4.990   5.520 -0.1092 -0.2949 -0.0503
  492SOL    HW1 2001   3.266   5.082   5.542 -1.8159  0.0724 -0.8224
  492SOL    HW2 2002   3.175   4.983   5.473  0.8361 -1.9340 -1.5952
  493SOL     OW 2003   4.819   2.262   4.015 -0.2815  0.3710  0.0370
  493SOL    HW1 2004   4.894   2.251   3.956 -0.9728 -1.9886 -0.4967
  493SOL    HW2 2005   4.816   2.180   4.065 -2.6934  0.2647 -0.1938
  494SOL     OW 2006   5.554   0.697   7.014 -0.2010 -0.2988 -0.1948
  494SOL    HW1 2007   5.626   0.712   6.954 -0.0610  0.1560  0.0826
  494SOL    HW2 2008   5.496   0.635   6.968  0.3633 -0.6718 -0.4131
  495SOL     OW 2009   4.216   3.281   5.919  0.8259 -0.5715 -0.5273
  495SOL    HW1 2010   4.292   3.324   5.881  2.3201 -3.0534 -0.5616
  495SOL    HW2 2011   4.217   3.193   5.882 -2.5573 -0.4667 -1.1120
  496SOL     OW 2012   3.123   4.116   1.098 -0.9900 -0.2763  0.1489
  496SOL    HW1 2013   3.202   4.150   1.057  0.3999 -0.0625  2.7690
  496SOL    HW2 2014   3.051   4.145   1.041  0.7702 -0.8629 -2.5616
  497SOL     OW 2015   1.918   3.794   2.162 -0.6382 -0.2719  0.0392
  497SOL    HW1 2016   1.950   3.760   2.078  2.3964  0.0264  0.9566
  497SOL    HW2 2017   1.942   3.727   2.226 -0.0873  0.8522  1.0564
  498SOL     OW 2018   5.094   1.125   4.025 -0.7968  0.8748  0.3379
  498SOL    HW1 2019   5.101   1.157   4.114 -1.5183  1.5398  0.1643
  498SOL    HW2 2020   5.024   1.177   3.986 -0.6495  0.4322 -0.5443
  499SOL     OW 2021   0.033   2.149   6.309  0.1371  0.2035  0.4648
  499SOL    HW1 2022   0.083   2.230   6.314 -0.0860  0.3415  0.5050
  499SOL    HW2 2023  -0.049   2.170   6.355  1.2113 -0.9075  3.0851
  500SOL     OW 2024   0.864   5.725   6.111 -0.0848  0.3829  0.5563
  500SOL    HW1 2025   0.875   5.767   6.026 -2.1192 -0.3694 -0.1317
  500SOL    HW2 2026   0.946   5.743   6.157  0.7510  1.4879 -1.2460
  501SOL     OW 2027   2.959   1.302   4.097 -0.1490 -0.7403  0.5282
  501SOL    HW1 2028   2.912   1.370   4.049  2.0624  0.7583  0.3368
  501SOL    HW2 2029   2.924   1.220   4.063 -1.5199  0.3008 -0.6857
  502SOL     OW 2030   1.472   5.807   6.024  0.0084 -0.1797  0.6549
  502SOL    HW1 2031   1.423   5.883   5.991 -0.2690  0.1827  1.8664
  502SOL    HW2 2032   1.410   5.762   6.081 -0.0349 -1.6856 -0.5117
  503SOL     OW 2033   5.554   0.269   5.079  0.4452  0.4484 -0.2188
  503SOL    HW1 2034   5.537   0.359   5.052  1.5157  0.3129 -1.4627
  503SOL    HW2 2035   5.534   0.217   5.002 -3.3909 -0.8238  1.4275
  504SOL     OW 2036   2.498   5.517   4.304  0.4757  0.3498 -0.0907
  504SOL    HW1 2037   2.517   5.610   4.304 -0.9406  0.6570 -0.2648
  504SOL    HW2 2038   2.440   5.504   4.229 -0.5095 -0.4085  0.7724
  505SOL     OW 2039   6.326   1.153   6.524 -0.3231  0.2910 -0.1043
  505SOL    HW1 2040   6.418   1.128   6.532 -0.1903 -0.2235 -2.4764
  505SOL    HW2 2041   6.328   1.248   6.516 -0.0796  0.3517  0.6196
  506SOL     OW 2042   0.880   4.281   4.429  0.0811 -0.8670 -0.2602
  506SOL    HW1 2043   0.939   4.264   4.356  3.3423  2.8816  1.1523
  506SOL    HW2 2044   0.810   4.334   4.391  1.1840  0.1812 -0.9085
  507SOL     OW 2045   1.081   1.509   1.302  0.3871 -0.1132  0.1187
  507SOL    HW1 2046   1.140   1.465   1.363 -0.9817 -2.0321  0.1450
  507SOL    HW2 2047   0.994   1.480   1.328 -0.3554  0.2981 -1.7394
  508SOL     OW 2048   1.937   2.861   0.835  0.2669 -0.8019  0.2122
  508SOL    HW1 2049   1.972   2.908   0.911  1.3093 -0.9717 -0.1414
  508SOL    HW2 2050   1.893   2.785   0.872  1.0473 -1.0555  0.6454
  509SOL     OW 2051   7.146   6.942   2.121  0.1023 -0.3220 -0.1022
  509SOL    HW1 2052   7.178   6.901   2.201 -0.7451  0.2701  0.5519
  509SOL    HW2 2053   7.219   6.934   2.059  0.4490 -1.5774  0.4376
  510SOL     OW 2054   2.853   2.177   3.266 -0.2333 -0.1032 -0.1708
  510SOL    HW1 2055   2.859   2.240   3.195  1.7620  1.1768  1.0299
  510SOL    HW2 2056   2.765   2.189   3.302 -0.5292  0.6736 -1.1254
  511SOL     OW 2057   4.866   6.414   7.322 -0.4750  0.1802 -0.0583
  511SOL    HW1 2058   4.893   6.353   7.254 -0.0895  0.0129  0.2413
  511SOL    HW2 2059   4.827   6.488   7.275 -1.0585 -0.3515 -0.4153
  512SOL     OW 2060   5.441   0.147   5.699  0.0184 -0.9550 -0.7352
  512SOL    HW1 2061   5.404   0.087   5.763 -0.2472  0.3099  0.3243
  512SOL    HW2 2062   5.384   0.138   5.623 -2.7322  1.1097  0.9247
  513SOL     OW 2063   6.561   5.401   4.571 -0.0613 -0.6793 -0.8371
  513SOL    HW1 2064   6.478   5.406   4.618  0.3978  0.1883 -0.0902
  513SOL    HW2 2065   6.542   5.438   4.485  0.0488  1.6770  0.0750
  514SOL     OW 2066   4.950   7.560   6.327 -0.6189  0.0409 -0.0113
  514SOL    HW1 2067   4.950   7.514   6.243 -1.8384 -0.7531  0.4013
  514SOL    HW2 2068   4.860   7.555   6.358 -0.0936 -0.1154  1.5874
  515SOL     OW 2069   7.345   3.558   4.844 -0.7907  0.8992  0.7070
  515SOL    HW1 2070   7.406   3.493   4.879 -0.0489  0.9252 -0.4840
  515SOL    HW2 2071   7.398   3.637   4.833 -0.2566  0.2475 -2.7224
  516SOL     OW 2072   0.786   1.321   1.071 -0.1179  0.1614  0.8655
  516SOL    HW1 2073   0.742   1.296   1.153  0.8639 -2.2755  0.7256
  516SOL    HW2 2074   0.843   1.247   1.051  2.2391  2.1429 -0.2648
  517SOL     OW 2075   0.847   0.489   6.803 -0.6058 -0.2667  0.5126
  517SOL    HW1 2076   0.809   0.417   6.852 -1.1177 -0.5009 -0.2150
  517SOL    HW2 2077   0.909   0.448   6.743 -0.2722 -0.0190  0.6836
  518SOL     OW 2078   2.776   5.713   7.180  0.1390 -0.2117 -0.2652
  518SOL    HW1 2079   2.690   5.710   7.222 -0.7880  0.5718 -2.0094
  518SOL    HW2 2080   2.786   5.628   7.137  0.9116 -0.8589  1.1249
  519SOL     OW 2081   1.873   2.454   2.598 -0.5757 -0.2134 -0.2178
  519SOL    HW1 2082   1.857   2.360   2.591  1.2766 -0.4558 -2.1867
  519SOL    HW2 2083   1.955   2.461   2.646 -0.0560  0.3011 -1.1470
  520SOL     OW 2084   4.433   6.630   4.626 -0.4942  0.5015  0.3655
  520SOL    HW1 2085   4.484   6.551   4.612 -2.6504 -0.7190 -1.2062
  520SOL    HW2 2086   4.437   6.645   4.720  2.5917  0.4487  0.3449
  521SOL     OW 2087   5.223   3.747   3.132  0.2663  0.1201 -0.3523
  521SOL    HW1 2088   5.179   3.756   3.047 -1.9196  2.0475  0.8684
  521SOL    HW2 2089   5.171   3.801   3.192  2.5853  0.0299  1.9231
  522SOL     OW 2090   0.309   0.669   1.797 -0.1589 -0.0837  0.0802
  522SOL    HW1 2091   0.314   0.740   1.733 -1.1914 -0.8528 -0.8806
  522SOL    HW2 2092   0.251   0.604   1.757 -0.3126 -0.8731  1.5278
  523SOL     OW 2093   1.346   2.313   1.108  0.0873 -0.2499 -1.0706
  523SOL    HW1 2094   1.348   2.218   1.118  2.0218 -0.0983  0.7398
  523SOL    HW2 2095   1.408   2.330   1.037  2.8428 -0.2405  1.1397
  524SOL     OW 2096   1.420   2.788   1.980 -0.7808 -0.3185 -0.2170
  524SOL    HW1 2097   1.429   2.762   2.072 -0.0650  2.0122  0.4428
  524SOL    HW2 2098   1.429   2.706   1.931  0.9421 -1.3622  1.6805
  525SOL     OW 2099   5.078   5.538   3.801  0.2646 -0.2004  0.3097
  525SOL    HW1 2100   5.159   5.511   3.759 -1.0012 -2.0291 -1.1385
  525SOL    HW2 2101   5.067   5.477   3.874  0.7095  0.7679  1.2219
  526SOL     OW 2102   3.735   5.696   1.136  0.2704 -0.1173 -0.2831
  526SOL    HW1 2103   3.739   5.650   1.051 -0.5435 -0.3565 -0.2012
  526SOL    HW2 2104   3.705   5.629   1.197  2.1180 -0.3086  0.4824
  527SOL     OW 2105   1.969   2.776   4.145  0.5813  0.2563 -0.0023
  527SOL    HW1 2106   2.034   2.726   4.195  1.5301  1.2987 -0.1404
  527SOL    HW2 2107   1.982   2.866   4.174  0.0890  0.6581 -1.0034
  528SOL     OW 2108   3.126   1.402   5.952 -0.4299  0.5168 -0.6596
  528SOL    HW1 2109   3.060   1.356   5.900 -0.1981  0.9685 -1.3576
  528SOL    HW2 2110   3.193   1.336   5.969 -1.1581 -0.0185  0.2716
  529SOL     OW 2111   4.609   1.990   0.876  0.5136 -0.1907  0.3448
  529SOL    HW1 2112   4.681   2.052   0.885 -0.1863  0.5528  0.9592
  529SOL    HW2 2113   4.531   2.044   0.864  0.0851 -0.9905 -0.6417
  530SOL     OW 2114   1.132   3.882   1.104 -0.1598  0.2578 -0.2695
  530SOL    HW1 2115   1.167   3.970   1.099  0.5213 -0.0367 -0.8020
  530SOL    HW2 2116   1.123   3.854   1.012 -2.2872  0.5063 -0.1941
  531SOL     OW 2117   5.996   4.701   3.878  0.7265  0.1535 -0.0856
  531SOL    HW1 2118   5.975   4.668   3.791  0.1512  0.7044 -0.1654
  531SOL    HW2 2119   6.009   4.622   3.931 -1.3162 -0.2497 -0.1009
  532SOL     OW 2120   4.427   3.313   7.144 -0.0520  0.0411  0.0789
  532SOL    HW1 2121   4.442   3.377   7.214  2.1895  0.1946 -0.4644
  532SOL    HW2 2122   4.345   3.271   7.168 -0.5184  1.6642  1.5752
  533SOL     OW 2123   1.986   6.683   2.087 -0.4135  0.2340 -0.6447
  533SOL    HW1 2124   1.944   6.684   2.001 -2.0539  0.5543  0.1098
  533SOL    HW2 2125   1.948   6.607   2.131  0.7222 -0.1704 -0.3373
  534SOL     OW 2126   1.019   4.607   4.357 -0.2696  0.5511 -0.4412
  534SOL    HW1 2127   0.974   4.692   4.353 -0.9596  0.2551  0.5150
  534SOL    HW2 2128   0.996   4.563   4.276 -0.6741  0.9156 -0.5292
  535SOL     OW 2129   3.294   0.964   5.471 -0.2667  0.1719  0.6322
  535SOL    HW1 2130   3.320   0.930   5.385  0.7272 -0.1709  1.0555
  535SOL    HW2 2131   3.279   1.057   5.456  0.9119  0.3287  0.2745
  536SOL     OW 2132   1.571   0.933   6.951  0.0949  0.1599 -0.8303
  536SOL    HW1 2133   1.664   0.917   6.936 -0.1045 -1.1431 -0.7639
  536SOL    HW2 2134   1.536   0.954   6.865  0.0906 -1.3048 -1.1997
  537SOL     OW 2135   0.517   3.795   2.750 -0.0588  0.2547  0.5409
  537SOL    HW1 2136   0.429   3.770   2.723  0.0413 -1.0962  1.3272
  537SOL    HW2 2137   0.504   3.853   2.825 -0.2923  0.9385 -0.0295
  538SOL     OW 2138   6.452   5.880   6.299  0.2260  0.0885 -0.1340
  538SOL    HW1 2139   6.359   5.901   6.292 -0.0551 -0.0085  2.4143
  538SOL    HW2 2140   6.495   5.942   6.239 -1.3698  0.9557 -0.4496
  539SOL     OW 2141   4.015   5.150   6.995  0.2137 -0.0707  0.0405
  539SOL    HW1 2142   4.008   5.185   6.906 -1.7886  1.7036  0.8106
  539SOL    HW2 2143   4.012   5.228   7.052 -0.0055 -1.2535  1.7223
  540SOL     OW 2144   0.061   5.762   6.942 -0.1802  0.2959  0.2953
  540SOL    HW1 2145   0.088   5.675   6.972 -0.7208 -0.8171 -2.1698
  540SOL    HW2 2146   0.141   5.800   6.904 -0.7340 -0.7635 -2.0832
  541SOL     OW 2147   1.484   5.909   2.227  0.1196 -0.2964 -0.2424
  541SOL    HW1 2148   1.499   5.998   2.258  0.9908 -1.2321  2.2855
  541SOL    HW2 2149   1.391   5.894   2.243  0.0736  0.0173 -0.2137
  542SOL     OW 2150   5.995   3.267   4.891 -0.4436 -0.4734  0.6189
  542SOL    HW1 2151   6.024   3.314   4.969  0.5249 -1.2984  0.7775
  542SOL    HW2 2152   5.967   3.182   4.924 -0.1951 -0.7639  0.0962
  543SOL     OW 2153   3.424   5.063   0.694  0.2024  0.0473 -0.2837
  543SOL    HW1 2154   3.423   5.141   0.749  1.0205 -0.0872 -0.0708
  543SOL    HW2 2155   3.442   4.991   0.754 -1.4875 -0.4508 -0.3243
  544SOL     OW 2156   0.622   7.549   3.975 -0.2484 -0.0257  0.0695
  544SOL    HW1 2157   0.696   7.527   3.920 -0.1071  0.7024 -0.0408
  544SOL    HW2 2158   0.565   7.602   3.919 -1.4108 -1.5038 -0.2003
  545SOL     OW 2159   2.007   3.398   4.856 -0.6124  0.4202 -0.5652
  545SOL    HW1 2160   2.025   3.395   4.762 -1.6352  1.3006 -0.8085
  545SOL    HW2 2161   2.091   3.377   4.897  0.0399  0.7802 -1.6627
  546SOL     OW 2162   6.792   4.249   3.625  0.1714  0.6434 -0.2206
  546SOL    HW1 2163   6.868   4.295   3.659 -0.5714  2.2949 -0.6633
  546SOL    HW2 2164   6.827   4.169   3.586  1.6111  1.1865 -0.0930
  547SOL     OW 2165   7.428   1.853   1.946  0.9954 -0.1162 -0.7328
  547SOL    HW1 2166   7.493   1.922   1.929 -0.4383  0.9407 -2.2370
  547SOL    HW2 2167   7.381   1.844   1.863 -0.3900 -1.2741  0.1384
  548SOL     OW 2168   0.732   0.389   4.860 -0.2811 -0.4199  0.0720
  548SOL    HW1 2169   0.726   0.429   4.947 -1.2401 -2.4139  0.9813
  548SOL    HW2 2170   0.813   0.339   4.862 -1.4518 -2.3853  0.7306
  549SOL     OW 2171   6.119   2.132   4.720  0.6938  0.1225 -0.6042
  549SOL    HW1 2172   6.206   2.129   4.759  0.4366 -1.1336 -0.0752
  549SOL    HW2 2173   6.059   2.122   4.794  0.1535 -0.6556 -1.1356
  550SOL     OW 2174   6.042   0.401   5.744  0.6762  0.4986  0.3459
  550SOL    HW1 2175   6.013   0.347   5.671  3.8148 -0.5847 -0.2611
  550SOL    HW2 2176   6.075   0.481   5.704  3.0046 -0.3638  0.4010
  551SOL     OW 2177   1.676   3.949   2.949  0.3164  0.0488 -0.5468
  551SOL    HW1 2178   1.621   3.963   3.026  0.3541  0.2566 -0.5566
  551SOL    HW2 2179   1.731   3.874   2.972  0.7782  0.5102 -0.1152
  552SOL     OW 2180   4.431   1.548   7.106  0.4714 -0.5605  0.3748
  552SOL    HW1 2181   4.400   1.626   7.152 -0.2385 -0.5220 -0.1488
  552SOL    HW2 2182   4.491   1.583   7.039  0.2448 -0.4701  0.2168
  553SOL     OW 2183   2.529   6.597   6.533  0.2222  0.4529 -0.0545
  553SOL    HW1 2184   2.512   6.682   6.574 -2.5650  0.4755 -1.0544
  553SOL    HW2 2185   2.613   6.570   6.569 -0.3406  2.1071  2.8824
  554SOL     OW 2186   2.335   7.135   2.571 -1.0519  0.3481 -0.2633
  554SOL    HW1 2187   2.272   7.206   2.585 -0.2530  1.0480 -0.1000
  554SOL    HW2 2188   2.308   7.095   2.488 -1.3337  1.0534 -0.5205
  555SOL     OW 2189   3.077   1.340   0.747 -0.0549  0.5495 -0.1791
  555SOL    HW1 2190   3.102   1.425   0.710 -1.2237  1.0468  0.1250
  555SOL    HW2 2191   3.005   1.310   0.691  1.2497 -0.9214 -1.1380
  556SOL     OW 2192   5.555   0.512   3.013  0.0743 -0.3840 -0.0300
  556SOL    HW1 2193   5.534   0.513   3.106  0.2812  2.2662  0.0701
  556SOL    HW2 2194   5.622   0.579   3.002 -1.0158  0.4816 -2.2594
  557SOL     OW 2195   3.449   6.982   3.642 -0.7652  0.3373 -0.4016
  557SOL    HW1 2196   3.378   7.040   3.616 -1.4815 -1.1280 -1.9540
  557SOL    HW2 2197   3.417   6.938   3.721 -0.5572  1.4246  0.3001
  558SOL     OW 2198   6.952   6.461   3.894  0.1632  0.0358 -0.2328
  558SOL    HW1 2199   7.032   6.457   3.946  0.0249  0.9603  0.0558
  558SOL    HW2 2200   6.959   6.542   3.844 -0.3427 -0.1580 -0.6326
  559SOL     OW 2201   5.081   4.320   4.013  0.4191  0.3166 -0.2478
  559SOL    HW1 2202   5.040   4.355   3.934  0.9491  0.2989 -0.5328
  559SOL    HW2 2203   5.134   4.246   3.983 -0.7686 -0.8173  0.3582
  560SOL     OW 2204   0.407   4.683   4.117  0.8119  0.1266  0.0479
  560SOL    HW1 2205   0.382   4.718   4.031  0.7247  0.0202  0.0312
  560SOL    HW2 2206   0.353   4.731   4.179  0.3241 -0.3421 -0.0109
  561SOL     OW 2207   7.189   7.282   3.628 -0.3738 -0.3574  0.1384
  561SOL    HW1 2208   7.245   7.210   3.600  1.3353  0.4396  1.3622
  561SOL    HW2 2209   7.116   7.239   3.672 -2.2800 -1.5659 -3.7140
  562SOL     OW 2210   5.714   1.689   0.152  0.7458  0.4300  0.1498
  562SOL    HW1 2211   5.639   1.735   0.116  0.1173 -0.1010  0.7687
  562SOL    HW2 2212   5.788   1.720   0.100 -0.1633 -0.5354 -1.8041
  563SOL     OW 2213   6.783   7.430   7.090  0.0718 -0.2081 -0.4675
  563SOL    HW1 2214   6.826   7.430   7.176  2.1352 -0.4195 -1.4312
  563SOL    HW2 2215   6.791   7.340   7.059 -1.7698 -0.4264 -0.3942
  564SOL     OW 2216   3.401   6.194   3.110  0.5222 -0.1298  0.0266
  564SOL    HW1 2217   3.468   6.234   3.165  0.7805  0.4338 -0.6814
  564SOL    HW2 2218   3.362   6.267   3.063 -1.3327 -0.3181  1.2047
  565SOL     OW 2219   5.927   5.141   7.377  0.1816 -0.9824  0.2181
  565SOL    HW1 2220   5.846   5.091   7.393 -0.6428  0.4985  0.8804
  565SOL    HW2 2221   5.985   5.114   7.448  0.4755 -2.4110 -0.5258
  566SOL     OW 2222   2.498   5.461   1.570  0.7386 -0.4233  0.1952
  566SOL    HW1 2223   2.455   5.466   1.656  1.4335  1.0827  0.4960
  566SOL    HW2 2224   2.588   5.434   1.590  0.9116 -0.0360 -0.0566
  567SOL     OW 2225   6.463   1.758   6.809  0.8188 -0.0680 -0.2203
  567SOL    HW1 2226   6.395   1.702   6.847  0.9389 -0.7042 -0.9235
  567SOL    HW2 2227   6.525   1.697   6.769  1.5504  0.5224 -0.0213
  568SOL     OW 2228   2.093   0.223   3.511 -0.5958  0.2286 -0.3673
  568SOL    HW1 2229   2.038   0.158   3.468  2.2523 -1.8188 -1.2468
  568SOL    HW2 2230   2.095   0.298   3.451 -2.1510  0.2557 -0.4152
  569SOL     OW 2231   2.840   5.040   2.522 -0.4774  0.3773 -0.0338
  569SOL    HW1 2232   2.798   4.959   2.493 -0.0859  0.2634 -0.3009
  569SOL    HW2 2233   2.800   5.059   2.607  0.0906 -0.6104  0.4756
  570SOL     OW 2234   2.547   5.327   4.503 -0.0447 -0.3651 -0.4752
  570SOL    HW1 2235   2.534   5.407   4.452 -1.3581 -1.0854 -1.3476
  570SOL    HW2 2236   2.459   5.289   4.510  0.3089 -0.9576  1.2468
  571SOL     OW 2237   0.612   7.383   4.514  0.3161 -0.2930  0.3411
  571SOL    HW1 2238   0.682   7.338   4.467 -0.1265 -0.5378 -0.0900
  571SOL    HW2 2239   0.639   7.379   4.606  0.9059 -0.3116  0.1714
  572SOL     OW 2240   5.418   5.134   4.775  0.7534 -0.6113 -0.2903
  572SOL    HW1 2241   5.412   5.227   4.798  2.9627 -0.9194  1.9397
  572SOL    HW2 2242   5.338   5.096   4.811  1.1434  0.0257  1.3923
  573SOL     OW 2243   6.001   5.483   4.864 -0.1592  0.1070  0.0145
  573SOL    HW1 2244   5.936   5.516   4.802  0.7248  1.1023 -0.4327
  573SOL    HW2 2245   6.055   5.560   4.884  1.2569 -0.8222 -0.1192
  574SOL     OW 2246   2.931   5.369   0.495 -0.1781  0.2778 -0.0362
  574SOL    HW1 2247   2.903   5.282   0.469  0.0101  0.5575 -1.2326
  574SOL    HW2 2248   2.852   5.412   0.528 -0.3536 -0.2019  0.1669
  575SOL     OW 2249   2.048   4.343   1.702 -0.5418  0.3691 -0.2280
  575SOL    HW1 2250   1.976   4.376   1.649 -0.2737  1.2225 -0.0667
  575SOL    HW2 2251   2.042   4.391   1.784 -0.3723 -0.2564  0.1620
  576SOL     OW 2252   4.191   0.291   6.713  0.0754  0.5102 -0.4279
  576SOL    HW1 2253   4.209   0.328   6.626  0.4901 -0.0111 -0.5618
  576SOL    HW2 2254   4.263   0.323   6.768  0.0207  0.5242 -0.3647
  577SOL     OW 2255   6.699   5.919   3.478  0.1689 -0.6859 -0.0530
  577SOL    HW1 2256   6.658   5.839   3.510  1.2347 -0.2697  2.5781
  577SOL    HW2 2257   6.734   5.961   3.556  0.4645  1.9066 -1.4741
  578SOL     OW 2258   5.035   7.193   2.052 -0.5154 -0.2063 -0.3920
  578SOL    HW1 2259   5.094   7.117   2.054  0.3635  0.4327 -1.1538
  578SOL    HW2 2260   5.029   7.221   2.144  0.7804  0.0076 -0.3496
  579SOL     OW 2261   7.355   5.293   2.836 -0.5643  0.1935 -0.5280
  579SOL    HW1 2262   7.306   5.212   2.821  1.4814 -0.7831 -2.7110
  579SOL    HW2 2263   7.447   5.265   2.839  0.2680  2.4743 -2.1518
  580SOL     OW 2264   6.033   0.137   0.724 -0.0114  0.2189 -0.3944
  580SOL    HW1 2265   6.107   0.178   0.680 -0.4177 -0.2178 -1.5233
  580SOL    HW2 2266   5.989   0.087   0.655 -0.7696 -0.3477  0.4790
  581SOL     OW 2267   0.169   2.082   0.371  0.2737  0.1211  0.0713
  581SOL    HW1 2268   0.196   2.045   0.454 -1.9595 -2.5153 -0.2283
  581SOL    HW2 2269   0.073   2.075   0.372  0.2099 -0.8048 -3.0178
  582SOL     OW 2270   4.548   1.081   5.627  0.3897 -0.6003  0.4211
  582SOL    HW1 2271   4.569   1.144   5.696  0.2087 -1.3244  1.1550
  582SOL    HW2 2272   4.472   1.118   5.583  2.1062  1.2131 -1.1727
  583SOL     OW 2273   0.730   2.495   7.164  0.0622 -0.6074  0.3721
  583SOL    HW1 2274   0.661   2.557   7.142  1.5328  1.1150  0.3483
  583SOL    HW2 2275   0.721   2.425   7.099  0.4378  1.2804 -1.8447
  584SOL     OW 2276   1.668   0.671   2.957 -0.5404  0.5468 -0.9699
  584SOL    HW1 2277   1.630   0.709   3.036  0.5139  0.5863 -0.4676
  584SOL    HW2 2278   1.709   0.590   2.986  0.7099  1.0412 -1.2731
  585SOL     OW 2279   6.813   1.125   5.301  0.3705  0.0039  0.3683
  585SOL    HW1 2280   6.805   1.220   5.311 -1.1189  0.2575 -2.3572
  585SOL    HW2 2281   6.810   1.092   5.391 -0.5399  2.4348  1.3272
  586SOL     OW 2282   6.727   6.630   3.454 -0.3161  0.5162  0.5191
  586SOL    HW1 2283   6.763   6.682   3.526  1.1246  0.3771 -0.0787
  586SOL    HW2 2284   6.747   6.681   3.375  1.6419 -1.1815 -0.1350
  587SOL     OW 2285   0.264   5.289   4.466  0.7488 -0.4063 -0.0622
  587SOL    HW1 2286   0.252   5.195   4.479  0.3436 -0.3359  0.0918
  587SOL    HW2 2287   0.250   5.327   4.553 -1.3827  0.0098 -0.5310
  588SOL     OW 2288   6.211   0.511   2.762 -0.1523  0.1270  0.4173
  588SOL    HW1 2289   6.251   0.424   2.764  0.3977  0.3049 -1.1070
  588SOL    HW2 2290   6.121   0.498   2.792  0.4650 -0.6112  2.0634
  589SOL     OW 2291   7.285   6.155   2.568 -0.1285  0.0135 -0.6126
  589SOL    HW1 2292   7.359   6.123   2.517 -0.0197  0.4664 -0.7496
  589SOL    HW2 2293   7.306   6.247   2.584 -0.4311  0.0165 -0.2357
  590SOL     OW 2294   3.483   1.180   6.451  0.0434 -0.3742 -0.4812
  590SOL    HW1 2295   3.504   1.222   6.534 -0.3649  1.8781 -1.4445
  590SOL    HW2 2296   3.436   1.100   6.476 -0.1346  0.2774  1.4485
  591SOL     OW 2297   3.744   7.292   3.420 -0.0961 -0.1080 -0.0265
  591SOL    HW1 2298   3.836   7.267   3.414 -0.3299 -1.4013  1.2733
  591SOL    HW2 2299   3.727   7.297   3.514 -1.5694 -0.7402 -0.2410
  592SOL     OW 2300   1.606   5.370   1.533  0.7685 -0.1531 -0.2791
  592SOL    HW1 2301   1.658   5.451   1.535 -0.3334  0.5750  1.4342
  592SOL    HW2 2302   1.672   5.300   1.527  1.7136  0.8302 -2.4275
  593SOL     OW 2303   6.857   4.703   1.372 -0.1372  0.0613  0.0433
  593SOL    HW1 2304   6.852   4.786   1.418 -0.2010  0.0930 -0.0207
  593SOL    HW2 2305   6.800   4.644   1.422  1.7576 -0.6362  1.5265
  594SOL     OW 2306   3.992   6.245   5.918  0.8130 -0.3581 -0.3248
  594SOL    HW1 2307   3.967   6.229   6.009  2.0921  1.1704  0.3446
  594SOL    HW2 2308   4.067   6.188   5.904  1.7877  0.7487  0.2166
  595SOL     OW 2309   0.417   4.683   2.315  0.5786  0.3908 -0.2183
  595SOL    HW1 2310   0.421   4.768   2.359  0.3301  0.9198 -1.2083
  595SOL    HW2 2311   0.338   4.686   2.262  0.3192 -0.6385  0.0747
  596SOL     OW 2312   7.026   6.785   1.576 -0.4708  0.7895 -0.3420
  596SOL    HW1 2313   6.970   6.769   1.652  0.4761  1.3294  0.4908
  596SOL    HW2 2314   7.029   6.880   1.568 -2.8378  0.7568 -2.8156
  597SOL     OW 2315   2.698   6.067   6.389 -0.6027  0.0767  0.2379
  597SOL    HW1 2316   2.612   6.036   6.416 -0.8709  0.0034 -0.6713
  597SOL    HW2 2317   2.737   5.994   6.342 -0.6819  0.6301 -0.7129
  598SOL     OW 2318   6.545   5.331   5.725 -0.4813 -0.4743 -0.4538
  598SOL    HW1 2319   6.507   5.316   5.638 -0.5133  1.1528 -0.7449
  598SOL    HW2 2320   6.508   5.414   5.753 -0.3837 -0.9249  1.0961
  599SOL     OW 2321   2.067   2.473   3.275  0.1255  0.9498 -0.3517
  599SOL    HW1 2322   2.043   2.447   3.186  1.3103 -0.3497 -0.3220
  599SOL    HW2 2323   2.008   2.545   3.296  0.4123  1.8681 -2.5075
  600SOL     OW 2324   5.928   4.323   3.779 -0.1057  0.2889  0.1463
  600SOL    HW1 2325   6.015   4.349   3.809  0.5558 -0.3844 -1.0868
  600SOL    HW2 2326   5.908   4.245   3.831  1.0356 -0.8794 -1.0671
  601SOL     OW 2327   1.917   6.377   0.465  0.1781  0.0730  0.4917
  601SOL    HW1 2328   1.905   6.440   0.394 -0.2476 -0.8219 -0.2511
  601SOL    HW2 2329   2.009   6.387   0.490  0.2978  0.4985 -0.0786
  602SOL     OW 2330   2.641   3.150   1.339 -0.0759  0.0558  0.0213
  602SOL    HW1 2331   2.640   3.066   1.385  1.8622 -0.5885 -1.0281
  602SOL    HW2 2332   2.550   3.165   1.314 -0.3438 -2.1556 -0.5007
  603SOL     OW 2333   1.421   2.762   4.463  0.0185 -0.6471 -0.3366
  603SOL    HW1 2334   1.373   2.726   4.388  0.0574  0.4282 -0.9038
  603SOL    HW2 2335   1.498   2.804   4.424  0.6378 -1.0587  0.4233
  604SOL     OW 2336   4.846   7.214   4.721 -0.5305 -0.6455  0.2422
  604SOL    HW1 2337   4.811   7.159   4.791 -1.2272 -1.4673 -0.7248
  604SOL    HW2 2338   4.807   7.179   4.641 -0.2101  0.6449 -0.5037
  605SOL     OW 2339   5.013   3.952   4.461  0.1174 -0.3068  0.0773
  605SOL    HW1 2340   4.974   3.936   4.547  1.2015  0.3394  0.7008
  605SOL    HW2 2341   4.955   4.016   4.420  0.1756  0.1714  0.7358
  606SOL     OW 2342   2.802   4.055   6.788 -0.4419  0.5119  0.8837
  606SOL    HW1 2343   2.761   4.039   6.703  2.3304 -0.3234 -0.4107
  606SOL    HW2 2344   2.789   3.974   6.837  0.1696  0.0011  0.2273
  607SOL     OW 2345   2.074   0.996   6.009 -0.0915 -0.4283  0.0612
  607SOL    HW1 2346   2.012   1.059   6.044  0.3241  0.3226 -0.5315
  607SOL    HW2 2347   2.032   0.911   6.022 -0.1279 -0.1688  2.0133
  608SOL     OW 2348   1.032   0.857   7.462  0.0439  0.2085 -0.3090
  608SOL    HW1 2349   1.019   0.850   7.557  1.8998  1.5608  0.1104
  608SOL    HW2 2350   1.023   0.950   7.443 -1.0293 -0.1288 -1.6189
  609SOL     OW 2351   4.188   0.322   3.291  0.3357 -0.6525 -0.1077
  609SOL    HW1 2352   4.212   0.283   3.375  0.0130 -0.7916 -0.0765
  609SOL    HW2 2353   4.092   0.326   3.293  0.3734  3.0707  1.2107
  610SOL     OW 2354   1.256   3.560   6.164 -0.0699  0.0739  0.3578
  610SOL    HW1 2355   1.346   3.593   6.169 -0.3693  0.9036  0.4470
  610SOL    HW2 2356   1.258   3.477   6.212  0.6738  0.0278  0.2529
  611SOL     OW 2357   6.254   3.224   4.768  0.5372  0.1651 -0.1949
  611SOL    HW1 2358   6.236   3.174   4.688  0.1948  1.4327 -0.9421
  611SOL    HW2 2359   6.172   3.220   4.818  0.2908  0.5138 -0.5631
  612SOL     OW 2360   0.943   4.063   7.051 -0.8164  0.4585 -0.0829
  612SOL    HW1 2361   0.951   4.024   7.138 -2.0656  0.1613 -0.0939
  612SOL    HW2 2362   0.972   4.154   7.063  2.1466 -0.3712 -0.0647
  613SOL     OW 2363   1.500   0.750   2.757  0.5495 -0.8090  0.1350
  613SOL    HW1 2364   1.578   0.745   2.813  1.3172  2.0267 -0.5301
  613SOL    HW2 2365   1.484   0.843   2.747 -2.7186 -1.3034 -0.1566
  614SOL     OW 2366   3.592   3.089   1.015  0.7011 -0.6153  0.0301
  614SOL    HW1 2367   3.590   3.176   0.974  0.6633 -0.8089 -0.3813
  614SOL    HW2 2368   3.643   3.101   1.095 -0.7863  0.2019  0.9211
  615SOL     OW 2369   0.725   0.757   7.321 -0.4535  0.2431 -0.2726
  615SOL    HW1 2370   0.732   0.851   7.337 -1.5122  0.1832  0.7019
  615SOL    HW2 2371   0.800   0.736   7.266  0.6009  1.3910  0.6705
  616SOL     OW 2372   1.332   1.096   2.582  0.2118 -0.0236 -0.5605
  616SOL    HW1 2373   1.423   1.077   2.602  0.4323 -0.8243 -2.1698
  616SOL    HW2 2374   1.302   1.150   2.655  1.5961 -0.7948  0.6369
  617SOL     OW 2375   3.213   1.637   0.168  0.0669  0.4922  0.5529
  617SOL    HW1 2376   3.159   1.705   0.207 -0.3057  0.7289 -0.3698
  617SOL    HW2 2377   3.152   1.566   0.149  0.4914 -0.2397  1.7617
  618SOL     OW 2378   5.462   4.892   7.252  0.1489  0.4376  0.0171
  618SOL    HW1 2379   5.437   4.985   7.248 -1.9203 -0.0480  0.5642
  618SOL    HW2 2380   5.393   4.850   7.302  0.3974 -1.6187 -1.2186
  619SOL     OW 2381   7.294   4.379   0.755  0.5666 -0.1042 -0.1190
  619SOL    HW1 2382   7.301   4.385   0.850  0.6905  1.4361 -0.1940
  619SOL    HW2 2383   7.359   4.441   0.722  0.8534 -0.9553 -1.2270
  620SOL     OW 2384   2.282   1.397   1.698 -0.3677  0.2762  0.1115
  620SOL    HW1 2385   2.200   1.445   1.707 -0.6674  0.6436 -3.3863
  620SOL    HW2 2386   2.258   1.314   1.658  1.0229  1.4714 -3.6466
  621SOL     OW 2387   3.372   5.619   1.331  0.5491  0.3689 -0.0479
  621SOL    HW1 2388   3.295   5.645   1.280 -0.7331  0.0074  1.5914
  621SOL    HW2 2389   3.369   5.675   1.408  0.1659 -1.6735  1.4996
  622SOL     OW 2390   2.652   2.429   7.118  0.2669 -0.1876 -0.1491
  622SOL    HW1 2391   2.682   2.427   7.027  0.6686  0.3630 -0.0339
  622SOL    HW2 2392   2.588   2.501   7.121  0.5002  0.0125  0.0747
  623SOL     OW 2393   6.562   1.446   5.033 -0.2694  0.3838  0.2024
  623SOL    HW1 2394   6.537   1.375   5.091  0.4559 -0.6139 -0.6508
  623SOL    HW2 2395   6.657   1.454   5.044 -0.1439  0.3004 -0.6700
  624SOL     OW 2396   3.812   3.636   2.050  0.4345  0.7153 -0.1376
  624SOL    HW1 2397   3.894   3.656   2.095 -0.3427  0.4941  1.4503
  624SOL    HW2 2398   3.745   3.681   2.102 -0.3660  1.8729 -2.0546
  625SOL     OW 2399   3.166   0.169   5.468 -0.5030  0.5552 -0.3120
  625SOL    HW1 2400   3.202   0.197   5.552  0.8927  0.4289 -0.8265
  625SOL    HW2 2401   3.103   0.237   5.444 -0.2885  1.0265  0.4413
  626SOL     OW 2402   2.902   7.073   1.469 -0.1471  0.1800 -0.2308
  626SOL    HW1 2403   2.849   7.034   1.538 -0.3519  0.8761  0.0165
  626SOL    HW2 2404   2.992   7.060   1.499 -0.2462  1.3786  0.7087
  627SOL     OW 2405   1.471   3.856   1.374  0.4374  0.0342  0.6800
  627SOL    HW1 2406   1.519   3.905   1.441  2.9654 -0.7023 -0.4998
  627SOL    HW2 2407   1.470   3.766   1.407  0.0016  0.0115  0.6091
  628SOL     OW 2408   5.089   1.028   0.546  0.0011  0.3863  0.3650
  628SOL    HW1 2409   5.170   1.051   0.501 -0.6540 -0.8570 -1.5368
  628SOL    HW2 2410   5.020   1.043   0.481 -1.1456 -0.0187  1.4540
  629SOL     OW 2411   0.784   2.554   1.965 -0.3618 -0.2507  0.3800
  629SOL    HW1 2412   0.817   2.622   2.024 -0.2171 -0.3454  0.4102
  629SOL    HW2 2413   0.742   2.490   2.023  1.1754 -1.1645  0.5744
  630SOL     OW 2414   1.353   5.889   1.616 -0.0905 -0.1924 -0.1679
  630SOL    HW1 2415   1.298   5.860   1.688 -2.2359  1.9066 -0.8317
  630SOL    HW2 2416   1.442   5.885   1.651 -1.0515  0.8375  2.6601
  631SOL     OW 2417   0.900   3.894   2.334 -0.3747 -1.0753  0.0459
  631SOL    HW1 2418   0.848   3.900   2.414  0.3689 -2.9689  0.7205
  631SOL    HW2 2419   0.991   3.887   2.364  0.3107  1.4904 -1.0968
  632SOL     OW 2420   1.280   5.318   2.260  0.5463 -0.4836 -0.0809
  632SOL    HW1 2421   1.367   5.340   2.294  0.3509 -1.0880  0.8518
  632SOL    HW2 2422   1.253   5.241   2.311 -0.2850 -0.6641 -0.7742
  633SOL     OW 2423   3.186   6.166   0.586 -0.2628 -0.1991 -0.4848
  633SOL    HW1 2424   3.235   6.183   0.667  0.9397 -1.0226 -1.0029
  633SOL    HW2 2425   3.131   6.091   0.605 -1.3597  0.7160  0.0951
  634SOL     OW 2426   5.696   4.217   1.808 -0.3733 -0.3490  0.4254
  634SOL    HW1 2427   5.659   4.297   1.771 -0.3151 -1.1020 -1.3629
  634SOL    HW2 2428   5.638   4.148   1.778  1.0851 -1.2731 -0.3763
  635SOL     OW 2429   5.838   4.602   2.068 -0.6359 -0.4592 -0.2065
  635SOL    HW1 2430   5.896   4.597   1.991 -0.3059  1.7159 -0.1661
  635SOL    HW2 2431   5.762   4.549   2.044  0.6622 -2.1330 -0.8718
  636SOL     OW 2432   2.216   1.315   4.809  0.4235  0.2055 -0.2140
  636SOL    HW1 2433   2.189   1.326   4.900 -0.0298 -0.2352 -0.2918
  636SOL    HW2 2434   2.140   1.341   4.758  0.5278  0.0286 -0.4598
  637SOL     OW 2435   1.739   2.182   6.376 -0.3885 -0.3091 -0.1785
  637SOL    HW1 2436   1.670   2.246   6.393  0.2051  0.1109  0.7289
  637SOL    HW2 2437   1.704   2.099   6.410 -1.8262 -0.8920 -2.7951
  638SOL     OW 2438   7.188   1.261   5.750 -0.9550  0.3950  0.0486
  638SOL    HW1 2439   7.166   1.168   5.758 -1.7461  0.5328 -0.3683
  638SOL    HW2 2440   7.225   1.285   5.835 -0.4750 -0.3649  0.0654
  639SOL     OW 2441   5.366   0.823   5.250 -0.3605 -0.2561 -0.4648
  639SOL    HW1 2442   5.378   0.853   5.340 -0.9091 -2.8024  0.5612
  639SOL    HW2 2443   5.394   0.897   5.196  0.1891  1.2883  1.7729
  640SOL     OW 2444   3.631   1.067   0.290  0.2429 -0.0097 -0.2434
  640SOL    HW1 2445   3.646   1.154   0.252 -0.6220  0.6456  0.8437
  640SOL    HW2 2446   3.606   1.085   0.380  2.7101 -1.5254  0.8508
  641SOL     OW 2447   2.321   7.015   4.608 -0.5726 -0.1562 -0.0742
  641SOL    HW1 2448   2.256   6.973   4.552 -3.5177  0.2675  2.6959
  641SOL    HW2 2449   2.347   6.947   4.671 -0.1323  0.3274  0.2824
  642SOL     OW 2450   6.178   5.186   3.792 -0.1617  0.4155  0.1931
  642SOL    HW1 2451   6.206   5.101   3.827  0.1642  0.7025  0.6358
  642SOL    HW2 2452   6.117   5.220   3.856  0.0843  0.7355  0.2590
  643SOL     OW 2453   1.398   6.620   4.622  0.5453  0.5270 -0.0781
  643SOL    HW1 2454   1.417   6.699   4.571  3.0096 -0.0385 -0.1191
  643SOL    HW2 2455   1.377   6.653   4.709 -0.4798  1.3055 -0.5896
  644SOL     OW 2456   4.664   4.142   4.991 -0.5768  0.3247  0.2852
  644SOL    HW1 2457   4.759   4.143   4.998 -0.5329  0.4957 -0.2659
  644SOL    HW2 2458   4.635   4.214   5.047 -0.4554 -0.4446  1.3540
  645SOL     OW 2459   6.747   2.376   6.326 -0.1782 -0.4616 -0.0961
  645SOL    HW1 2460   6.721   2.392   6.235 -0.6720  0.6354  0.2218
  645SOL    HW2 2461   6.823   2.432   6.339  1.2717 -2.2561 -0.4567
  646SOL     OW 2462   2.582   0.197   1.130 -0.2153 -0.3287  0.3035
  646SOL    HW1 2463   2.572   0.286   1.097  1.3733 -0.1086  0.3042
  646SOL    HW2 2464   2.646   0.156   1.071  0.0862 -1.0258  1.0834
  647SOL     OW 2465   7.467   2.374   3.895  0.3607 -0.1963 -0.1660
  647SOL    HW1 2466   7.420   2.333   3.822  1.5111 -0.7352 -0.6425
  647SOL    HW2 2467   7.472   2.466   3.872 -0.7934 -0.0652  0.0850
  648SOL     OW 2468   7.325   0.739   3.672  0.2108  0.0123  0.1151
  648SOL    HW1 2469   7.338   0.806   3.739  0.2324 -0.8080  0.9609
  648SOL    HW2 2470   7.240   0.700   3.693 -0.9420  1.3105 -1.7850
  649SOL     OW 2471   6.705   0.440   4.503 -0.0122  0.2739  0.1805
  649SOL    HW1 2472   6.620   0.481   4.519  0.0064  0.5808 -0.4750
  649SOL    HW2 2473   6.768   0.498   4.546  0.0194  0.9854 -0.7980
  650SOL     OW 2474   3.900   4.506   7.390 -0.0030  0.7801  0.0697
  650SOL    HW1 2475   3.990   4.534   7.405 -0.6096  1.1467  3.7256
  650SOL    HW2 2476   3.858   4.581   7.347  0.9631  1.3134  0.0461
  651SOL     OW 2477   5.291   4.871   3.405  0.1825  0.4719 -0.2621
  651SOL    HW1 2478   5.347   4.945   3.381 -0.6663  0.7368 -1.5619
  651SOL    HW2 2479   5.211   4.912   3.438  0.5282  0.0973  1.1099
  652SOL     OW 2480   2.257   2.290   4.043 -0.1617  0.5538  0.0632
  652SOL    HW1 2481   2.260   2.251   4.130  0.0865  2.8820  1.1827
  652SOL    HW2 2482   2.166   2.280   4.015  0.3600 -3.0000 -0.8940
  653SOL     OW 2483   2.303   0.579   6.668  0.3846 -0.0700 -0.1022
  653SOL    HW1 2484   2.242   0.587   6.595  0.9988  1.4927 -0.4900
  653SOL    HW2 2485   2.247   0.575   6.746 -0.2371  0.6113 -0.5011
  654SOL     OW 2486   3.305   2.483   3.321 -0.1228 -0.4123 -0.4252
  654SOL    HW1 2487   3.217   2.454   3.298  0.6308 -1.8826 -1.6462
  654SOL    HW2 2488   3.358   2.465   3.243  1.1115  1.2005 -0.0156
  655SOL     OW 2489   1.505   1.195   4.194  0.2125  0.0521 -0.0428
  655SOL    HW1 2490   1.427   1.144   4.213  1.0983 -1.2061  0.3510
  655SOL    HW2 2491   1.509   1.260   4.265  0.4473 -1.0051  0.9473
  656SOL     OW 2492   4.979   4.391   3.766  0.0032 -0.6097  0.4117
  656SOL    HW1 2493   4.902   4.339   3.745 -0.4141  0.5075 -1.0148
  656SOL    HW2 2494   5.053   4.337   3.737 -0.1940 -1.7509  1.9259
  657SOL     OW 2495   2.241   4.570   5.134 -0.1667  0.2895 -1.0129
  657SOL    HW1 2496   2.166   4.527   5.092  0.3231 -0.2628 -1.3315
  657SOL    HW2 2497   2.310   4.567   5.069  0.6276 -0.6429 -0.1644
  658SOL     OW 2498   0.428   1.670   0.333 -0.1512  0.3792  0.1006
  658SOL    HW1 2499   0.485   1.672   0.256  0.1537 -0.3770  0.2983
  658SOL    HW2 2500   0.480   1.709   0.403 -0.6046  1.5242 -0.1736
  659SOL     OW 2501   2.692   1.174   2.175  0.5954  0.3907  0.7760
  659SOL    HW1 2502   2.735   1.089   2.184  0.2790  0.0384 -0.7994
  659SOL    HW2 2503   2.643   1.168   2.093  1.1675  2.3525  0.2355
  660SOL     OW 2504   2.108   1.617   3.056 -0.7034 -0.2795  0.2818
  660SOL    HW1 2505   2.198   1.587   3.041 -0.3278  1.0711 -0.3116
  660SOL    HW2 2506   2.118   1.703   3.097 -1.7372 -0.2982  0.6028
  661SOL     OW 2507   3.952   2.940   3.092  0.3459 -0.1404 -0.2572
  661SOL    HW1 2508   3.942   2.991   3.173 -0.7267  1.1280 -1.1358
  661SOL    HW2 2509   3.987   2.856   3.121  1.2232  0.7318  1.3744
  662SOL     OW 2510   1.717   3.225   4.108  0.4916  0.1926 -0.8908
  662SOL    HW1 2511   1.722   3.320   4.122 -0.3068  0.2087 -0.6481
  662SOL    HW2 2512   1.649   3.215   4.041  1.4891 -0.1354 -1.8906
  663SOL     OW 2513   4.468   0.268   4.477  0.0341  0.0369 -0.0452
  663SOL    HW1 2514   4.547   0.321   4.484 -0.4131  0.6830  0.1659
  663SOL    HW2 2515   4.422   0.303   4.401 -0.3514  0.0647  0.1993
  664SOL     OW 2516   0.782   5.908   7.061 -0.9313 -0.1013 -0.3750
  664SOL    HW1 2517   0.710   5.966   7.087  0.2177  1.1014  0.2344
  664SOL    HW2 2518   0.854   5.968   7.040  0.2015 -1.3040 -0.0227
  665SOL     OW 2519   6.123   0.586   1.909 -0.2685  0.1125 -0.0774
  665SOL    HW1 2520   6.042   0.578   1.859 -0.3763 -1.2102  0.2874
  665SOL    HW2 2521   6.173   0.508   1.886  0.5294  0.4879  0.3730
  666SOL     OW 2522   3.655   3.323   0.331 -0.1410 -0.4334 -0.1306
  666SOL    HW1 2523   3.585   3.329   0.265 -0.1514  0.5157 -0.0519
  666SOL    HW2 2524   3.684   3.232   0.328  0.0680 -0.3426 -1.6842
  667SOL     OW 2525   6.134   3.517   2.560 -0.4451 -0.2189  0.2286
  667SOL    HW1 2526   6.219   3.532   2.518 -0.3204  0.7578  0.7888
  667SOL    HW2 2527   6.129   3.422   2.571  1.1531 -0.2246  1.3215
  668SOL     OW 2528   5.505   1.819   1.377 -0.2726  0.0497 -0.3558
  668SOL    HW1 2529   5.422   1.865   1.369 -1.1657 -1.2936  0.6355
  668SOL    HW2 2530   5.513   1.769   1.295 -0.9741 -0.6025 -0.0432
  669SOL     OW 2531   3.282   1.378   5.064 -0.2689  0.0505 -0.2691
  669SOL    HW1 2532   3.214   1.351   5.002  0.7188 -0.6010 -1.1225
  669SOL    HW2 2533   3.327   1.296   5.087 -2.5114 -0.2845  3.8197
  670SOL     OW 2534   1.666   3.481   0.326 -0.0453  0.3144  0.0547
  670SOL    HW1 2535   1.677   3.419   0.254  1.7422  1.2335 -0.5211
  670SOL    HW2 2536   1.754   3.491   0.363 -0.4487  1.8211  0.6823
  671SOL     OW 2537   1.893   4.960   2.836  0.2924  0.1374 -0.1873
  671SOL    HW1 2538   1.897   4.878   2.788  1.3115 -0.1765  0.4128
  671SOL    HW2 2539   1.984   4.981   2.857 -0.0665  0.6609  0.9305
  672SOL     OW 2540   7.377   1.461   3.450 -0.6048  0.2086  1.1920
  672SOL    HW1 2541   7.391   1.372   3.418  1.8201 -0.1202  2.9251
  672SOL    HW2 2542   7.417   1.517   3.383  1.2154 -0.2545  1.8509
  673SOL     OW 2543   2.456   5.824   2.998  0.1661  0.1208 -0.2076
  673SOL    HW1 2544   2.443   5.917   2.983 -0.3713  0.1733  0.4978
  673SOL    HW2 2545   2.378   5.797   3.047 -0.3106 -0.9738 -1.4962
  674SOL     OW 2546   0.285   4.740   3.879 -0.0294  0.4277  0.5451
  674SOL    HW1 2547   0.331   4.767   3.799 -0.5420 -0.9786 -0.2662
  674SOL    HW2 2548   0.192   4.753   3.858 -0.1150  1.5285  1.5086
  675SOL     OW 2549   3.887   3.520   4.308 -0.2778  0.2932 -0.5116
  675SOL    HW1 2550   3.864   3.521   4.216 -0.2729 -2.2207 -0.6064
  675SOL    HW2 2551   3.949   3.447   4.317 -1.6067 -0.6697  1.7518
  676SOL     OW 2552   4.067   7.290   3.458 -0.3115 -0.1603  0.4456
  676SOL    HW1 2553   4.026   7.237   3.390 -0.7498  0.1721  0.4462
  676SOL    HW2 2554   4.046   7.380   3.435  0.4041  0.0166  0.4617
  677SOL     OW 2555   4.355   5.520   1.852  0.1578  0.5124 -0.0083
  677SOL    HW1 2556   4.363   5.596   1.910 -1.2828  2.8256 -2.5680
  677SOL    HW2 2557   4.444   5.507   1.817  0.7637 -0.1085  1.6603
  678SOL     OW 2558   0.189   6.498   5.174  0.2807  0.2743  0.4180
  678SOL    HW1 2559   0.140   6.550   5.238  1.8203  1.1202  0.9625
  678SOL    HW2 2560   0.228   6.428   5.225 -1.6084 -1.3895 -0.2807
  679SOL     OW 2561   6.736   4.964   4.235 -0.2450  0.1527 -0.5893
  679SOL    HW1 2562   6.679   4.990   4.163 -1.2184 -0.0209  0.0946
  679SOL    HW2 2563   6.738   4.869   4.232  0.2387  0.1697 -0.7851
  680SOL     OW 2564   6.894   1.745   5.736  0.2143  0.6159  0.4128
  680SOL    HW1 2565   6.983   1.769   5.709  0.2922 -0.5262 -0.4365
  680SOL    HW2 2566   6.902   1.722   5.828  1.1945 -1.2074 -0.0813
  681SOL     OW 2567   6.280   2.103   2.874  0.4029  0.1457 -0.2070
  681SOL    HW1 2568   6.198   2.139   2.906  0.6444  0.1908  0.3615
  681SOL    HW2 2569   6.264   2.009   2.867 -0.0911  0.2869 -1.2953
  682SOL     OW 2570   2.705   2.516   0.501 -0.2958  0.3636 -0.0906
  682SOL    HW1 2571   2.741   2.454   0.438 -1.0844  0.8907 -1.1003
  682SOL    HW2 2572   2.668   2.462   0.571 -0.0114 -0.2553 -0.4149
  683SOL     OW 2573   6.252   2.564   1.201 -0.2640  0.2260  0.1525
  683SOL    HW1 2574   6.238   2.645   1.251  1.1892  0.2199  0.5982
  683SOL    HW2 2575   6.182   2.506   1.231  0.9985 -0.0649  2.8609
  684SOL     OW 2576   0.282   1.838   6.844 -0.4070 -0.2145  0.3446
  684SOL    HW1 2577   0.198   1.880   6.827 -0.7680 -1.0473  0.0106
  684SOL    HW2 2578   0.305   1.795   6.761  1.1525  1.3606 -0.0918
  685SOL     OW 2579   2.383   1.184   5.410  0.1140  0.3235 -0.2473
  685SOL    HW1 2580   2.405   1.106   5.359  0.9269  0.6195 -0.3597
  685SOL    HW2 2581   2.377   1.152   5.500  0.0554  0.0570 -0.3442
  686SOL     OW 2582   1.754   2.623   2.409  0.4621  0.1984 -0.1500
  686SOL    HW1 2583   1.798   2.558   2.464  0.0241 -0.7198 -0.8720
  686SOL    HW2 2584   1.715   2.684   2.472  0.1097 -0.7433  0.5768
  687SOL     OW 2585   2.235   4.528   7.172  0.2060  0.0213  0.1664
  687SOL    HW1 2586   2.229   4.580   7.092 -0.2896  1.0401  0.8383
  687SOL    HW2 2587   2.216   4.590   7.242  1.3208 -0.6972  1.1379
  688SOL     OW 2588   4.913   0.241   2.666 -0.4477 -0.4336  0.0523
  688SOL    HW1 2589   4.936   0.178   2.733 -0.1746 -0.1597  0.2192
  688SOL    HW2 2590   4.915   0.192   2.584  1.6057 -0.2461 -0.0701
  689SOL     OW 2591   3.802   0.308   2.219 -0.3122 -0.4221  0.1928
  689SOL    HW1 2592   3.865   0.358   2.270 -0.1647 -0.8719  0.4463
  689SOL    HW2 2593   3.847   0.290   2.136 -0.7278  0.7408 -0.3224
  690SOL     OW 2594   2.442   5.305   5.774 -0.6560  0.6084 -0.0040
  690SOL    HW1 2595   2.437   5.212   5.750 -1.2557  0.0439  2.0820
  690SOL    HW2 2596   2.397   5.350   5.703 -0.7007 -0.7346 -0.8678
  691SOL     OW 2597   2.524   0.875   3.260 -0.2004  0.4068  0.2374
  691SOL    HW1 2598   2.612   0.887   3.223 -0.3513 -0.1419 -0.3286
  691SOL    HW2 2599   2.534   0.892   3.353  0.7529 -0.7670  0.3786
  692SOL     OW 2600   0.734   7.257   3.194 -0.2522  0.6095  0.2763
  692SOL    HW1 2601   0.815   7.208   3.211 -1.0624 -0.3317  1.6343
  692SOL    HW2 2602   0.714   7.240   3.102  0.0153 -0.8202  0.4594
  693SOL     OW 2603   4.842   4.599   7.559 -0.3271  0.3739 -0.0112
  693SOL    HW1 2604   4.813   4.620   7.648 -0.6035 -0.1487  0.0238
  693SOL    HW2 2605   4.933   4.631   7.556  0.7589 -2.1827  1.4436
  694SOL     OW 2606   3.611   4.627   6.736  0.4328 -0.5981 -0.4640
  694SOL    HW1 2607   3.590   4.553   6.679 -0.9427 -1.8569  1.5505
  694SOL    HW2 2608   3.614   4.702   6.677 -0.5303 -1.8620 -2.2340
  695SOL     OW 2609   4.942   6.419   1.841  0.2821  0.3256 -0.2513
  695SOL    HW1 2610   4.912   6.501   1.801 -0.6174 -0.6224 -1.6384
  695SOL    HW2 2611   5.014   6.390   1.785  2.0870  1.2059  1.4920
  696SOL     OW 2612   6.685   1.279   2.325 -0.8449 -0.4358  0.8531
  696SOL    HW1 2613   6.613   1.327   2.284 -0.1765 -0.2392 -0.1277
  696SOL    HW2 2614   6.673   1.189   2.296 -0.3061 -0.2759  0.1145
  697SOL     OW 2615   5.879   5.603   2.224 -0.0854  0.3776  0.7426
  697SOL    HW1 2616   5.906   5.587   2.134  1.8911 -1.7350  1.6163
  697SOL    HW2 2617   5.947   5.660   2.260 -1.3531  1.9993  0.7186
  698SOL     OW 2618   2.906   6.551   2.884  0.2420 -0.7484  0.5737
  698SOL    HW1 2619   3.001   6.549   2.881  0.2480 -0.0285 -1.3132
  698SOL    HW2 2620   2.884   6.641   2.859 -0.9389 -0.7618  1.4758
  699SOL     OW 2621   6.546   4.445   2.569 -0.2375  0.1343  0.5048
  699SOL    HW1 2622   6.541   4.349   2.571 -2.1144  0.1577 -0.9002
  699SOL    HW2 2623   6.552   4.470   2.661 -3.3510 -1.2460  1.2081
  700SOL     OW 2624   6.584   2.518   6.003  0.0410 -0.1343 -0.1420
  700SOL    HW1 2625   6.671   2.497   6.039  0.2870  1.0639  0.0040
  700SOL    HW2 2626   6.588   2.486   5.912  0.6081 -0.1663 -0.1121
  701SOL     OW 2627   3.140   1.455   1.211  0.1877 -0.3200  0.6241
  701SOL    HW1 2628   3.104   1.373   1.177 -0.4682 -0.2945  1.2231
  701SOL    HW2 2629   3.221   1.430   1.254  0.6419 -0.4599 -0.2905
  702SOL     OW 2630   1.298   6.623   1.355  0.1935 -0.3324  0.1459
  702SOL    HW1 2631   1.280   6.577   1.273  0.5769 -0.8379  0.3433
  702SOL    HW2 2632   1.279   6.715   1.336 -0.5230 -0.5620 -0.2675
  703SOL     OW 2633   6.796   5.870   2.151 -0.0303 -0.0293 -0.4332
  703SOL    HW1 2634   6.883   5.909   2.137  0.5360 -0.8954  0.5296
  703SOL    HW2 2635   6.804   5.781   2.117 -0.5126 -0.1409 -0.2595
  704SOL     OW 2636   4.944   2.619   1.082 -0.2752 -0.6068 -0.1094
  704SOL    HW1 2637   4.923   2.651   0.994 -1.4144  0.9839  0.6839
  704SOL    HW2 2638   4.890   2.672   1.140 -0.8174 -2.7615  1.4819
  705SOL     OW 2639   3.626   1.665   0.964 -0.6228 -0.3888  0.0419
  705SOL    HW1 2640   3.634   1.662   1.060 -0.3091  0.7392  0.0755
  705SOL    HW2 2641   3.716   1.679   0.934 -0.9097  0.8314 -0.3081
  706SOL     OW 2642   4.580   3.904   5.646  0.1178 -0.3016  0.2199
  706SOL    HW1 2643   4.499   3.856   5.661  0.8526 -1.8061 -0.4354
  706SOL    HW2 2644   4.567   3.988   5.691 -2.2556 -0.0109 -0.8717
  707SOL     OW 2645   3.987   2.031   4.752 -0.2194  0.2382 -0.1420
  707SOL    HW1 2646   3.965   2.002   4.840 -0.7135 -1.2406 -0.7064
  707SOL    HW2 2647   4.043   2.107   4.764  0.3008 -0.3665  1.4594
  708SOL     OW 2648   6.210   5.142   2.170  0.5225  0.5899 -0.3104
  708SOL    HW1 2649   6.115   5.144   2.158  0.3202  0.6674  1.1748
  708SOL    HW2 2650   6.225   5.072   2.234  1.5433  0.1191 -1.0191
  709SOL     OW 2651   0.995   6.198   1.844  0.2351  0.4141  0.4669
  709SOL    HW1 2652   1.047   6.132   1.890 -1.5080  1.1001  3.7240
  709SOL    HW2 2653   1.060   6.259   1.809  1.7995 -1.9796 -1.1473
  710SOL     OW 2654   4.307   6.007   4.674  0.3125 -0.1616 -0.4659
  710SOL    HW1 2655   4.327   6.074   4.610  0.2908  1.5827  1.2708
  710SOL    HW2 2656   4.368   5.936   4.655 -0.8275 -0.4886 -3.4577
  711SOL     OW 2657   0.459   7.374   7.346  0.4703 -0.0092 -0.2579
  711SOL    HW1 2658   0.522   7.431   7.389  0.2668 -1.0566  1.5277
  711SOL    HW2 2659   0.512   7.314   7.294  0.9996 -0.8124  1.1431
  712SOL     OW 2660   1.743   0.417   2.521 -0.4305  0.4727  0.0374
  712SOL    HW1 2661   1.669   0.357   2.520  0.1263 -0.2396 -0.2955
  712SOL    HW2 2662   1.707   0.502   2.496 -1.2323  0.2778  0.5064
  713SOL     OW 2663   4.107   2.529   7.264 -0.1269  0.5517 -0.4288
  713SOL    HW1 2664   4.093   2.471   7.339  2.9745  1.3104  0.8778
  713SOL    HW2 2665   4.044   2.600   7.278 -1.4811 -0.6645 -0.0850
  714SOL     OW 2666   4.261   6.588   2.930 -0.1298 -0.2248 -0.9626
  714SOL    HW1 2667   4.231   6.634   2.851 -0.6888 -2.0546 -1.8668
  714SOL    HW2 2668   4.189   6.598   2.992  0.0564  0.7023 -0.8794
  715SOL     OW 2669   0.516   6.614   5.788  0.3785 -0.2550 -0.4433
  715SOL    HW1 2670   0.456   6.548   5.824 -1.1615  0.6379 -1.2701
  715SOL    HW2 2671   0.468   6.651   5.714  2.3752 -0.1842 -1.7638
  716SOL     OW 2672   1.226   0.868   4.122 -0.1487  0.6527  0.6902
  716SOL    HW1 2673   1.181   0.913   4.193  1.8786  1.8208  1.3143
  716SOL    HW2 2674   1.211   0.775   4.138 -1.6802  0.9791  1.2669
  717SOL     OW 2675   4.658   6.437   4.611 -0.3730 -0.1189 -0.4833
  717SOL    HW1 2676   4.640   6.366   4.549 -0.3575 -0.3758 -0.1951
  717SOL    HW2 2677   4.729   6.403   4.665  0.7550  0.7318 -1.3690
  718SOL     OW 2678   7.037   1.112   3.752  0.6219  0.3507  0.3166
  718SOL    HW1 2679   6.998   1.031   3.786  0.3963  1.1832  2.1478
  718SOL    HW2 2680   6.975   1.142   3.686  0.1739 -0.4254  0.3678
  719SOL     OW 2681   4.562   3.148   4.952  0.1488  0.4802  0.5174
  719SOL    HW1 2682   4.589   3.240   4.952  0.1877  0.5272  2.8917
  719SOL    HW2 2683   4.639   3.101   4.985 -0.6385 -0.1179  1.5450
  720SOL     OW 2684   3.683   1.257   5.090  0.6055  0.1426 -0.2383
  720SOL    HW1 2685   3.678   1.340   5.041  0.0046  0.8941  1.0452
  720SOL    HW2 2686   3.671   1.283   5.181  0.0198 -1.4146  0.1521
  721SOL     OW 2687   0.019   2.106   3.514 -0.0768  0.2754  0.0941
  721SOL    HW1 2688  -0.015   2.018   3.530 -0.1682  0.2898 -0.0236
  721SOL    HW2 2689  -0.034   2.163   3.571  1.3179  0.0201  1.7295
  722SOL     OW 2690   5.903   0.317   5.494 -0.2768 -0.1061 -0.1359
  722SOL    HW1 2691   5.829   0.299   5.553  1.0333  0.9404  1.9416
  722SOL    HW2 2692   5.866   0.308   5.406 -2.1148 -2.6110  0.7715
  723SOL     OW 2693   5.993   2.864   3.443 -0.1271  0.5919 -0.6615
  723SOL    HW1 2694   5.936   2.822   3.506 -0.1447  0.6008 -0.6714
  723SOL    HW2 2695   5.975   2.958   3.452  1.5964  0.8348  1.0476
  724SOL     OW 2696   0.084   6.001   1.339 -0.9197 -0.2622 -0.5118
  724SOL    HW1 2697   0.076   5.973   1.248 -2.0671 -1.0873 -0.1873
  724SOL    HW2 2698   0.177   5.991   1.359 -1.0973 -3.1556 -0.6756
  725SOL     OW 2699   1.756   2.229   4.924 -0.1185  0.3518  0.8402
  725SOL    HW1 2700   1.825   2.233   4.990  0.4991 -0.0248  0.2414
  725SOL    HW2 2701   1.786   2.287   4.854  0.2169 -0.7484  0.0303
  726SOL     OW 2702   5.847   0.997   2.127 -0.0373  0.4815  0.0183
  726SOL    HW1 2703   5.870   0.976   2.218  1.3550  1.1317 -0.1512
  726SOL    HW2 2704   5.925   0.972   2.077 -0.6448  0.4931 -0.9532
  727SOL     OW 2705   3.218   2.809   5.514 -0.1310  0.0791 -0.4263
  727SOL    HW1 2706   3.216   2.815   5.418 -1.4705  1.7872 -0.3397
  727SOL    HW2 2707   3.180   2.892   5.544  2.5101  0.6731  1.6463
  728SOL     OW 2708   6.243   7.548   0.431  0.4927  0.4180 -0.1897
  728SOL    HW1 2709   6.271   7.587   0.514  3.9116 -0.0282 -0.9853
  728SOL    HW2 2710   6.204   7.464   0.456  0.2002  0.8902  1.0148
  729SOL     OW 2711   1.001   6.566   6.919  0.1392 -0.0281 -0.0447
  729SOL    HW1 2712   0.929   6.585   6.979 -1.3383 -0.0779 -1.7096
  729SOL    HW2 2713   1.075   6.616   6.954 -1.0170  0.9868  1.0741
  730SOL     OW 2714   6.004   0.124   7.320  0.3334 -0.1803 -0.6356
  730SOL    HW1 2715   6.027   0.198   7.376 -0.3230 -0.3769 -0.0935
  730SOL    HW2 2716   6.033   0.047   7.369 -2.4078 -0.5339  0.6459
  731SOL     OW 2717   0.461   3.955   7.428  0.2817 -0.1692  0.0493
  731SOL    HW1 2718   0.519   3.986   7.359 -0.6161  1.0935 -0.1638
  731SOL    HW2 2719   0.412   4.032   7.456 -0.7243 -1.0313  0.7841
  732SOL     OW 2720   6.632   0.762   2.064  0.1265  0.2816  0.4464
  732SOL    HW1 2721   6.552   0.796   2.024 -0.2403 -1.4855 -0.3972
  732SOL    HW2 2722   6.604   0.728   2.149 -0.2174 -1.1311 -0.2123
  733SOL     OW 2723   0.482   1.995   0.295 -0.6143 -0.1847  0.4491
  733SOL    HW1 2724   0.419   1.939   0.249  0.1780  1.1185 -2.3877
  733SOL    HW2 2725   0.558   1.998   0.237  1.0095  0.5252  2.5026
  734SOL     OW 2726   1.614   5.270   1.135  0.3393 -0.2083  0.1590
  734SOL    HW1 2727   1.538   5.264   1.078 -0.1625  0.4493  0.7578
  734SOL    HW2 2728   1.608   5.355   1.176  0.4748 -0.8276  1.5111
  735SOL     OW 2729   6.451   2.476   1.937  0.2668 -0.2758 -0.2288
  735SOL    HW1 2730   6.459   2.571   1.939 -0.0650 -0.2224 -0.8942
  735SOL    HW2 2731   6.496   2.445   2.015  1.5475  0.3522 -0.6918
  736SOL     OW 2732   3.645   3.643   6.579 -0.1107 -0.2555  0.5407
  736SOL    HW1 2733   3.648   3.737   6.562  3.0536 -0.4861 -0.9189
  736SOL    HW2 2734   3.719   3.627   6.638  0.3075 -1.9778 -0.3661
  737SOL     OW 2735   1.855   5.086   4.322 -0.0374  0.3015  0.4646
  737SOL    HW1 2736   1.903   5.004   4.313 -0.2205  0.2456 -0.0217
  737SOL    HW2 2737   1.816   5.082   4.409  0.0003 -0.1008  0.4615
  738SOL     OW 2738   5.630   3.512   5.375  0.2480  0.1833 -0.1064
  738SOL    HW1 2739   5.540   3.539   5.394  0.3853  0.0804  0.7247
  738SOL    HW2 2740   5.651   3.450   5.445  0.5778 -0.6635 -0.9295
  739SOL     OW 2741   6.604   6.626   0.306  0.2293  0.0829  0.1417
  739SOL    HW1 2742   6.596   6.717   0.278  1.6995  0.0499 -0.5034
  739SOL    HW2 2743   6.677   6.592   0.254 -0.6052 -1.6056  0.0201
  740SOL     OW 2744   3.304   4.104   2.262 -0.4807 -0.1212 -0.0202
  740SOL    HW1 2745   3.357   4.063   2.331 -0.4110 -1.0209 -0.5795
  740SOL    HW2 2746   3.359   4.173   2.227 -0.0527 -0.4138  0.0624
  741SOL     OW 2747   0.744   3.025   4.480 -0.8941 -0.8497 -0.0756
  741SOL    HW1 2748   0.735   3.120   4.477 -1.5631 -0.9312 -1.6232
  741SOL    HW2 2749   0.821   3.006   4.425  1.5251 -1.0313  3.0597
  742SOL     OW 2750   1.795   5.872   0.730 -0.3399  0.9098  0.4068
  742SOL    HW1 2751   1.752   5.805   0.677  1.3900  0.1577 -0.1303
  742SOL    HW2 2752   1.740   5.881   0.808 -1.9649  0.7356 -0.6747
  743SOL     OW 2753   2.414   4.050   3.528  0.6210  0.2388 -0.1256
  743SOL    HW1 2754   2.507   4.040   3.546  0.8518 -0.4600 -1.5908
  743SOL    HW2 2755   2.409   4.062   3.433 -0.6641  1.8396  0.0943
  744SOL     OW 2756   7.063   5.828   4.357 -0.2981  0.1675 -0.4038
  744SOL    HW1 2757   7.038   5.920   4.355 -0.1348  0.2152 -0.2563
  744SOL    HW2 2758   7.144   5.824   4.305 -1.7066 -0.3250 -2.6814
  745SOL     OW 2759   0.158   3.998   0.344 -0.2226  0.2935  0.6046
  745SOL    HW1 2760   0.236   4.037   0.384  0.1130  1.0609 -0.7464
  745SOL    HW2 2761   0.188   3.967   0.259 -0.7503 -1.9463  1.1680
  746SOL     OW 2762   0.251   6.398   1.201 -0.6736 -0.2179 -0.2781
  746SOL    HW1 2763   0.225   6.309   1.178  0.8530 -0.5231 -0.9453
  746SOL    HW2 2764   0.333   6.388   1.248 -1.1439  0.7732  0.8175
  747SOL     OW 2765   2.137   0.725   5.946 -0.1004  0.2519 -0.4062
  747SOL    HW1 2766   2.215   0.682   5.913  0.8284  1.5718 -0.0336
  747SOL    HW2 2767   2.109   0.783   5.875 -0.7275 -0.1757 -0.5189
  748SOL     OW 2768   3.529   4.095   0.085  0.0129 -0.0253 -0.2109
  748SOL    HW1 2769   3.539   4.044   0.165  0.2550 -2.1426 -1.4941
  748SOL    HW2 2770   3.436   4.120   0.083  0.3392  1.5063  1.4832
  749SOL     OW 2771   4.785   6.194   6.454  0.0988  0.0473 -0.0947
  749SOL    HW1 2772   4.863   6.195   6.510 -0.0294  0.6344  0.0852
  749SOL    HW2 2773   4.722   6.141   6.502 -0.1953  0.9960  0.5876
  750SOL     OW 2774   4.871   0.065   0.299  0.3321 -0.0059 -0.1412
  750SOL    HW1 2775   4.965   0.070   0.286  0.0844  0.4846 -2.0371
  750SOL    HW2 2776   4.834   0.124   0.233 -1.4711 -2.9618 -1.9800
  751SOL     OW 2777   1.974   6.356   6.587 -0.1986 -0.1090  0.0521
  751SOL    HW1 2778   1.941   6.437   6.548 -0.1015 -0.5034 -0.8841
  751SOL    HW2 2779   2.008   6.306   6.513  0.9065 -0.4623  0.7780
  752SOL     OW 2780   7.337   2.252   5.074 -0.6239  0.2662  0.1709
  752SOL    HW1 2781   7.324   2.346   5.076 -1.9006  0.0934  1.0185
  752SOL    HW2 2782   7.361   2.233   4.983 -2.4841  1.1564 -0.5696
  753SOL     OW 2783   3.318   6.690   6.672  0.4724 -0.5200 -0.0445
  753SOL    HW1 2784   3.292   6.630   6.741  1.0019 -0.1065  0.5256
  753SOL    HW2 2785   3.362   6.635   6.607  0.2671 -0.8582  0.1052
  754SOL     OW 2786   5.733   2.959   6.922 -0.5545  0.3651 -0.2222
  754SOL    HW1 2787   5.655   2.925   6.878 -0.7230 -0.3883  0.6248
  754SOL    HW2 2788   5.806   2.933   6.865 -0.5709 -2.4053  0.8596
  755SOL     OW 2789   2.283   1.693   0.917 -0.5222 -0.0965 -0.2716
  755SOL    HW1 2790   2.250   1.783   0.923 -2.4463 -0.7216 -0.6973
  755SOL    HW2 2791   2.340   1.683   0.993 -2.1280  0.7851  1.1205
  756SOL     OW 2792   3.175   6.773   4.109  0.2517 -0.6985  0.1545
  756SOL    HW1 2793   3.270   6.764   4.114  0.3894  0.7097  0.5826
  756SOL    HW2 2794   3.160   6.821   4.027 -0.1510 -1.5860 -0.2986
  757SOL     OW 2795   4.093   7.427   3.195 -0.2901 -0.5879 -0.3128
  757SOL    HW1 2796   4.031   7.453   3.264  0.2122 -1.2113  0.3854
  757SOL    HW2 2797   4.042   7.430   3.114 -0.6747  1.0031 -0.0530
  758SOL     OW 2798   5.174   3.739   4.042  0.2288  0.2860  0.2457
  758SOL    HW1 2799   5.100   3.797   4.029 -0.6416 -0.8847 -0.2009
  758SOL    HW2 2800   5.198   3.750   4.134 -0.5678  0.6028  0.4191
  759SOL     OW 2801   6.207   4.197   2.951 -0.4414  0.4413 -0.3960
  759SOL    HW1 2802   6.203   4.128   2.884 -0.4559  0.3157 -0.2671
  759SOL    HW2 2803   6.258   4.158   3.022 -0.0558  0.7242 -0.5095
  760SOL     OW 2804   5.882   6.843   4.964  0.4027 -0.1096  0.1565
  760SOL    HW1 2805   5.964   6.893   4.974  0.3158  0.1103 -0.2108
  760SOL    HW2 2806   5.823   6.882   5.028  0.0994  0.7627 -0.6365
  761SOL     OW 2807   2.857   6.298   3.942 -0.1535 -0.0386 -0.3798
  761SOL    HW1 2808   2.833   6.216   3.985 -0.3518 -0.8169 -1.9059
  761SOL    HW2 2809   2.905   6.346   4.009 -0.9318 -0.9345  0.8898
  762SOL     OW 2810   7.400   7.544   4.585  0.4756  0.5087 -0.1031
  762SOL    HW1 2811   7.349   7.624   4.577  1.5055  1.0532 -1.5618
  762SOL    HW2 2812   7.372   7.491   4.510  0.5420 -0.0769  0.2787
  763SOL     OW 2813   2.764   2.907   1.429 -0.0974 -0.1763  0.2282
  763SOL    HW1 2814   2.686   2.894   1.484 -0.3878 -1.2471 -0.4089
  763SOL    HW2 2815   2.808   2.983   1.468 -0.3760 -0.7931  1.8558
  764SOL     OW 2816   1.143   1.615   3.735 -0.1422  0.3491 -0.0656
  764SOL    HW1 2817   1.160   1.529   3.774 -1.4180  0.3191  0.4464
  764SOL    HW2 2818   1.230   1.650   3.716  0.4040 -0.9064  0.0338
  765SOL     OW 2819   4.695   0.015   5.894  0.4509 -0.2389  0.4614
  765SOL    HW1 2820   4.747   0.094   5.905 -0.0128  0.6459 -2.6493
  765SOL    HW2 2821   4.759  -0.055   5.885  0.9452  0.1305  1.0466
  766SOL     OW 2822   6.994   5.496   6.405  0.2312  0.1768  0.2714
  766SOL    HW1 2823   6.960   5.410   6.379 -1.3559  1.3276 -1.7958
  766SOL    HW2 2824   7.073   5.507   6.352  0.2659  0.1279  0.3119
  767SOL     OW 2825   2.385   4.094   7.406  0.7531 -1.0616  0.1861
  767SOL    HW1 2826   2.384   4.190   7.409  0.7985 -1.0443 -0.3615
  767SOL    HW2 2827   2.401   4.073   7.315 -1.3545 -1.5942 -0.1252
  768SOL     OW 2828   5.460   2.325   1.382  0.0670 -0.3025 -0.1067
  768SOL    HW1 2829   5.387   2.293   1.330  0.7379  1.6143 -2.3749
  768SOL    HW2 2830   5.435   2.304   1.472 -1.9187 -2.2490 -1.0005
  769SOL     OW 2831   3.620   3.785   5.230 -0.0856  1.3909  0.0119
  769SOL    HW1 2832   3.558   3.791   5.303 -0.3540 -2.0054  0.2085
  769SOL    HW2 2833   3.701   3.822   5.265 -0.8977  2.2121  1.1163
  770SOL     OW 2834   3.531   1.757   4.591 -0.3569 -0.0023 -0.2557
  770SOL    HW1 2835   3.592   1.776   4.520  0.9325  0.0437  0.8215
  770SOL    HW2 2836   3.527   1.661   4.595 -0.7487 -0.0062 -0.6340
  771SOL     OW 2837   0.906   4.161   0.003 -0.1269  0.2350  0.1984
  771SOL    HW1 2838   0.880   4.199  -0.082 -1.7215  0.0117  0.5547
  771SOL    HW2 2839   0.989   4.116  -0.016  0.1367  1.1426 -0.9746
  772SOL     OW 2840   3.175   2.161   2.393  0.3587 -0.2378 -0.4382
  772SOL    HW1 2841   3.213   2.103   2.459 -0.2112 -1.2951 -0.9929
  772SOL    HW2 2842   3.105   2.207   2.439 -0.3709 -1.3405 -0.3955
  773SOL     OW 2843   4.761   5.527   7.254  0.0455  0.0162 -0.4871
  773SOL    HW1 2844   4.770   5.492   7.343  3.4237 -0.6351 -0.9685
  773SOL    HW2 2845   4.716   5.457   7.206  0.6239 -0.7790  0.1078
  774SOL     OW 2846   5.826   3.503   2.916  0.2847 -0.2996  0.2141
  774SOL    HW1 2847   5.823   3.521   2.822  1.7321 -1.9028 -0.1820
  774SOL    HW2 2848   5.919   3.488   2.935 -0.0705 -0.7552  1.7652
  775SOL     OW 2849   5.269   3.962   5.115 -0.3484 -0.5891  0.0414
  775SOL    HW1 2850   5.203   3.956   5.046 -1.0554  0.5190  0.6013
  775SOL    HW2 2851   5.287   3.870   5.138 -1.4729 -0.9201 -0.3294
  776SOL     OW 2852   4.317   1.157   4.974  0.1952  0.2571 -0.0486
  776SOL    HW1 2853   4.365   1.170   5.055 -0.7969 -1.1496  0.7918
  776SOL    HW2 2854   4.375   1.193   4.906  1.7938 -0.0968  1.0720
  777SOL     OW 2855   1.153   5.456   6.464  0.6198  0.1635 -0.9314
  777SOL    HW1 2856   1.158   5.548   6.489  0.6235 -0.5756  2.2044
  777SOL    HW2 2857   1.189   5.409   6.539 -0.2577 -2.4370 -2.0386
  778SOL     OW 2858   5.261   4.163   0.118  0.1954 -0.5219  0.2997
  778SOL    HW1 2859   5.208   4.123   0.049 -0.0986  2.0723 -1.1125
  778SOL    HW2 2860   5.352   4.149   0.090  0.0721  1.4465 -1.2993
  779SOL     OW 2861   4.369   6.168   7.074  0.0894 -0.3018 -0.3828
  779SOL    HW1 2862   4.416   6.193   7.153  0.2757  1.1130 -0.9116
  779SOL    HW2 2863   4.363   6.073   7.079  3.0089 -0.5778 -0.2916
  780SOL     OW 2864   1.769   2.489   2.867 -0.0449  0.0844 -0.2094
  780SOL    HW1 2865   1.676   2.468   2.854 -0.5123  2.7832 -2.1836
  780SOL    HW2 2866   1.809   2.474   2.782  1.0902  0.0644  0.3075
  781SOL     OW 2867   5.092   5.820   0.688 -0.1158  0.7218  0.2656
  781SOL    HW1 2868   5.004   5.811   0.653  0.2210  0.5945 -0.5871
  781SOL    HW2 2869   5.103   5.915   0.702 -0.8109  0.6277  1.5522
  782SOL     OW 2870   5.606   2.715   2.952 -0.0982 -0.1481 -0.1696
  782SOL    HW1 2871   5.622   2.655   2.878  1.9010  0.8670 -0.6360
  782SOL    HW2 2872   5.603   2.658   3.028 -0.1881 -1.0441 -0.8271
  783SOL     OW 2873   6.954   2.546   6.332  0.2143 -0.1204  0.2197
  783SOL    HW1 2874   6.909   2.600   6.396 -0.0382 -0.3866  0.2687
  783SOL    HW2 2875   6.996   2.608   6.272  0.9034  0.1343  0.9524
  784SOL     OW 2876   4.197   1.279   6.611 -0.0743  0.1375  0.7978
  784SOL    HW1 2877   4.212   1.315   6.699  1.0821  0.2477  0.5669
  784SOL    HW2 2878   4.284   1.274   6.572 -0.6333  0.6254 -0.5579
  785SOL     OW 2879   1.028   4.735   0.981  0.0371  0.2132 -0.3065
  785SOL    HW1 2880   1.072   4.660   1.021  0.4340  0.6474  0.0935
  785SOL    HW2 2881   0.957   4.757   1.041  1.2299  1.4756  0.7212
  786SOL     OW 2882   1.834   2.745   2.022  0.0926 -0.0243  0.2253
  786SOL    HW1 2883   1.888   2.813   2.062  0.2449  0.2587 -0.4599
  786SOL    HW2 2884   1.804   2.783   1.940 -0.9104 -0.2860  0.4562
  787SOL     OW 2885   1.782   5.250   0.403  0.3320 -0.5098 -0.2976
  787SOL    HW1 2886   1.780   5.158   0.427 -3.1266 -0.8195 -1.2517
  787SOL    HW2 2887   1.864   5.283   0.441 -0.1895 -3.0222  3.6318
  788SOL     OW 2888   5.477   4.335   1.512  0.2325 -0.3169  0.3731
  788SOL    HW1 2889   5.388   4.312   1.536  0.5685 -0.6720  1.3061
  788SOL    HW2 2890   5.509   4.388   1.585  0.5475  0.4236 -0.2829
  789SOL     OW 2891   2.831   0.206   6.323 -0.2273  0.3974 -0.0938
  789SOL    HW1 2892   2.862   0.214   6.414 -0.5974  1.5210 -0.0462
  789SOL    HW2 2893   2.884   0.269   6.274 -0.9693  0.7991 -0.3971
  790SOL     OW 2894   0.687   3.696   4.385 -0.5995  0.0637 -0.1319
  790SOL    HW1 2895   0.654   3.609   4.362 -1.1937  0.6003 -1.3652
  790SOL    HW2 2896   0.718   3.733   4.302  2.3082 -0.0463  0.7927
  791SOL     OW 2897   6.012   4.744   0.491 -0.2252  1.0541  0.3402
  791SOL    HW1 2898   6.048   4.767   0.406 -1.4753 -1.6336 -1.0071
  791SOL    HW2 2899   5.970   4.659   0.479 -1.8926  1.2965  3.2397
  792SOL     OW 2900   4.345   0.408   6.497 -0.1887  0.1244 -0.9838
  792SOL    HW1 2901   4.397   0.444   6.426 -0.8681  1.4334 -0.8574
  792SOL    HW2 2902   4.301   0.332   6.459  0.9350 -0.3311 -1.3954
  793SOL     OW 2903   0.327   2.913   6.713  0.1766 -0.1873  0.4876
  793SOL    HW1 2904   0.400   2.852   6.700  0.4611  0.0258  1.0196
  793SOL    HW2 2905   0.356   2.994   6.673  0.2241 -0.1088  0.6792
  794SOL     OW 2906   0.782   5.541   3.895  0.6719 -0.8722 -0.0116
  794SOL    HW1 2907   0.834   5.581   3.964  0.4021 -0.7415  0.1176
  794SOL    HW2 2908   0.811   5.585   3.815 -0.1802  0.1516  0.2252
  795SOL     OW 2909   1.619   2.761   5.159 -0.2077 -0.3142 -0.2702
  795SOL    HW1 2910   1.599   2.838   5.213  1.2365  0.3749 -0.6637
  795SOL    HW2 2911   1.556   2.764   5.087  1.0989  1.7392 -1.4386
  796SOL     OW 2912   6.515   3.082   6.104 -0.3567 -0.0217  0.2688
  796SOL    HW1 2913   6.526   3.116   6.192 -0.5939 -1.8574  1.0551
  796SOL    HW2 2914   6.467   3.000   6.115 -1.1102  0.1001 -1.6471
  797SOL     OW 2915   2.559   4.299   2.683  0.3098 -0.4613  0.5073
  797SOL    HW1 2916   2.463   4.305   2.691 -0.0441 -1.1149 -2.2575
  797SOL    HW2 2917   2.581   4.213   2.718 -0.5238 -1.4527 -1.2692
  798SOL     OW 2918   0.577   2.963   3.841 -0.2517  0.0381 -0.1384
  798SOL    HW1 2919   0.672   2.969   3.841 -0.2414  0.2631 -1.4234
  798SOL    HW2 2920   0.559   2.870   3.824 -0.1916  0.4146 -2.7427
  799SOL     OW 2921   7.316   4.409   2.910 -0.1538  0.3772  0.0905
  799SOL    HW1 2922   7.334   4.475   2.843 -0.9308  0.2349 -0.2684
  799SOL    HW2 2923   7.338   4.453   2.993 -0.2787  0.9526 -0.1751
  800SOL     OW 2924   1.149   2.152   0.588 -0.1477 -0.1336 -0.6429
  800SOL    HW1 2925   1.118   2.149   0.497 -1.1263 -0.2591 -0.3167
  800SOL    HW2 2926   1.240   2.123   0.583 -0.2271 -0.2563 -1.5716
  801SOL     OW 2927   1.531   3.144   0.232  0.0474  0.0716  0.2423
  801SOL    HW1 2928   1.602   3.181   0.285 -0.3478  1.3666 -0.0997
  801SOL    HW2 2929   1.474   3.219   0.212 -0.5931 -0.6618 -0.7853
  802SOL     OW 2930   6.051   2.273   4.071  0.1585  0.5015 -0.1263
  802SOL    HW1 2931   6.145   2.270   4.054 -0.0335  0.3176 -1.2808
  802SOL    HW2 2932   6.013   2.299   3.987 -0.7453  1.6612  0.6169
  803SOL     OW 2933   2.713   0.425   2.787  0.7943 -0.4546 -0.1175
  803SOL    HW1 2934   2.664   0.363   2.734  0.1468  0.1002 -0.1806
  803SOL    HW2 2935   2.647   0.477   2.832  1.3291 -0.1699  0.3595
  804SOL     OW 2936   4.651   7.247   6.199  0.2034 -0.5005  0.2148
  804SOL    HW1 2937   4.665   7.204   6.114  0.1777 -0.2472  0.0823
  804SOL    HW2 2938   4.593   7.320   6.180  1.1930  0.3061  0.2365
  805SOL     OW 2939   6.938   7.246   5.780  0.2014 -0.0712 -0.1042
  805SOL    HW1 2940   6.995   7.309   5.737  0.2215 -0.1070 -0.1294
  805SOL    HW2 2941   6.924   7.282   5.868 -0.8668  0.6442 -0.5560
  806SOL     OW 2942   0.105   5.599   2.940  0.4135  0.2268 -0.4282
  806SOL    HW1 2943   0.019   5.557   2.943 -0.3453  1.6531 -1.1812
  806SOL    HW2 2944   0.153   5.560   3.013 -1.5371  0.8136  1.2692
  807SOL     OW 2945   2.515   6.557   3.010  0.0788 -0.4339  0.0187
  807SOL    HW1 2946   2.463   6.594   3.081 -0.2319  0.5846 -0.7313
  807SOL    HW2 2947   2.511   6.621   2.940  3.7181  0.5740  0.4886
  808SOL     OW 2948   6.766   6.574   0.874 -0.6557 -1.0008  0.0464
  808SOL    HW1 2949   6.758   6.564   0.779  1.0345  1.5521 -0.4652
  808SOL    HW2 2950   6.819   6.653   0.886  0.3918 -2.0094  3.1124
  809SOL     OW 2951   1.014   5.855   2.220  0.0753 -0.2525 -0.1805
  809SOL    HW1 2952   0.973   5.771   2.240 -1.5795  1.0048  2.1847
  809SOL    HW2 2953   0.946   5.905   2.175  0.7333  0.1812 -0.7272
  810SOL     OW 2954   0.917   4.553   3.711  0.3974  0.0493  0.0256
  810SOL    HW1 2955   0.859   4.504   3.769  0.8425 -0.1765  0.2917
  810SOL    HW2 2956   0.944   4.629   3.762 -0.6070  0.7935 -0.5323
  811SOL     OW 2957   6.312   7.177   4.727 -0.0836 -0.3270 -0.2902
  811SOL    HW1 2958   6.318   7.243   4.796 -0.4457  0.9359 -1.4365
  811SOL    HW2 2959   6.402   7.159   4.702 -0.0242  0.4472 -0.6355
  812SOL     OW 2960   5.526   4.726   6.224 -0.2318 -0.0788 -0.0833
  812SOL    HW1 2961   5.574   4.653   6.265 -0.6426 -0.7017 -0.6784
  812SOL    HW2 2962   5.436   4.695   6.221 -0.3492  0.3138 -0.6607
  813SOL     OW 2963   5.145   3.984   2.247 -0.1693  0.5943 -0.6357
  813SOL    HW1 2964   5.076   4.026   2.196 -0.1349 -0.3575 -1.4982
  813SOL    HW2 2965   5.182   3.918   2.188 -0.9442 -1.3995  0.9859
  814SOL     OW 2966   5.769   0.629   2.775  0.2417 -0.2619  0.1755
  814SOL    HW1 2967   5.790   0.540   2.747 -5.3598 -2.1799  0.5921
  814SOL    HW2 2968   5.797   0.632   2.867  3.6853 -0.0980 -0.7597
  815SOL     OW 2969   1.920   6.413   4.688  0.2215  0.1219 -0.2453
  815SOL    HW1 2970   1.892   6.374   4.606  1.4117  1.3365 -1.2863
  815SOL    HW2 2971   1.999   6.365   4.712  0.4325  0.4168 -0.3432
  816SOL     OW 2972   2.578   0.246   2.622  0.0937 -0.0407  0.0234
  816SOL    HW1 2973   2.637   0.195   2.568  0.8711  0.6726  0.1708
  816SOL    HW2 2974   2.491   0.232   2.584  0.6961  0.9434 -1.8162
  817SOL     OW 2975   3.645   2.778   2.613 -1.1080 -0.4681  0.7889
  817SOL    HW1 2976   3.601   2.841   2.555 -0.3305 -2.0858 -1.7304
  817SOL    HW2 2977   3.714   2.828   2.655  1.1721  0.0238 -3.0827
  818SOL     OW 2978   2.650   3.747   2.880  0.2222 -0.0878  0.2662
  818SOL    HW1 2979   2.693   3.688   2.818  0.7493  0.2226  0.3336
  818SOL    HW2 2980   2.695   3.831   2.869 -0.3290  0.2287  0.3771
  819SOL     OW 2981   6.218   5.961   5.419  0.6206  0.6261 -0.0292
  819SOL    HW1 2982   6.257   6.041   5.385 -0.3216  1.4647  0.8027
  819SOL    HW2 2983   6.133   5.988   5.453  0.0364 -0.8335 -0.2366
  820SOL     OW 2984   2.495   2.268   6.074 -0.3140 -0.3924 -0.0836
  820SOL    HW1 2985   2.400   2.274   6.067 -0.3126 -1.4121 -1.6753
  820SOL    HW2 2986   2.515   2.291   6.165 -2.0349  0.1816  0.1762
  821SOL     OW 2987   1.771   1.309   4.994  0.0929 -0.6545  0.3148
  821SOL    HW1 2988   1.760   1.286   4.901  3.2038 -2.0068  0.1562
  821SOL    HW2 2989   1.681   1.319   5.027 -1.1646 -1.8708 -2.4104
  822SOL     OW 2990   7.375   3.638   0.237  0.1498  0.1505  0.0652
  822SOL    HW1 2991   7.393   3.730   0.256 -0.3911  0.0345  1.2066
  822SOL    HW2 2992   7.309   3.612   0.301  1.2527 -1.3939  0.6479
  823SOL     OW 2993   4.441   6.821   0.575 -0.2222  0.2205 -0.3310
  823SOL    HW1 2994   4.532   6.850   0.585  0.2878 -0.4833 -2.4902
  823SOL    HW2 2995   4.448   6.729   0.549 -1.6540 -0.4193  1.3580
  824SOL     OW 2996   2.386   0.667   2.261  0.2885 -0.6211 -0.2440
  824SOL    HW1 2997   2.297   0.702   2.261  1.1711  1.8294  0.6803
  824SOL    HW2 2998   2.386   0.602   2.331 -0.5884 -0.0806  0.2792
  825SOL     OW 2999   7.562   2.287   1.078 -0.0858  0.0854 -0.1855
  825SOL    HW1 3000   7.650   2.255   1.056  0.5930  2.4264 -1.1234
  825SOL    HW2 3001   7.513   2.283   0.996  0.5099  2.8051 -0.7681
  826SOL     OW 3002   2.905   0.309   1.014 -0.0742 -0.2254 -0.0359
  826SOL    HW1 3003   2.857   0.227   1.026 -1.3214  0.3508 -0.8876
  826SOL    HW2 3004   2.874   0.366   1.084  1.1703 -0.6091  0.8711
  827SOL     OW 3005   6.475   0.001   2.944  0.0896  0.4124 -0.3637
  827SOL    HW1 3006   6.436   0.085   2.917  1.2798  1.5601  1.2712
  827SOL    HW2 3007   6.426  -0.024   3.022  0.2934  0.0293 -0.3595
  828SOL     OW 3008   2.519   0.759   0.872  0.1905  0.2830  0.2549
  828SOL    HW1 3009   2.539   0.796   0.958  1.7377 -1.8149  0.8812
  828SOL    HW2 3010   2.591   0.789   0.816  1.3357 -1.4332  0.7142
  829SOL     OW 3011   7.551   2.684   0.552  0.0652 -0.6200 -0.2241
  829SOL    HW1 3012   7.552   2.597   0.593 -1.6487 -0.7816 -0.4792
  829SOL    HW2 3013   7.469   2.724   0.582 -0.2325  0.0470 -1.8662
  830SOL     OW 3014   1.048   7.084   5.608  0.2689 -0.6796 -0.4275
  830SOL    HW1 3015   0.997   7.031   5.669 -0.8142  1.5665  0.7738
  830SOL    HW2 3016   1.138   7.078   5.640 -0.1229 -0.3813  0.8011
  831SOL     OW 3017   1.596   3.882   5.322 -0.5422 -0.5243  0.2381
  831SOL    HW1 3018   1.535   3.940   5.369 -2.4344 -0.9306 -1.5569
  831SOL    HW2 3019   1.571   3.892   5.230  0.8726 -2.1809 -0.3639
  832SOL     OW 3020   2.685   2.365   1.788  0.2066 -0.3273 -0.3429
  832SOL    HW1 3021   2.759   2.427   1.787  0.1958 -0.2511  1.1101
  832SOL    HW2 3022   2.629   2.397   1.859 -0.1485 -1.6128 -0.0251
  833SOL     OW 3023   6.622   2.912   0.620  0.1529  0.4796  0.0137
  833SOL    HW1 3024   6.707   2.874   0.640 -0.0998 -0.6770 -0.9928
  833SOL    HW2 3025   6.640   2.977   0.553  0.1043 -0.8044 -1.3049
  834SOL     OW 3026   3.788   0.626   6.341  0.1303 -0.2148 -0.2862
  834SOL    HW1 3027   3.804   0.640   6.435 -0.7371 -1.8201  0.1237
  834SOL    HW2 3028   3.700   0.589   6.337  0.5726 -1.1752 -1.6494
  835SOL     OW 3029   1.781   6.881   6.396  0.2831  0.1689 -0.2609
  835SOL    HW1 3030   1.706   6.906   6.450  2.2057  2.4140  1.6319
  835SOL    HW2 3031   1.745   6.864   6.310 -2.6533 -1.1310  1.0813
  836SOL     OW 3032   0.896   2.436   7.375 -0.0487 -0.0075  0.1593
  836SOL    HW1 3033   0.959   2.365   7.361 -2.3822 -2.4156  1.0195
  836SOL    HW2 3034   0.852   2.446   7.291 -3.3945 -3.5996  1.1493
  837SOL     OW 3035   0.726   7.404   1.126  0.0959  0.4575  0.4306
  837SOL    HW1 3036   0.821   7.400   1.129  0.2228  1.9524 -0.5736
  837SOL    HW2 3037   0.701   7.450   1.206  0.1557 -0.3972  0.9572
  838SOL     OW 3038   7.310   3.301   3.937  0.3615 -0.1861  0.2785
  838SOL    HW1 3039   7.248   3.237   3.974  0.9185  0.1860  1.9479
  838SOL    HW2 3040   7.260   3.382   3.931  0.3173 -0.2073  0.3651
  839SOL     OW 3041   5.077   4.528   7.049  0.5315 -0.7116 -0.5910
  839SOL    HW1 3042   5.070   4.616   7.085 -3.0039 -0.4976 -1.4171
  839SOL    HW2 3043   5.066   4.540   6.954 -1.4990 -2.0530 -0.5895
  840SOL     OW 3044   2.606   3.909   4.544 -0.0605  0.0537  0.6346
  840SOL    HW1 3045   2.693   3.942   4.521  0.1528  0.4094  1.8870
  840SOL    HW2 3046   2.547   3.950   4.481  0.2459  2.5914  1.8758
  841SOL     OW 3047   6.446   0.479   2.561  0.3196  0.3859 -0.5955
  841SOL    HW1 3048   6.486   0.524   2.487 -1.3070  1.5276 -0.8517
  841SOL    HW2 3049   6.467   0.534   2.637  0.3797  0.2594 -0.5206
  842SOL     OW 3050   5.056   5.651   7.288 -0.1181  0.5556  0.5292
  842SOL    HW1 3051   5.112   5.594   7.235 -1.0943 -0.7353  0.8375
  842SOL    HW2 3052   5.011   5.707   7.224  0.1255  0.3110  0.1394
  843SOL     OW 3053   1.164   3.204   6.936  0.5225 -0.6393  0.0047
  843SOL    HW1 3054   1.127   3.288   6.909  0.6500  0.0744  1.8990
  843SOL    HW2 3055   1.093   3.141   6.922 -0.6558  0.3116  1.4138
  844SOL     OW 3056   3.267   5.775   0.191 -0.1729 -0.0037  0.0838
  844SOL    HW1 3057   3.280   5.784   0.286 -1.3168 -0.2084  0.2717
  844SOL    HW2 3058   3.356   5.774   0.155  0.3115 -0.7447  1.2314
  845SOL     OW 3059   0.682   6.405   6.506  0.1119 -0.1153 -0.0697
  845SOL    HW1 3060   0.752   6.357   6.550 -0.4306  0.0319  0.9963
  845SOL    HW2 3061   0.723   6.441   6.427  0.6681 -1.8647 -0.6373
  846SOL     OW 3062   4.549   1.350   2.127  0.0016 -0.8037 -0.1148
  846SOL    HW1 3063   4.507   1.336   2.212  0.0788  0.4079  0.1346
  846SOL    HW2 3064   4.642   1.337   2.143  0.0622 -0.1214  0.0889
  847SOL     OW 3065   0.265   2.205   4.662  0.1515 -0.3334 -0.0904
  847SOL    HW1 3066   0.222   2.219   4.578  1.4451 -0.1619 -0.7499
  847SOL    HW2 3067   0.244   2.283   4.714  0.3024  0.1084 -0.6846
  848SOL     OW 3068   0.704   2.188   1.735  0.1880 -0.4744 -0.0682
  848SOL    HW1 3069   0.664   2.267   1.697 -0.8734 -0.6731  0.6130
  848SOL    HW2 3070   0.755   2.151   1.663 -0.2474  0.2006 -0.7422
  849SOL     OW 3071   4.790   6.192   0.784  0.1489 -0.9897 -0.4794
  849SOL    HW1 3072   4.877   6.168   0.752  0.5989 -0.2673  0.1635
  849SOL    HW2 3073   4.769   6.125   0.850  0.7568 -0.4811  0.2452
  850SOL     OW 3074   7.329   1.814   3.004  0.2704 -0.0561 -0.3248
  850SOL    HW1 3075   7.303   1.906   2.999  0.0843 -0.0726  0.2460
  850SOL    HW2 3076   7.400   1.805   2.940  1.5156  0.9068  0.8838
  851SOL     OW 3077   4.947   1.796   6.648  0.0526 -0.1548 -0.0532
  851SOL    HW1 3078   4.860   1.833   6.630 -0.3153 -1.0008 -0.0452
  851SOL    HW2 3079   4.973   1.755   6.566  1.2608  1.6440 -0.6269
  852SOL     OW 3080   5.845   2.955   4.796  0.3359 -0.3678  0.4098
  852SOL    HW1 3081   5.756   2.974   4.824  0.2967  0.3636 -0.1895
  852SOL    HW2 3082   5.894   2.941   4.877 -0.4192 -1.2782  0.7368
  853SOL     OW 3083   4.452   2.491   3.270 -0.0548  0.3289 -0.4895
  853SOL    HW1 3084   4.491   2.405   3.285 -2.0696 -0.5906 -0.0892
  853SOL    HW2 3085   4.521   2.554   3.292  1.1934 -1.1699  0.0287
  854SOL     OW 3086   3.140   5.349   3.635 -0.3919  0.6726 -0.2345
  854SOL    HW1 3087   3.187   5.406   3.696 -0.0467  1.5075 -1.2621
  854SOL    HW2 3088   3.097   5.285   3.692  2.3658 -0.4844  0.7724
  855SOL     OW 3089   7.541   0.875   6.164  0.3515  0.2547  0.0202
  855SOL    HW1 3090   7.546   0.849   6.256  0.0288  0.2642  0.0433
  855SOL    HW2 3091   7.570   0.798   6.115  2.0140  0.7564  0.1757
  856SOL     OW 3092   3.742   5.666   2.225  0.2804 -0.5727  0.3271
  856SOL    HW1 3093   3.672   5.725   2.253  0.5129 -1.1925  2.4307
  856SOL    HW2 3094   3.698   5.603   2.168 -0.6042 -0.1808  0.5489
  857SOL     OW 3095   2.020   4.700   6.334  0.8393  0.1018  0.0968
  857SOL    HW1 3096   2.046   4.632   6.396  1.5959  0.8698  0.6498
  857SOL    HW2 3097   2.073   4.776   6.358 -0.5469  1.1414 -0.0089
  858SOL     OW 3098   5.450   4.311   7.173 -0.4736 -0.1728 -0.6308
  858SOL    HW1 3099   5.483   4.224   7.199 -0.3149  0.1528  0.2803
  858SOL    HW2 3100   5.357   4.297   7.157 -0.4467 -0.5127 -0.5094
  859SOL     OW 3101   0.984   0.211   2.426  0.3992  0.2614 -0.3274
  859SOL    HW1 3102   0.891   0.235   2.432 -0.1184 -1.5019 -0.5896
  859SOL    HW2 3103   1.008   0.186   2.515 -0.0717 -1.5031 -0.6560
  860SOL     OW 3104   1.105   0.730   6.381 -0.3540 -0.3466  0.0362
  860SOL    HW1 3105   1.065   0.717   6.467  0.2131 -0.6630  0.2604
  860SOL    HW2 3106   1.104   0.825   6.368  0.4360 -0.2074  0.8376
  861SOL     OW 3107   1.401   2.611   3.656  0.1939 -0.6881 -0.1067
  861SOL    HW1 3108   1.414   2.527   3.611 -0.9301 -0.3741 -1.0596
  861SOL    HW2 3109   1.489   2.637   3.684  0.9359 -0.9900 -1.9730
  862SOL     OW 3110   0.346   7.278   5.178  0.3248  0.4724 -0.1559
  862SOL    HW1 3111   0.367   7.327   5.098 -1.1988  2.9881  0.8622
  862SOL    HW2 3112   0.258   7.244   5.164 -1.0110  3.0529  1.2584
  863SOL     OW 3113   3.032   1.662   4.530  0.7104  0.6140 -0.6781
  863SOL    HW1 3114   2.971   1.699   4.594  1.3169  3.0645 -1.3882
  863SOL    HW2 3115   2.997   1.576   4.510 -0.8126  0.7393  1.1701
  864SOL     OW 3116   7.143   3.792   2.720  0.1957 -0.3230 -0.3879
  864SOL    HW1 3117   7.127   3.885   2.736  1.1185 -0.2692  0.2249
  864SOL    HW2 3118   7.131   3.750   2.805 -1.3996 -0.9536 -0.8842
  865SOL     OW 3119   3.700   1.484   2.727 -0.2039 -0.3413  0.0440
  865SOL    HW1 3120   3.654   1.428   2.664  0.5800 -0.6158 -0.2879
  865SOL    HW2 3121   3.631   1.513   2.787 -1.2949  1.2954 -1.8925
  866SOL     OW 3122   4.754   3.411   5.671  0.2741  0.4606 -0.2625
  866SOL    HW1 3123   4.763   3.328   5.625  0.1637  0.0137  0.4971
  866SOL    HW2 3124   4.668   3.406   5.714  0.7964  0.4214  0.8231
  867SOL     OW 3125   2.915   2.085   4.943  0.5437 -0.3904  0.1117
  867SOL    HW1 3126   2.972   2.016   4.908 -0.2783  0.5899 -3.5641
  867SOL    HW2 3127   2.839   2.039   4.977  0.5604 -1.3970 -1.1550
  868SOL     OW 3128   3.806   2.508   5.207  0.2016 -0.1579  0.4830
  868SOL    HW1 3129   3.760   2.548   5.133  0.4850  2.0901  1.4284
  868SOL    HW2 3130   3.898   2.512   5.184  0.2353 -0.3111  0.5863
  869SOL     OW 3131   5.135   6.442   4.534  0.7530  1.1782 -0.0780
  869SOL    HW1 3132   5.110   6.418   4.445 -0.1297 -2.2455  0.9690
  869SOL    HW2 3133   5.229   6.424   4.538  0.4754 -0.3031  0.1209
  870SOL     OW 3134   5.813   4.991   1.480  0.1250  0.3925 -0.2601
  870SOL    HW1 3135   5.897   4.945   1.470 -0.4156 -1.0567  1.4118
  870SOL    HW2 3136   5.767   4.973   1.398  0.3482 -1.2435 -0.0745
  871SOL     OW 3137   1.813   7.327   3.411 -0.5045 -0.4204  0.6896
  871SOL    HW1 3138   1.788   7.381   3.335  0.4780 -0.9570 -0.0410
  871SOL    HW2 3139   1.897   7.363   3.439 -1.9713  1.3521  3.0994
  872SOL     OW 3140   3.755   3.481   5.438  0.4682 -0.5465 -0.2407
  872SOL    HW1 3141   3.699   3.440   5.372 -0.4891 -0.0142  0.2060
  872SOL    HW2 3142   3.819   3.531   5.389  1.2305 -2.0021 -0.7846
  873SOL     OW 3143   3.204   6.661   2.856  0.5367  0.7552  0.2707
  873SOL    HW1 3144   3.237   6.715   2.785 -1.4675  0.0020 -1.3523
  873SOL    HW2 3145   3.174   6.723   2.922  0.3566  1.5626 -0.5544
  874SOL     OW 3146   4.051   2.691   6.745 -0.2493 -0.3857  0.2695
  874SOL    HW1 3147   4.026   2.744   6.669  1.4700  0.3028  0.1314
  874SOL    HW2 3148   4.066   2.604   6.710 -0.9283 -0.4395  0.0984
  875SOL     OW 3149   6.017   5.097   1.746 -0.5471  0.7235  1.1703
  875SOL    HW1 3150   5.929   5.059   1.742 -0.7831  1.3364 -0.2828
  875SOL    HW2 3151   6.057   5.073   1.662  1.1180 -0.5275  2.2724
  876SOL     OW 3152   2.228   7.457   6.525  0.0933 -0.3371 -0.7278
  876SOL    HW1 3153   2.205   7.424   6.438 -1.2297 -1.3598 -0.0295
  876SOL    HW2 3154   2.206   7.550   6.523 -0.8177 -0.5553 -1.2020
  877SOL     OW 3155   6.661   0.143   5.176  0.4425  0.3874 -0.7183
  877SOL    HW1 3156   6.737   0.105   5.220 -0.2167  1.4491  1.5023
  877SOL    HW2 3157   6.609   0.180   5.247 -1.6060  0.6723 -2.2823
  878SOL     OW 3158   6.550   0.945   3.512 -0.1826  0.1009 -0.3386
  878SOL    HW1 3159   6.620   0.885   3.538 -0.1921 -0.0920 -0.7482
  878SOL    HW2 3160   6.587   1.032   3.525  0.6043  0.0144 -1.7411
  879SOL     OW 3161   3.146   4.659   1.845 -0.3292 -0.0086  0.5518
  879SOL    HW1 3162   3.167   4.715   1.771 -0.4369  1.2816  1.4704
  879SOL    HW2 3163   3.150   4.570   1.810 -1.8742  0.6267 -1.3742
  880SOL     OW 3164   6.711   1.690   6.269 -0.3849  0.5478 -0.3068
  880SOL    HW1 3165   6.769   1.758   6.303  1.4389 -1.1697  0.2082
  880SOL    HW2 3166   6.759   1.609   6.282 -3.0661 -1.0564  0.4759
  881SOL     OW 3167   3.722   2.552   5.473 -0.0379 -0.7102 -0.2013
  881SOL    HW1 3168   3.757   2.550   5.384  0.6965  1.3759 -0.0049
  881SOL    HW2 3169   3.634   2.588   5.463 -1.2505 -3.4789 -0.3857
  882SOL     OW 3170   0.732   0.621   3.577  0.4491  0.1002 -0.2054
  882SOL    HW1 3171   0.754   0.618   3.670  2.6382 -0.4566 -0.6929
  882SOL    HW2 3172   0.779   0.698   3.544 -0.5676  0.4801 -0.8109
  883SOL     OW 3173   5.380   3.926   2.540 -0.5100 -0.1607  0.1460
  883SOL    HW1 3174   5.429   4.002   2.511 -0.6372 -0.0686  0.1691
  883SOL    HW2 3175   5.321   3.960   2.608  1.1039 -0.7033  1.9004
  884SOL     OW 3176   1.219   3.732   7.538 -0.3183  0.0826  0.0753
  884SOL    HW1 3177   1.280   3.709   7.609  1.0147  0.0665 -1.0214
  884SOL    HW2 3178   1.245   3.675   7.466  0.4054  2.2090 -1.4134
  885SOL     OW 3179   1.623   3.585   0.833 -0.1693 -0.3569 -0.1291
  885SOL    HW1 3180   1.568   3.655   0.868  2.6440  2.1280 -0.2065
  885SOL    HW2 3181   1.567   3.538   0.771 -2.4000  1.4076  0.4311
  886SOL     OW 3182   1.432   2.585   0.996  0.2525 -0.2280  0.1918
  886SOL    HW1 3183   1.357   2.632   1.033  1.2205  2.2947 -0.8424
  886SOL    HW2 3184   1.505   2.606   1.054  0.2957 -2.5546  1.1136
  887SOL     OW 3185   6.590   2.455   2.210  0.5646  0.3113  0.4572
  887SOL    HW1 3186   6.608   2.504   2.290  0.7972 -0.0208  0.6105
  887SOL    HW2 3187   6.662   2.476   2.151  0.7206  0.0735  0.5616
  888SOL     OW 3188   2.427   4.123   1.341  0.6374 -0.1774 -0.2460
  888SOL    HW1 3189   2.477   4.042   1.329 -0.1718 -0.9337  1.2217
  888SOL    HW2 3190   2.484   4.178   1.395  0.8051 -0.1507 -0.4512
  889SOL     OW 3191   2.227   4.697   7.385  0.1427 -0.8993  0.2749
  889SOL    HW1 3192   2.134   4.716   7.396  0.3288 -0.0086  0.3857
  889SOL    HW2 3193   2.255   4.661   7.469  0.0891 -0.3327  0.5402
  890SOL     OW 3194   2.484   5.565   2.035 -0.0500  0.3034  0.1136
  890SOL    HW1 3195   2.544   5.508   2.083  0.3547  0.7014  0.0871
  890SOL    HW2 3196   2.477   5.644   2.089  0.2137  0.6515 -0.3488
  891SOL     OW 3197   6.575   0.137   1.990 -0.1053 -0.7617 -0.3113
  891SOL    HW1 3198   6.521   0.213   1.971 -0.0731 -1.1131 -1.9719
  891SOL    HW2 3199   6.657   0.173   2.026  0.3421  0.0968 -2.0718
  892SOL     OW 3200   6.836   5.546   3.137 -0.4649  0.8574  0.0699
  892SOL    HW1 3201   6.768   5.559   3.071 -0.6399  1.0333  0.2829
  892SOL    HW2 3202   6.852   5.634   3.171  1.4578  1.2113 -1.5481
  893SOL     OW 3203   2.694   2.504   4.834  0.7082 -0.2087 -0.2413
  893SOL    HW1 3204   2.724   2.414   4.819  1.5007  0.1164 -0.6745
  893SOL    HW2 3205   2.773   2.553   4.857 -0.1038 -0.1681  2.8324
  894SOL     OW 3206   1.868   6.011   4.921 -0.5944 -0.5607 -0.0288
  894SOL    HW1 3207   1.959   5.991   4.898 -0.9829 -0.5418 -1.6543
  894SOL    HW2 3208   1.875   6.063   5.001  0.9374  1.0600 -1.1534
  895SOL     OW 3209   2.380   5.461   0.850  0.2408 -0.2540  0.7260
  895SOL    HW1 3210   2.415   5.443   0.937 -0.1972  0.4330  1.0538
  895SOL    HW2 3211   2.288   5.484   0.865  0.0959 -0.3603  0.0562
  896SOL     OW 3212   4.102   4.308   1.120 -0.0494  0.1072 -0.3785
  896SOL    HW1 3213   4.136   4.397   1.107 -3.0288  1.1896 -1.5178
  896SOL    HW2 3214   4.028   4.301   1.060 -2.8405 -1.4536  2.8826
  897SOL     OW 3215   3.522   4.143   4.160  0.7769 -0.3000  0.8136
  897SOL    HW1 3216   3.440   4.165   4.116  0.2148 -0.0846  1.9316
  897SOL    HW2 3217   3.559   4.072   4.107 -0.9633 -1.5699  1.2024
  898SOL     OW 3218   2.580   7.347   4.591 -0.4219 -0.2864 -0.4581
  898SOL    HW1 3219   2.555   7.265   4.549 -0.5792 -0.7295  0.4657
  898SOL    HW2 3220   2.586   7.411   4.520  1.8653 -1.5654 -1.5105
  899SOL     OW 3221   2.421   5.717   6.929  0.3447 -0.7241  0.6731
  899SOL    HW1 3222   2.435   5.803   6.969 -0.7113  0.0364 -0.5150
  899SOL    HW2 3223   2.333   5.691   6.957 -0.2177 -0.3977 -0.6971
  900SOL     OW 3224   5.758   0.626   1.058  0.1528  0.2805  0.7125
  900SOL    HW1 3225   5.779   0.538   1.028  0.7195  0.4785  0.5269
  900SOL    HW2 3226   5.683   0.614   1.116  0.0409 -0.2865  0.4519
  901SOL     OW 3227   2.002   4.884   1.665 -0.0392 -0.2919  0.4602
  901SOL    HW1 3228   1.907   4.897   1.660  0.0984  1.2602  1.3673
  901SOL    HW2 3229   2.036   4.921   1.583 -0.0008  1.7218  1.3420
  902SOL     OW 3230   6.627   2.722   4.866  0.1722 -0.6740  0.1718
  902SOL    HW1 3231   6.689   2.722   4.793  3.0093 -0.0049  2.4056
  902SOL    HW2 3232   6.640   2.637   4.908  0.4634 -0.0612  1.3505
  903SOL     OW 3233   5.237   7.472   3.854  0.1896  0.3622 -0.2531
  903SOL    HW1 3234   5.285   7.535   3.907  1.4004 -0.4439 -0.3576
  903SOL    HW2 3235   5.271   7.483   3.766 -2.3125  2.1966 -1.1169
  904SOL     OW 3236   0.428   2.465   2.360  0.3770  0.0825  0.1536
  904SOL    HW1 3237   0.467   2.518   2.429  0.7274 -0.2294  0.2004
  904SOL    HW2 3238   0.415   2.379   2.400  3.1359 -0.9484 -0.9263
  905SOL     OW 3239   6.105   1.731   2.650 -0.4156 -0.2296 -0.1270
  905SOL    HW1 3240   6.063   1.810   2.615 -0.8483  0.2658  1.4314
  905SOL    HW2 3241   6.197   1.754   2.658 -0.6819  0.4669  1.1765
  906SOL     OW 3242   3.893   0.841   0.595 -0.2778  0.0667 -0.3200
  906SOL    HW1 3243   3.817   0.836   0.653 -0.1541  0.6838 -0.0972
  906SOL    HW2 3244   3.908   0.751   0.567 -2.0776  0.1360 -1.6686
  907SOL     OW 3245   3.200   1.854   5.893  0.1966 -0.4176  0.2864
  907SOL    HW1 3246   3.188   1.861   5.798  0.3783  3.8789  0.3657
  907SOL    HW2 3247   3.118   1.885   5.930  0.3707 -1.4138  1.5625
  908SOL     OW 3248   5.459   5.816   2.791 -0.0781  0.3549 -0.0982
  908SOL    HW1 3249   5.439   5.726   2.765 -0.7946  0.6712 -0.6761
  908SOL    HW2 3250   5.436   5.869   2.714  1.6051  0.9041 -0.2608
  909SOL     OW 3251   1.979   0.045   6.397  0.1128  0.2291 -0.6469
  909SOL    HW1 3252   2.018   0.126   6.366 -0.2568  0.4884 -0.4491
  909SOL    HW2 3253   2.045  -0.022   6.381  1.6359  1.0017  1.7913
  910SOL     OW 3254   0.156   3.006   3.925  0.2002 -0.2060 -0.1318
  910SOL    HW1 3255   0.064   3.008   3.898  0.2514 -1.2164 -0.4349
  910SOL    HW2 3256   0.205   2.993   3.844  0.4504 -1.7389  0.2162
  911SOL     OW 3257   7.341   0.409   3.344 -0.1030  0.3088 -0.1671
  911SOL    HW1 3258   7.388   0.392   3.425 -0.8916 -1.1601  0.0054
  911SOL    HW2 3259   7.249   0.417   3.370 -0.5214 -1.2972 -0.9997
  912SOL     OW 3260   6.196   4.955   1.907 -0.1858 -0.0195 -0.2279
  912SOL    HW1 3261   6.161   5.031   1.861 -0.8369 -0.3913 -0.3599
  912SOL    HW2 3262   6.119   4.909   1.941  0.2225 -0.3708  0.2475
  913SOL     OW 3263   3.270   1.308   5.604  0.2847 -0.0301 -0.1316
  913SOL    HW1 3264   3.251   1.279   5.515 -2.5420  0.5115  0.1956
  913SOL    HW2 3265   3.273   1.404   5.597  2.4865 -0.0418 -0.0011
  914SOL     OW 3266   3.891   0.298   2.833  0.5884 -0.3040 -0.3130
  914SOL    HW1 3267   3.858   0.288   2.923  1.5349 -0.4653  0.0261
  914SOL    HW2 3268   3.823   0.258   2.778 -0.0961 -0.0248  0.3055
  915SOL     OW 3269   7.210   3.184   7.211  0.2096  0.0771  0.2131
  915SOL    HW1 3270   7.135   3.155   7.263  1.0267 -0.9127  0.8970
  915SOL    HW2 3271   7.185   3.166   7.121 -1.1010  1.5089  0.2423
  916SOL     OW 3272   4.122   6.451   6.291 -0.1011 -0.2321  0.5767
  916SOL    HW1 3273   4.084   6.469   6.205 -1.3994 -1.4935  0.8485
  916SOL    HW2 3274   4.188   6.384   6.274  0.6882  0.5820  0.3736
  917SOL     OW 3275   0.618   3.461   1.704 -0.4047 -0.0801  0.1545
  917SOL    HW1 3276   0.676   3.435   1.776 -0.6769  1.2632  0.8765
  917SOL    HW2 3277   0.647   3.407   1.630  0.7482 -0.5334  0.9066
  918SOL     OW 3278   5.438   7.315   2.579 -0.4255 -0.1605 -0.0765
  918SOL    HW1 3279   5.517   7.327   2.631 -0.4471 -1.5092  0.3313
  918SOL    HW2 3280   5.405   7.403   2.563  0.2710  0.3452  1.1411
  919SOL     OW 3281   1.259   0.825   4.960 -0.0136  0.0570  0.0448
  919SOL    HW1 3282   1.298   0.757   5.016  1.7959 -0.2316 -1.4683
  919SOL    HW2 3283   1.197   0.777   4.905  1.0648 -0.3864 -0.8352
  920SOL     OW 3284   3.870   3.110   5.632  0.2875  0.2879  0.0974
  920SOL    HW1 3285   3.906   3.049   5.568  1.2839 -0.9890  1.7923
  920SOL    HW2 3286   3.878   3.064   5.716 -1.3155  1.7408  1.1035
  921SOL     OW 3287   2.290   5.031   5.512 -0.1898  0.3588 -0.1973
  921SOL    HW1 3288   2.352   5.016   5.583 -1.0975  1.1488  0.7950
  921SOL    HW2 3289   2.292   4.950   5.460 -0.2804 -0.6605  1.3282
  922SOL     OW 3290   5.686   1.241   4.063  0.3602  0.1109 -0.1508
  922SOL    HW1 3291   5.731   1.160   4.038 -0.0199 -1.2688  3.1279
  922SOL    HW2 3292   5.755   1.308   4.061  1.5229 -1.0200  0.3502
  923SOL     OW 3293   2.149   4.212   5.154 -0.6930  0.2811 -0.0911
  923SOL    HW1 3294   2.106   4.152   5.092  0.7027 -0.9390  0.0425
  923SOL    HW2 3295   2.080   4.239   5.214 -1.3149 -1.5954  0.1239
  924SOL     OW 3296   5.262   0.158   1.110  0.0952 -0.5204  0.2252
  924SOL    HW1 3297   5.331   0.193   1.053 -1.4416  0.9818 -0.8417
  924SOL    HW2 3298   5.293   0.175   1.199  2.0351 -1.8559 -0.1248
  925SOL     OW 3299   7.406   3.120   6.718  0.2019 -0.0702 -0.0168
  925SOL    HW1 3300   7.493   3.155   6.698 -0.7711  1.8048 -1.2227
  925SOL    HW2 3301   7.396   3.046   6.657  1.5989 -1.4996  1.3765
  926SOL     OW 3302   2.629   2.040   1.906 -0.0925  0.3692 -0.2949
  926SOL    HW1 3303   2.538   2.031   1.935  0.4507  0.5798  1.6305
  926SOL    HW2 3304   2.680   1.991   1.971  1.3412  1.9290 -0.1566
  927SOL     OW 3305   2.281   4.248   2.399 -0.1190  0.4846  0.2248
  927SOL    HW1 3306   2.373   4.222   2.410  0.4478  1.8032 -1.0488
  927SOL    HW2 3307   2.279   4.339   2.427 -1.0297  0.4799  0.1878
  928SOL     OW 3308   1.686   1.449   2.168  0.0755  0.3209  0.1994
  928SOL    HW1 3309   1.594   1.437   2.191 -0.0418  0.3453 -0.2438
  928SOL    HW2 3310   1.708   1.536   2.202  0.0041  0.2177  0.5133
  929SOL     OW 3311   3.580   7.492   1.383  0.0527 -0.1284 -0.3345
  929SOL    HW1 3312   3.565   7.570   1.436  0.8369  0.2094 -0.6035
  929SOL    HW2 3313   3.496   7.474   1.342 -0.1156  0.6080 -0.3204
  930SOL     OW 3314   6.741   5.151   3.590 -0.0408  0.0385  0.2058
  930SOL    HW1 3315   6.670   5.158   3.653  1.3552 -0.8287  1.9741
  930SOL    HW2 3316   6.781   5.238   3.589 -0.4172  0.2123  0.0648
  931SOL     OW 3317   4.226   7.334   7.246 -0.8385 -0.4695 -0.3069
  931SOL    HW1 3318   4.212   7.398   7.315 -1.1155 -2.3541  1.4726
  931SOL    HW2 3319   4.320   7.333   7.232 -0.4545 -1.8550  1.9304
  932SOL     OW 3320   4.363   3.586   5.470  0.0967 -0.0271 -0.5017
  932SOL    HW1 3321   4.356   3.613   5.379  2.8717  1.0059 -0.5067
  932SOL    HW2 3322   4.392   3.495   5.466 -1.2847 -0.4809 -0.5947
  933SOL     OW 3323   2.327   6.981   0.924  0.4951 -0.1242  0.5271
  933SOL    HW1 3324   2.257   6.956   0.864  1.4886  2.6367 -2.0305
  933SOL    HW2 3325   2.400   6.924   0.901  0.4594  0.0334  0.0017
  934SOL     OW 3326   1.897   1.323   4.487  0.2604 -0.3817 -0.4102
  934SOL    HW1 3327   1.857   1.364   4.410 -0.7669 -2.1259 -0.8779
  934SOL    HW2 3328   1.905   1.394   4.551  1.1869  1.1276 -2.1099
  935SOL     OW 3329   4.798   1.882   5.119  0.1862  0.4818  0.2126
  935SOL    HW1 3330   4.751   1.957   5.083  0.1793 -0.6615 -2.4341
  935SOL    HW2 3331   4.824   1.831   5.042  1.7599 -1.3037  1.8113
  936SOL     OW 3332   1.579   4.677   0.946  0.1053 -0.3132  0.2089
  936SOL    HW1 3333   1.618   4.680   0.859  0.2190  0.5421  0.2862
  936SOL    HW2 3334   1.539   4.763   0.958 -1.3737 -0.9870  0.3362
  937SOL     OW 3335   3.806   5.642   1.492 -0.2692 -0.3695  0.7193
  937SOL    HW1 3336   3.728   5.597   1.460 -0.5214  0.2376  0.4541
  937SOL    HW2 3337   3.794   5.733   1.464  0.3834 -0.2050  0.9546
  938SOL     OW 3338   1.553   0.473   5.822  0.1836  0.5361 -0.3191
  938SOL    HW1 3339   1.600   0.553   5.800 -0.3242  0.8411 -0.3218
  938SOL    HW2 3340   1.611   0.402   5.794  0.9684  0.8841  0.3592
  939SOL     OW 3341   0.882   1.436   4.364 -0.3951  0.1230 -0.4961
  939SOL    HW1 3342   0.885   1.368   4.430  1.7797 -0.6634 -1.3236
  939SOL    HW2 3343   0.910   1.516   4.410  0.6623 -0.3229 -0.3478
  940SOL     OW 3344   0.662   5.287   0.506 -0.1850  0.2049 -0.1903
  940SOL    HW1 3345   0.651   5.213   0.446 -1.0178  0.7003 -0.6728
  940SOL    HW2 3346   0.658   5.364   0.449 -0.7419  0.6781  0.4702
  941SOL     OW 3347   7.314   4.722   3.771 -0.8872 -0.1464  0.4645
  941SOL    HW1 3348   7.249   4.651   3.763 -1.2977 -0.0567  2.4145
  941SOL    HW2 3349   7.265   4.795   3.808 -0.6632  1.5394 -2.2766
  942SOL     OW 3350   1.503   5.132   1.661 -0.2458 -0.4272 -0.2397
  942SOL    HW1 3351   1.494   5.154   1.754 -0.3602  0.6514 -0.4973
  942SOL    HW2 3352   1.526   5.214   1.619  0.3640 -1.0293 -1.0973
  943SOL     OW 3353   4.845   0.405   6.825  0.6022 -0.1019  0.0079
  943SOL    HW1 3354   4.833   0.499   6.819  1.8183 -0.0299 -2.1461
  943SOL    HW2 3355   4.938   0.393   6.842  0.5233 -0.9284 -0.0825
  944SOL     OW 3356   1.821   1.982   1.166  0.6246 -0.2490 -0.3282
  944SOL    HW1 3357   1.736   1.964   1.127  0.5637  0.3716 -0.4987
  944SOL    HW2 3358   1.821   1.935   1.249 -0.1706  0.3476  0.0144
  945SOL     OW 3359   0.389   3.910   6.290 -0.1541 -0.0705 -0.6461
  945SOL    HW1 3360   0.363   3.968   6.361 -0.4278 -1.1416  0.1643
  945SOL    HW2 3361   0.307   3.888   6.246 -0.1387 -0.4012 -0.5095
  946SOL     OW 3362   6.287   2.120   3.359  0.1675  0.0791  0.2217
  946SOL    HW1 3363   6.312   2.066   3.284 -1.2479  0.7194 -0.7533
  946SOL    HW2 3364   6.328   2.204   3.344  0.4065  0.0142  0.5017
  947SOL     OW 3365   6.426   5.313   5.484 -0.1439 -0.2109 -0.5364
  947SOL    HW1 3366   6.473   5.337   5.404 -0.2018 -0.1197 -0.5427
  947SOL    HW2 3367   6.338   5.347   5.471 -0.1073 -0.0486 -0.3615
  948SOL     OW 3368   6.646   6.524   2.321  0.1322  0.3932 -0.0403
  948SOL    HW1 3369   6.712   6.540   2.254  0.7008 -0.5273  0.2888
  948SOL    HW2 3370   6.646   6.429   2.333 -0.4265  0.4905  0.7953
  949SOL     OW 3371   2.331   0.710   7.215 -0.4707 -0.6359  0.2014
  949SOL    HW1 3372   2.410   0.732   7.166 -1.3488 -0.5664 -1.2515
  949SOL    HW2 3373   2.344   0.620   7.244  0.4440 -0.3740  0.6485
  950SOL     OW 3374   1.374   7.171   5.339  0.2082  0.1687 -0.2751
  950SOL    HW1 3375   1.305   7.107   5.320  0.5929 -0.3942  0.1816
  950SOL    HW2 3376   1.416   7.187   5.254  0.0777 -0.1608 -0.4043
  951SOL     OW 3377   1.938   7.552   1.781 -0.0329  0.4562 -0.3574
  951SOL    HW1 3378   1.864   7.548   1.720  0.9422  0.3546 -1.5802
  951SOL    HW2 3379   1.974   7.463   1.780  1.3254  0.9922 -1.3723
  952SOL     OW 3380   6.435   6.524   0.510  0.0009  0.7913  0.0653
  952SOL    HW1 3381   6.501   6.506   0.577 -0.5303 -1.2055  0.1090
  952SOL    HW2 3382   6.485   6.532   0.429  0.3112 -1.2543  0.0054
  953SOL     OW 3383   3.134   5.804   6.834 -0.1093 -0.4545  0.2289
  953SOL    HW1 3384   3.206   5.856   6.869 -1.9996  2.2435  0.4321
  953SOL    HW2 3385   3.118   5.737   6.900  1.8967 -0.8512  0.3596
  954SOL     OW 3386   1.779   0.480   2.104 -0.2170  0.4354  0.3701
  954SOL    HW1 3387   1.843   0.475   2.176 -0.0232  0.9577  0.2384
  954SOL    HW2 3388   1.705   0.427   2.134  0.1297  0.1210  0.6794
  955SOL     OW 3389   5.980   3.547   3.214 -0.5165  0.7689 -0.4361
  955SOL    HW1 3390   6.068   3.558   3.251 -0.6857 -0.7501  0.5034
  955SOL    HW2 3391   5.929   3.510   3.286 -1.6544  0.6286 -1.2973
  956SOL     OW 3392   0.404   0.265   1.053 -0.1874  0.1637 -0.4998
  956SOL    HW1 3393   0.355   0.182   1.057  1.2030 -0.7486 -1.2643
  956SOL    HW2 3394   0.377   0.304   0.970 -1.5861  1.0000  0.3138
  957SOL     OW 3395   2.799   0.578   6.150  0.2067 -0.1159  0.3487
  957SOL    HW1 3396   2.870   0.515   6.135  0.9579  0.9090 -0.5786
  957SOL    HW2 3397   2.832   0.661   6.114 -0.8755  0.7462  1.2576
  958SOL     OW 3398   5.138   2.421   7.174 -0.2734  0.5830 -0.4680
  958SOL    HW1 3399   5.067   2.476   7.207 -1.6114 -0.7460 -1.0362
  958SOL    HW2 3400   5.131   2.429   7.078  1.0748  1.2980 -0.5411
  959SOL     OW 3401   7.107   4.342   4.171 -0.2327 -0.2704  0.2257
  959SOL    HW1 3402   7.169   4.342   4.099  0.6588  0.1376  0.9644
  959SOL    HW2 3403   7.161   4.328   4.249 -1.0609  0.1291  0.8920
  960SOL     OW 3404   0.851   0.460   1.749 -0.1554 -0.0492  0.4253
  960SOL    HW1 3405   0.834   0.463   1.655  0.0712 -2.2954  0.2537
  960SOL    HW2 3406   0.828   0.371   1.775  0.2691  0.3656  2.4096
  961SOL     OW 3407   5.730   5.195   1.634 -0.3074  0.1018 -0.1705
  961SOL    HW1 3408   5.796   5.260   1.610  0.8963 -0.9071  0.3012
  961SOL    HW2 3409   5.732   5.132   1.562  0.3611 -0.7431  0.5665
  962SOL     OW 3410   4.362   6.721   6.813 -0.0635  0.3080  0.0768
  962SOL    HW1 3411   4.285   6.691   6.766 -0.4344 -0.7686  1.3147
  962SOL    HW2 3412   4.420   6.645   6.816  0.2886  0.5893  0.6841
  963SOL     OW 3413   0.387   1.035   0.596 -0.1578  0.1526 -0.5670
  963SOL    HW1 3414   0.403   1.124   0.626  0.5326 -0.2090  0.1844
  963SOL    HW2 3415   0.412   1.036   0.503  0.2301  0.6430 -0.4635
  964SOL     OW 3416   5.897   6.754   1.603  0.4779  0.1394  0.2390
  964SOL    HW1 3417   5.807   6.747   1.574  0.0106  1.5419  1.2364
  964SOL    HW2 3418   5.933   6.666   1.593 -0.9960 -0.4337 -0.1604
  965SOL     OW 3419   2.257   3.949   6.043 -0.1306 -0.0907 -0.0330
  965SOL    HW1 3420   2.321   3.925   5.976 -1.0481 -1.2727 -0.5173
  965SOL    HW2 3421   2.245   4.044   6.032  1.2128  0.0859 -0.1894
  966SOL     OW 3422   5.744   2.890   7.208 -0.4231 -0.1912  0.5095
  966SOL    HW1 3423   5.728   2.893   7.114  1.9426 -0.2083  0.0483
  966SOL    HW2 3424   5.656   2.895   7.247 -1.4601 -0.0901 -1.6599
  967SOL     OW 3425   4.679   1.307   0.474 -0.0483 -0.8504 -0.3663
  967SOL    HW1 3426   4.657   1.397   0.451 -0.0235 -1.0409 -1.1568
  967SOL    HW2 3427   4.744   1.280   0.409 -0.8330 -1.7839 -0.7879
  968SOL     OW 3428   4.429   6.081   6.797  0.0478  0.0296 -0.0651
  968SOL    HW1 3429   4.482   6.072   6.876 -0.8181 -2.5245  0.3107
  968SOL    HW2 3430   4.342   6.104   6.828 -0.1181 -0.2253 -0.3343
  969SOL     OW 3431   0.985   1.663   6.462 -0.6188 -0.2345 -1.0791
  969SOL    HW1 3432   0.980   1.754   6.489  1.7886 -0.2140 -0.5412
  969SOL    HW2 3433   0.944   1.615   6.535  3.0943  0.0669  1.4795
  970SOL     OW 3434   1.817   3.435   1.880 -0.5443  0.2204 -0.2395
  970SOL    HW1 3435   1.881   3.487   1.929 -1.3563 -0.3628  1.5373
  970SOL    HW2 3436   1.788   3.493   1.810  0.3704  1.2675  0.2077
  971SOL     OW 3437   5.670   1.655   3.288  0.2203  0.4080 -0.0322
  971SOL    HW1 3438   5.673   1.724   3.354 -0.7256 -0.7412  1.2481
  971SOL    HW2 3439   5.581   1.658   3.254  0.2419 -0.0513 -0.1329
  972SOL     OW 3440   0.276   7.339   2.141 -0.3974  0.1363 -0.0313
  972SOL    HW1 3441   0.309   7.265   2.193  0.8249 -0.8132 -2.0473
  972SOL    HW2 3442   0.332   7.412   2.167  0.5042 -0.4367 -0.3085
  973SOL     OW 3443   3.798   6.153   6.385 -0.4381 -0.2280 -0.0859
  973SOL    HW1 3444   3.870   6.140   6.323 -0.6381 -0.0707 -0.3479
  973SOL    HW2 3445   3.819   6.236   6.428 -1.6028  0.9647 -1.7191
  974SOL     OW 3446   5.212   6.069   4.411 -0.1175  0.2846 -0.2790
  974SOL    HW1 3447   5.200   6.003   4.479 -2.2078  2.3755  1.5414
  974SOL    HW2 3448   5.302   6.101   4.424  0.1081 -0.5711  0.3266
  975SOL     OW 3449   2.901   3.295   4.124 -0.3483 -0.2188  0.6608
  975SOL    HW1 3450   2.880   3.388   4.123 -0.6466 -0.2492  2.0113
  975SOL    HW2 3451   2.818   3.251   4.141 -0.2044 -0.7379  0.0589
  976SOL     OW 3452   6.132   1.819   0.563  0.0900 -0.2994  0.3504
  976SOL    HW1 3453   6.212   1.856   0.600 -0.9928  0.9536  1.5570
  976SOL    HW2 3454   6.087   1.894   0.525  0.7959 -1.4097 -3.0010
  977SOL     OW 3455   5.117   5.129   2.650  0.1438 -0.2196  0.5124
  977SOL    HW1 3456   5.082   5.040   2.659 -1.0080  0.3082  1.4128
  977SOL    HW2 3457   5.146   5.152   2.739 -1.8216  1.1957  0.8437
  978SOL     OW 3458   6.282   4.403   0.451  0.2349 -0.4042  0.6200
  978SOL    HW1 3459   6.339   4.338   0.493  0.6246 -0.4603  0.0262
  978SOL    HW2 3460   6.198   4.393   0.495  0.4330 -0.9548  0.8908
  979SOL     OW 3461   5.387   2.518   7.131 -0.4604  0.8673  0.2401
  979SOL    HW1 3462   5.355   2.603   7.098 -1.8259 -0.6689 -2.7870
  979SOL    HW2 3463   5.309   2.475   7.166 -0.2047  0.0723 -0.1414
  980SOL     OW 3464   1.159   3.102   5.990 -0.0718 -0.1259 -0.1134
  980SOL    HW1 3465   1.119   3.015   6.000 -1.9722  0.8319  1.5098
  980SOL    HW2 3466   1.101   3.148   5.929  1.0523 -0.0345 -1.1415
  981SOL     OW 3467   3.746   4.404   3.021  0.1780 -0.1579  0.6686
  981SOL    HW1 3468   3.749   4.465   2.948 -0.4488 -0.0537  0.7262
  981SOL    HW2 3469   3.662   4.420   3.063  0.9301  0.4274  1.9862
  982SOL     OW 3470   1.552   7.230   5.964  0.0296 -0.1222  0.1968
  982SOL    HW1 3471   1.628   7.245   6.020 -0.4049  0.0515  0.7343
  982SOL    HW2 3472   1.566   7.288   5.889  1.1027 -1.0591 -0.3638
  983SOL     OW 3473   1.028   1.884   4.655  0.6331  0.1406  0.3524
  983SOL    HW1 3474   1.067   1.971   4.666  0.0537  0.2204  1.9628
  983SOL    HW2 3475   0.941   1.892   4.695  0.0515 -0.8199 -0.6708
  984SOL     OW 3476   6.127   1.133   3.646 -0.2042  0.1924  0.2528
  984SOL    HW1 3477   6.163   1.212   3.687 -0.4745  0.5896 -0.2545
  984SOL    HW2 3478   6.142   1.064   3.710 -0.2728  0.7196  0.8539
  985SOL     OW 3479   3.382   5.709   2.518  0.1332 -0.5046 -0.6935
  985SOL    HW1 3480   3.441   5.716   2.593 -0.7074 -1.2817  0.0703
  985SOL    HW2 3481   3.308   5.765   2.541 -0.3140 -1.0594 -0.7357
  986SOL     OW 3482   2.870   4.626   0.597 -0.1531  0.0426 -0.0629
  986SOL    HW1 3483   2.852   4.668   0.513  0.4829 -0.9723 -0.7212
  986SOL    HW2 3484   2.951   4.577   0.583  1.1591  1.5405  1.7454
  987SOL     OW 3485   0.291   6.521   4.690  0.0717  0.2744 -0.1177
  987SOL    HW1 3486   0.285   6.545   4.597 -0.6783  0.3050 -0.0691
  987SOL    HW2 3487   0.232   6.582   4.734  0.2167  0.0817  0.3499
  988SOL     OW 3488   7.419   6.229   4.245 -0.0050 -0.4276  0.0074
  988SOL    HW1 3489   7.458   6.173   4.312  1.1842  0.1786 -0.1520
  988SOL    HW2 3490   7.489   6.242   4.180 -0.9427 -0.5148 -1.0506
  989SOL     OW 3491   4.024   1.442   2.463 -0.1369 -0.0244 -0.4386
  989SOL    HW1 3492   4.073   1.454   2.545  0.5526  0.0150 -0.8523
  989SOL    HW2 3493   3.990   1.528   2.442 -0.6437 -0.1107  0.0090
  990SOL     OW 3494   4.328   7.151   1.033  0.2064 -0.0702 -0.1150
  990SOL    HW1 3495   4.292   7.066   1.058  0.2987  0.1185  0.6873
  990SOL    HW2 3496   4.401   7.165   1.093  0.4763  0.3776 -0.5365
  991SOL     OW 3497   1.639   2.776   6.573 -0.1312 -0.5669  0.3880
  991SOL    HW1 3498   1.593   2.826   6.641  0.5636 -1.6103  1.6857
  991SOL    HW2 3499   1.655   2.839   6.503 -1.1818  0.4624  1.0453
  992SOL     OW 3500   5.015   3.150   4.701 -0.0224  0.1401  0.1679
  992SOL    HW1 3501   5.033   3.160   4.608 -0.1476  0.7703  0.2099
  992SOL    HW2 3502   4.940   3.090   4.705 -0.3968  0.5783 -0.1640
  993SOL     OW 3503   2.891   1.158   1.454 -0.0372 -0.0788  0.7960
  993SOL    HW1 3504   2.865   1.072   1.421  1.1361  0.0305 -0.5074
  993SOL    HW2 3505   2.850   1.220   1.395  0.3037  0.2040  0.8534
  994SOL     OW 3506   7.503   6.118   2.403 -0.1843 -0.3259 -0.2180
  994SOL    HW1 3507   7.487   6.210   2.381 -0.9234 -0.3182  0.2795
  994SOL    HW2 3508   7.595   6.104   2.384  0.1563  0.7667  0.5233
  995SOL     OW 3509   5.539   4.213   5.003  0.0179  0.0751 -0.2768
  995SOL    HW1 3510   5.619   4.167   4.978  0.1546 -0.9021  1.7111
  995SOL    HW2 3511   5.516   4.266   4.927  2.2560 -0.0260 -1.0840
  996SOL     OW 3512   0.315   6.622   7.129  0.1160  0.3211 -0.4216
  996SOL    HW1 3513   0.321   6.651   7.039  2.4317 -1.4538 -0.9397
  996SOL    HW2 3514   0.341   6.698   7.181 -0.2188  1.0439 -1.2991
  997SOL     OW 3515   7.497   3.363   5.286  0.1040 -0.7173  0.4279
  997SOL    HW1 3516   7.581   3.337   5.325 -0.7029 -0.6370  2.3453
  997SOL    HW2 3517   7.450   3.405   5.358 -1.1300  0.3073 -0.9314
  998SOL     OW 3518   3.931   4.203   2.982  0.1732  0.4550 -0.1443
  998SOL    HW1 3519   3.972   4.230   2.900 -0.6130 -0.5157 -0.8897
  998SOL    HW2 3520   3.865   4.270   2.999  0.0908  0.4713 -0.5145
  999SOL     OW 3521   4.148   1.173   6.345 -0.0723 -0.3636 -0.3713
  999SOL    HW1 3522   4.156   1.229   6.267 -2.0014 -0.7468 -0.8942
  999SOL    HW2 3523   4.217   1.204   6.403  0.1631  1.2786 -1.4388
 1000SOL     OW 3524   0.196   0.291   4.934  0.3522 -0.3333 -0.0170
 1000SOL    HW1 3525   0.268   0.294   4.997  0.3762 -0.9272 -0.0094
 1000SOL    HW2 3526   0.220   0.355   4.868 -1.0388  2.4515  1.9814
 1001SOL     OW 3527   3.175   3.750   2.391 -0.0802  0.6577 -0.0616
 1001SOL    HW1 3528   3.265   3.729   2.365 -0.5285 -2.2879  0.3794
 1001SOL    HW2 3529   3.184   3.794   2.475  0.9468  0.8548 -0.2520
 1002SOL     OW 3530   2.855   0.508   3.399  0.4278 -0.0620  0.3212
 1002SOL    HW1 3531   2.884   0.426   3.438 -0.1128 -0.6329 -0.4299
 1002SOL    HW2 3532   2.935   0.550   3.368  0.7771  0.0365  1.3461
 1003SOL     OW 3533   4.022   0.294   0.168  0.2069  0.5723 -0.0340
 1003SOL    HW1 3534   4.047   0.203   0.178  0.9543  0.8343  0.5302
 1003SOL    HW2 3535   3.926   0.292   0.165  0.1913 -0.1577  0.6610
 1004SOL     OW 3536   2.503   2.709   4.824 -0.3384  0.2194  0.2224
 1004SOL    HW1 3537   2.533   2.781   4.769 -0.5269  0.5658  0.5638
 1004SOL    HW2 3538   2.560   2.635   4.802 -0.7476  0.2038 -0.8119
 1005SOL     OW 3539   2.340   1.038   6.049  0.3057  0.8342  0.3910
 1005SOL    HW1 3540   2.348   1.033   6.144  0.7454  0.3499  0.3330
 1005SOL    HW2 3541   2.246   1.038   6.033  0.2177 -0.2753  0.7750
 1006SOL     OW 3542   7.379   0.795   6.426  0.1270  0.3095 -0.6622
 1006SOL    HW1 3543   7.350   0.713   6.467  2.2484 -0.9145 -1.4611
 1006SOL    HW2 3544   7.472   0.802   6.449  0.4640  1.4924 -2.1910
 1007SOL     OW 3545   0.003   3.443   3.931  0.1530 -0.3032 -0.3679
 1007SOL    HW1 3546  -0.080   3.399   3.947 -0.9169  1.3182 -1.0946
 1007SOL    HW2 3547  -0.005   3.477   3.842  1.3738  0.3777 -0.2462
 1008SOL     OW 3548   6.106   4.756   7.461  0.4863  0.1531 -0.7316
 1008SOL    HW1 3549   6.166   4.741   7.388 -1.1310 -1.1882 -1.8757
 1008SOL    HW2 3550   6.080   4.668   7.489 -0.6082  0.6841 -0.0118
 1009SOL     OW 3551   0.650   1.271   3.544 -0.4793  0.2765 -0.1690
 1009SOL    HW1 3552   0.562   1.255   3.576 -1.6420  3.7228 -1.2184
 1009SOL    HW2 3553   0.702   1.290   3.623 -1.2335  0.3980  0.3048
 1010SOL     OW 3554   5.916   3.313   1.204 -0.5386  0.7068 -0.4100
 1010SOL    HW1 3555   5.916   3.408   1.195  0.9804  0.9175  1.2340
 1010SOL    HW2 3556   5.993   3.285   1.154 -0.4094  0.4565 -0.0754
 1011SOL     OW 3557   2.681   5.424   2.249  0.3468 -0.2479 -0.3916
 1011SOL    HW1 3558   2.619   5.378   2.306 -1.5780  0.5967 -1.7007
 1011SOL    HW2 3559   2.765   5.384   2.269 -0.8362 -2.6035  0.3116
 1012SOL     OW 3560   2.583   6.310   4.853 -0.0487  0.1163 -0.5911
 1012SOL    HW1 3561   2.630   6.371   4.796 -1.3878  2.1059  0.2896
 1012SOL    HW2 3562   2.599   6.343   4.942  0.1369 -1.5475  0.0293
 1013SOL     OW 3563   0.119   1.751   2.167  0.0427  0.3689  0.0323
 1013SOL    HW1 3564   0.163   1.735   2.251 -1.6380  2.1857  1.3492
 1013SOL    HW2 3565   0.039   1.699   2.171 -0.2346  0.7697 -0.2805
 1014SOL     OW 3566   6.102   2.613   6.531  0.5719 -0.8158  0.2194
 1014SOL    HW1 3567   6.097   2.559   6.452 -2.3408  1.2614 -1.2078
 1014SOL    HW2 3568   6.011   2.628   6.556  1.3733 -0.0683  3.0977
 1015SOL     OW 3569   2.700   3.796   1.884  0.1007 -0.0205 -0.0764
 1015SOL    HW1 3570   2.617   3.753   1.905 -0.0123 -0.1267 -0.7074
 1015SOL    HW2 3571   2.706   3.868   1.946 -0.1111 -0.4477  0.4509
 1016SOL     OW 3572   5.672   5.327   0.708 -0.1256 -0.5534  0.1410
 1016SOL    HW1 3573   5.688   5.250   0.654  0.5712  0.3928 -1.0594
 1016SOL    HW2 3574   5.720   5.397   0.664  0.9424  0.1532  2.3121
 1017SOL     OW 3575   7.404   2.781   3.742  0.1237 -0.3295 -0.5791
 1017SOL    HW1 3576   7.455   2.856   3.711 -1.6982  0.4845 -1.8444
 1017SOL    HW2 3577   7.385   2.730   3.664 -1.0932 -0.5105 -0.1989
 1018SOL     OW 3578   0.255   3.644   2.762 -0.2011  0.2036 -0.0915
 1018SOL    HW1 3579   0.315   3.573   2.786 -1.5001 -1.2848 -1.0128
 1018SOL    HW2 3580   0.169   3.613   2.792 -0.8968  1.0933 -1.1141
 1019SOL     OW 3581   3.966   2.815   5.048 -0.0449 -0.6263  0.0965
 1019SOL    HW1 3582   4.051   2.858   5.040 -0.0855 -0.7211 -1.0809
 1019SOL    HW2 3583   3.906   2.872   5.000 -0.8178 -0.1620  1.5490
 1020SOL     OW 3584   0.963   1.379   3.091 -0.3597 -0.3379  0.2099
 1020SOL    HW1 3585   0.901   1.308   3.108  0.3651 -1.0320  0.0312
 1020SOL    HW2 3586   1.045   1.334   3.066 -0.4178  0.5592 -1.8199
 1021SOL     OW 3587   1.770   3.733   5.002 -0.4098  0.1499 -0.2378
 1021SOL    HW1 3588   1.782   3.647   5.042 -0.7044  0.5858  0.8289
 1021SOL    HW2 3589   1.848   3.745   4.948 -0.4190 -0.8260 -0.4771
 1022SOL     OW 3590   2.763   3.853   6.099  0.1943  0.1137  0.6198
 1022SOL    HW1 3591   2.760   3.801   6.179 -0.8673 -1.1970 -0.2222
 1022SOL    HW2 3592   2.842   3.822   6.053  0.2854  0.1858  0.7288
 1023SOL     OW 3593   5.816   3.171   4.592  0.6424  0.4285  0.3080
 1023SOL    HW1 3594   5.848   3.094   4.639  1.3669 -0.6053 -1.7171
 1023SOL    HW2 3595   5.788   3.232   4.660  0.0305 -1.6206  1.9786
 1024SOL     OW 3596   4.735   5.434   1.277 -0.2938 -0.2922 -0.3003
 1024SOL    HW1 3597   4.822   5.418   1.241  0.3788  0.3805  0.9308
 1024SOL    HW2 3598   4.751   5.480   1.360 -1.8448  0.4766 -0.3757
 1025SOL     OW 3599   0.739   5.871   2.413  0.0411 -0.3174  0.1747
 1025SOL    HW1 3600   0.749   5.966   2.399  1.2423 -0.3262  0.8500
 1025SOL    HW2 3601   0.680   5.864   2.487  0.0279 -0.0868  0.1871
 1026SOL     OW 3602   1.465   6.693   1.823 -0.1643 -0.0440 -0.3451
 1026SOL    HW1 3603   1.494   6.629   1.758 -1.5714 -0.3132 -0.7454
 1026SOL    HW2 3604   1.373   6.671   1.839 -0.2216  0.8679  0.7354
 1027SOL     OW 3605   5.215   6.126   6.805 -0.4661 -0.4704 -0.2659
 1027SOL    HW1 3606   5.207   6.133   6.900 -1.1752  1.3965 -0.4274
 1027SOL    HW2 3607   5.299   6.165   6.784 -1.0986  0.8067 -0.5309
 1028SOL     OW 3608   4.357   6.944   3.082 -0.4098  0.2984 -0.8712
 1028SOL    HW1 3609   4.273   6.897   3.079 -0.5283  0.5410 -1.7362
 1028SOL    HW2 3610   4.333   7.035   3.064  0.0279  0.3796 -1.0518
 1029SOL     OW 3611   3.603   0.345   3.291 -0.2235  0.8828  0.0328
 1029SOL    HW1 3612   3.595   0.440   3.275 -1.1703  0.8092  0.0718
 1029SOL    HW2 3613   3.643   0.339   3.378  0.1484  1.2403 -0.1040
 1030SOL     OW 3614   6.159   0.869   1.548  0.3653 -0.4558  0.3815
 1030SOL    HW1 3615   6.106   0.796   1.515  0.7345 -0.6590  0.2316
 1030SOL    HW2 3616   6.109   0.903   1.622 -0.9677  0.6308 -0.9592
 1031SOL     OW 3617   5.139   4.975   4.571 -0.4478  1.3857  0.8339
 1031SOL    HW1 3618   5.182   4.973   4.656 -0.8572 -0.1034  1.0432
 1031SOL    HW2 3619   5.203   4.937   4.511 -0.7552  0.9159  0.7967
 1032SOL     OW 3620   5.960   5.395   4.027 -0.5770 -0.2075  0.3905
 1032SOL    HW1 3621   5.872   5.385   3.992  0.4115 -0.5806 -2.2273
 1032SOL    HW2 3622   5.992   5.306   4.040  0.8257 -0.2900 -2.7788
 1033SOL     OW 3623   2.208   0.432   6.126  0.0995 -0.2026 -0.2894
 1033SOL    HW1 3624   2.234   0.517   6.162  1.3579 -0.7302  0.0890
 1033SOL    HW2 3625   2.282   0.405   6.071 -1.2462 -0.0108 -2.2832
 1034SOL     OW 3626   6.589   3.565   7.448  0.2332  0.1576  0.2058
 1034SOL    HW1 3627   6.495   3.556   7.432  0.2360 -0.0727  0.3107
 1034SOL    HW2 3628   6.612   3.652   7.414 -0.6657  1.6361  3.0600
 1035SOL     OW 3629   5.162   6.942   2.324  0.3306 -0.2765  0.2225
 1035SOL    HW1 3630   5.069   6.927   2.343 -0.7834  1.2632 -3.1024
 1035SOL    HW2 3631   5.198   6.976   2.405 -1.7950 -1.6928  1.8624
 1036SOL     OW 3632   4.943   6.808   2.887 -0.1602 -0.1155  0.8819
 1036SOL    HW1 3633   5.022   6.830   2.937  0.8253  0.9406 -0.9984
 1036SOL    HW2 3634   4.927   6.716   2.906  1.4072 -0.3008  1.4821
 1037SOL     OW 3635   0.852   6.140   3.061 -0.2101 -0.2342  0.1356
 1037SOL    HW1 3636   0.914   6.168   3.128  0.6007 -1.5036 -0.0585
 1037SOL    HW2 3637   0.818   6.057   3.093 -0.0304 -0.7149 -0.8712
 1038SOL     OW 3638   2.077   4.972   6.329  0.0997 -0.2699 -0.1446
 1038SOL    HW1 3639   2.014   5.011   6.389  0.4170 -0.3556  0.2423
 1038SOL    HW2 3640   2.056   5.012   6.244 -0.3551 -0.1614  0.0159
 1039SOL     OW 3641   2.017   1.011   2.801  0.0081 -0.3087  0.3543
 1039SOL    HW1 3642   1.958   1.015   2.726  1.2335 -0.2195 -0.6284
 1039SOL    HW2 3643   2.084   0.948   2.776 -0.0038 -0.8854  1.7086
 1040SOL     OW 3644   6.621   4.026   0.660  0.3309 -0.0952 -0.2081
 1040SOL    HW1 3645   6.643   3.949   0.607 -0.3231 -0.2036 -0.3301
 1040SOL    HW2 3646   6.704   4.073   0.670  0.6478 -0.5835 -0.5063
 1041SOL     OW 3647   4.935   3.953   0.620  0.0301 -0.1457 -0.3538
 1041SOL    HW1 3648   4.912   4.038   0.656  0.3622 -0.3035  0.2383
 1041SOL    HW2 3649   4.882   3.890   0.671 -1.2539 -0.2089 -1.6902
 1042SOL     OW 3650   4.429   6.784   4.403 -0.0594  0.1475  0.3521
 1042SOL    HW1 3651   4.431   6.730   4.482  2.6696 -0.7549 -0.2200
 1042SOL    HW2 3652   4.398   6.724   4.335  1.1211 -0.1822  0.0833
 1043SOL     OW 3653   1.049   5.599   3.382 -0.6196 -0.3544  0.4663
 1043SOL    HW1 3654   1.057   5.554   3.467  0.7233 -1.8650 -0.3789
 1043SOL    HW2 3655   1.084   5.686   3.398 -0.1811 -0.6866  1.4332
 1044SOL     OW 3656   7.464   0.644   5.320  0.6217  0.6341 -0.0432
 1044SOL    HW1 3657   7.475   0.652   5.225  0.8169 -1.0497 -0.1818
 1044SOL    HW2 3658   7.370   0.657   5.334  0.1538 -1.5898 -0.7849
 1045SOL     OW 3659   4.915   4.672   6.576 -0.2389 -0.1594 -0.2255
 1045SOL    HW1 3660   4.916   4.619   6.497 -0.6934  0.8281 -0.9154
 1045SOL    HW2 3661   4.824   4.703   6.583 -0.2521 -0.3809  0.7884
 1046SOL     OW 3662   2.178   7.109   1.262 -0.1746  0.3738 -0.4418
 1046SOL    HW1 3663   2.158   7.181   1.202 -0.8237  0.8041  0.2812
 1046SOL    HW2 3664   2.272   7.094   1.251 -0.0471  1.2724 -0.6520
 1047SOL     OW 3665   5.529   4.978   1.984  0.2841  0.2477  0.2583
 1047SOL    HW1 3666   5.483   5.044   2.035 -0.2600  0.5109 -0.5571
 1047SOL    HW2 3667   5.516   4.897   2.033  0.6233  0.6568  1.0570
 1048SOL     OW 3668   5.573   5.060   1.348 -0.5311  0.2736  0.2727
 1048SOL    HW1 3669   5.534   5.057   1.261  0.0151  1.9872 -0.0731
 1048SOL    HW2 3670   5.504   5.029   1.407 -0.5924 -1.8541 -0.8122
 1049SOL     OW 3671   3.397   7.137   1.618 -0.1949 -0.4430  0.2993
 1049SOL    HW1 3672   3.436   7.097   1.541 -0.0110 -0.4727  0.4051
 1049SOL    HW2 3673   3.356   7.217   1.586 -0.4911 -0.6755  0.1014
 1050SOL     OW 3674   2.458   0.455   0.194 -0.5025  0.2758 -0.0732
 1050SOL    HW1 3675   2.463   0.448   0.098  1.3865 -0.4633  0.0471
 1050SOL    HW2 3676   2.381   0.403   0.217 -0.6379 -0.0316 -1.1490
 1051SOL     OW 3677   0.633   1.962   3.938  0.8858  0.3467  0.3792
 1051SOL    HW1 3678   0.643   1.885   3.995  3.0631  0.8595  0.7870
 1051SOL    HW2 3679   0.647   2.036   3.997  0.4311  1.0097 -0.3363
 1052SOL     OW 3680   4.556   0.193   6.562  0.3573 -0.3632 -0.3872
 1052SOL    HW1 3681   4.465   0.179   6.538 -0.1824  0.6633  0.9531
 1052SOL    HW2 3682   4.553   0.233   6.649  2.1047 -0.7574 -0.0996
 1053SOL     OW 3683   3.005   3.914   2.266 -0.0017 -0.1104  0.0014
 1053SOL    HW1 3684   3.063   3.869   2.328  0.2469  0.5650  0.2632
 1053SOL    HW2 3685   3.056   3.919   2.185  0.2089  0.2661  0.1591
 1054SOL     OW 3686   6.688   1.510   5.680 -0.1631  0.3929  0.1460
 1054SOL    HW1 3687   6.749   1.583   5.687 -0.1110  0.4447 -0.7455
 1054SOL    HW2 3688   6.609   1.549   5.643  0.0253 -0.0813 -0.7839
 1055SOL     OW 3689   0.233   3.818   5.003 -0.2896  0.3059  0.1266
 1055SOL    HW1 3690   0.256   3.884   4.937  1.6801  0.7833  1.2145
 1055SOL    HW2 3691   0.269   3.737   4.967  0.4704  0.4994  0.4457
 1056SOL     OW 3692   0.688   6.599   2.549 -0.9704  0.2367 -0.6979
 1056SOL    HW1 3693   0.672   6.584   2.455 -1.8201 -2.5364 -0.2026
 1056SOL    HW2 3694   0.601   6.615   2.586 -0.7410  0.4996 -0.2664
 1057SOL     OW 3695   1.006   6.519   2.913  0.2410 -0.4717 -0.3481
 1057SOL    HW1 3696   0.969   6.491   2.829 -0.3385 -2.0203  0.3831
 1057SOL    HW2 3697   0.952   6.475   2.979 -0.3943  2.0396  0.9165
 1058SOL     OW 3698   1.222   0.114   5.376 -0.1262 -0.4452 -0.0578
 1058SOL    HW1 3699   1.284   0.162   5.432  0.3698 -0.4353 -0.6073
 1058SOL    HW2 3700   1.240   0.022   5.395 -0.8384 -0.4338  0.7367
 1059SOL     OW 3701   1.271   2.230   1.755 -0.2842 -0.2770  0.3824
 1059SOL    HW1 3702   1.219   2.235   1.835 -1.9291 -0.7031 -0.6172
 1059SOL    HW2 3703   1.266   2.138   1.729 -1.1535  0.1536 -1.0729
 1060SOL     OW 3704   7.505   1.884   4.651 -0.1327 -0.0439 -0.3212
 1060SOL    HW1 3705   7.485   1.968   4.612 -1.3862  0.5012  1.3832
 1060SOL    HW2 3706   7.498   1.899   4.745  1.9111 -1.4915  0.1298
 1061SOL     OW 3707   0.028   7.230   5.022 -0.0553 -0.1591  0.1155
 1061SOL    HW1 3708   0.041   7.242   4.928  1.5037  1.3398  0.4817
 1061SOL    HW2 3709  -0.021   7.307   5.050 -0.4311 -0.5517  0.5796
 1062SOL     OW 3710   2.940   0.029   5.346  0.0171  0.0189 -0.3263
 1062SOL    HW1 3711   2.956   0.120   5.373  1.6994 -0.1647 -0.6447
 1062SOL    HW2 3712   2.973  -0.024   5.418 -0.6094 -0.3608 -0.3108
 1063SOL     OW 3713   2.781   1.097   7.069  0.3440 -0.2574 -0.2672
 1063SOL    HW1 3714   2.831   1.178   7.084 -1.1693  0.7330 -0.3443
 1063SOL    HW2 3715   2.726   1.116   6.993 -1.6843 -0.5202  1.0605
 1064SOL     OW 3716   3.885   0.748   1.586 -0.2344 -0.2511 -0.1413
 1064SOL    HW1 3717   3.959   0.706   1.630 -0.3784  0.8139  1.2078
 1064SOL    HW2 3718   3.896   0.841   1.606 -2.0209 -0.0890  0.2432
 1065SOL     OW 3719   0.205   1.062   1.374 -0.1959  0.0603 -0.0647
 1065SOL    HW1 3720   0.199   1.097   1.463 -1.2323 -0.7991  0.2251
 1065SOL    HW2 3721   0.153   1.122   1.321 -1.0938 -0.4367  0.2409
 1066SOL     OW 3722   5.553   5.030   5.054  0.1769  0.3144 -0.2676
 1066SOL    HW1 3723   5.643   5.011   5.028  0.0270  1.2036 -1.5324
 1066SOL    HW2 3724   5.520   5.089   4.986 -2.2595 -2.1497 -1.3932
 1067SOL     OW 3725   5.152   5.551   2.783  0.1407 -0.4975  0.7672
 1067SOL    HW1 3726   5.088   5.561   2.712 -0.0235 -0.9001  0.8589
 1067SOL    HW2 3727   5.237   5.547   2.738  0.2962  1.7761  0.7265
 1068SOL     OW 3728   0.963   3.803   3.203 -0.3910 -0.1343  0.6227
 1068SOL    HW1 3729   0.881   3.831   3.162  0.5072 -0.8285 -1.7997
 1068SOL    HW2 3730   1.031   3.824   3.139  1.3522  0.3639  2.5370
 1069SOL     OW 3731   0.147   7.185   6.549  0.6030  0.0244 -0.2283
 1069SOL    HW1 3732   0.185   7.210   6.465 -0.4131 -1.2720 -1.1033
 1069SOL    HW2 3733   0.221   7.189   6.610  1.3932  0.8049 -1.2008
 1070SOL     OW 3734   0.627   5.613   0.861 -0.2164 -0.0144  0.5751
 1070SOL    HW1 3735   0.615   5.550   0.789 -2.3735  0.1578  0.7157
 1070SOL    HW2 3736   0.634   5.558   0.939 -0.4083 -0.1363  0.5086
 1071SOL     OW 3737   6.987   4.699   1.994  0.3160 -0.4821 -0.0505
 1071SOL    HW1 3738   6.961   4.610   1.970 -0.5956 -0.2618  0.0645
 1071SOL    HW2 3739   6.943   4.754   1.929 -1.7426  0.0897  1.6977
 1072SOL     OW 3740   2.437   2.627   6.184  0.2834  0.0375  0.1847
 1072SOL    HW1 3741   2.482   2.557   6.230 -1.1816 -0.1226  1.4811
 1072SOL    HW2 3742   2.493   2.704   6.197  0.8417 -0.4298  0.6049
 1073SOL     OW 3743   1.046   5.561   1.939 -0.3947 -0.6886  0.7262
 1073SOL    HW1 3744   0.976   5.504   1.973  0.1517 -1.4696  0.5683
 1073SOL    HW2 3745   1.120   5.544   1.997 -0.6465  0.9976  1.6072
 1074SOL     OW 3746   1.033   1.593   2.796 -0.1367  0.0079 -0.4694
 1074SOL    HW1 3747   1.127   1.605   2.813 -0.3862  1.5906 -0.0598
 1074SOL    HW2 3748   1.011   1.662   2.733 -1.4994  1.2729  1.2954
 1075SOL     OW 3749   6.387   7.491   7.000 -0.4391  0.0768  0.4447
 1075SOL    HW1 3750   6.388   7.580   6.966 -3.7102  0.1095  0.1841
 1075SOL    HW2 3751   6.437   7.440   6.936  0.5474  1.4870  0.0461
 1076SOL     OW 3752   6.654   5.102   5.348 -0.0626  0.4537 -0.1495
 1076SOL    HW1 3753   6.628   5.058   5.267  1.3218  1.4120 -1.1701
 1076SOL    HW2 3754   6.640   5.195   5.330  1.6210  0.7959  0.1438
 1077SOL     OW 3755   5.252   1.423   2.030 -0.6699 -0.1044 -0.3939
 1077SOL    HW1 3756   5.278   1.508   2.066  0.2885 -0.1445 -0.9457
 1077SOL    HW2 3757   5.259   1.362   2.103 -0.7955  0.1875 -0.1369
 1078SOL     OW 3758   1.257   1.621   2.408 -0.6138 -0.5902 -0.7050
 1078SOL    HW1 3759   1.244   1.701   2.458 -0.8950 -1.9265  1.4980
 1078SOL    HW2 3760   1.174   1.608   2.361 -0.8661 -0.0585 -0.4115
 1079SOL     OW 3761   7.367   6.764   7.281 -0.1899  0.0035 -0.3551
 1079SOL    HW1 3762   7.313   6.838   7.254 -0.6243 -1.2916 -3.5088
 1079SOL    HW2 3763   7.454   6.802   7.296 -0.7576  1.3707 -0.3750
 1080SOL     OW 3764   1.363   2.941   2.544  0.4052 -0.2599  0.3953
 1080SOL    HW1 3765   1.386   2.989   2.464 -0.4331 -0.1525  0.2178
 1080SOL    HW2 3766   1.444   2.893   2.566  0.8452  0.2091 -0.1501
 1081SOL     OW 3767   7.157   2.645   3.620 -0.8584  0.2022 -0.0013
 1081SOL    HW1 3768   7.162   2.642   3.715  1.1825 -0.2710 -0.0747
 1081SOL    HW2 3769   7.105   2.568   3.596 -0.0475 -0.5793  0.6828
 1082SOL     OW 3770   4.146   5.329   5.037 -0.1276  0.1281  0.2577
 1082SOL    HW1 3771   4.116   5.314   4.948 -1.3342 -0.3873  0.7337
 1082SOL    HW2 3772   4.067   5.324   5.090  0.9251 -2.8088  1.7697
 1083SOL     OW 3773   1.769   3.677   1.554  0.1505 -0.4317 -0.3165
 1083SOL    HW1 3774   1.753   3.742   1.486  1.5596  2.1159  1.6186
 1083SOL    HW2 3775   1.836   3.620   1.518 -0.5329 -0.3485 -1.7679
 1084SOL     OW 3776   6.778   5.830   7.415 -0.3947  0.1872  0.6002
 1084SOL    HW1 3777   6.696   5.786   7.392 -0.5298  0.9142 -0.3908
 1084SOL    HW2 3778   6.752   5.900   7.475 -0.3364 -0.3335  1.2360
 1085SOL     OW 3779   4.515   4.767   4.909 -0.0574  0.4767  0.9090
 1085SOL    HW1 3780   4.575   4.801   4.842 -0.2806 -0.2053  0.3450
 1085SOL    HW2 3781   4.491   4.843   4.961 -0.1465  1.0967 -0.0090
 1086SOL     OW 3782   3.055   1.038   4.559  0.0321 -0.5723  0.3920
 1086SOL    HW1 3783   3.073   1.114   4.504 -2.4845  0.2383  0.5997
 1086SOL    HW2 3784   3.015   0.974   4.499 -2.3302  0.1548  1.0917
 1087SOL     OW 3785   1.404   2.378   2.161 -0.0316  0.1925  0.0728
 1087SOL    HW1 3786   1.450   2.363   2.243 -0.0002 -0.7730 -0.1083
 1087SOL    HW2 3787   1.312   2.387   2.187 -0.2901 -1.9974  0.0678
 1088SOL     OW 3788   4.822   0.485   0.818 -0.0410  0.2477 -0.2654
 1088SOL    HW1 3789   4.792   0.518   0.733 -1.2564  2.3704  0.9024
 1088SOL    HW2 3790   4.881   0.553   0.850  1.1498 -0.9804  0.2172
 1089SOL     OW 3791   3.131   4.055   7.160  0.6538  0.0961 -0.1678
 1089SOL    HW1 3792   3.150   3.974   7.208  0.4243  0.3534  0.3578
 1089SOL    HW2 3793   3.216   4.084   7.129  0.7047 -0.5000 -0.6077
 1090SOL     OW 3794   5.200   2.583   2.437  0.2313  0.3739 -0.2181
 1090SOL    HW1 3795   5.268   2.570   2.502  0.8993  0.9338 -0.7912
 1090SOL    HW2 3796   5.215   2.515   2.372 -0.4124 -0.1622  0.1866
 1091SOL     OW 3797   2.331   4.922   2.790 -0.3283  0.4310 -0.0283
 1091SOL    HW1 3798   2.263   4.977   2.829 -0.6620 -0.7545  1.1069
 1091SOL    HW2 3799   2.413   4.958   2.823 -0.5297  0.3725  0.5437
 1092SOL     OW 3800   2.110   3.592   6.227  0.3173  0.0185 -0.3910
 1092SOL    HW1 3801   2.034   3.551   6.268  0.4606 -0.2174 -0.3615
 1092SOL    HW2 3802   2.182   3.530   6.241  0.1380 -0.5979 -1.9447
 1093SOL     OW 3803   7.034   0.408   7.426  0.5554  0.2795  0.8304
 1093SOL    HW1 3804   7.032   0.431   7.333 -0.7006  0.9064  1.0022
 1093SOL    HW2 3805   6.955   0.356   7.440  0.8938 -0.0709  1.4858
 1094SOL     OW 3806   4.548   3.602   3.709 -0.0838 -0.5431 -0.6364
 1094SOL    HW1 3807   4.488   3.557   3.769 -0.9350  1.3771  0.0349
 1094SOL    HW2 3808   4.586   3.532   3.657 -0.3288 -2.1690  1.2404
 1095SOL     OW 3809   0.382   6.624   0.403  0.2114  0.0530 -0.1222
 1095SOL    HW1 3810   0.446   6.692   0.422  0.1836 -0.0291  0.2725
 1095SOL    HW2 3811   0.431   6.542   0.407  0.3059  0.0665 -0.8807
 1096SOL     OW 3812   6.353   6.704   0.906  0.0538 -0.2713 -0.4841
 1096SOL    HW1 3813   6.322   6.791   0.930 -0.4466 -0.2547 -1.1488
 1096SOL    HW2 3814   6.406   6.675   0.980 -1.0410 -0.0292  0.4157
 1097SOL     OW 3815   6.785   3.115   1.566  0.3663  0.5076 -0.5865
 1097SOL    HW1 3816   6.714   3.115   1.630  0.4966 -0.1423 -0.4378
 1097SOL    HW2 3817   6.842   3.187   1.592  0.3127  0.3708 -0.0925
 1098SOL     OW 3818   5.353   6.064   5.777 -0.7667 -0.2237  0.3180
 1098SOL    HW1 3819   5.336   6.069   5.683 -0.1035  0.8280  0.2340
 1098SOL    HW2 3820   5.279   6.109   5.817  0.2613  1.7981  0.1102
 1099SOL     OW 3821   2.325   6.353   2.922  0.1499  0.1581 -0.3003
 1099SOL    HW1 3822   2.294   6.374   2.834 -2.3056  0.4817  0.5644
 1099SOL    HW2 3823   2.324   6.436   2.968 -1.5837 -0.4444  0.8430
 1100SOL     OW 3824   0.389   7.042   0.425  0.2866 -0.0188 -0.5223
 1100SOL    HW1 3825   0.318   7.104   0.408 -1.3646 -2.0705 -1.7068
 1100SOL    HW2 3826   0.360   6.993   0.501  0.4886 -0.7987 -0.9379
 1101SOL     OW 3827   3.747   1.397   7.480 -0.3053 -0.2368  0.3080
 1101SOL    HW1 3828   3.729   1.400   7.386  0.1914  0.5181  0.2239
 1101SOL    HW2 3829   3.835   1.359   7.486 -0.0507  0.3575  0.4164
 1102SOL     OW 3830   7.502   4.061   4.055  0.6211 -0.5083  0.0774
 1102SOL    HW1 3831   7.471   4.105   3.976 -0.0389 -0.6968  0.2246
 1102SOL    HW2 3832   7.517   4.131   4.118  0.0467 -0.4474  0.1514
 1103SOL     OW 3833   6.731   3.716   6.872 -0.6843  0.5959 -0.1827
 1103SOL    HW1 3834   6.674   3.708   6.795 -0.3217  2.3961 -0.6775
 1103SOL    HW2 3835   6.744   3.626   6.900 -3.0208  0.0405 -0.5987
 1104SOL     OW 3836   4.106   5.328   1.884  0.4337 -0.0185 -0.0469
 1104SOL    HW1 3837   4.111   5.388   1.809 -1.2753  0.8144  0.4483
 1104SOL    HW2 3838   4.151   5.249   1.854  1.8707  1.1331 -1.0802
 1105SOL     OW 3839   3.746   0.722   0.353 -0.3776 -0.1282  0.0367
 1105SOL    HW1 3840   3.677   0.725   0.419 -2.4175  0.4769 -2.0038
 1105SOL    HW2 3841   3.711   0.771   0.279  2.9508  1.6665 -0.5362
 1106SOL     OW 3842   5.976   3.529   1.964 -0.1001  0.0356 -0.2790
 1106SOL    HW1 3843   5.938   3.583   2.033 -1.7306 -2.1582  0.6938
 1106SOL    HW2 3844   6.067   3.515   1.991 -0.2985  0.4471  0.6342
 1107SOL     OW 3845   6.654   7.500   4.973  0.3254  0.2815  1.0263
 1107SOL    HW1 3846   6.737   7.510   4.925 -1.1292  0.8438 -1.5166
 1107SOL    HW2 3847   6.650   7.576   5.031  2.2114 -0.4954  2.2738
 1108SOL     OW 3848   4.027   7.146   0.609 -0.0729 -0.1486  0.4498
 1108SOL    HW1 3849   3.960   7.078   0.610 -0.3793 -0.0039  4.1140
 1108SOL    HW2 3850   4.102   7.106   0.654  0.9663  0.8922 -0.3039
 1109SOL     OW 3851   6.323   1.560   3.406  0.0726  0.5158  0.2256
 1109SOL    HW1 3852   6.301   1.468   3.421  1.0669  0.0708 -0.8948
 1109SOL    HW2 3853   6.366   1.588   3.486 -0.3873  0.0658  0.6380
 1110SOL     OW 3854   0.084   6.581   2.919  0.2163 -0.8131 -0.1692
 1110SOL    HW1 3855   0.117   6.505   2.871 -1.9056 -0.0912 -2.9787
 1110SOL    HW2 3856   0.009   6.548   2.968 -1.4168 -0.4021 -2.2891
 1111SOL     OW 3857   6.310   0.680   0.050  0.1882 -0.3268 -0.5240
 1111SOL    HW1 3858   6.248   0.717   0.113 -0.5831  0.5183 -1.7459
 1111SOL    HW2 3859   6.352   0.608   0.098 -0.8331 -0.1228  0.7385
 1112SOL     OW 3860   2.668   2.259   6.638 -0.4962  0.1583 -0.4059
 1112SOL    HW1 3861   2.626   2.306   6.566 -0.3609  1.7720  0.5214
 1112SOL    HW2 3862   2.758   2.290   6.637 -0.0640 -1.0632 -0.5469
 1113SOL     OW 3863   4.027   2.364   2.418 -0.3335  0.7525  0.1203
 1113SOL    HW1 3864   4.012   2.396   2.329 -0.8239  0.4041  0.0696
 1113SOL    HW2 3865   4.026   2.442   2.472 -1.1865  0.8721 -0.0417
 1114SOL     OW 3866   5.578   2.997   4.866 -0.1811  0.2685  0.3122
 1114SOL    HW1 3867   5.529   2.990   4.948 -0.1368  3.2539  0.6901
 1114SOL    HW2 3868   5.522   3.046   4.807  1.1697  1.2685 -0.2096
 1115SOL     OW 3869   6.846   2.459   6.054 -0.1527  0.1147 -0.2756
 1115SOL    HW1 3870   6.851   2.515   5.976 -0.4853  0.2250 -0.2193
 1115SOL    HW2 3871   6.931   2.416   6.058  0.6459  1.6876  0.4977
 1116SOL     OW 3872   2.490   6.450   0.948 -0.2603  0.0014  1.1284
 1116SOL    HW1 3873   2.403   6.453   0.987 -0.3009 -0.9681  1.1437
 1116SOL    HW2 3874   2.549   6.438   1.023 -0.2407 -0.7525  0.9933
 1117SOL     OW 3875   0.259   5.821   1.455  0.1729  0.0148 -0.1748
 1117SOL    HW1 3876   0.348   5.836   1.421 -1.0610  1.5135 -3.1427
 1117SOL    HW2 3877   0.229   5.742   1.410  0.0332 -0.5640  0.9214
 1118SOL     OW 3878   4.538   3.473   6.628 -0.3807 -0.1709  0.0875
 1118SOL    HW1 3879   4.460   3.421   6.648 -1.1580  0.2674 -1.5815
 1118SOL    HW2 3880   4.546   3.534   6.701 -1.2800 -0.5893  0.5466
 1119SOL     OW 3881   3.045   0.337   3.874 -0.1020 -0.2255  0.2177
 1119SOL    HW1 3882   3.029   0.430   3.859 -0.1159 -0.4273 -1.1370
 1119SOL    HW2 3883   3.033   0.326   3.968 -0.0305  1.1507  0.4159
 1120SOL     OW 3884   7.391   3.640   4.394 -0.0366 -0.1335  0.7451
 1120SOL    HW1 3885   7.370   3.683   4.310  1.0808 -0.4275  0.2927
 1120SOL    HW2 3886   7.433   3.709   4.445 -0.4123 -0.0472  0.9410
 1121SOL     OW 3887   3.776   0.895   1.192 -0.0307  0.0947  0.3986
 1121SOL    HW1 3888   3.803   0.805   1.210 -0.5011 -0.5655 -1.8708
 1121SOL    HW2 3889   3.746   0.893   1.101 -0.9453  2.3539  0.5934
 1122SOL     OW 3890   4.128   6.811   3.097 -0.2233  0.0992 -0.3112
 1122SOL    HW1 3891   4.033   6.821   3.103 -0.1524  0.1760  1.0386
 1122SOL    HW2 3892   4.144   6.720   3.122  0.1285  0.3895  0.5592
 1123SOL     OW 3893   6.617   7.533   1.648  0.3953  0.4646 -0.0789
 1123SOL    HW1 3894   6.620   7.484   1.730  0.9632  1.5153  0.5471
 1123SOL    HW2 3895   6.648   7.621   1.671 -0.5031  1.1007 -1.1950
 1124SOL     OW 3896   0.591   0.593   3.327  0.2857  0.1350 -0.1584
 1124SOL    HW1 3897   0.630   0.583   3.414 -0.0540 -0.2073 -0.0454
 1124SOL    HW2 3898   0.544   0.676   3.332  0.9393  0.5266 -0.2779
 1125SOL     OW 3899   0.117   3.244   7.392 -0.0119  0.0658  0.5393
 1125SOL    HW1 3900   0.148   3.331   7.415 -1.2382  1.0205 -1.1793
 1125SOL    HW2 3901   0.024   3.256   7.373  0.2900 -1.0833 -2.1273
 1126SOL     OW 3902   1.219   1.208   4.466  0.4667 -0.4885 -0.2225
 1126SOL    HW1 3903   1.301   1.210   4.517  1.6867 -0.4619 -2.0869
 1126SOL    HW2 3904   1.213   1.296   4.428 -0.4349 -0.4970 -0.1062
 1127SOL     OW 3905   6.108   6.598   6.561  0.5149  0.6252  0.2001
 1127SOL    HW1 3906   6.037   6.622   6.503  1.0792  0.5213 -0.5436
 1127SOL    HW2 3907   6.104   6.662   6.632 -0.6658  0.2721  0.4651
 1128SOL     OW 3908   6.211   3.421   0.183  0.1088  0.9933 -0.2404
 1128SOL    HW1 3909   6.277   3.399   0.117 -0.0988 -0.6029  0.0374
 1128SOL    HW2 3910   6.244   3.382   0.264 -0.6840  1.0285  0.1143
 1129SOL     OW 3911   1.579   4.050   5.058 -0.5145 -0.1680 -0.0751
 1129SOL    HW1 3912   1.493   4.062   5.017 -0.7937 -0.9769  0.2317
 1129SOL    HW2 3913   1.635   4.018   4.987 -0.1311  1.4903 -0.5598
 1130SOL     OW 3914   2.239   6.558   7.024  0.7729  0.2847  0.4156
 1130SOL    HW1 3915   2.226   6.583   6.932  0.9732  0.7055  0.4948
 1130SOL    HW2 3916   2.168   6.497   7.042  1.4041 -0.7017 -0.3477
 1131SOL     OW 3917   7.510   7.039   1.507  0.5091 -0.1628 -0.6385
 1131SOL    HW1 3918   7.597   6.999   1.514  0.6081  0.2781  0.8253
 1131SOL    HW2 3919   7.452   6.966   1.484  0.6930 -1.2245  1.9301
 1132SOL     OW 3920   4.448   7.543   1.964  0.7378 -0.2138 -0.3370
 1132SOL    HW1 3921   4.484   7.458   1.989  1.8438  0.1058 -0.8147
 1132SOL    HW2 3922   4.421   7.583   2.047 -2.3438 -2.0903 -0.2578
 1133SOL     OW 3923   5.697   0.801   4.509  0.3133  0.1650  0.8169
 1133SOL    HW1 3924   5.690   0.706   4.499  0.4840  0.0142  1.9225
 1133SOL    HW2 3925   5.780   0.824   4.468  0.0236 -0.0853  0.0812
 1134SOL     OW 3926   3.053   7.283   3.901  0.4193  0.0851 -0.2443
 1134SOL    HW1 3927   3.095   7.230   3.970  2.2660  0.6974 -0.8368
 1134SOL    HW2 3928   3.006   7.351   3.948  0.1488 -0.5710  0.4557
 1135SOL     OW 3929   4.543   6.561   0.458 -0.0966 -0.0274 -0.2720
 1135SOL    HW1 3930   4.569   6.508   0.383  3.0154  1.1217 -0.1477
 1135SOL    HW2 3931   4.498   6.500   0.516  4.6393 -3.2286  0.6359
 1136SOL     OW 3932   5.852   1.878   2.308 -0.2503  0.2409 -0.4676
 1136SOL    HW1 3933   5.854   1.782   2.311 -0.2840  0.1295 -2.6786
 1136SOL    HW2 3934   5.944   1.903   2.295 -0.2955  0.5015 -0.2872
 1137SOL     OW 3935   1.383   1.153   1.375 -0.1472 -0.3994 -0.3096
 1137SOL    HW1 3936   1.415   1.086   1.436 -0.9906  0.6911  1.4375
 1137SOL    HW2 3937   1.458   1.212   1.363  0.1892 -0.9135 -0.7893
 1138SOL     OW 3938   2.215   2.413   1.864 -0.2322 -0.6352  0.4401
 1138SOL    HW1 3939   2.179   2.425   1.952 -4.5509 -1.1826 -1.0057
 1138SOL    HW2 3940   2.216   2.501   1.826  2.5782 -0.2390  1.1866
 1139SOL     OW 3941   2.285   4.577   5.654 -0.0682 -0.2537  0.0091
 1139SOL    HW1 3942   2.354   4.639   5.678 -1.6240  1.4562  0.3396
 1139SOL    HW2 3943   2.270   4.594   5.561 -3.0052  2.7184  0.8134
 1140SOL     OW 3944   5.897   5.680   0.333 -0.3307  0.2615  0.0019
 1140SOL    HW1 3945   5.975   5.707   0.382 -0.3734 -0.2062  0.3387
 1140SOL    HW2 3946   5.867   5.759   0.289  1.1847  0.1407 -1.3214
 1141SOL     OW 3947   2.961   0.740   5.899 -0.0533  0.5398 -0.0831
 1141SOL    HW1 3948   2.931   0.786   5.978  2.6885 -1.0728  2.1027
 1141SOL    HW2 3949   2.998   0.808   5.843 -1.5067  1.6494  0.2588
 1142SOL     OW 3950   3.837   0.687   3.572  0.1345  0.2095  0.1799
 1142SOL    HW1 3951   3.929   0.660   3.566  0.1032  0.2170 -0.4774
 1142SOL    HW2 3952   3.825   0.746   3.497 -0.1463  1.0039  0.8412
 1143SOL     OW 3953   6.422   5.349   4.098 -0.0041 -0.2523 -0.4435
 1143SOL    HW1 3954   6.349   5.409   4.113 -1.1182 -1.5876 -0.2559
 1143SOL    HW2 3955   6.388   5.264   4.127  1.8324 -0.8099  0.1679
 1144SOL     OW 3956   1.162   3.508   5.877  0.9593 -0.4223 -0.1750
 1144SOL    HW1 3957   1.245   3.504   5.829  0.3404 -0.0925 -1.3134
 1144SOL    HW2 3958   1.188   3.510   5.969  2.1698 -1.5843 -0.4496
 1145SOL     OW 3959   3.429   4.089   5.892 -0.2197  0.1354 -0.0005
 1145SOL    HW1 3960   3.371   4.066   5.820  1.8001 -1.6369 -1.1642
 1145SOL    HW2 3961   3.372   4.091   5.969 -1.7569 -2.0134 -0.9921
 1146SOL     OW 3962   4.430   4.991   0.314 -0.2634  0.1567 -0.4640
 1146SOL    HW1 3963   4.512   4.989   0.364 -0.0770  0.9319 -0.7267
 1146SOL    HW2 3964   4.369   4.941   0.368  0.6737 -1.4752 -0.8275
 1147SOL     OW 3965   2.297   6.939   3.550 -0.0959 -0.2920  0.2480
 1147SOL    HW1 3966   2.322   6.873   3.614 -1.3730 -0.0034  1.0814
 1147SOL    HW2 3967   2.344   6.914   3.470  2.4793  0.0414  1.5718
 1148SOL     OW 3968   5.532   6.844   2.669  0.2169  0.7103  0.2538
 1148SOL    HW1 3969   5.548   6.939   2.669  0.8220  0.6157  0.5966
 1148SOL    HW2 3970   5.506   6.825   2.759 -0.6011  0.6568  0.0117
 1149SOL     OW 3971   0.217   0.395   3.098  0.6248  0.3468  0.1165
 1149SOL    HW1 3972   0.181   0.440   3.022  0.2275  1.1940  0.7859
 1149SOL    HW2 3973   0.166   0.314   3.104  1.4113 -0.2756 -1.1544
 1150SOL     OW 3974   7.113   3.970   2.356  0.3137 -0.0145  0.3599
 1150SOL    HW1 3975   7.162   3.962   2.274  0.8357 -0.8284  0.7333
 1150SOL    HW2 3976   7.150   3.901   2.412 -0.3819  0.2045  1.0992
 1151SOL     OW 3977   4.969   5.726   6.964 -0.0048  0.1348 -0.4796
 1151SOL    HW1 3978   4.894   5.669   6.942  1.7994 -3.3322  1.4339
 1151SOL    HW2 3979   5.022   5.726   6.885 -0.1504 -0.7370 -0.5959
 1152SOL     OW 3980   4.495   2.617   5.354  0.7487 -0.3785 -0.4800
 1152SOL    HW1 3981   4.406   2.638   5.328  0.9180  0.1547 -0.6538
 1152SOL    HW2 3982   4.488   2.590   5.445  0.5338  0.6498 -0.1768
 1153SOL     OW 3983   4.755   3.001   6.675  0.6065  0.0402 -0.3697
 1153SOL    HW1 3984   4.706   3.050   6.741  1.4236 -0.0861  0.3535
 1153SOL    HW2 3985   4.800   2.932   6.725  0.7954 -0.3976 -1.1370
 1154SOL     OW 3986   6.238   3.807   0.820 -0.3064 -0.0067 -0.9110
 1154SOL    HW1 3987   6.266   3.756   0.744  0.6402 -1.0867  0.1084
 1154SOL    HW2 3988   6.227   3.741   0.889 -0.1279  1.0599  0.1610
 1155SOL     OW 3989   7.511   3.795   4.861 -0.3022  0.1832  0.3268
 1155SOL    HW1 3990   7.523   3.883   4.895 -0.7768  0.2378  0.3458
 1155SOL    HW2 3991   7.538   3.738   4.934 -0.5833  0.3060  0.5276
 1156SOL     OW 3992   4.760   6.821   6.262  0.0161  0.5495  0.0965
 1156SOL    HW1 3993   4.845   6.864   6.255  0.1934 -0.0234 -1.9978
 1156SOL    HW2 3994   4.703   6.885   6.305  0.9904  1.7271 -0.3303
 1157SOL     OW 3995   6.224   4.702   7.204 -0.0046 -0.1194 -0.2241
 1157SOL    HW1 3996   6.207   4.678   7.112  1.6929 -1.0020 -0.3506
 1157SOL    HW2 3997   6.268   4.786   7.199  0.3932 -0.3258 -0.2562
 1158SOL     OW 3998   0.562   1.422   6.902 -0.3621 -0.4316  0.3204
 1158SOL    HW1 3999   0.529   1.389   6.986  0.5942 -1.8107  0.1984
 1158SOL    HW2 4000   0.500   1.389   6.837 -0.3352 -0.5598  0.3591
 1159SOL     OW 4001   6.014   3.599   7.113  0.0657  0.3348 -0.2578
 1159SOL    HW1 4002   5.937   3.626   7.164 -0.9735  1.5792 -2.3328
 1159SOL    HW2 4003   6.056   3.533   7.167 -3.0538 -1.1925  0.5574
 1160SOL     OW 4004   7.488   6.918   7.545  0.4392  0.0658  0.1185
 1160SOL    HW1 4005   7.527   6.831   7.557  0.6401 -0.4947 -3.4375
 1160SOL    HW2 4006   7.544   6.960   7.479 -0.8232  2.1279  0.2738
 1161SOL     OW 4007   4.122   6.948   2.812  0.1681  0.2723 -0.2171
 1161SOL    HW1 4008   4.102   6.855   2.826  0.7054 -0.0253 -1.3218
 1161SOL    HW2 4009   4.087   6.992   2.889 -0.7719 -0.7575 -0.0312
 1162SOL     OW 4010   5.535   4.914   3.006 -0.0084  0.1742  0.3604
 1162SOL    HW1 4011   5.583   4.934   2.926 -0.8035  2.5066  0.3893
 1162SOL    HW2 4012   5.602   4.901   3.073  0.6635  2.0747  0.1212
 1163SOL     OW 4013   7.518   1.362   6.079  0.2657  0.2466  0.2387
 1163SOL    HW1 4014   7.465   1.396   6.151 -1.2078 -2.1068  0.3625
 1163SOL    HW2 4015   7.461   1.300   6.034  0.7491  2.3652 -3.7212
 1164SOL     OW 4016   7.114   2.913   5.846  0.9931 -0.5003  0.4211
 1164SOL    HW1 4017   7.157   2.846   5.794  1.4309  1.1440 -1.4499
 1164SOL    HW2 4018   7.032   2.931   5.800  0.0461 -0.9275  1.8639
 1165SOL     OW 4019   3.201   4.843   0.191 -0.4707  0.3060 -0.0183
 1165SOL    HW1 4020   3.177   4.931   0.163  2.7462  0.9277 -1.1681
 1165SOL    HW2 4021   3.294   4.848   0.210 -0.4458 -2.5809  1.1237
 1166SOL     OW 4022   0.260   4.588   1.787  0.3078  0.1139 -0.2096
 1166SOL    HW1 4023   0.330   4.560   1.847  1.9902  2.0279 -1.1341
 1166SOL    HW2 4024   0.181   4.546   1.821  1.5366 -0.4925  2.1384
 1167SOL     OW 4025   3.532   4.623   1.014  0.0262  0.0726  0.3054
 1167SOL    HW1 4026   3.564   4.533   1.009 -0.4521 -0.0364 -1.2986
 1167SOL    HW2 4027   3.610   4.677   1.003 -0.0554 -0.1872 -1.8832
 1168SOL     OW 4028   2.387   3.307   5.120 -0.8863 -0.0408  0.2897
 1168SOL    HW1 4029   2.373   3.349   5.205  3.4005  0.1889  1.1158
 1168SOL    HW2 4030   2.427   3.375   5.065  0.8271 -1.4225 -0.2635
 1169SOL     OW 4031   1.234   7.209   4.723 -0.1466 -0.3764 -0.3129
 1169SOL    HW1 4032   1.208   7.242   4.637  0.0813  0.9769  0.1115
 1169SOL    HW2 4033   1.153   7.211   4.774 -0.2291 -0.9303 -0.4246
 1170SOL     OW 4034   5.961   2.671   7.111 -0.2245 -0.5922  0.2875
 1170SOL    HW1 4035   5.887   2.649   7.167 -1.7948 -0.7569 -1.6954
 1170SOL    HW2 4036   6.001   2.748   7.152 -2.2252  0.2159  0.8569
 1171SOL     OW 4037   5.296   1.671   0.972 -0.0654 -0.2769 -0.3401
 1171SOL    HW1 4038   5.204   1.681   0.995 -0.7118 -3.3704 -1.1066
 1171SOL    HW2 4039   5.343   1.683   1.054 -1.3240 -0.5232  0.4480
 1172SOL     OW 4040   0.076   0.815   0.194  0.4206 -0.3075  0.9546
 1172SOL    HW1 4041   0.031   0.803   0.278 -1.0396 -0.0059  0.2620
 1172SOL    HW2 4042   0.009   0.794   0.129  1.2615  0.3025 -0.1388
 1173SOL     OW 4043   0.624   4.694   0.864 -0.4217  0.5513 -0.0629
 1173SOL    HW1 4044   0.608   4.728   0.952  1.4538  1.1492  0.0784
 1173SOL    HW2 4045   0.606   4.768   0.806 -3.4523 -0.3228 -0.4320
 1174SOL     OW 4046   3.847   3.500   1.361  0.0445 -0.1957 -0.6298
 1174SOL    HW1 4047   3.929   3.504   1.411 -0.6250  0.8545  0.4481
 1174SOL    HW2 4048   3.857   3.424   1.305  1.5926 -0.3328 -0.2230
 1175SOL     OW 4049   3.922   4.884   6.862  0.5166  0.1506 -0.5220
 1175SOL    HW1 4050   3.857   4.839   6.916  0.4635  0.9060  0.0423
 1175SOL    HW2 4051   3.931   4.971   6.900 -1.1077  1.5052 -2.9798
 1176SOL     OW 4052   0.469   1.547   5.571 -0.2912 -1.1427  0.0247
 1176SOL    HW1 4053   0.403   1.537   5.640  0.1709 -1.5744  0.4092
 1176SOL    HW2 4054   0.486   1.458   5.542  0.3959 -1.0648  0.1869
 1177SOL     OW 4055   4.565   5.110   4.051  0.1522  0.2182  0.0272
 1177SOL    HW1 4056   4.555   5.106   4.146  2.7408  1.1841  0.4352
 1177SOL    HW2 4057   4.489   5.160   4.021 -0.4097  0.4127  1.6749
 1178SOL     OW 4058   1.179   4.860   1.287  0.0714 -0.4208  0.4090
 1178SOL    HW1 4059   1.210   4.770   1.276  0.9457 -0.0216 -0.5143
 1178SOL    HW2 4060   1.256   4.915   1.271 -0.6327  0.5236  0.1493
 1179SOL     OW 4061   2.912   7.547   3.093  0.6244 -0.3592  0.3107
 1179SOL    HW1 4062   2.834   7.508   3.132 -0.7596  1.8725 -0.0209
 1179SOL    HW2 4063   2.933   7.621   3.150  2.0027 -0.4015 -0.0994
 1180SOL     OW 4064   3.265   6.578   5.712 -0.4854  0.2232 -0.1671
 1180SOL    HW1 4065   3.265   6.550   5.620 -2.8252  0.3858 -0.2601
 1180SOL    HW2 4066   3.182   6.623   5.724  0.8599  2.4987  1.4077
 1181SOL     OW 4067   1.050   5.305   3.265  0.1678 -0.4127 -0.3549
 1181SOL    HW1 4068   0.967   5.333   3.228  0.3000  0.2631 -0.1532
 1181SOL    HW2 4069   1.087   5.245   3.200  0.4838  0.8774 -1.4122
 1182SOL     OW 4070   6.224   0.591   5.651 -0.1302 -0.7445 -0.4602
 1182SOL    HW1 4071   6.257   0.557   5.567  0.2147  1.4044 -1.2750
 1182SOL    HW2 4072   6.302   0.625   5.695 -0.4901 -0.7232  0.1736
 1183SOL     OW 4073   6.435   0.702   7.159 -0.3879 -0.2938  0.0554
 1183SOL    HW1 4074   6.456   0.777   7.215  1.1322 -0.2016 -0.5954
 1183SOL    HW2 4075   6.339   0.699   7.159 -0.5659  2.4475 -0.9213
 1184SOL     OW 4076   0.015   6.407   5.745  0.4652 -0.3599 -0.3587
 1184SOL    HW1 4077  -0.023   6.322   5.766  0.3852 -0.1685  0.3180
 1184SOL    HW2 4078   0.110   6.391   5.739  0.6687 -0.2007  1.5597
 1185SOL     OW 4079   4.497   1.057   4.535  0.2019  0.1477  0.3080
 1185SOL    HW1 4080   4.570   1.085   4.478  0.4910 -0.8743  0.1584
 1185SOL    HW2 4081   4.455   1.139   4.561  0.9819  0.7208 -0.1690
 1186SOL     OW 4082   1.995   3.240   7.491  0.1201 -0.1257 -0.6504
 1186SOL    HW1 4083   1.946   3.294   7.429 -0.6829 -0.9708 -0.7675
 1186SOL    HW2 4084   2.061   3.196   7.438 -2.3050 -3.0225 -1.5278
 1187SOL     OW 4085   3.125   0.037   2.663 -0.0578 -0.3819 -0.0608
 1187SOL    HW1 4086   3.060  -0.026   2.631  0.8131 -0.6833 -1.3310
 1187SOL    HW2 4087   3.159  -0.002   2.743 -0.5207 -0.8392 -0.0802
 1188SOL     OW 4088   0.834   6.606   0.786  0.5692  0.1603 -0.1143
 1188SOL    HW1 4089   0.879   6.540   0.838 -0.0749  2.6134  3.9510
 1188SOL    HW2 4090   0.902   6.640   0.728  1.9796 -1.2200  0.6469
 1189SOL     OW 4091   1.954   4.787   4.435  0.0820 -0.0843  0.1771
 1189SOL    HW1 4092   2.036   4.742   4.457  0.9007  1.6398  0.8264
 1189SOL    HW2 4093   1.899   4.777   4.512  0.4848  0.4934  0.5468
 1190SOL     OW 4094   1.703   5.636   0.566  0.1256  0.5736 -0.4546
 1190SOL    HW1 4095   1.620   5.653   0.521 -0.0508  1.0040  0.0274
 1190SOL    HW2 4096   1.679   5.584   0.643  0.2656  0.9165 -0.1738
 1191SOL     OW 4097   3.390   2.732   6.534 -0.0611  0.1154 -0.3344
 1191SOL    HW1 4098   3.485   2.737   6.532 -0.0710  0.2582 -0.4808
 1191SOL    HW2 4099   3.361   2.823   6.535 -0.1721  0.0944  1.3562
 1192SOL     OW 4100   0.799   2.402   5.082  0.6825 -0.2436  0.0041
 1192SOL    HW1 4101   0.850   2.461   5.138  0.5038 -0.0337 -0.0524
 1192SOL    HW2 4102   0.839   2.316   5.095  0.5147 -0.2332  0.6086
 1193SOL     OW 4103   7.139   1.542   2.223 -0.0380  0.0460  0.0330
 1193SOL    HW1 4104   7.155   1.600   2.149  0.1190 -2.1674 -1.7492
 1193SOL    HW2 4105   7.047   1.559   2.247  0.5721  2.4878  0.9883
 1194SOL     OW 4106   0.622   4.013   1.442 -0.2408  0.6232  0.6180
 1194SOL    HW1 4107   0.551   4.012   1.377  0.5020  0.8857 -0.2143
 1194SOL    HW2 4108   0.668   3.931   1.429 -0.1560  0.6260  0.8988
 1195SOL     OW 4109   4.904   3.222   6.206 -0.0255  0.0506  0.9058
 1195SOL    HW1 4110   4.937   3.146   6.255  0.9351 -0.0066  0.2042
 1195SOL    HW2 4111   4.983   3.269   6.180 -0.5286  0.1911 -0.4107
 1196SOL     OW 4112   6.759   1.245   5.571  0.1688 -0.1885 -0.0733
 1196SOL    HW1 4113   6.746   1.165   5.623  0.5756  0.5093  1.1507
 1196SOL    HW2 4114   6.704   1.311   5.614  0.3527  0.3560 -0.6617
 1197SOL     OW 4115   6.987   3.623   0.820  0.0632 -0.0709 -0.5486
 1197SOL    HW1 4116   6.915   3.599   0.762  0.3504  0.5468 -1.1798
 1197SOL    HW2 4117   7.004   3.544   0.872 -1.5356  0.0074  0.1253
 1198SOL     OW 4118   3.576   2.943   6.053  0.5813 -0.1045  0.4120
 1198SOL    HW1 4119   3.530   2.950   5.969  2.5806 -0.2622 -0.7578
 1198SOL    HW2 4120   3.515   2.897   6.110 -1.0330  0.4452 -0.7835
 1199SOL     OW 4121   3.961   4.160   7.460  0.1217  0.2175  0.5951
 1199SOL    HW1 4122   3.982   4.132   7.549  2.6106 -0.7674 -0.2357
 1199SOL    HW2 4123   3.976   4.083   7.406  1.2058  1.4754 -0.9921
 1200SOL     OW 4124   7.156   5.092   1.946  0.4773 -0.2870 -0.5218
 1200SOL    HW1 4125   7.166   5.008   1.902 -0.2185  0.5200 -2.3479
 1200SOL    HW2 4126   7.140   5.071   2.038 -0.3516 -2.1578 -1.0668
 1201SOL     OW 4127   0.337   3.679   7.197 -0.8269  0.1639  0.7351
 1201SOL    HW1 4128   0.391   3.728   7.135 -0.8170 -0.9726 -0.1876
 1201SOL    HW2 4129   0.309   3.744   7.261 -1.3729  1.5120 -0.8009
 1202SOL     OW 4130   6.143   7.025   3.384 -0.1936  0.0605 -0.1776
 1202SOL    HW1 4131   6.190   6.945   3.409 -0.2908  0.7586  2.5400
 1202SOL    HW2 4132   6.076   6.995   3.322  2.0115 -1.3612 -2.0295
 1203SOL     OW 4133   5.984   6.920   7.095  0.1423  0.2113 -0.6155
 1203SOL    HW1 4134   5.957   7.010   7.110  1.1580  0.1552  1.9311
 1203SOL    HW2 4135   5.937   6.869   7.161  2.7467 -0.4907  0.8231
 1204SOL     OW 4136   5.570   5.243   7.075  0.0926  0.1992 -0.0242
 1204SOL    HW1 4137   5.554   5.336   7.062  0.2958  0.1512 -0.6474
 1204SOL    HW2 4138   5.540   5.226   7.164 -1.3901  0.5340 -0.4257
 1205SOL     OW 4139   5.704   5.766   0.617 -0.8489 -0.0896  0.2982
 1205SOL    HW1 4140   5.778   5.822   0.641 -2.0423  1.9625 -0.5130
 1205SOL    HW2 4141   5.657   5.752   0.699  0.8151 -2.1363  0.9873
 1206SOL     OW 4142   6.702   4.147   6.706 -0.1682 -0.2051  0.0374
 1206SOL    HW1 4143   6.777   4.116   6.758  1.3568  1.3000 -1.1556
 1206SOL    HW2 4144   6.679   4.072   6.651 -0.3092 -1.0512  1.1979
 1207SOL     OW 4145   3.672   5.677   5.905  0.0112  0.1889  0.6358
 1207SOL    HW1 4146   3.718   5.599   5.935 -0.0247 -0.0955 -0.0392
 1207SOL    HW2 4147   3.716   5.749   5.950  0.3619 -0.1750  0.8856
 1208SOL     OW 4148   3.767   5.648   4.688  0.7373 -0.6824 -0.7651
 1208SOL    HW1 4149   3.753   5.598   4.607 -1.6433  0.5635 -1.2078
 1208SOL    HW2 4150   3.686   5.634   4.739  2.1478 -1.3975  1.4470
 1209SOL     OW 4151   5.503   0.217   1.748 -0.0173  0.2587  0.0227
 1209SOL    HW1 4152   5.521   0.304   1.711 -0.5738  0.0815 -0.6916
 1209SOL    HW2 4153   5.430   0.183   1.695  1.5190 -1.5036 -1.0987
 1210SOL     OW 4154   6.381   7.400   7.478 -0.3588 -0.1765 -0.1941
 1210SOL    HW1 4155   6.400   7.333   7.413  1.9108 -0.3260  0.5479
 1210SOL    HW2 4156   6.440   7.472   7.457 -1.1384  0.6726  0.4079
 1211SOL     OW 4157   4.323   0.205   2.393  0.1819 -0.1121  0.4149
 1211SOL    HW1 4158   4.264   0.221   2.467 -1.2636  2.1559 -1.0910
 1211SOL    HW2 4159   4.367   0.288   2.378  1.8445 -1.0391 -0.1730
 1212SOL     OW 4160   4.444   7.281   5.207 -0.6833 -0.1739 -0.5775
 1212SOL    HW1 4161   4.386   7.239   5.270  0.1082 -1.3808 -0.6059
 1212SOL    HW2 4162   4.415   7.372   5.203 -1.6282 -0.4150  0.4796
 1213SOL     OW 4163   0.810   1.163   3.158 -0.0315  0.7016 -0.6359
 1213SOL    HW1 4164   0.729   1.198   3.197  0.0560  0.4714 -0.2429
 1213SOL    HW2 4165   0.820   1.077   3.198  0.7968  1.0163 -0.1389
 1214SOL     OW 4166   3.066   6.330   6.968  0.0253 -0.0613  0.3461
 1214SOL    HW1 4167   3.053   6.283   6.886  2.3130  0.1356 -0.1748
 1214SOL    HW2 4168   3.065   6.262   7.035 -0.0918 -0.4269 -0.0262
 1215SOL     OW 4169   3.757   6.035   0.327  0.0890 -0.1744 -0.1405
 1215SOL    HW1 4170   3.707   6.084   0.262  0.7373  0.3700 -0.2407
 1215SOL    HW2 4171   3.844   6.074   0.325  1.0188 -2.1360 -1.1226
 1216SOL     OW 4172   3.437   4.746   2.026 -0.1224  0.2357  0.2412
 1216SOL    HW1 4173   3.365   4.740   2.089  1.4146 -0.1895  2.0355
 1216SOL    HW2 4174   3.422   4.829   1.980 -2.2658 -0.3005 -0.1500
 1217SOL     OW 4175   7.444   1.272   1.358 -0.0860 -0.2044 -0.6578
 1217SOL    HW1 4176   7.422   1.304   1.445 -0.2609 -0.7123 -0.5126
 1217SOL    HW2 4177   7.427   1.178   1.362  1.7957 -0.5784 -0.6353
 1218SOL     OW 4178   4.550   0.193   4.175 -0.5824  0.2822 -0.1458
 1218SOL    HW1 4179   4.637   0.174   4.209 -0.1542 -0.3884 -1.5416
 1218SOL    HW2 4180   4.490   0.162   4.243  0.2565  1.4147  1.1510
 1219SOL     OW 4181   7.409   1.232   1.912 -0.2663  0.1541  0.1427
 1219SOL    HW1 4182   7.410   1.326   1.929 -0.5456  0.1449  0.2137
 1219SOL    HW2 4183   7.484   1.198   1.961  0.6935  0.5260 -1.0054
 1220SOL     OW 4184   1.965   3.624   7.108  0.0820  0.8907  0.4024
 1220SOL    HW1 4185   2.022   3.552   7.082 -0.2457  0.4560  0.8679
 1220SOL    HW2 4186   1.912   3.642   7.030 -0.8862 -0.3974  0.7340
 1221SOL     OW 4187   4.239   1.863   6.965  0.5253  0.0796 -0.2434
 1221SOL    HW1 4188   4.319   1.915   6.973 -0.0616  1.1136 -0.9323
 1221SOL    HW2 4189   4.254   1.807   6.888  0.3367  0.7437 -0.7709
 1222SOL     OW 4190   5.623   1.103   3.240 -0.1495  0.6056  0.4356
 1222SOL    HW1 4191   5.648   1.196   3.238  0.3808  0.5697 -3.7815
 1222SOL    HW2 4192   5.693   1.061   3.290  0.9133  2.1982  0.3774
 1223SOL     OW 4193   5.136   6.302   0.453  0.8586  0.1166  0.0561
 1223SOL    HW1 4194   5.217   6.314   0.502  0.9233  0.8883 -0.2214
 1223SOL    HW2 4195   5.158   6.329   0.364  0.0969  1.0855  0.1474
 1224SOL     OW 4196   1.783   5.178   6.153  0.1215  0.2802 -0.5208
 1224SOL    HW1 4197   1.858   5.131   6.118 -0.7100 -2.2822  0.8783
 1224SOL    HW2 4198   1.733   5.204   6.075  0.2442 -1.8931 -1.4032
 1225SOL     OW 4199   0.657   4.457   2.925  0.1917 -0.7216  1.0178
 1225SOL    HW1 4200   0.607   4.510   2.863  3.0788  0.7787 -0.1919
 1225SOL    HW2 4201   0.639   4.366   2.899 -0.2092 -0.1742 -0.7795
 1226SOL     OW 4202   1.376   4.954   4.718 -0.0361  0.2105 -0.1470
 1226SOL    HW1 4203   1.281   4.965   4.725  0.0620  2.6518 -1.6654
 1226SOL    HW2 4204   1.409   4.976   4.805 -0.7975  0.0517  0.1892
 1227SOL     OW 4205   3.273   2.718   1.826  0.1508 -0.1936 -0.8968
 1227SOL    HW1 4206   3.286   2.773   1.749  1.8632  1.0712  0.2449
 1227SOL    HW2 4207   3.361   2.700   1.859 -0.5450 -0.3215  1.0401
 1228SOL     OW 4208   2.451   3.296   2.299  0.2954  0.1841 -0.9500
 1228SOL    HW1 4209   2.505   3.326   2.373 -3.0603 -0.0585  1.8520
 1228SOL    HW2 4210   2.452   3.369   2.238  1.5401  1.2633  0.2834
 1229SOL     OW 4211   0.824   0.231   3.306 -0.6853 -0.1973 -0.5942
 1229SOL    HW1 4212   0.855   0.311   3.350  0.5138  0.1067 -1.9189
 1229SOL    HW2 4213   0.731   0.246   3.291 -0.8548  0.2122  0.6836
 1230SOL     OW 4214   2.407   7.447   2.578  0.3864  0.2537  0.3747
 1230SOL    HW1 4215   2.394   7.542   2.576 -0.7648  0.1143  0.7132
 1230SOL    HW2 4216   2.447   7.430   2.664  0.4595  0.4075  0.3711
 1231SOL     OW 4217   1.949   1.360   2.688  0.1039  0.1749 -0.6247
 1231SOL    HW1 4218   2.018   1.372   2.752 -0.3851 -2.7277  0.5837
 1231SOL    HW2 4219   1.870   1.395   2.730  0.1586  0.1510 -0.5044
 1232SOL     OW 4220   5.904   2.361   3.808  0.0517  0.4769 -0.7135
 1232SOL    HW1 4221   5.840   2.316   3.753  1.2322 -0.3598 -1.4573
 1232SOL    HW2 4222   5.987   2.350   3.762  1.2743 -1.0194  1.6348
 1233SOL     OW 4223   0.899   5.493   5.460  0.4191 -0.5304 -0.2267
 1233SOL    HW1 4224   0.892   5.404   5.494 -2.1013 -0.7020 -0.9827
 1233SOL    HW2 4225   0.899   5.549   5.537  2.3726 -1.1269  0.2744
 1234SOL     OW 4226   0.747   0.627   2.863  0.1567 -0.4675  0.1292
 1234SOL    HW1 4227   0.762   0.586   2.949 -0.0043 -0.5996  0.0950
 1234SOL    HW2 4228   0.774   0.718   2.875 -0.1502 -0.4104  0.4067
 1235SOL     OW 4229   1.377   2.478   1.721 -0.2016 -0.1014 -0.4707
 1235SOL    HW1 4230   1.421   2.492   1.805 -0.6065  0.7307 -0.3962
 1235SOL    HW2 4231   1.328   2.396   1.734  1.6881 -1.3417 -0.7224
 1236SOL     OW 4232   1.135   4.519   6.476 -0.3766  0.7482 -0.3524
 1236SOL    HW1 4233   1.142   4.489   6.566  0.0204  1.0435 -0.2830
 1236SOL    HW2 4234   1.192   4.596   6.471  1.0609 -0.3209 -1.3066
 1237SOL     OW 4235   7.052   3.456   1.904 -0.3119 -0.9494  0.0119
 1237SOL    HW1 4236   7.000   3.386   1.944 -1.7468  0.6143  1.0130
 1237SOL    HW2 4237   7.006   3.477   1.823 -0.7769 -0.1675  0.4613
 1238SOL     OW 4238   3.605   3.560   7.451 -0.2064  0.3256  0.0488
 1238SOL    HW1 4239   3.675   3.584   7.512 -0.4261  2.0371 -0.3143
 1238SOL    HW2 4240   3.618   3.467   7.434  0.3344 -0.0114  2.0901
 1239SOL     OW 4241   3.441   6.472   1.734  0.9726  0.2330 -0.7919
 1239SOL    HW1 4242   3.481   6.558   1.746  0.0268  0.3658  1.9051
 1239SOL    HW2 4243   3.356   6.478   1.777  0.2623 -1.6361 -1.8061
 1240SOL     OW 4244   3.658   3.266   4.610 -0.1083  0.0894  0.3695
 1240SOL    HW1 4245   3.643   3.339   4.551 -1.2199 -0.2934  0.1605
 1240SOL    HW2 4246   3.595   3.199   4.582  0.8684 -0.9470  0.5602
 1241SOL     OW 4247   1.988   0.067   7.069  0.0018 -0.9561 -0.5808
 1241SOL    HW1 4248   1.915   0.057   7.008  1.1071  0.1746 -2.1819
 1241SOL    HW2 4249   2.051   0.000   7.042  0.6576 -0.2031 -0.9425
 1242SOL     OW 4250   4.108   0.921   2.775  0.5082 -0.9023 -0.0712
 1242SOL    HW1 4251   4.152   0.988   2.828  0.3455 -1.5351  0.8899
 1242SOL    HW2 4252   4.038   0.969   2.729 -0.5488 -0.6376  1.7169
 1243SOL     OW 4253   4.261   6.637   1.232  0.1541 -0.6704  0.5391
 1243SOL    HW1 4254   4.204   6.667   1.303  1.2573  1.3313  0.6401
 1243SOL    HW2 4255   4.350   6.645   1.268  0.7087  0.0316 -0.9467
 1244SOL     OW 4256   1.089   3.583   2.892  0.0706  0.4789  0.0188
 1244SOL    HW1 4257   1.124   3.526   2.823  0.2369 -1.0806  1.3404
 1244SOL    HW2 4258   1.162   3.640   2.915  0.1574  0.6897 -0.7368
 1245SOL     OW 4259   2.513   1.934   2.724 -0.2699 -0.2669  0.7749
 1245SOL    HW1 4260   2.539   2.000   2.789 -0.0811 -0.3234  0.7596
 1245SOL    HW2 4261   2.451   1.979   2.667 -0.1342 -0.0992  0.7579
 1246SOL     OW 4262   5.968   4.819   1.290  0.5143 -0.3325 -0.1320
 1246SOL    HW1 4263   5.875   4.809   1.313  0.8402 -1.1878  0.8877
 1246SOL    HW2 4264   5.974   4.909   1.257 -0.6296 -0.1707  0.0363
 1247SOL     OW 4265   3.357   2.402   4.886 -0.4949  1.1762  0.0109
 1247SOL    HW1 4266   3.271   2.394   4.843 -0.5867  2.4807 -0.0966
 1247SOL    HW2 4267   3.404   2.465   4.832  1.3489 -1.0403 -1.1590
 1248SOL     OW 4268   1.205   6.421   4.627 -0.2165 -0.6845 -0.2080
 1248SOL    HW1 4269   1.272   6.489   4.631  0.1545 -1.0384 -0.3360
 1248SOL    HW2 4270   1.176   6.422   4.535  1.3108 -2.1221 -0.7821
 1249SOL     OW 4271   0.319   6.690   5.003 -0.4742  0.2020  0.4401
 1249SOL    HW1 4272   0.332   6.620   5.066  0.2853  0.3976  0.5113
 1249SOL    HW2 4273   0.371   6.664   4.927 -0.1390  0.7063  0.4901
 1250SOL     OW 4274   0.856   0.146   5.407  0.2755  0.3723  0.0540
 1250SOL    HW1 4275   0.921   0.110   5.468  0.2957 -0.0194 -0.1937
 1250SOL    HW2 4276   0.896   0.132   5.320 -0.7372 -1.1639 -0.2133
 1251SOL     OW 4277   4.741   4.858   3.125  0.1370 -0.2421 -0.0963
 1251SOL    HW1 4278   4.815   4.819   3.078  1.2958 -0.6307  1.9499
 1251SOL    HW2 4279   4.683   4.785   3.144  0.6439 -0.4418  0.7569
 1252SOL     OW 4280   1.315   0.174   5.644 -0.1114  0.1731 -0.6718
 1252SOL    HW1 4281   1.229   0.132   5.651  0.3603 -0.6448  0.5699
 1252SOL    HW2 4282   1.302   0.260   5.684 -0.1910 -0.2257  0.1844
 1253SOL     OW 4283   5.644   2.368   0.023  0.1725  0.3752  0.2849
 1253SOL    HW1 4284   5.670   2.304   0.089  0.0702 -0.8280 -0.8110
 1253SOL    HW2 4285   5.727   2.398  -0.014  0.3702  2.4941  2.1848
 1254SOL     OW 4286   1.028   4.145   2.269  0.6201  0.3639 -0.4803
 1254SOL    HW1 4287   1.083   4.137   2.191  1.1437 -2.4000  0.0880
 1254SOL    HW2 4288   0.957   4.083   2.255 -0.0561  0.8509  0.6551
 1255SOL     OW 4289   5.246   7.359   3.027  0.9270  0.3759  0.5103
 1255SOL    HW1 4290   5.252   7.367   3.122 -1.2136 -0.0092  0.7430
 1255SOL    HW2 4291   5.152   7.348   3.010  1.4078 -1.2146 -1.5282
 1256SOL     OW 4292   0.664   4.211   5.349  0.0902 -0.1583 -0.4747
 1256SOL    HW1 4293   0.586   4.267   5.342  1.1559  1.5995  0.9386
 1256SOL    HW2 4294   0.655   4.150   5.276 -1.9823  0.7842 -1.1054
 1257SOL     OW 4295   1.188   1.159   6.823  0.3575 -0.1272  0.1563
 1257SOL    HW1 4296   1.207   1.067   6.804  2.5205  0.8514 -3.1268
 1257SOL    HW2 4297   1.272   1.196   6.850 -0.3853  1.0659  0.9546
 1258SOL     OW 4298   4.363   6.995   4.255 -0.0625  0.4267 -0.0037
 1258SOL    HW1 4299   4.388   6.922   4.312 -0.5967  0.7139  0.6143
 1258SOL    HW2 4300   4.298   6.957   4.196  0.6460  0.0756 -0.5683
 1259SOL     OW 4301   0.413   7.371   4.908 -0.4869 -0.7749  0.1185
 1259SOL    HW1 4302   0.499   7.414   4.907 -0.2057 -1.0627  2.9128
 1259SOL    HW2 4303   0.418   7.305   4.840  0.4609  1.0428 -1.6708
 1260SOL     OW 4304   2.799   2.582   6.394 -0.6025 -0.3882  0.6166
 1260SOL    HW1 4305   2.724   2.524   6.384 -0.0577 -1.1205  0.7015
 1260SOL    HW2 4306   2.771   2.645   6.461 -1.6726  0.2671 -0.4035
 1261SOL     OW 4307   2.577   7.060   6.975  0.2343 -0.1545  0.1901
 1261SOL    HW1 4308   2.645   7.105   7.026 -0.0261 -0.6324  0.9757
 1261SOL    HW2 4309   2.604   6.969   6.973  0.2589 -0.1401 -0.5784
 1262SOL     OW 4310   3.833   5.495   3.124  0.8654 -0.7103 -0.5551
 1262SOL    HW1 4311   3.798   5.475   3.037 -0.5166 -1.2819  0.0917
 1262SOL    HW2 4312   3.837   5.590   3.127 -1.7455 -0.5379 -0.3139
 1263SOL     OW 4313   3.086   7.367   3.014  0.1063 -0.2109  0.4821
 1263SOL    HW1 4314   3.040   7.444   3.048  0.0662 -0.0861  0.1517
 1263SOL    HW2 4315   3.017   7.314   2.975  0.4824  1.0559 -2.0810
 1264SOL     OW 4316   3.502   0.518   1.560  0.5566  0.0390 -0.0077
 1264SOL    HW1 4317   3.589   0.479   1.554  0.6600  0.2076  0.3516
 1264SOL    HW2 4318   3.457   0.490   1.480  1.2768  0.7673 -0.6786
 1265SOL     OW 4319   3.430   6.406   4.885 -0.0835  0.4793  0.1515
 1265SOL    HW1 4320   3.439   6.455   4.803  0.0509 -0.0799 -0.1732
 1265SOL    HW2 4321   3.468   6.320   4.865 -0.1113  0.3201  0.7819
 1266SOL     OW 4322   2.961   3.514   5.768  0.1389  0.0775  0.3338
 1266SOL    HW1 4323   2.878   3.522   5.815  2.1416  2.6461  3.9562
 1266SOL    HW2 4324   3.019   3.470   5.830  1.7467 -0.9818 -1.8022
 1267SOL     OW 4325   6.467   0.689   5.747  0.3239 -0.8094 -0.3786
 1267SOL    HW1 4326   6.492   0.773   5.784  0.5265 -0.3157 -1.5853
 1267SOL    HW2 4327   6.508   0.624   5.805  1.1556 -0.0650 -0.1135
 1268SOL     OW 4328   6.498   7.011   1.035  0.1681  0.4568  0.1321
 1268SOL    HW1 4329   6.433   7.076   1.009  0.5879  1.2481  1.0126
 1268SOL    HW2 4330   6.453   6.958   1.101  0.3584  0.9107  0.6321
 1269SOL     OW 4331   2.593   5.035   4.164  0.1903  0.5706 -0.0550
 1269SOL    HW1 4332   2.609   4.942   4.179 -0.4344  0.2733 -1.1075
 1269SOL    HW2 4333   2.631   5.079   4.241  1.4767 -0.4482 -0.0750
 1270SOL     OW 4334   4.439   5.188   7.328  0.2432 -0.2044  0.2185
 1270SOL    HW1 4335   4.379   5.120   7.298  0.8744 -0.1350 -1.2597
 1270SOL    HW2 4336   4.503   5.197   7.258  0.1068  2.0261  0.3009
 1271SOL     OW 4337   7.014   5.300   3.826  0.2646 -0.0964  0.3029
 1271SOL    HW1 4338   7.034   5.275   3.916  0.4131  1.8461  0.8525
 1271SOL    HW2 4339   7.082   5.362   3.802 -0.4914  0.3845 -0.6940
 1272SOL     OW 4340   1.465   1.356   6.254 -0.0862 -0.3833  0.4269
 1272SOL    HW1 4341   1.429   1.377   6.340 -2.7476  1.9535 -1.1075
 1272SOL    HW2 4342   1.433   1.267   6.236  0.2450 -0.7790  1.6613
 1273SOL     OW 4343   3.876   6.398   7.145 -0.1995 -0.0460 -0.4132
 1273SOL    HW1 4344   3.962   6.368   7.174  0.0830  0.7327 -0.4194
 1273SOL    HW2 4345   3.835   6.435   7.224 -0.9119 -1.2414 -0.1938
 1274SOL     OW 4346   0.009   4.796   3.786 -0.4168 -0.2032  0.0290
 1274SOL    HW1 4347  -0.075   4.752   3.775 -1.6777  2.4304 -1.9094
 1274SOL    HW2 4348   0.034   4.822   3.697  1.5353  0.6741  0.7891
 1275SOL     OW 4349   4.645   7.110   3.664 -0.3685 -0.2604  0.5492
 1275SOL    HW1 4350   4.643   7.153   3.579  0.7762 -1.0397  0.1025
 1275SOL    HW2 4351   4.647   7.182   3.727  0.8661  0.3657 -0.1596
 1276SOL     OW 4352   1.462   1.192   4.592 -0.0100  0.1085  0.2283
 1276SOL    HW1 4353   1.492   1.263   4.535 -0.4128 -0.3812 -0.6111
 1276SOL    HW2 4354   1.502   1.211   4.677 -2.2056  2.8501  0.8027
 1277SOL     OW 4355   3.177   6.063   2.232 -0.6274  0.5674 -0.2219
 1277SOL    HW1 4356   3.202   6.039   2.143  2.7048 -0.2494  0.7944
 1277SOL    HW2 4357   3.257   6.097   2.271 -2.2916  2.1752  2.1305
 1278SOL     OW 4358   3.610   4.978   6.960 -0.7123  0.4629 -0.3331
 1278SOL    HW1 4359   3.647   5.060   6.926  0.6313 -0.5311 -1.3575
 1278SOL    HW2 4360   3.547   4.950   6.894  1.5630 -1.2270 -1.9329
 1279SOL     OW 4361   3.571   1.455   1.479 -0.2840 -0.1730 -0.5749
 1279SOL    HW1 4362   3.640   1.521   1.480 -1.2121  0.8267  0.7129
 1279SOL    HW2 4363   3.572   1.416   1.567  0.9700 -2.7411 -1.6043
 1280SOL     OW 4364   5.645   2.875   1.610 -0.4011 -0.3244  0.5691
 1280SOL    HW1 4365   5.638   2.967   1.587  0.2095 -0.1415  1.0896
 1280SOL    HW2 4366   5.617   2.828   1.531  0.7377  0.2856 -0.2214
 1281SOL     OW 4367   4.632   3.829   7.386 -0.2516 -0.1515  0.1504
 1281SOL    HW1 4368   4.552   3.820   7.437 -0.6273 -1.0047 -0.5490
 1281SOL    HW2 4369   4.673   3.743   7.391  0.1998  0.0442 -0.1586
 1282SOL     OW 4370   1.862   4.354   4.627  0.1089 -0.6037 -0.5279
 1282SOL    HW1 4371   1.944   4.372   4.673 -0.1576 -1.4376  0.2831
 1282SOL    HW2 4372   1.875   4.395   4.541  0.2305  1.8457  0.5518
 1283SOL     OW 4373   4.700   0.853   1.250  0.2553  0.0936 -0.4721
 1283SOL    HW1 4374   4.665   0.919   1.190 -0.1445  1.4360  1.1575
 1283SOL    HW2 4375   4.671   0.882   1.336  1.2556 -1.4839  0.4339
 1284SOL     OW 4376   6.892   5.551   0.047  0.3769 -0.1744 -0.6098
 1284SOL    HW1 4377   6.957   5.549  -0.024  2.2475 -1.1083  1.0051
 1284SOL    HW2 4378   6.888   5.642   0.073 -0.3637  0.1892 -1.8966
 1285SOL     OW 4379   6.252   5.557   3.490 -0.3409 -0.5236  0.3120
 1285SOL    HW1 4380   6.178   5.618   3.493  0.8497  0.9223  2.1011
 1285SOL    HW2 4381   6.282   5.552   3.581  1.5275 -1.3733 -0.3196
 1286SOL     OW 4382   0.454   1.731   3.146  0.3196  0.4069 -0.3443
 1286SOL    HW1 4383   0.453   1.814   3.193 -1.2205 -0.2456  0.8607
 1286SOL    HW2 4384   0.451   1.756   3.053 -0.6960  1.6929  0.0048
 1287SOL     OW 4385   7.090   6.218   7.209  0.0489  0.4803 -0.4236
 1287SOL    HW1 4386   7.061   6.237   7.120  0.8247  0.5172 -0.6759
 1287SOL    HW2 4387   7.162   6.156   7.199  0.0484  0.3710  0.1833
 1288SOL     OW 4388   1.374   1.481   4.837  0.6037 -0.2446  0.3704
 1288SOL    HW1 4389   1.319   1.479   4.916  1.2737  1.9538  0.9532
 1288SOL    HW2 4390   1.324   1.534   4.775  0.9203 -0.4149 -0.0324
 1289SOL     OW 4391   1.577   1.723   6.711  0.5619  0.8833 -0.1902
 1289SOL    HW1 4392   1.643   1.653   6.720  0.6047  0.7819 -1.2437
 1289SOL    HW2 4393   1.552   1.721   6.619 -0.6749  1.1547  0.1219
 1290SOL     OW 4394   7.349   6.722   3.872 -0.6295 -0.3063  0.5670
 1290SOL    HW1 4395   7.356   6.803   3.821  0.5401 -0.3101  0.6973
 1290SOL    HW2 4396   7.318   6.657   3.809  1.5701 -0.4974 -0.4038
 1291SOL     OW 4397   4.044   4.590   5.365 -0.3915 -0.5372 -0.3714
 1291SOL    HW1 4398   4.102   4.640   5.307  0.0892 -0.3011  0.3021
 1291SOL    HW2 4399   4.079   4.501   5.363  0.7114 -0.1621  0.9161
 1292SOL     OW 4400   5.630   3.189   3.940 -0.4069 -0.0863 -0.1160
 1292SOL    HW1 4401   5.710   3.242   3.939 -0.9015  0.6913  0.4789
 1292SOL    HW2 4402   5.593   3.204   4.027 -2.3335  1.2894 -1.1166
 1293SOL     OW 4403   2.645   7.535   4.018  0.1424 -0.0170  0.4762
 1293SOL    HW1 4404   2.615   7.603   4.078 -1.3856 -1.1933  1.1379
 1293SOL    HW2 4405   2.575   7.528   3.952  1.5875  0.9448 -1.2415
 1294SOL     OW 4406   4.664   0.349   1.001 -0.2395  0.0520  0.1499
 1294SOL    HW1 4407   4.734   0.411   0.979  0.5720 -0.7941  0.2706
 1294SOL    HW2 4408   4.637   0.313   0.917  1.0367 -1.2439  0.2463
 1295SOL     OW 4409   2.633   0.420   4.454  0.5082 -0.4535  0.2067
 1295SOL    HW1 4410   2.716   0.397   4.411  0.2648 -0.1971 -0.4081
 1295SOL    HW2 4411   2.567   0.370   4.407 -0.1605  2.0798 -1.7786
 1296SOL     OW 4412   6.508   1.963   7.298  0.1985 -0.1411 -0.2451
 1296SOL    HW1 4413   6.414   1.944   7.295  0.2365 -0.1872 -2.1349
 1296SOL    HW2 4414   6.547   1.899   7.238  1.2290  0.9490 -0.7697
 1297SOL     OW 4415   1.063   7.538   6.565 -0.4218 -0.4045 -0.2410
 1297SOL    HW1 4416   1.153   7.509   6.555 -0.3222 -0.4326  0.6493
 1297SOL    HW2 4417   1.069   7.617   6.620 -0.9101 -0.2041 -0.4648
 1298SOL     OW 4418   2.057   4.904   4.174  0.3614  0.3605  0.9305
 1298SOL    HW1 4419   2.081   4.869   4.260  0.7912  0.9367  1.0560
 1298SOL    HW2 4420   2.141   4.914   4.128  0.1789  0.5348  0.6346
 1299SOL     OW 4421   4.520   2.462   6.017 -0.2479  0.0798  0.3081
 1299SOL    HW1 4422   4.576   2.474   5.941 -0.8745 -1.3978 -0.4279
 1299SOL    HW2 4423   4.486   2.550   6.037 -0.8616  0.3606 -1.7479
 1300SOL     OW 4424   2.722   3.094   6.599  0.2985  0.1267 -0.1538
 1300SOL    HW1 4425   2.733   3.106   6.505  0.1920  1.4400 -0.0246
 1300SOL    HW2 4426   2.811   3.086   6.633  0.6564  3.4015  0.0288
 1301SOL     OW 4427   2.521   2.827   7.032 -0.4145 -0.3159  0.0413
 1301SOL    HW1 4428   2.437   2.849   7.074  0.4288 -0.0736  1.6483
 1301SOL    HW2 4429   2.536   2.899   6.971 -0.3558  0.7675  1.2984
 1302SOL     OW 4430   4.559   2.841   2.439  0.7212  0.2533 -0.2194
 1302SOL    HW1 4431   4.574   2.799   2.524  2.8676  0.5174 -0.4160
 1302SOL    HW2 4432   4.565   2.770   2.375  0.8368  0.3231 -0.2857
 1303SOL     OW 4433   0.635   7.481   7.093  0.2840  0.2576 -0.8468
 1303SOL    HW1 4434   0.669   7.548   7.152 -0.9836 -0.5694  0.9269
 1303SOL    HW2 4435   0.618   7.527   7.011  1.9551  1.4903 -0.5593
 1304SOL     OW 4436   2.237   4.172   0.293 -0.2363 -0.5308 -0.1297
 1304SOL    HW1 4437   2.243   4.125   0.210 -0.7015  0.4665 -0.7485
 1304SOL    HW2 4438   2.178   4.119   0.346 -2.1204  0.1681 -1.4243
 1305SOL     OW 4439   4.325   4.450   4.853 -0.1352  0.6243 -0.2542
 1305SOL    HW1 4440   4.410   4.425   4.816 -0.3558  0.4001 -0.6180
 1305SOL    HW2 4441   4.294   4.370   4.896  0.9938  1.3794  2.1548
 1306SOL     OW 4442   5.629   3.206   7.088  0.1390  0.8909  0.0946
 1306SOL    HW1 4443   5.681   3.166   7.019  0.9140  1.4708  0.3262
 1306SOL    HW2 4444   5.577   3.134   7.124  0.7418  0.3080 -0.1791
 1307SOL     OW 4445   2.206   7.449   1.249  0.2728  0.2284  0.2605
 1307SOL    HW1 4446   2.266   7.523   1.238 -1.8181  1.9144 -0.4261
 1307SOL    HW2 4447   2.190   7.418   1.160 -0.1023 -0.0374  0.4195
 1308SOL     OW 4448   2.577   2.366   2.960 -0.3279  0.3558  0.3624
 1308SOL    HW1 4449   2.617   2.328   3.038  0.2886  0.5998  0.1742
 1308SOL    HW2 4450   2.612   2.455   2.957  0.9958 -0.1670 -1.1048
 1309SOL     OW 4451   7.532   7.090   6.838  0.3178  0.1364  0.3051
 1309SOL    HW1 4452   7.485   7.153   6.782 -1.5678 -0.4151  1.1806
 1309SOL    HW2 4453   7.598   7.142   6.883  0.3372  1.0274 -0.7226
 1310SOL     OW 4454   1.229   5.024   0.190 -0.2520  0.0143 -0.0601
 1310SOL    HW1 4455   1.186   5.093   0.140 -1.6678 -0.9473 -0.2570
 1310SOL    HW2 4456   1.311   5.008   0.144  0.4387  1.9932  0.3881
 1311SOL     OW 4457   3.036   1.355   0.422  0.3699 -0.1159 -0.0652
 1311SOL    HW1 4458   3.057   1.448   0.437 -1.4737  0.0486  1.9588
 1311SOL    HW2 4459   3.121   1.312   0.418  1.2392  1.4726  0.3247
 1312SOL     OW 4460   7.386   0.094   6.425 -0.3677 -0.7676 -0.0648
 1312SOL    HW1 4461   7.353   0.157   6.489  1.4753 -2.0089  2.2615
 1312SOL    HW2 4462   7.311   0.039   6.403 -0.6192 -1.8014  2.9459
 1313SOL     OW 4463   5.584   3.739   2.204 -0.5322 -0.2416  0.2006
 1313SOL    HW1 4464   5.601   3.731   2.298 -1.4627  1.0646  0.5170
 1313SOL    HW2 4465   5.538   3.659   2.181 -1.0728 -0.1973  1.0652
 1314SOL     OW 4466   4.238   4.096   1.203  0.2173 -0.4502 -0.3528
 1314SOL    HW1 4467   4.215   4.059   1.288  0.7484 -0.1787 -0.0915
 1314SOL    HW2 4468   4.190   4.178   1.199  1.9531  0.6804  0.6750
 1315SOL     OW 4469   5.546   7.512   3.387 -0.1390  0.4661 -0.4270
 1315SOL    HW1 4470   5.511   7.593   3.422 -1.0872 -0.1564  0.1113
 1315SOL    HW2 4471   5.627   7.498   3.434 -0.2189  0.8457 -0.1742
 1316SOL     OW 4472   6.284   2.838   1.653 -0.4724  0.1748  0.6705
 1316SOL    HW1 4473   6.281   2.932   1.672 -1.5871  0.4766 -0.7886
 1316SOL    HW2 4474   6.237   2.797   1.725 -0.8983  0.8430  0.7821
 1317SOL     OW 4475   2.317   5.376   7.075  0.5840  0.1739 -0.1737
 1317SOL    HW1 4476   2.276   5.290   7.083 -0.8673  0.8610  0.1498
 1317SOL    HW2 4477   2.409   5.361   7.096  0.5772 -1.4735 -1.1600
 1318SOL     OW 4478   2.690   5.152   3.116  0.2172 -0.4404 -0.0135
 1318SOL    HW1 4479   2.655   5.172   3.203 -1.2483 -1.8943 -0.2184
 1318SOL    HW2 4480   2.768   5.099   3.134  1.3705  1.3273  0.4207
 1319SOL     OW 4481   4.618   6.072   0.058  0.7517 -0.1964 -0.4143
 1319SOL    HW1 4482   4.648   6.158   0.028  0.0192  0.1801 -0.1105
 1319SOL    HW2 4483   4.655   6.010  -0.004 -0.2218  0.5064 -1.7576
 1320SOL     OW 4484   4.003   2.165   4.462 -0.8945 -0.0710 -0.1315
 1320SOL    HW1 4485   4.045   2.164   4.548 -0.0411  0.4325 -0.5214
 1320SOL    HW2 4486   4.026   2.250   4.425 -1.0198 -0.3854 -0.9646
 1321SOL     OW 4487   2.071   2.868   6.935 -0.5890  0.1741 -0.1554
 1321SOL    HW1 4488   2.075   2.940   6.998  2.4490  0.1776 -0.2018
 1321SOL    HW2 4489   2.104   2.792   6.984  0.0926 -0.2314 -1.2185
 1322SOL     OW 4490   4.318   3.684   4.481  0.2326  0.6511 -0.4993
 1322SOL    HW1 4491   4.411   3.697   4.500  0.4334 -2.8205  1.7864
 1322SOL    HW2 4492   4.316   3.650   4.392  1.4656 -1.1272  0.0907
 1323SOL     OW 4493   0.598   5.000   2.871  0.3647 -0.1713  0.1635
 1323SOL    HW1 4494   0.690   5.027   2.872  0.3191  0.4335 -2.7858
 1323SOL    HW2 4495   0.551   5.073   2.913  1.0494  0.4049 -0.0627
 1324SOL     OW 4496   7.483   5.008   6.272  0.2176 -0.4000 -0.9399
 1324SOL    HW1 4497   7.523   4.939   6.218 -0.8137 -0.5168 -1.5894
 1324SOL    HW2 4498   7.541   5.083   6.261  1.9575 -1.4072  0.6163
 1325SOL     OW 4499   1.985   4.055   6.190  0.0168 -0.2435  0.0332
 1325SOL    HW1 4500   1.978   4.001   6.111  2.6272  0.2862 -0.6898
 1325SOL    HW2 4501   2.033   4.001   6.252 -2.0154 -0.6480  1.3082
 1326SOL     OW 4502   1.437   4.484   0.666 -0.3748  0.1357 -0.7492
 1326SOL    HW1 4503   1.525   4.509   0.691 -0.3218 -0.7351 -0.0425
 1326SOL    HW2 4504   1.388   4.479   0.748 -0.2108 -2.6840 -0.7176
 1327SOL     OW 4505   2.510   6.712   5.876 -0.0419 -0.0370  0.2586
 1327SOL    HW1 4506   2.435   6.745   5.926  1.0663  1.0456  1.2800
 1327SOL    HW2 4507   2.587   6.748   5.921  1.0985 -0.9465 -0.8727
 1328SOL     OW 4508   3.259   2.406   1.844 -0.5450  0.0163  0.0013
 1328SOL    HW1 4509   3.232   2.316   1.827 -1.4749  0.3156 -0.1249
 1328SOL    HW2 4510   3.214   2.458   1.777 -1.4471  0.7950  1.1811
 1329SOL     OW 4511   2.985   3.387   4.647 -0.0834 -0.2114 -0.1307
 1329SOL    HW1 4512   3.036   3.457   4.605  0.0673  0.6199  1.3740
 1329SOL    HW2 4513   2.937   3.431   4.717  1.0647 -1.7967  1.7754
 1330SOL     OW 4514   7.180   5.918   1.427 -0.3934 -0.3095  0.1872
 1330SOL    HW1 4515   7.149   5.829   1.445  2.7067 -1.3169  1.2544
 1330SOL    HW2 4516   7.276   5.911   1.428  0.0147  2.5835 -2.2588
 1331SOL     OW 4517   3.931   6.118   5.607 -0.4154  0.5052 -0.0029
 1331SOL    HW1 4518   3.906   6.210   5.597 -0.6004  0.6256  1.4482
 1331SOL    HW2 4519   4.010   6.109   5.554 -1.6826  0.8896 -2.0867
 1332SOL     OW 4520   2.887   2.319   3.001 -0.0013 -0.8453  0.0129
 1332SOL    HW1 4521   2.834   2.285   2.929 -0.3904 -0.2304  0.0078
 1332SOL    HW2 4522   2.924   2.400   2.968 -1.5573  0.3478  1.0726
 1333SOL     OW 4523   2.877   7.047   4.065  0.1586 -0.2069  0.3182
 1333SOL    HW1 4524   2.965   7.063   4.031  0.2763 -1.5345 -0.0457
 1333SOL    HW2 4525   2.844   7.134   4.087  0.8270  0.5111 -1.3482
 1334SOL     OW 4526   0.093   7.559   2.182 -0.2101 -0.8132 -0.3188
 1334SOL    HW1 4527   0.163   7.494   2.172 -0.6826 -1.2232 -1.0260
 1334SOL    HW2 4528   0.045   7.556   2.100 -0.9708 -0.4247  0.0978
 1335SOL     OW 4529   6.349   6.688   3.687  0.3822  0.4456  0.4405
 1335SOL    HW1 4530   6.348   6.783   3.695  2.7603  0.6202 -0.4864
 1335SOL    HW2 4531   6.409   6.659   3.756  0.0079 -0.3516  0.4393
 1336SOL     OW 4532   6.123   5.799   2.361  0.0899  0.0094 -0.4731
 1336SOL    HW1 4533   6.140   5.866   2.295  0.5196  0.0157 -0.3604
 1336SOL    HW2 4534   6.081   5.845   2.434  1.4425  0.3895  0.0959
 1337SOL     OW 4535   2.928   2.470   2.629 -0.3142 -0.1880 -0.2043
 1337SOL    HW1 4536   2.853   2.417   2.655 -0.2041 -0.7486 -0.9818
 1337SOL    HW2 4537   2.961   2.427   2.550 -0.1674  0.9886 -0.8082
 1338SOL     OW 4538   4.997   5.183   6.415  0.2154 -0.4267 -0.7232
 1338SOL    HW1 4539   5.038   5.112   6.464  1.5330 -0.0445 -1.2326
 1338SOL    HW2 4540   5.066   5.248   6.405 -0.6654  0.4618 -1.1848
 1339SOL     OW 4541   0.493   2.631   7.071  0.2286 -0.3859  0.2333
 1339SOL    HW1 4542   0.502   2.697   7.140  0.7823  1.2668 -1.3216
 1339SOL    HW2 4543   0.399   2.617   7.064  0.1341 -0.1661  0.9488
 1340SOL     OW 4544   5.228   2.036   2.598 -0.2439  0.3617  0.2858
 1340SOL    HW1 4545   5.145   2.060   2.638  0.5058  0.4832  1.8100
 1340SOL    HW2 4546   5.270   1.978   2.662  0.9676  0.5172 -0.3390
 1341SOL     OW 4547   6.930   4.843   4.508  0.2277  0.8463 -0.2874
 1341SOL    HW1 4548   6.875   4.921   4.518 -0.2020  0.5511 -0.3173
 1341SOL    HW2 4549   7.002   4.856   4.571  1.2591  2.1898 -1.6872
 1342SOL     OW 4550   4.080   6.413   2.767 -0.0441 -0.0699  0.1281
 1342SOL    HW1 4551   4.108   6.500   2.797 -0.8791 -0.3187  1.7314
 1342SOL    HW2 4552   4.101   6.355   2.840 -1.1961 -0.8929 -0.1685
 1343SOL     OW 4553   2.859   7.459   0.120 -0.8037 -0.0864 -0.2791
 1343SOL    HW1 4554   2.825   7.547   0.138 -1.7903 -0.0865 -1.9196
 1343SOL    HW2 4555   2.808   7.402   0.178 -1.8583  0.2071 -0.8724
 1344SOL     OW 4556   5.544   3.519   4.086  0.3189 -0.1150 -0.3507
 1344SOL    HW1 4557   5.626   3.494   4.128 -0.2959 -2.6566 -0.4738
 1344SOL    HW2 4558   5.571   3.562   4.005  1.5466 -0.6554 -0.2497
 1345SOL     OW 4559   0.723   7.540   6.514  0.4638  0.3024  1.2483
 1345SOL    HW1 4560   0.637   7.500   6.516  0.9024 -0.6481  2.3698
 1345SOL    HW2 4561   0.769   7.495   6.443  0.5895 -0.4724  1.7943
 1346SOL     OW 4562   5.845   6.786   0.413 -0.1059  0.2418  0.3865
 1346SOL    HW1 4563   5.881   6.710   0.367 -0.6450 -0.3523  0.9346
 1346SOL    HW2 4564   5.828   6.755   0.502 -0.3535  1.0009  0.6152
 1347SOL     OW 4565   0.538   5.441   4.788 -0.1830  0.8134  0.1112
 1347SOL    HW1 4566   0.531   5.534   4.764 -0.9917  0.1445 -2.6266
 1347SOL    HW2 4567   0.631   5.421   4.778 -0.1806  1.0757 -0.4287
 1348SOL     OW 4568   0.867   3.304   2.292  0.1772  0.2665  0.5364
 1348SOL    HW1 4569   0.908   3.377   2.246  2.3834 -1.8552 -1.1098
 1348SOL    HW2 4570   0.843   3.243   2.223  0.2321 -1.4578  1.9621
 1349SOL     OW 4571   6.214   2.513   4.205 -0.4558 -0.1610 -0.0231
 1349SOL    HW1 4572   6.156   2.562   4.146  2.8795  1.1806 -2.5083
 1349SOL    HW2 4573   6.252   2.445   4.149  0.6100 -0.7936  1.4282
 1350SOL     OW 4574   2.653   2.057   5.956  0.1539 -0.0814  0.1244
 1350SOL    HW1 4575   2.592   2.119   5.995 -1.0425 -0.4055 -1.1730
 1350SOL    HW2 4576   2.649   1.980   6.014  0.5430  0.4868  0.9190
 1351SOL     OW 4577   7.288   6.829   6.895  0.3138 -0.3018  0.1200
 1351SOL    HW1 4578   7.378   6.825   6.927 -0.2407  1.1701  2.0142
 1351SOL    HW2 4579   7.250   6.745   6.918 -0.0757  0.6883  3.6395
 1352SOL     OW 4580   5.049   1.093   3.231 -0.2477  0.5115  0.0050
 1352SOL    HW1 4581   5.102   1.022   3.269 -0.6471  0.6253  0.7887
 1352SOL    HW2 4582   4.959   1.070   3.252 -0.5023  0.4625 -1.0928
 1353SOL     OW 4583   4.308   0.227   7.225  0.1713 -0.2165 -0.0999
 1353SOL    HW1 4584   4.236   0.281   7.257  1.7829  1.4267  0.9825
 1353SOL    HW2 4585   4.352   0.280   7.159  1.1266 -0.6502  0.1588
 1354SOL     OW 4586   4.648   3.415   3.530 -0.0685  0.4258  0.6852
 1354SOL    HW1 4587   4.741   3.403   3.549  0.3480  1.7360 -0.3605
 1354SOL    HW2 4588   4.631   3.358   3.454  0.2592  1.3005 -0.0571
 1355SOL     OW 4589   6.703   1.205   1.213  0.4041  0.4823 -0.2032
 1355SOL    HW1 4590   6.761   1.146   1.261  0.1096  0.2646 -0.1070
 1355SOL    HW2 4591   6.734   1.202   1.123  1.2473  1.2496  0.0504
 1356SOL     OW 4592   1.904   7.400   0.970  0.1090 -0.3716 -0.3573
 1356SOL    HW1 4593   1.874   7.310   0.965 -0.7997 -0.0709 -0.5827
 1356SOL    HW2 4594   1.999   7.394   0.971  0.0562 -1.3270 -0.3856
 1357SOL     OW 4595   3.192   0.602   3.998 -0.1909  0.7263 -0.0645
 1357SOL    HW1 4596   3.277   0.645   4.002 -0.0734  0.6072 -1.0920
 1357SOL    HW2 4597   3.193   0.539   4.071  0.6058  0.7132 -0.0805
 1358SOL     OW 4598   1.851   6.898   1.530 -0.6015  0.1061 -0.1130
 1358SOL    HW1 4599   1.816   6.809   1.536  2.0414 -0.9455  1.4586
 1358SOL    HW2 4600   1.936   6.887   1.486  0.5342  1.5536  1.5956
 1359SOL     OW 4601   0.273   0.512   2.032  0.2276  0.2186  0.5594
 1359SOL    HW1 4602   0.236   0.597   2.055  0.5980  0.8839 -1.1502
 1359SOL    HW2 4603   0.198   0.452   2.031 -0.3924  0.9914 -0.3218
 1360SOL     OW 4604   2.270   6.983   7.206  0.3134 -0.3736  0.7129
 1360SOL    HW1 4605   2.271   6.928   7.127 -0.2152  1.0285 -0.3029
 1360SOL    HW2 4606   2.274   6.920   7.278  2.8267 -1.6482 -0.4061
 1361SOL     OW 4607   5.670   6.592   5.411 -0.1787 -0.4735  0.2789
 1361SOL    HW1 4608   5.724   6.626   5.482  0.4582  0.8004 -0.7726
 1361SOL    HW2 4609   5.701   6.502   5.399  0.6729 -0.2442  0.6740
 1362SOL     OW 4610   5.388   1.805   5.386  0.7080 -0.2223  0.3663
 1362SOL    HW1 4611   5.440   1.736   5.426  1.0953  0.2521  0.6959
 1362SOL    HW2 4612   5.377   1.778   5.294  0.8860 -0.6930  0.4841
 1363SOL     OW 4613   1.710   7.270   7.194  0.2717 -0.0493 -0.0219
 1363SOL    HW1 4614   1.687   7.334   7.262  0.5401 -0.5591  0.5605
 1363SOL    HW2 4615   1.794   7.301   7.160 -0.6244  1.1120 -1.2719
 1364SOL     OW 4616   5.985   6.536   5.794  0.2660 -0.3606  0.7479
 1364SOL    HW1 4617   5.930   6.601   5.749  1.9620 -0.0985 -1.1059
 1364SOL    HW2 4618   6.048   6.588   5.843  0.4218 -0.6180  0.8200
 1365SOL     OW 4619   2.046   1.732   6.203 -0.2375 -0.3798  0.0012
 1365SOL    HW1 4620   2.140   1.734   6.182 -0.4212  2.0564 -0.9187
 1365SOL    HW2 4621   2.031   1.643   6.234  1.8314 -1.7224 -2.3846
 1366SOL     OW 4622   5.566   6.850   2.950 -0.2812  0.1340 -0.2748
 1366SOL    HW1 4623   5.646   6.806   2.978 -0.3855  0.6533  0.8715
 1366SOL    HW2 4624   5.595   6.908   2.879  0.1960 -0.3371 -0.4725
 1367SOL     OW 4625   0.568   6.802   6.269 -0.3342  0.4555  0.2861
 1367SOL    HW1 4626   0.569   6.736   6.200 -1.8747  0.4727  0.2147
 1367SOL    HW2 4627   0.660   6.826   6.281  0.2916 -1.7896  0.4046
 1368SOL     OW 4628   3.174   3.447   6.564  0.1265  0.1359  0.7384
 1368SOL    HW1 4629   3.210   3.513   6.623  1.2571  1.2774 -1.1176
 1368SOL    HW2 4630   3.251   3.401   6.530 -0.3842  0.3079 -0.7207
 1369SOL     OW 4631   4.806   1.597   6.424  0.1156 -0.1445 -0.1418
 1369SOL    HW1 4632   4.748   1.667   6.394  0.2473 -0.4047 -1.0390
 1369SOL    HW2 4633   4.800   1.530   6.356  0.6796 -0.6225  0.2656
 1370SOL     OW 4634   3.742   1.040   3.953 -0.4961 -0.1372 -0.4434
 1370SOL    HW1 4635   3.775   1.032   3.863  2.5928 -0.3492  0.5770
 1370SOL    HW2 4636   3.808   0.996   4.006 -1.9586  0.4668  2.0169
 1371SOL     OW 4637   3.897   1.133   5.293  0.3353  0.5285 -0.0421
 1371SOL    HW1 4638   3.834   1.203   5.279  0.7861  1.4182  1.9598
 1371SOL    HW2 4639   3.846   1.063   5.333  0.1624  0.2706 -0.7037
 1372SOL     OW 4640   3.108   3.201   7.367  0.1665 -0.4014 -0.1189
 1372SOL    HW1 4641   3.138   3.175   7.280 -1.1383 -0.5765 -0.5423
 1372SOL    HW2 4642   3.153   3.283   7.385 -0.3373  0.1903 -1.4256
 1373SOL     OW 4643   1.042   1.040   6.413  0.4517 -0.7136  0.6490
 1373SOL    HW1 4644   1.022   1.092   6.335  0.5360 -0.0288  1.0739
 1373SOL    HW2 4645   1.017   1.096   6.486  1.1242 -1.0227  1.1282
 1374SOL     OW 4646   3.367   5.266   5.604 -0.3414 -0.1273 -0.3115
 1374SOL    HW1 4647   3.325   5.252   5.689  0.0837 -0.6089 -0.1795
 1374SOL    HW2 4648   3.352   5.359   5.586 -3.1158 -0.6473 -1.1562
 1375SOL     OW 4649   0.363   3.176   5.337  0.0104  0.1752  0.2477
 1375SOL    HW1 4650   0.366   3.207   5.246  0.2305  0.2697  0.2865
 1375SOL    HW2 4651   0.381   3.082   5.330  1.0980  0.3650  0.2835
 1376SOL     OW 4652   1.314   0.966   1.801 -0.0847  0.1598 -0.3699
 1376SOL    HW1 4653   1.313   0.980   1.896 -0.4891 -0.2173 -0.3165
 1376SOL    HW2 4654   1.301   0.872   1.791 -0.2664  0.2322 -0.8097
 1377SOL     OW 4655   4.889   4.405   1.069  0.3165 -0.3057 -0.1445
 1377SOL    HW1 4656   4.801   4.382   1.100  0.6263 -0.0941  0.9340
 1377SOL    HW2 4657   4.894   4.500   1.079  1.2576 -0.4974  1.4534
 1378SOL     OW 4658   4.878   5.197   0.054 -0.1356 -0.2392 -0.0861
 1378SOL    HW1 4659   4.918   5.157  -0.024 -0.1157  1.6115 -1.0849
 1378SOL    HW2 4660   4.785   5.197   0.035 -0.0954  0.5727 -0.2846
 1379SOL     OW 4661   1.828   6.594   2.472  0.6545  0.2809 -0.1901
 1379SOL    HW1 4662   1.839   6.499   2.469 -0.9162  0.0736 -0.0888
 1379SOL    HW2 4663   1.818   6.615   2.565  0.7837  0.5212 -0.2291
 1380SOL     OW 4664   4.386   3.534   2.987 -0.2749 -0.1827 -0.3249
 1380SOL    HW1 4665   4.325   3.516   3.060  0.4416 -0.5403  0.1950
 1380SOL    HW2 4666   4.469   3.555   3.030 -0.5503  2.5415 -0.9458
 1381SOL     OW 4667   3.435   6.226   0.777 -0.2218 -0.1150  1.0431
 1381SOL    HW1 4668   3.506   6.169   0.748  0.1634 -0.2459  2.2173
 1381SOL    HW2 4669   3.420   6.285   0.703  1.7208  0.5044  1.0897
 1382SOL     OW 4670   0.440   5.169   6.950 -0.3346  0.0034 -0.0691
 1382SOL    HW1 4671   0.469   5.119   6.874 -0.3307  2.1164 -1.5375
 1382SOL    HW2 4672   0.377   5.232   6.915 -1.6262 -0.0490  1.9690
 1383SOL     OW 4673   0.181   0.492   0.213  0.2655  0.0923 -0.2335
 1383SOL    HW1 4674   0.102   0.512   0.163 -0.0549  0.0549  0.2540
 1383SOL    HW2 4675   0.228   0.575   0.217 -0.0124  0.2423 -0.0594
 1384SOL     OW 4676   0.301   5.988   1.030 -0.1098 -0.6275  0.2404
 1384SOL    HW1 4677   0.342   5.936   0.961 -2.3492 -1.0296 -0.8965
 1384SOL    HW2 4678   0.336   5.951   1.111  1.0832 -1.4882 -0.6256
 1385SOL     OW 4679   6.356   1.638   4.878  0.2921 -0.4675 -0.0713
 1385SOL    HW1 4680   6.278   1.628   4.933  0.4161 -0.4328  0.1114
 1385SOL    HW2 4681   6.423   1.587   4.922  0.6132  0.2110  0.2407
 1386SOL     OW 4682   6.223   7.475   3.099  0.5082  0.0697  0.0148
 1386SOL    HW1 4683   6.227   7.510   3.188  1.5718 -2.6300  1.1483
 1386SOL    HW2 4684   6.130   7.457   3.084  0.3166  0.5516  0.5816
 1387SOL     OW 4685   6.632   5.652   2.678 -0.4714 -0.0090 -0.1209
 1387SOL    HW1 4686   6.550   5.686   2.644 -0.1424  1.8580  0.8083
 1387SOL    HW2 4687   6.690   5.647   2.602 -1.0097  0.0067 -0.5337
 1388SOL     OW 4688   2.581   4.996   1.599 -0.0467  0.1344  0.3762
 1388SOL    HW1 4689   2.644   5.002   1.671 -0.2428 -1.5930  0.7434
 1388SOL    HW2 4690   2.600   4.911   1.558 -0.0579  0.9790 -1.5277
 1389SOL     OW 4691   0.938   3.140   6.667  1.4868 -0.1248 -1.0238
 1389SOL    HW1 4692   0.877   3.073   6.697 -0.4811  1.2852 -1.6982
 1389SOL    HW2 4693   0.918   3.152   6.574  1.5277  1.6323 -0.8506
 1390SOL     OW 4694   5.187   2.969   3.974  0.3510  0.2010 -0.0215
 1390SOL    HW1 4695   5.148   2.895   4.020  1.1497 -0.3626 -0.2255
 1390SOL    HW2 4696   5.276   2.941   3.954  0.3166  0.7974 -1.0838
 1391SOL     OW 4697   7.056   5.693   6.584  0.3152 -0.4898 -0.2278
 1391SOL    HW1 4698   7.025   5.625   6.525  1.6578  0.1150 -1.6968
 1391SOL    HW2 4699   6.983   5.756   6.588  0.1419 -0.6254 -1.1024
 1392SOL     OW 4700   2.677   6.943   1.608 -0.3611  0.1002  0.4216
 1392SOL    HW1 4701   2.658   6.850   1.592 -0.2336  0.4304 -1.8697
 1392SOL    HW2 4702   2.730   6.942   1.688 -1.0326 -1.7066  0.9121
 1393SOL     OW 4703   2.521   5.303   0.251  0.0615  0.0003 -0.0260
 1393SOL    HW1 4704   2.454   5.336   0.311 -0.5107 -0.6239 -0.3062
 1393SOL    HW2 4705   2.471   5.275   0.173  0.6098 -0.7560 -0.1173
 1394SOL     OW 4706   6.521   1.117   0.542  0.3571  0.1663 -0.1865
 1394SOL    HW1 4707   6.564   1.043   0.498  1.4310  0.0703  0.9808
 1394SOL    HW2 4708   6.592   1.180   0.557  0.4917 -0.5885  3.0805
 1395SOL     OW 4709   4.477   4.904   6.722 -0.1157 -0.2975 -0.3862
 1395SOL    HW1 4710   4.519   4.867   6.645  0.1656 -1.5979  0.3711
 1395SOL    HW2 4711   4.385   4.879   6.714  0.3365 -2.6737  0.9195
 1396SOL     OW 4712   6.184   3.253   0.402 -0.4941  0.1614 -0.0239
 1396SOL    HW1 4713   6.101   3.270   0.358 -0.5231 -0.6340 -0.2879
 1396SOL    HW2 4714   6.163   3.261   0.495 -0.3636  2.1577 -0.1222
 1397SOL     OW 4715   3.278   0.731   4.361  0.1084 -0.4351 -0.4121
 1397SOL    HW1 4716   3.277   0.825   4.382 -0.0347 -0.3523 -0.7753
 1397SOL    HW2 4717   3.371   0.708   4.359  0.1077 -0.9086  2.2707
 1398SOL     OW 4718   4.371   2.021   4.345  0.0762  0.2827  0.2483
 1398SOL    HW1 4719   4.312   1.990   4.276  0.6000  2.3035 -1.2228
 1398SOL    HW2 4720   4.330   1.992   4.427 -1.2613 -1.0771 -0.8425
 1399SOL     OW 4721   0.926   4.758   2.523 -0.0053 -0.4562 -0.0480
 1399SOL    HW1 4722   0.864   4.822   2.487 -0.8179 -1.4285 -0.4098
 1399SOL    HW2 4723   0.878   4.676   2.523  1.6261 -1.4727 -1.3719
 1400SOL     OW 4724   3.757   5.383   6.631 -0.4326 -0.0454 -0.4557
 1400SOL    HW1 4725   3.709   5.462   6.655 -1.3322 -0.1922 -1.6740
 1400SOL    HW2 4726   3.842   5.415   6.601 -0.8615  0.4820 -1.1211
 1401SOL     OW 4727   0.164   2.834   6.200  0.0549  0.2790 -0.5884
 1401SOL    HW1 4728   0.147   2.777   6.125  1.0613 -0.6257 -0.1513
 1401SOL    HW2 4729   0.258   2.828   6.215 -0.2674 -0.6326  1.5509
 1402SOL     OW 4730   3.352   0.679   1.268  0.0649 -0.0885  0.0273
 1402SOL    HW1 4731   3.371   0.721   1.352 -0.2975  1.7373 -0.7561
 1402SOL    HW2 4732   3.435   0.638   1.242  0.2720 -0.3712  1.0841
 1403SOL     OW 4733   3.455   4.989   1.321 -0.6848  0.1815 -0.1752
 1403SOL    HW1 4734   3.425   4.974   1.411  0.7987  0.3180  0.3888
 1403SOL    HW2 4735   3.475   4.901   1.288 -1.5359  0.1022 -0.5049
 1404SOL     OW 4736   3.953   6.939   0.085 -0.1147  0.5452 -0.1334
 1404SOL    HW1 4737   4.040   6.910   0.112 -0.1469  0.6985  0.1393
 1404SOL    HW2 4738   3.961   6.956  -0.009 -0.4877 -1.9023 -0.6742
 1405SOL     OW 4739   6.567   4.804   3.613 -0.0430 -0.3623 -0.1382
 1405SOL    HW1 4740   6.661   4.784   3.612  0.0319 -0.1313  0.8803
 1405SOL    HW2 4741   6.533   4.761   3.535  1.0690  0.3608 -1.0667
 1406SOL     OW 4742   6.598   3.617   6.645 -0.1079 -0.0254 -0.3149
 1406SOL    HW1 4743   6.609   3.522   6.654 -0.1763 -0.0793 -0.7569
 1406SOL    HW2 4744   6.511   3.634   6.682  0.7644  0.1873  1.7684
 1407SOL     OW 4745   4.848   6.073   1.859  0.0027  0.1008 -0.2913
 1407SOL    HW1 4746   4.835   6.142   1.924 -0.8903 -0.0302 -0.3298
 1407SOL    HW2 4747   4.783   6.091   1.791  1.2278  0.5341 -1.4262
 1408SOL     OW 4748   3.913   6.782   3.316  0.0342 -0.6810 -0.1965
 1408SOL    HW1 4749   3.864   6.814   3.391  0.9523 -3.3903  1.7545
 1408SOL    HW2 4750   3.849   6.735   3.264 -0.3101 -0.2158 -0.1929
 1409SOL     OW 4751   4.392   5.376   5.891 -0.3277 -0.3998 -0.0435
 1409SOL    HW1 4752   4.344   5.385   5.974 -0.0547  1.7918 -0.0676
 1409SOL    HW2 4753   4.475   5.337   5.916 -0.2995  0.1153  0.7095
 1410SOL     OW 4754   7.061   6.148   3.718 -0.6395 -0.0751  0.1779
 1410SOL    HW1 4755   7.105   6.187   3.793 -2.4967 -0.1456  1.3907
 1410SOL    HW2 4756   7.131   6.122   3.659  0.9224 -0.3135  2.0386
 1411SOL     OW 4757   6.845   4.486   4.763 -0.0113  0.2596  0.1602
 1411SOL    HW1 4758   6.776   4.420   4.756  0.6391 -0.6269  1.6378
 1411SOL    HW2 4759   6.799   4.570   4.754 -1.3332 -0.3070  1.2111
 1412SOL     OW 4760   1.983   0.011   5.333  0.2825 -0.0345  0.0330
 1412SOL    HW1 4761   1.954   0.053   5.253  0.7422 -1.9134 -1.1831
 1412SOL    HW2 4762   2.071  -0.022   5.313  1.0499  0.7978  1.8305
 1413SOL     OW 4763   3.479   7.407   4.929 -0.3701 -0.1785  0.4021
 1413SOL    HW1 4764   3.555   7.383   4.982 -1.8528  2.1708  3.9725
 1413SOL    HW2 4765   3.408   7.353   4.963 -1.1150  0.4312 -0.1458
 1414SOL     OW 4766   1.319   6.417   2.412 -0.2645 -0.2852  0.6705
 1414SOL    HW1 4767   1.366   6.491   2.449 -1.3706  1.3620 -1.0549
 1414SOL    HW2 4768   1.364   6.340   2.448  1.8423  1.1843  1.3898
 1415SOL     OW 4769   1.984   2.322   4.019 -0.7292 -0.2130 -0.4653
 1415SOL    HW1 4770   1.908   2.372   3.989 -0.7419 -0.0261 -0.1261
 1415SOL    HW2 4771   1.950   2.234   4.036 -0.9924  0.0123  0.2154
 1416SOL     OW 4772   0.906   3.564   3.611  0.1457  0.2321 -0.0887
 1416SOL    HW1 4773   0.850   3.518   3.673 -0.2958 -1.5296 -1.6891
 1416SOL    HW2 4774   0.848   3.627   3.568 -0.6232 -1.3966 -1.5477
 1417SOL     OW 4775   2.777   2.767   6.607 -0.1699  0.2142  0.0316
 1417SOL    HW1 4776   2.814   2.788   6.693 -1.5110 -0.5851  0.8377
 1417SOL    HW2 4777   2.686   2.794   6.613 -0.4023 -0.2981 -0.9786
 1418SOL     OW 4778   1.686   7.324   6.259  0.0576  0.1130 -0.0549
 1418SOL    HW1 4779   1.621   7.285   6.317 -0.3595 -0.9536 -1.1979
 1418SOL    HW2 4780   1.672   7.418   6.266  1.7004  0.2450  3.5103
 1419SOL     OW 4781   2.694   0.514   0.682  0.1072 -0.2280  0.1848
 1419SOL    HW1 4782   2.660   0.508   0.593  0.3297 -1.5937  0.1733
 1419SOL    HW2 4783   2.690   0.607   0.703  0.2139  0.1411 -1.3163
 1420SOL     OW 4784   3.397   0.791   2.958  0.1198 -0.7569 -0.3690
 1420SOL    HW1 4785   3.350   0.754   2.883  1.2904 -0.1000 -1.4513
 1420SOL    HW2 4786   3.489   0.789   2.933  0.3991  1.0442  0.3446
 1421SOL     OW 4787   5.901   4.716   0.974  0.1591  0.5879  0.1877
 1421SOL    HW1 4788   5.846   4.668   1.035 -0.7476  1.4771  0.0914
 1421SOL    HW2 4789   5.949   4.648   0.927  0.9892 -0.1065  1.9593
 1422SOL     OW 4790   6.511   4.052   7.515 -0.6084  0.8549  0.2849
 1422SOL    HW1 4791   6.600   4.064   7.484 -0.5210 -1.8891 -0.8460
 1422SOL    HW2 4792   6.507   4.100   7.597  2.4488 -0.2585  1.2321
 1423SOL     OW 4793   4.031   0.298   7.305  0.1560 -0.2913 -0.3190
 1423SOL    HW1 4794   4.042   0.278   7.212 -0.9004 -0.6720 -0.3764
 1423SOL    HW2 4795   4.015   0.213   7.346 -0.8087  0.0362 -0.0066
 1424SOL     OW 4796   6.238   6.625   0.661  0.4096  0.2909 -0.6310
 1424SOL    HW1 4797   6.317   6.595   0.616  0.8633  1.6582 -0.7869
 1424SOL    HW2 4798   6.268   6.651   0.748  0.2587  1.4133 -0.9038
 1425SOL     OW 4799   3.579   6.540   5.525  0.1806  0.3321  0.0103
 1425SOL    HW1 4800   3.650   6.572   5.470 -0.6901  1.5146 -0.4688
 1425SOL    HW2 4801   3.503   6.590   5.498 -0.6834 -0.3713  1.0333
 1426SOL     OW 4802   2.639   1.082   0.761 -0.1288  0.0837  0.4426
 1426SOL    HW1 4803   2.690   1.050   0.835 -1.0135 -0.2837  0.9060
 1426SOL    HW2 4804   2.675   1.035   0.685 -0.4025 -0.8705  0.8967
 1427SOL     OW 4805   0.673   4.228   2.156 -0.4536  0.7410  0.1415
 1427SOL    HW1 4806   0.641   4.140   2.136  1.8613 -0.3187  0.7273
 1427SOL    HW2 4807   0.595   4.283   2.153 -1.9263 -1.2478 -0.6191
 1428SOL     OW 4808   6.704   4.750   3.283  0.5096 -0.0808 -0.5536
 1428SOL    HW1 4809   6.716   4.844   3.299  0.6535 -0.0865 -0.6274
 1428SOL    HW2 4810   6.776   4.726   3.224  0.3154 -0.1819 -0.7492
 1429SOL     OW 4811   4.304   3.004   0.150 -0.2386  0.3386  0.4873
 1429SOL    HW1 4812   4.382   3.007   0.206 -0.7050  1.3374  1.1281
 1429SOL    HW2 4813   4.295   3.094   0.119 -1.0603  0.2015  0.3199
 1430SOL     OW 4814   0.898   2.859   1.583 -0.2275 -0.4092  0.0456
 1430SOL    HW1 4815   0.817   2.905   1.560  0.3305  0.8216  0.4205
 1430SOL    HW2 4816   0.956   2.874   1.508  0.0364 -0.2856  0.2701
 1431SOL     OW 4817   1.849   6.192   5.129 -0.1859  0.0872 -0.3452
 1431SOL    HW1 4818   1.847   6.253   5.055 -1.5055  1.6472  0.8960
 1431SOL    HW2 4819   1.848   6.249   5.206 -3.4551 -1.4448  0.9072
 1432SOL     OW 4820   5.001   0.190   3.668  0.5645  0.0092  0.1795
 1432SOL    HW1 4821   5.043   0.114   3.628  0.9264 -0.0164  0.5973
 1432SOL    HW2 4822   5.057   0.211   3.743 -1.1258 -1.1754  1.8835
 1433SOL     OW 4823   1.810   4.846   3.070 -0.1369  0.1187 -0.4077
 1433SOL    HW1 4824   1.803   4.873   2.978 -0.0713  1.1138 -0.1415
 1433SOL    HW2 4825   1.829   4.928   3.117 -3.4277  0.2827  0.9052
 1434SOL     OW 4826   1.808   3.496   3.731  0.1723  0.6223  0.1411
 1434SOL    HW1 4827   1.791   3.533   3.817  0.7972  2.3331 -0.4167
 1434SOL    HW2 4828   1.901   3.473   3.732  0.0088 -0.0431  0.1672
 1435SOL     OW 4829   6.811   0.816   3.586  0.0949 -0.0927  0.0062
 1435SOL    HW1 4830   6.814   0.836   3.679 -0.4753 -0.9517  0.2219
 1435SOL    HW2 4831   6.788   0.723   3.582 -1.4447  0.3000 -1.0168
 1436SOL     OW 4832   1.036   4.219   5.265 -0.1075 -0.0504  0.6238
 1436SOL    HW1 4833   0.998   4.254   5.184  2.7997  0.4148 -0.6790
 1436SOL    HW2 4834   0.987   4.139   5.282 -1.5100  0.3961 -0.9836
 1437SOL     OW 4835   2.935   3.769   1.263  0.2103  0.0120 -0.1217
 1437SOL    HW1 4836   2.989   3.823   1.205 -1.5652  1.6598 -0.3939
 1437SOL    HW2 4837   2.997   3.714   1.311  2.1182  1.8794 -0.2860
 1438SOL     OW 4838   7.407   1.929   2.243  0.2069  0.3347  0.7671
 1438SOL    HW1 4839   7.322   1.898   2.275 -0.3406  0.9860 -0.0174
 1438SOL    HW2 4840   7.426   1.873   2.168  0.8776 -0.3408  1.4128
 1439SOL     OW 4841   0.530   6.979   4.765 -0.0516 -0.0479  0.0467
 1439SOL    HW1 4842   0.615   6.939   4.748 -0.2579  0.3206 -2.0980
 1439SOL    HW2 4843   0.467   6.908   4.758 -0.1824  0.1842 -1.3326
 1440SOL     OW 4844   6.995   7.390   1.616  0.0814  0.3654  0.3686
 1440SOL    HW1 4845   7.069   7.418   1.563  0.1063 -1.4502 -0.6176
 1440SOL    HW2 4846   7.034   7.340   1.687 -0.0560  1.6100  1.3592
 1441SOL     OW 4847   3.088   4.356   1.485  0.0308 -0.3961  0.5200
 1441SOL    HW1 4848   3.053   4.400   1.408  1.7742 -0.2624 -0.2389
 1441SOL    HW2 4849   3.134   4.279   1.450 -1.2489 -1.7496  1.6481
 1442SOL     OW 4850   5.794   5.484   3.478 -0.5724 -0.4912  0.7513
 1442SOL    HW1 4851   5.889   5.474   3.475 -0.7072 -2.6148  1.9950
 1442SOL    HW2 4852   5.780   5.579   3.473  1.5243 -0.1785 -0.5630
 1443SOL     OW 4853   6.212   5.971   4.083  0.0368 -1.0522 -0.3364
 1443SOL    HW1 4854   6.165   6.046   4.046  2.7544  1.7666  1.4185
 1443SOL    HW2 4855   6.149   5.930   4.141 -1.0768  0.9860  0.0019
 1444SOL     OW 4856   0.437   6.819   7.269  0.4998  0.3165 -0.3768
 1444SOL    HW1 4857   0.412   6.802   7.360  1.7020 -3.8971 -0.6078
 1444SOL    HW2 4858   0.533   6.817   7.270  0.5249 -0.3127 -1.7807
 1445SOL     OW 4859   2.399   7.378   0.018 -0.0153  0.0378  0.6340
 1445SOL    HW1 4860   2.441   7.297   0.048 -0.8139 -0.2929  0.8800
 1445SOL    HW2 4861   2.316   7.350  -0.021  1.0804  0.4153 -2.2307
 1446SOL     OW 4862   2.024   1.395   1.373 -0.4909 -0.1697 -0.2568
 1446SOL    HW1 4863   1.978   1.327   1.324  1.3395 -1.1191 -0.7419
 1446SOL    HW2 4864   2.017   1.367   1.465  1.7258 -2.0728 -0.5689
 1447SOL     OW 4865   0.098   0.721   7.256 -0.3956 -0.5711  0.2626
 1447SOL    HW1 4866   0.055   0.781   7.195  0.1360  1.8391  2.1013
 1447SOL    HW2 4867   0.045   0.726   7.336 -0.5167 -2.8890  0.4001
 1448SOL     OW 4868   4.645   0.862   0.051  0.2289 -0.0835 -0.1279
 1448SOL    HW1 4869   4.681   0.778   0.081 -1.1866  0.3179  3.0585
 1448SOL    HW2 4870   4.721   0.914   0.028  1.2550 -1.5341 -0.1459
 1449SOL     OW 4871   4.329   3.108   3.919 -0.4994  0.4760  0.5382
 1449SOL    HW1 4872   4.362   3.125   4.007 -2.9002  3.8096  1.0022
 1449SOL    HW2 4873   4.376   3.169   3.863 -2.3627  1.8894  0.4302
 1450SOL     OW 4874   3.713   1.532   5.056 -0.1243 -0.1783 -0.1122
 1450SOL    HW1 4875   3.804   1.556   5.040 -0.2239 -0.7464 -1.6173
 1450SOL    HW2 4876   3.704   1.540   5.151  1.7576 -1.0297  0.1905
 1451SOL     OW 4877   1.461   4.769   5.954  0.3333  0.0726 -0.5405
 1451SOL    HW1 4878   1.484   4.681   5.984 -1.5285  0.3044  1.9157
 1451SOL    HW2 4879   1.526   4.826   5.995  1.9318 -0.1298 -2.6502
 1452SOL     OW 4880   5.932   1.597   2.853 -0.3575 -0.3431  0.8262
 1452SOL    HW1 4881   5.903   1.655   2.923 -1.9035  0.0062 -0.0546
 1452SOL    HW2 4882   5.963   1.655   2.784 -1.2076 -0.5800  0.2341
 1453SOL     OW 4883   6.943   6.138   1.837 -0.3523  0.4290  0.1585
 1453SOL    HW1 4884   7.029   6.097   1.846 -0.3656 -0.3619 -2.5333
 1453SOL    HW2 4885   6.921   6.166   1.926  2.0228 -0.6408  1.1802
 1454SOL     OW 4886   0.150   2.974   5.035  0.1845  0.1913  0.5847
 1454SOL    HW1 4887   0.212   3.015   4.974  0.6157  0.1513  0.9858
 1454SOL    HW2 4888   0.182   2.885   5.046 -0.0791  0.0994  0.6133
 1455SOL     OW 4889   1.225   1.494   5.812 -0.1590 -0.0613 -0.3474
 1455SOL    HW1 4890   1.259   1.580   5.835 -2.3842  0.2732  2.1333
 1455SOL    HW2 4891   1.134   1.496   5.840 -1.3021 -2.0866 -3.4089
 1456SOL     OW 4892   0.081   7.164   0.404 -0.6691  0.2119  0.1348
 1456SOL    HW1 4893   0.089   7.112   0.484 -0.3018  0.8182  0.4996
 1456SOL    HW2 4894   0.036   7.244   0.432 -0.1130  0.6338 -0.1612
 1457SOL     OW 4895   3.093   4.207   5.766 -0.1125 -0.2789 -0.4960
 1457SOL    HW1 4896   3.148   4.284   5.780  0.2238 -0.2850 -1.6336
 1457SOL    HW2 4897   3.154   4.138   5.742 -0.4548 -0.7976  0.0928
 1458SOL     OW 4898   6.527   5.394   0.411  0.2430  0.4695 -0.6129
 1458SOL    HW1 4899   6.581   5.318   0.431  0.0324 -0.0512 -1.9297
 1458SOL    HW2 4900   6.582   5.451   0.358  0.4765  1.3786  0.5472
 1459SOL     OW 4901   4.784   2.123   0.142 -0.3359 -0.2534 -0.2573
 1459SOL    HW1 4902   4.789   2.103   0.236  1.0152 -0.4441 -0.3555
 1459SOL    HW2 4903   4.756   2.041   0.101 -1.3168 -0.0615  0.0065
 1460SOL     OW 4904   0.198   0.992   5.137 -0.4477 -0.3054  0.2508
 1460SOL    HW1 4905   0.216   0.927   5.070  0.2137  0.6717 -0.5425
 1460SOL    HW2 4906   0.103   1.002   5.135 -0.3565  0.6028 -1.4390
 1461SOL     OW 4907   6.816   3.163   0.634 -0.2601 -0.7642 -0.6475
 1461SOL    HW1 4908   6.789   3.136   0.547 -0.0803 -1.2270 -0.5618
 1461SOL    HW2 4909   6.900   3.119   0.649  0.6453  0.7828 -0.9684
 1462SOL     OW 4910   0.999   5.641   2.991 -0.2481 -0.1227 -0.0958
 1462SOL    HW1 4911   1.032   5.698   2.921  1.1369 -2.0092 -1.0823
 1462SOL    HW2 4912   1.077   5.617   3.041 -0.5370 -2.2170 -0.5609
 1463SOL     OW 4913   0.847   5.539   3.202  0.2960 -0.0757  0.0926
 1463SOL    HW1 4914   0.878   5.575   3.119  0.7531 -0.2022  0.2050
 1463SOL    HW2 4915   0.911   5.569   3.266 -2.0525  3.3460  1.1442
 1464SOL     OW 4916   7.268   1.693   7.509 -0.3935 -0.1062  0.2695
 1464SOL    HW1 4917   7.198   1.684   7.444  2.2200 -0.9892 -2.6620
 1464SOL    HW2 4918   7.296   1.784   7.503  1.3659 -0.6954 -1.7178
 1465SOL     OW 4919   4.652   0.299   2.256  0.4937 -0.1413  0.2106
 1465SOL    HW1 4920   4.712   0.344   2.316  0.8276 -1.4949  0.9292
 1465SOL    HW2 4921   4.674   0.333   2.169  2.7207 -1.0120  0.3762
 1466SOL     OW 4922   1.252   7.534   1.357 -0.4540 -0.0636 -0.4767
 1466SOL    HW1 4923   1.281   7.564   1.443  2.6070 -2.6537 -0.4087
 1466SOL    HW2 4924   1.161   7.564   1.350  0.2400  3.1578  2.1502
 1467SOL     OW 4925   6.510   1.876   4.562 -0.3003 -0.2501 -0.0646
 1467SOL    HW1 4926   6.571   1.863   4.635 -0.6014  0.2801  0.2840
 1467SOL    HW2 4927   6.537   1.958   4.522 -1.2291  0.3674  0.5420
 1468SOL     OW 4928   1.601   7.120   1.962 -0.2219 -0.2164 -0.2990
 1468SOL    HW1 4929   1.545   7.046   1.938 -0.3614 -0.0910 -0.3607
 1468SOL    HW2 4930   1.687   7.098   1.926 -0.5567  0.2348 -1.4254
 1469SOL     OW 4931   1.009   2.820   5.969  0.1896 -0.3184 -0.1075
 1469SOL    HW1 4932   0.946   2.764   6.016  0.4041 -0.0292  0.5292
 1469SOL    HW2 4933   0.980   2.816   5.878  0.5327 -1.9285 -0.1760
 1470SOL     OW 4934   1.064   6.351   2.448 -0.4422 -0.2434 -0.2411
 1470SOL    HW1 4935   1.138   6.409   2.431 -0.5230 -0.1942 -0.4220
 1470SOL    HW2 4936   1.103   6.264   2.458 -0.0780  0.1162  1.9821
 1471SOL     OW 4937   2.619   6.448   6.083  0.2263  0.3356  0.2149
 1471SOL    HW1 4938   2.654   6.524   6.035  0.3654  1.1546  1.5753
 1471SOL    HW2 4939   2.696   6.395   6.102  0.2412  0.2847  0.0188
 1472SOL     OW 4940   2.306   1.084   2.972 -0.1300 -0.4271  0.5970
 1472SOL    HW1 4941   2.291   1.079   2.877  1.8020 -1.0267  0.2825
 1472SOL    HW2 4942   2.400   1.076   2.982 -0.3578 -1.1236  2.6504
 1473SOL     OW 4943   7.000   1.962   1.777  0.0287 -0.3007  0.9511
 1473SOL    HW1 4944   6.906   1.975   1.794  0.2436  2.3258  0.6380
 1473SOL    HW2 4945   7.043   2.020   1.840  1.3851 -0.3528  0.0998
 1474SOL     OW 4946   0.721   7.410   0.828 -0.4999 -0.1151 -0.2191
 1474SOL    HW1 4947   0.669   7.345   0.875 -1.7453 -0.5658 -2.1170
 1474SOL    HW2 4948   0.780   7.358   0.773 -0.0751  0.3833 -0.2427
 1475SOL     OW 4949   2.484   4.830   3.673  0.3962  0.8704 -0.1835
 1475SOL    HW1 4950   2.541   4.885   3.728 -0.6503  0.7859  1.0446
 1475SOL    HW2 4951   2.453   4.890   3.605  3.1749  0.5337 -1.9128
 1476SOL     OW 4952   5.197   7.537   5.960 -0.0402 -0.6649  0.3893
 1476SOL    HW1 4953   5.218   7.583   6.041 -0.6321 -1.3024  0.9122
 1476SOL    HW2 4954   5.281   7.532   5.914  0.2895 -0.2309  0.9230
 1477SOL     OW 4955   7.402   7.361   5.672  0.3870  0.0565  0.0948
 1477SOL    HW1 4956   7.429   7.295   5.609 -0.0959 -0.3037  0.2574
 1477SOL    HW2 4957   7.439   7.443   5.639  0.1310 -0.1264 -0.6558
 1478SOL     OW 4958   1.009   4.396   1.352 -0.2749  0.4399  0.0597
 1478SOL    HW1 4959   0.989   4.370   1.442 -2.2938  0.2574 -0.4064
 1478SOL    HW2 4960   0.967   4.481   1.341 -0.8807  0.0178 -1.0011
 1479SOL     OW 4961   1.730   4.161   4.361  0.0297  0.2729 -0.2120
 1479SOL    HW1 4962   1.738   4.249   4.398  3.1439  1.3522 -2.8992
 1479SOL    HW2 4963   1.651   4.164   4.308 -1.6857  0.2928  2.1949
 1480SOL     OW 4964   1.821   6.624   6.182  0.2794  0.0551  0.1031
 1480SOL    HW1 4965   1.736   6.581   6.192 -0.6322  1.5298 -0.8727
 1480SOL    HW2 4966   1.799   6.714   6.160  2.1101  1.2081  2.5992
 1481SOL     OW 4967   5.902   1.871   1.481 -0.5214 -0.2861 -0.4214
 1481SOL    HW1 4968   5.946   1.907   1.405 -1.3996 -1.4250 -1.5044
 1481SOL    HW2 4969   5.972   1.853   1.544  0.1692  0.9785 -0.8014
 1482SOL     OW 4970   2.630   3.868   5.873  0.3802 -0.1212 -0.4801
 1482SOL    HW1 4971   2.670   3.862   5.960  0.4641  2.6697 -0.2184
 1482SOL    HW2 4972   2.701   3.845   5.813  1.1138  0.4168  0.1398
 1483SOL     OW 4973   4.657   4.430   0.689 -0.5789  0.1086 -0.1261
 1483SOL    HW1 4974   4.688   4.499   0.747 -1.4867  0.1735  0.3049
 1483SOL    HW2 4975   4.591   4.474   0.634  1.2698  0.4080 -2.2227
 1484SOL     OW 4976   6.866   6.447   0.429 -0.6123 -0.2140 -0.7242
 1484SOL    HW1 4977   6.830   6.367   0.467  0.6305 -0.5542 -0.2255
 1484SOL    HW2 4978   6.823   6.454   0.344 -1.4547 -0.8837 -0.3665
 1485SOL     OW 4979   7.239   6.435   4.138  0.2455  0.8405 -0.3682
 1485SOL    HW1 4980   7.161   6.456   4.189  0.2153 -0.1220  0.0040
 1485SOL    HW2 4981   7.285   6.369   4.190  0.4217  0.1333 -1.3899
 1486SOL     OW 4982   3.636   1.873   0.058 -0.2968 -0.0595 -0.0340
 1486SOL    HW1 4983   3.609   1.817   0.131  1.0701  1.2544  1.5936
 1486SOL    HW2 4984   3.664   1.812  -0.010  0.2428 -1.3718  1.2961
 1487SOL     OW 4985   1.063   1.676   4.027 -0.9583 -0.3654 -0.1188
 1487SOL    HW1 4986   1.113   1.711   3.953  0.0860 -0.1650  0.6514
 1487SOL    HW2 4987   1.103   1.591   4.045 -0.3669  0.1232  0.9862
 1488SOL     OW 4988   5.928   5.089   0.157  0.3666 -0.6055  0.4013
 1488SOL    HW1 4989   5.941   5.130   0.243  0.5649 -2.5451  1.3798
 1488SOL    HW2 4990   5.840   5.115   0.131  0.9264  1.3684  0.3757
 1489SOL     OW 4991   2.441   6.871   4.089 -0.2490  0.0571 -0.0727
 1489SOL    HW1 4992   2.532   6.896   4.105 -0.5024  0.4630  0.8079
 1489SOL    HW2 4993   2.422   6.806   4.157 -0.8696  0.6228  0.3157
 1490SOL     OW 4994   4.871   1.710   0.570 -0.1429 -0.3622 -0.3426
 1490SOL    HW1 4995   4.959   1.742   0.548  0.5701 -1.3419  0.9352
 1490SOL    HW2 4996   4.876   1.689   0.663 -1.9118  0.0629 -0.1228
 1491SOL     OW 4997   6.785   7.002   2.505 -0.1113 -0.1489 -0.0985
 1491SOL    HW1 4998   6.729   7.079   2.512 -1.3616 -1.0466  0.0945
 1491SOL    HW2 4999   6.848   7.024   2.436 -1.5217  0.4143 -1.2450
 1492SOL     OW 5000   0.624   5.264   7.133  0.7071  0.2004  0.6986
 1492SOL    HW1 5001   0.566   5.313   7.191  0.3908 -1.3827  1.7865
 1492SOL    HW2 5002   0.567   5.232   7.063  0.8645  1.1121  0.1337
 1493SOL     OW 5003   2.305   6.347   3.860 -0.3730  0.2433 -0.3296
 1493SOL    HW1 5004   2.237   6.296   3.817  1.5429 -0.5195 -2.7047
 1493SOL    HW2 5005   2.373   6.283   3.882 -0.0529  1.0777  1.2255
 1494SOL     OW 5006   6.967   0.354   6.727  0.3152  0.4170  0.3015
 1494SOL    HW1 5007   6.950   0.372   6.820 -0.4430  1.8494 -0.0812
 1494SOL    HW2 5008   6.923   0.425   6.681  0.6025 -0.3301 -1.1728
 1495SOL     OW 5009   7.127   5.108   3.683 -0.3488 -0.3157  0.3820
 1495SOL    HW1 5010   7.076   5.178   3.723  1.0278  1.2717 -0.5205
 1495SOL    HW2 5011   7.133   5.040   3.751 -2.2712  0.1334  1.0347
 1496SOL     OW 5012   5.081   1.546   6.243  0.0872 -0.1571  0.3761
 1496SOL    HW1 5013   5.017   1.476   6.257 -0.9130  0.6758  0.0749
 1496SOL    HW2 5014   5.033   1.612   6.193  0.9212  0.8800  0.9235
 1497SOL     OW 5015   6.515   1.736   4.347  0.6052 -0.2292 -0.0654
 1497SOL    HW1 5016   6.511   1.780   4.431  0.2394  0.1681 -0.2828
 1497SOL    HW2 5017   6.574   1.790   4.294 -0.4144  0.4325 -0.5655
 1498SOL     OW 5018   7.016   1.271   3.958 -0.0747  0.1237 -0.7923
 1498SOL    HW1 5019   7.041   1.203   4.020  1.1637 -0.9457 -2.3678
 1498SOL    HW2 5020   7.050   1.240   3.874  2.5485  3.6959 -1.2528
 1499SOL     OW 5021   5.220   3.677   0.996  0.1117 -0.0272  0.0309
 1499SOL    HW1 5022   5.220   3.771   0.975  1.0141 -0.0942 -0.3065
 1499SOL    HW2 5023   5.287   3.668   1.063 -0.2834 -0.3699  0.3846
 1500SOL     OW 5024   4.990   2.117   2.681 -0.1842  0.3037 -0.0932
 1500SOL    HW1 5025   4.983   2.190   2.620  1.0899  1.2291  0.8076
 1500SOL    HW2 5026   4.907   2.117   2.729 -0.3193  0.9638 -0.3251
 1501SOL     OW 5027   7.203   4.022   1.904  0.0357 -0.6089  0.1633
 1501SOL    HW1 5028   7.294   4.031   1.877 -0.1490 -1.6718 -0.8597
 1501SOL    HW2 5029   7.208   4.003   1.998  0.8014  0.3496  0.3385
 1502SOL     OW 5030   5.686   2.029   3.878 -0.3875 -0.1780  0.4318
 1502SOL    HW1 5031   5.772   2.019   3.837 -1.5880  0.8351 -2.6291
 1502SOL    HW2 5032   5.664   1.941   3.910  0.7086 -1.0326 -1.0469
 1503SOL     OW 5033   6.815   6.366   4.102  0.2890  0.4427 -0.1594
 1503SOL    HW1 5034   6.847   6.405   4.021  0.3005 -2.7861 -1.8401
 1503SOL    HW2 5035   6.795   6.275   4.080 -1.5571 -0.0941  3.0039
 1504SOL     OW 5036   5.637   6.830   2.299  1.0547  0.7445 -0.3399
 1504SOL    HW1 5037   5.610   6.914   2.336 -0.3385  0.7390 -1.2745
 1504SOL    HW2 5038   5.644   6.847   2.205 -0.6868 -0.5109 -0.7333
 1505SOL     OW 5039   6.998   5.366   6.850 -0.3214 -0.5945  0.1939
 1505SOL    HW1 5040   6.998   5.461   6.838  0.0383 -0.4992  0.8611
 1505SOL    HW2 5041   7.066   5.350   6.916 -2.0161 -1.0630  1.9407
 1506SOL     OW 5042   4.690   3.102   7.387 -0.5461 -0.3605  0.2051
 1506SOL    HW1 5043   4.769   3.151   7.363 -1.1030  1.6592  2.2051
 1506SOL    HW2 5044   4.629   3.119   7.315  0.0427  0.0384 -0.2106
 1507SOL     OW 5045   6.287   4.918   1.325 -0.8233  0.1092  0.1734
 1507SOL    HW1 5046   6.287   4.899   1.231 -0.2691  1.5819 -0.1442
 1507SOL    HW2 5047   6.227   4.853   1.362  0.9357 -2.2451 -0.7930
 1508SOL     OW 5048   5.325   7.039   4.669 -0.2319  0.3284 -0.2268
 1508SOL    HW1 5049   5.247   7.071   4.713  0.2504  0.4546  0.5531
 1508SOL    HW2 5050   5.390   7.028   4.739 -0.2728 -2.0736 -0.4726
 1509SOL     OW 5051   5.695   0.310   6.846  0.4291 -0.2102 -0.0769
 1509SOL    HW1 5052   5.702   0.284   6.938 -0.2805  0.5159  0.1935
 1509SOL    HW2 5053   5.765   0.261   6.802  1.1110 -0.1809  0.9336
 1510SOL     OW 5054   5.346   0.546   2.348  0.0861  0.0939 -0.1406
 1510SOL    HW1 5055   5.426   0.552   2.296  0.8268  0.0437  0.9527
 1510SOL    HW2 5056   5.340   0.454   2.372 -1.6174 -0.4036 -2.1612
 1511SOL     OW 5057   3.149   6.839   3.067  0.4025 -0.3804 -0.2662
 1511SOL    HW1 5058   3.182   6.922   3.101  0.3985 -0.8236  0.8706
 1511SOL    HW2 5059   3.132   6.786   3.145  2.9167 -2.4250 -0.9501
 1512SOL     OW 5060   7.458   0.280   7.270 -0.1209  0.2011  0.4420
 1512SOL    HW1 5061   7.408   0.273   7.352  1.0822 -0.7467  1.1316
 1512SOL    HW2 5062   7.434   0.365   7.234 -3.2336 -0.7333  0.0508
 1513SOL     OW 5063   2.200   3.642   4.518 -0.1701 -0.1743 -0.2896
 1513SOL    HW1 5064   2.288   3.606   4.531  0.2483  0.1391 -2.0198
 1513SOL    HW2 5065   2.215   3.723   4.469 -1.3504  0.5789  0.5262
 1514SOL     OW 5066   6.350   3.474   4.699  0.5061  0.6771 -0.1903
 1514SOL    HW1 5067   6.277   3.527   4.733 -0.1295  0.0272 -0.5179
 1514SOL    HW2 5068   6.325   3.384   4.719  0.7959  0.3862 -1.1163
 1515SOL     OW 5069   1.931   6.314   3.832 -0.3704 -0.5767  0.4695
 1515SOL    HW1 5070   1.889   6.331   3.748 -0.6849 -1.4219  0.4466
 1515SOL    HW2 5071   1.891   6.377   3.892 -0.3142 -0.1281  0.0393
 1516SOL     OW 5072   6.508   1.633   3.217  0.0742 -0.0304  0.3545
 1516SOL    HW1 5073   6.441   1.593   3.272 -0.3324  0.0899 -0.0487
 1516SOL    HW2 5074   6.579   1.569   3.216 -1.1515 -1.4738 -1.4912
 1517SOL     OW 5075   0.781   6.146   0.371 -0.5722 -0.3438  0.3006
 1517SOL    HW1 5076   0.699   6.142   0.420 -2.7448 -3.9342 -3.0428
 1517SOL    HW2 5077   0.758   6.190   0.290  1.0641 -0.5746 -0.3251
 1518SOL     OW 5078   0.487   6.293   6.149 -0.1849 -0.5349 -0.0819
 1518SOL    HW1 5079   0.453   6.381   6.164 -0.3480 -0.3938 -1.1712
 1518SOL    HW2 5080   0.442   6.238   6.213 -1.1965 -0.0662 -0.3769
 1519SOL     OW 5081   3.336   3.776   0.350 -0.1312 -0.1974 -0.0823
 1519SOL    HW1 5082   3.348   3.708   0.416 -3.8252  0.3452  1.4178
 1519SOL    HW2 5083   3.292   3.731   0.277  2.2026 -0.3873 -1.4752
 1520SOL     OW 5084   6.631   2.430   1.321  0.4207 -0.0377  0.3633
 1520SOL    HW1 5085   6.722   2.436   1.291  0.3698 -0.3223  0.1526
 1520SOL    HW2 5086   6.610   2.519   1.350  0.7254  0.0587  0.2938
 1521SOL     OW 5087   6.832   7.261   4.795 -0.1654 -0.0670 -0.3582
 1521SOL    HW1 5088   6.869   7.215   4.719  1.3907 -3.5434  2.2480
 1521SOL    HW2 5089   6.909   7.287   4.846 -1.1907 -0.2116  1.3076
 1522SOL     OW 5090   1.943   5.125   6.806 -0.4231 -0.2547 -0.0597
 1522SOL    HW1 5091   1.861   5.171   6.822 -0.2527 -0.1036  0.4212
 1522SOL    HW2 5092   2.010   5.181   6.846 -0.3029 -1.3212  1.3461
 1523SOL     OW 5093   7.003   0.178   1.214 -0.4372  0.1871 -0.2950
 1523SOL    HW1 5094   6.956   0.139   1.288  0.4674 -0.9307 -0.2741
 1523SOL    HW2 5095   6.996   0.273   1.228 -2.9913  0.0849 -0.5430
 1524SOL     OW 5096   7.201   7.513   1.489 -0.5507  0.0288  0.0878
 1524SOL    HW1 5097   7.228   7.593   1.534 -1.9915  0.2840  0.5628
 1524SOL    HW2 5098   7.220   7.530   1.397  1.2839 -0.0164  0.4166
 1525SOL     OW 5099   2.091   0.275   0.947 -0.3521  0.7192 -0.3149
 1525SOL    HW1 5100   2.025   0.261   1.016 -0.0346 -0.9170 -0.2957
 1525SOL    HW2 5101   2.129   0.360   0.967 -0.7094  0.5634  1.1719
 1526SOL     OW 5102   5.556   5.406   1.519  0.0374 -0.3416 -0.5672
 1526SOL    HW1 5103   5.615   5.467   1.564 -0.6956  0.4117 -0.6029
 1526SOL    HW2 5104   5.596   5.395   1.432  1.0282 -1.1789 -0.0295
 1527SOL     OW 5105   0.300   7.331   7.080  0.3751  0.3910  0.0940
 1527SOL    HW1 5106   0.231   7.397   7.090  1.5370  1.6897 -0.0555
 1527SOL    HW2 5107   0.363   7.354   7.148  2.5821  1.7776 -2.2486
 1528SOL     OW 5108   0.614   0.275   0.683 -0.6197  0.5293  0.0597
 1528SOL    HW1 5109   0.593   0.234   0.599  3.1124  0.4833 -1.0155
 1528SOL    HW2 5110   0.605   0.204   0.747  0.0614 -0.4675 -0.9085
 1529SOL     OW 5111   2.723   2.564   2.342 -0.1566  0.0728 -0.0772
 1529SOL    HW1 5112   2.660   2.498   2.311 -0.2220  0.5629 -1.0438
 1529SOL    HW2 5113   2.701   2.643   2.292  0.5674  0.5396  0.3268
 1530SOL     OW 5114   1.305   6.979   0.079 -0.6954 -0.1214 -0.5160
 1530SOL    HW1 5115   1.230   6.965   0.137 -0.2963 -2.0608 -0.3906
 1530SOL    HW2 5116   1.378   6.937   0.124 -0.1642 -0.8105 -1.9488
 1531SOL     OW 5117   6.486   0.945   3.811 -0.4649 -0.2517  0.1495
 1531SOL    HW1 5118   6.553   1.003   3.777  0.2060 -1.2654 -0.2859
 1531SOL    HW2 5119   6.444   0.907   3.734 -0.8028 -0.4616  0.4286
 1532SOL     OW 5120   4.154   3.806   3.824  0.6662  0.6569  0.2846
 1532SOL    HW1 5121   4.167   3.782   3.916 -0.5717  0.9456  0.5608
 1532SOL    HW2 5122   4.183   3.898   3.820 -0.4634  1.0516  0.7063
 1533SOL     OW 5123   1.732   2.532   2.157 -0.5298  0.0649  0.3399
 1533SOL    HW1 5124   1.773   2.612   2.125  0.0255 -0.1021  0.6253
 1533SOL    HW2 5125   1.741   2.536   2.252 -1.3341  0.1078  0.4227
 1534SOL     OW 5126   6.184   6.317   7.289 -0.0886  0.2829 -0.0894
 1534SOL    HW1 5127   6.223   6.378   7.226  1.9029 -0.1059  0.6952
 1534SOL    HW2 5128   6.174   6.368   7.369 -1.2018  0.3602 -0.2622
 1535SOL     OW 5129   0.162   5.335   7.416 -0.0466  0.6348  0.3822
 1535SOL    HW1 5130   0.198   5.334   7.505 -1.4334 -0.5299  0.9948
 1535SOL    HW2 5131   0.139   5.244   7.400 -0.3949  0.9439 -0.9339
 1536SOL     OW 5132   7.090   0.628   3.764 -0.3477 -0.3537 -0.1186
 1536SOL    HW1 5133   7.017   0.566   3.757 -0.3707 -0.6029  1.7133
 1536SOL    HW2 5134   7.150   0.587   3.826  0.9754  0.2306 -0.9755
 1537SOL     OW 5135   0.766   3.735   6.881  0.4510  0.4826  0.4012
 1537SOL    HW1 5136   0.723   3.813   6.918 -1.0354  0.7091 -1.6278
 1537SOL    HW2 5137   0.728   3.662   6.928 -1.1112  0.7851 -0.3312
 1538SOL     OW 5138   4.002   0.756   0.297 -0.6247 -0.1691  0.2254
 1538SOL    HW1 5139   4.044   0.671   0.312 -0.9305 -0.4956 -0.7386
 1538SOL    HW2 5140   3.910   0.741   0.318 -0.6760 -0.0761  0.0657
 1539SOL     OW 5141   0.302   6.091   6.523  0.1895  0.1257  0.0872
 1539SOL    HW1 5142   0.263   6.080   6.436  2.4536 -1.4129 -0.8026
 1539SOL    HW2 5143   0.360   6.167   6.514 -0.4326  0.6749  0.6091
 1540SOL     OW 5144   1.004   2.808   6.353 -0.2606 -0.1270  0.6695
 1540SOL    HW1 5145   0.938   2.873   6.329  0.5474  0.2935 -0.4636
 1540SOL    HW2 5146   0.955   2.725   6.358 -0.7300  0.0162 -1.0694
 1541SOL     OW 5147   5.469   6.224   2.883 -0.5417 -0.1611 -0.6147
 1541SOL    HW1 5148   5.518   6.306   2.872  1.1519 -1.3086 -2.6166
 1541SOL    HW2 5149   5.501   6.188   2.966 -2.8675  2.0726  1.4137
 1542SOL     OW 5150   5.383   2.313   7.477 -0.2514  0.1971  0.1249
 1542SOL    HW1 5151   5.456   2.358   7.519 -0.1738  2.7521 -2.4147
 1542SOL    HW2 5152   5.306   2.364   7.502 -0.4881  0.4042 -0.9718
 1543SOL     OW 5153   6.365   4.962   1.678 -0.1344 -0.0214  0.2434
 1543SOL    HW1 5154   6.323   4.918   1.604  0.6287 -0.7615  0.2331
 1543SOL    HW2 5155   6.312   4.937   1.754  0.9584 -2.0310  0.4351
 1544SOL     OW 5156   1.465   4.998   4.077 -0.0400  0.0516 -0.3904
 1544SOL    HW1 5157   1.515   5.076   4.055 -0.5500  0.7252  0.7579
 1544SOL    HW2 5158   1.508   4.927   4.029  0.8416  0.9206 -0.9087
 1545SOL     OW 5159   5.125   2.634   6.041 -0.4068  0.2938 -0.2005
 1545SOL    HW1 5160   5.140   2.597   5.954  1.8701 -0.1145  0.2917
 1545SOL    HW2 5161   5.187   2.587   6.098 -2.4894 -0.1375  1.8634
 1546SOL     OW 5162   6.207   0.229   7.141 -1.1735  0.0899  0.0238
 1546SOL    HW1 5163   6.256   0.282   7.204  0.3761 -0.2839 -0.8155
 1546SOL    HW2 5164   6.163   0.163   7.194 -0.5296  0.2542  0.7861
 1547SOL     OW 5165   0.894   5.545   2.553 -0.0966  0.4293  0.3001
 1547SOL    HW1 5166   0.859   5.573   2.637  0.0398 -2.5343  1.4805
 1547SOL    HW2 5167   0.920   5.454   2.567  1.2133  0.2352 -2.5930
 1548SOL     OW 5168   4.518   1.945   1.170  0.0416  0.3555  0.2282
 1548SOL    HW1 5169   4.581   1.889   1.126  1.0052  1.9077 -0.4467
 1548SOL    HW2 5170   4.562   1.971   1.251 -0.5899 -0.1990  0.7688
 1549SOL     OW 5171   3.567   5.432   5.170 -0.4049  0.1274 -0.7002
 1549SOL    HW1 5172   3.608   5.374   5.235 -0.6661  0.8991  0.1864
 1549SOL    HW2 5173   3.585   5.391   5.086 -1.7553 -1.9964 -0.0366
 1550SOL     OW 5174   3.592   5.956   6.569 -0.6223 -0.5221 -0.0957
 1550SOL    HW1 5175   3.627   6.004   6.644 -1.1817 -0.2375 -0.0135
 1550SOL    HW2 5176   3.501   5.984   6.563 -0.3368  0.1934 -1.4674
 1551SOL     OW 5177   2.949   2.007   6.358  0.2584 -0.8884  1.0296
 1551SOL    HW1 5178   2.858   1.987   6.378 -1.2846  1.5501 -2.5306
 1551SOL    HW2 5179   2.987   1.924   6.331 -1.9454 -1.4257 -0.6262
 1552SOL     OW 5180   5.698   2.976   2.893 -0.4675  0.1024 -0.0358
 1552SOL    HW1 5181   5.741   2.958   2.809  0.7466 -0.2847  0.6467
 1552SOL    HW2 5182   5.655   2.894   2.916  1.3267 -0.6197  0.9171
 1553SOL     OW 5183   6.332   6.027   4.293 -0.4863 -0.1259  0.1166
 1553SOL    HW1 5184   6.281   5.991   4.221  0.7050  0.9237 -1.3250
 1553SOL    HW2 5185   6.384   6.097   4.253  0.8740 -0.0866  1.8130
 1554SOL     OW 5186   4.243   0.948   1.735  0.1652  0.5097 -0.0604
 1554SOL    HW1 5187   4.226   1.036   1.769  0.3117  0.5017  0.0324
 1554SOL    HW2 5188   4.337   0.935   1.747 -0.0352 -0.0801  0.9269
 1555SOL     OW 5189   7.135   1.864   6.714 -0.8705  0.1572  0.2697
 1555SOL    HW1 5190   7.046   1.853   6.680 -0.6356 -2.2162  0.2308
 1555SOL    HW2 5191   7.123   1.900   6.802 -2.1135 -2.3342  1.2327
 1556SOL     OW 5192   2.023   2.554   5.821  0.2479  0.0961 -0.2256
 1556SOL    HW1 5193   2.118   2.552   5.816  0.1799 -1.1978 -1.5886
 1556SOL    HW2 5194   1.993   2.516   5.738 -1.4096 -3.0579  1.6378
 1557SOL     OW 5195   5.226   4.057   4.597 -0.1006  0.0458  0.4098
 1557SOL    HW1 5196   5.150   4.035   4.544 -0.4706  0.9942  0.5289
 1557SOL    HW2 5197   5.301   4.040   4.540 -0.4640  0.3842 -0.1818
 1558SOL     OW 5198   1.802   4.588   5.968  0.1708 -0.2042 -0.5035
 1558SOL    HW1 5199   1.732   4.535   6.005  1.4788 -1.2231  0.6269
 1558SOL    HW2 5200   1.883   4.549   6.002  1.2273  2.3129  0.1508
 1559SOL     OW 5201   4.415   5.984   5.235 -0.1813  0.0006  0.1786
 1559SOL    HW1 5202   4.477   6.024   5.174 -0.1877 -1.5347 -0.8988
 1559SOL    HW2 5203   4.334   5.974   5.185 -0.3265 -0.8648  0.5524
 1560SOL     OW 5204   7.378   5.025   0.606  0.0505  0.2633  0.0090
 1560SOL    HW1 5205   7.338   5.112   0.613  0.5239  0.5195 -0.4555
 1560SOL    HW2 5206   7.311   4.966   0.640 -0.7209  0.6943 -0.7377
 1561SOL     OW 5207   2.731   5.223   0.418 -0.2092  0.0520 -0.0325
 1561SOL    HW1 5208   2.678   5.244   0.340 -1.4861 -0.8034  0.5714
 1561SOL    HW2 5209   2.698   5.281   0.486  3.5913  3.7668 -0.9661
 1562SOL     OW 5210   0.264   2.707   5.067 -0.4987 -0.2299  0.0266
 1562SOL    HW1 5211   0.254   2.639   5.133 -0.7886 -1.0387 -0.8234
 1562SOL    HW2 5212   0.352   2.695   5.033  0.8772  2.1757  2.3731
 1563SOL     OW 5213   4.337   1.337   2.871  0.3984  0.0247 -0.2602
 1563SOL    HW1 5214   4.369   1.319   2.960 -0.6524  1.1709  0.3749
 1563SOL    HW2 5215   4.262   1.278   2.861  0.3075  0.1412 -0.2607
 1564SOL     OW 5216   6.840   2.072   6.818  0.6385 -0.0815 -0.4563
 1564SOL    HW1 5217   6.884   2.157   6.815 -0.2156  0.4925  1.7040
 1564SOL    HW2 5218   6.767   2.080   6.757  0.1183  1.0418  0.2863
 1565SOL     OW 5219   3.602   1.326   4.215  0.7258 -0.7364 -0.1348
 1565SOL    HW1 5220   3.567   1.238   4.203 -0.3167 -0.4801  0.7873
 1565SOL    HW2 5221   3.695   1.319   4.196  0.8934 -2.3059  1.1191
 1566SOL     OW 5222   5.540   2.069   0.032 -0.3038  0.1521 -0.2271
 1566SOL    HW1 5223   5.472   2.107   0.088 -0.0064 -1.6766  1.4947
 1566SOL    HW2 5224   5.592   2.145   0.003 -2.1553  1.4307 -0.3976
 1567SOL     OW 5225   2.264   0.095   4.514 -0.0177  0.0301  0.3921
 1567SOL    HW1 5226   2.269   0.173   4.570  0.8064 -0.2060  0.6716
 1567SOL    HW2 5227   2.227   0.027   4.571  0.1440 -0.0238  0.4333
 1568SOL     OW 5228   3.596   3.336   0.916  0.7396 -0.3083 -0.3668
 1568SOL    HW1 5229   3.615   3.410   0.974  3.1086  0.5642 -2.1151
 1568SOL    HW2 5230   3.505   3.349   0.890  0.9896  1.8413 -0.3550
 1569SOL     OW 5231   2.947   2.675   5.170 -0.4103 -0.3081 -0.1470
 1569SOL    HW1 5232   2.884   2.696   5.101  0.9245 -0.9081 -1.6067
 1569SOL    HW2 5233   3.026   2.723   5.146 -0.7160  1.8155  2.5609
 1570SOL     OW 5234   3.672   1.961   4.231 -0.2591 -0.1277 -0.1087
 1570SOL    HW1 5235   3.591   1.993   4.191 -2.0083 -1.3977  2.1672
 1570SOL    HW2 5236   3.662   1.866   4.233  1.9003 -0.4192 -0.8851
 1571SOL     OW 5237   1.470   2.364   3.527 -0.4462  0.0589 -0.0966
 1571SOL    HW1 5238   1.470   2.411   3.443 -0.3012  0.5613  0.1784
 1571SOL    HW2 5239   1.434   2.278   3.506 -1.1180  0.4352 -0.5309
 1572SOL     OW 5240   2.093   7.275   2.273  0.0005  0.0880  0.5079
 1572SOL    HW1 5241   2.149   7.316   2.207 -1.7373 -1.3174 -2.0242
 1572SOL    HW2 5242   2.148   7.208   2.313  0.3059 -1.1681 -1.8076
 1573SOL     OW 5243   6.354   1.183   2.301 -0.8256  0.3527  0.1558
 1573SOL    HW1 5244   6.384   1.255   2.245 -0.9811 -1.1968 -2.0604
 1573SOL    HW2 5245   6.424   1.118   2.294 -0.4356  0.4387  2.5485
 1574SOL     OW 5246   5.891   0.941   1.313  0.1012 -0.0399 -0.0929
 1574SOL    HW1 5247   5.981   0.960   1.287 -0.1254 -0.5733 -1.3368
 1574SOL    HW2 5248   5.860   1.021   1.354  1.1329  0.1527  0.3323
 1575SOL     OW 5249   6.144   5.220   3.279  0.3337 -0.3504  0.6645
 1575SOL    HW1 5250   6.232   5.232   3.243 -0.5602  2.1040 -1.0247
 1575SOL    HW2 5251   6.099   5.167   3.214 -0.2401  0.9925 -0.0830
 1576SOL     OW 5252   2.002   0.993   0.620 -0.6397 -0.1648 -0.3745
 1576SOL    HW1 5253   2.053   1.074   0.624 -0.5460 -0.1423 -1.6075
 1576SOL    HW2 5254   2.012   0.954   0.706 -0.3171  0.9141  0.0928
 1577SOL     OW 5255   3.515   4.942   5.627  0.3083  0.3375  0.1511
 1577SOL    HW1 5256   3.564   4.875   5.580  0.2741 -1.3428  2.3457
 1577SOL    HW2 5257   3.440   4.962   5.570  2.0012  0.9611 -2.0086
 1578SOL     OW 5258   3.769   0.667   2.329  0.2949 -0.0702  0.1042
 1578SOL    HW1 5259   3.856   0.684   2.295  0.8425 -0.2577  1.3506
 1578SOL    HW2 5260   3.710   0.681   2.255  1.0692  3.0250 -0.0245
 1579SOL     OW 5261   0.865   1.465   7.279 -0.1394 -0.0850 -0.0288
 1579SOL    HW1 5262   0.846   1.430   7.192  1.4786 -1.0944 -0.0072
 1579SOL    HW2 5263   0.860   1.390   7.337  1.3286  0.0727  0.3415
 1580SOL     OW 5264   5.282   4.158   3.459 -0.7936  0.5161  0.0044
 1580SOL    HW1 5265   5.279   4.066   3.434 -1.0178  0.4272  0.3499
 1580SOL    HW2 5266   5.258   4.206   3.380 -3.0255  0.1889  0.4200
 1581SOL     OW 5267   1.247   4.177   3.788  0.4760  0.0441 -0.5605
 1581SOL    HW1 5268   1.331   4.183   3.834  0.1491  2.3091 -0.1552
 1581SOL    HW2 5269   1.266   4.207   3.699  0.4907 -1.4931 -1.1103
 1582SOL     OW 5270   1.690   0.207   7.377 -0.5469  0.1428 -0.6737
 1582SOL    HW1 5271   1.670   0.295   7.344 -0.5898  0.0631 -0.8659
 1582SOL    HW2 5272   1.666   0.209   7.469 -0.6051  0.3151 -0.6926
 1583SOL     OW 5273   6.623   7.196   7.052 -0.2058 -0.0360 -0.0098
 1583SOL    HW1 5274   6.691   7.161   6.996  1.6004  2.1880  0.6532
 1583SOL    HW2 5275   6.563   7.240   6.993  0.4959  0.4347 -0.3765
 1584SOL     OW 5276   5.999   2.920   5.293 -0.2063  0.1637  0.1085
 1584SOL    HW1 5277   5.904   2.909   5.295 -0.1122 -1.4211 -1.5204
 1584SOL    HW2 5278   6.028   2.896   5.381 -1.1513 -1.3929  0.0253
 1585SOL     OW 5279   4.955   6.395   0.265 -0.0890  0.3850  0.3096
 1585SOL    HW1 5280   4.866   6.428   0.257 -0.7575 -1.2541  0.7657
 1585SOL    HW2 5281   4.962   6.366   0.356  0.4485 -0.7914 -0.0855
 1586SOL     OW 5282   3.101   5.451   3.388 -0.0522  0.4868 -0.5830
 1586SOL    HW1 5283   3.088   5.427   3.480 -2.5201  0.6047 -0.8138
 1586SOL    HW2 5284   3.089   5.368   3.340  2.8976  0.0742 -0.7811
 1587SOL     OW 5285   3.996   4.643   2.636 -0.7917  0.6982 -0.8207
 1587SOL    HW1 5286   4.035   4.730   2.627  0.6462  0.0576 -0.9988
 1587SOL    HW2 5287   4.065   4.583   2.608 -1.7570 -0.5062 -0.6712
 1588SOL     OW 5288   3.158   1.905   1.330  0.0958  0.1951  0.6812
 1588SOL    HW1 5289   3.106   1.826   1.313  1.2205  0.0954 -3.3741
 1588SOL    HW2 5290   3.247   1.872   1.343  0.0854  0.6875  2.2153
 1589SOL     OW 5291   3.650   2.883   7.501  0.3309  0.8200  0.0379
 1589SOL    HW1 5292   3.647   2.868   7.407 -0.9082 -0.8421  0.2925
 1589SOL    HW2 5293   3.671   2.798   7.539 -0.7928  1.0761  1.3325
 1590SOL     OW 5294   0.511   5.650   0.555 -0.0863 -0.0953 -0.1481
 1590SOL    HW1 5295   0.594   5.690   0.581  0.0603 -1.0829  1.0541
 1590SOL    HW2 5296   0.510   5.655   0.460  1.0739  0.4768 -0.1499
 1591SOL     OW 5297   1.475   5.059   3.147 -0.2449 -0.2874 -0.3466
 1591SOL    HW1 5298   1.420   5.134   3.168 -0.1170  0.2901 -1.9998
 1591SOL    HW2 5299   1.413   4.989   3.127 -0.3778 -0.0801 -0.6642
 1592SOL     OW 5300   5.449   7.014   2.002 -0.3520 -0.1024 -0.0122
 1592SOL    HW1 5301   5.534   6.971   2.013 -0.2486  0.4510  1.6044
 1592SOL    HW2 5302   5.466   7.086   1.941  0.3168 -0.0634  0.2140
 1593SOL     OW 5303   6.496   5.413   1.726 -0.2998 -0.2394  0.1080
 1593SOL    HW1 5304   6.554   5.415   1.802  0.4854 -0.3604 -0.4780
 1593SOL    HW2 5305   6.465   5.322   1.722  0.7425 -0.5941 -0.4967
 1594SOL     OW 5306   3.305   4.207   0.898 -0.1585  0.2525 -0.1916
 1594SOL    HW1 5307   3.369   4.278   0.892  0.8926 -0.7344 -1.1994
 1594SOL    HW2 5308   3.243   4.225   0.828 -1.0132  1.2120  0.7859
 1595SOL     OW 5309   1.209   4.437   7.309 -0.0228 -0.1731 -0.1051
 1595SOL    HW1 5310   1.288   4.486   7.289  0.8659 -1.7320 -0.5630
 1595SOL    HW2 5311   1.208   4.429   7.404  0.3123 -0.0642 -0.0926
 1596SOL     OW 5312   3.716   2.599   7.539  0.2623  0.0154 -0.2137
 1596SOL    HW1 5313   3.680   2.581   7.452 -1.7551  1.9939  0.0916
 1596SOL    HW2 5314   3.704   2.517   7.588  0.3125 -0.7481 -1.4551
 1597SOL     OW 5315   1.146   1.742   1.692 -0.6147  0.0048  0.8429
 1597SOL    HW1 5316   1.183   1.673   1.637  0.3004  0.2993  1.0721
 1597SOL    HW2 5317   1.066   1.769   1.647 -1.4072 -1.7179  1.1248
 1598SOL     OW 5318   5.604   2.118   3.441  0.2839  0.0468  0.0039
 1598SOL    HW1 5319   5.517   2.158   3.434  0.8321  1.3184  0.2314
 1598SOL    HW2 5320   5.633   2.106   3.351  0.9541  2.0978 -0.0976
 1599SOL     OW 5321   1.503   2.227   4.004  0.0455 -0.3031 -0.1196
 1599SOL    HW1 5322   1.547   2.301   3.962 -0.9076  1.1930  1.3612
 1599SOL    HW2 5323   1.412   2.234   3.975 -0.1418 -0.6311  0.3761
 1600SOL     OW 5324   0.294   6.180   0.398  0.0798  0.5172  0.4762
 1600SOL    HW1 5325   0.296   6.240   0.323  0.4490  1.9090  1.5536
 1600SOL    HW2 5326   0.250   6.229   0.467  2.8618  0.6874  2.2826
 1601SOL     OW 5327   4.104   0.459   2.733 -0.9122  0.2511  0.1594
 1601SOL    HW1 5328   4.055   0.386   2.773 -1.2606  1.1827  1.5081
 1601SOL    HW2 5329   4.183   0.418   2.697 -0.7157 -0.7108  1.5814
 1602SOL     OW 5330   5.437   5.799   3.520  0.2978 -0.1004 -0.6784
 1602SOL    HW1 5331   5.381   5.876   3.511  2.4996  1.6444 -0.2466
 1602SOL    HW2 5332   5.379   5.725   3.503 -2.0797  1.5881 -0.3781
 1603SOL     OW 5333   4.821   2.399   4.233 -0.4026 -0.3195  0.5619
 1603SOL    HW1 5334   4.917   2.404   4.231 -0.4358  0.3723 -0.3935
 1603SOL    HW2 5335   4.799   2.342   4.159 -0.7480  0.2396  0.2266
 1604SOL     OW 5336   3.835   6.192   1.951 -0.0850 -0.6651 -0.1648
 1604SOL    HW1 5337   3.825   6.164   2.042  0.1108  0.6570  0.2826
 1604SOL    HW2 5338   3.796   6.279   1.949  2.3291  0.4835 -0.7037
 1605SOL     OW 5339   5.786   1.887   5.375 -0.5809  0.1574  0.3038
 1605SOL    HW1 5340   5.847   1.943   5.424 -1.6983  1.0281  0.7613
 1605SOL    HW2 5341   5.806   1.799   5.405 -0.8158  0.6083  1.9111
 1606SOL     OW 5342   7.524   0.565   4.633 -0.1841 -0.2210 -0.1330
 1606SOL    HW1 5343   7.586   0.623   4.675  0.2513 -1.6350  1.2835
 1606SOL    HW2 5344   7.492   0.614   4.557  1.6620  1.0298 -0.1516
 1607SOL     OW 5345   2.982   4.939   0.684 -0.2052  0.3967 -0.0872
 1607SOL    HW1 5346   2.991   4.874   0.614  0.9882  1.4675 -0.9895
 1607SOL    HW2 5347   3.015   4.896   0.762  0.2558 -0.1990 -0.6031
 1608SOL     OW 5348   6.812   6.558   2.104  0.3498 -0.2777 -0.1245
 1608SOL    HW1 5349   6.902   6.568   2.138  0.9774 -2.8181 -0.8433
 1608SOL    HW2 5350   6.791   6.644   2.067  1.8210  0.8759  1.5071
 1609SOL     OW 5351   3.179   1.093   1.127 -0.1377 -0.4174  0.0980
 1609SOL    HW1 5352   3.162   1.000   1.111 -0.1877 -0.4787  0.5018
 1609SOL    HW2 5353   3.181   1.101   1.223  0.8375 -0.1839  0.0662
 1610SOL     OW 5354   1.758   7.206   5.463 -0.4107 -0.3132 -0.3107
 1610SOL    HW1 5355   1.809   7.282   5.491  0.2608 -0.3230 -1.4993
 1610SOL    HW2 5356   1.822   7.144   5.431 -0.8892 -1.6930  1.2449
 1611SOL     OW 5357   2.738   2.925   3.815 -0.5096 -0.1906  0.2074
 1611SOL    HW1 5358   2.719   2.884   3.899 -0.2658 -0.2198  0.2480
 1611SOL    HW2 5359   2.677   2.884   3.754  0.1416 -1.0614  0.1217
 1612SOL     OW 5360   6.882   4.627   3.111  0.6427  0.2399  0.4545
 1612SOL    HW1 5361   6.933   4.612   3.190 -0.0195 -0.2041  0.8050
 1612SOL    HW2 5362   6.942   4.606   3.039  0.8074 -0.7602  0.8670
 1613SOL     OW 5363   3.554   2.091   1.753  0.2848 -0.7319  0.1510
 1613SOL    HW1 5364   3.569   2.150   1.680 -1.3001 -0.6936 -0.1921
 1613SOL    HW2 5365   3.553   2.148   1.830 -2.6244  0.0394 -0.3048
 1614SOL     OW 5366   7.206   7.082   3.122  0.0079 -0.0250  0.0746
 1614SOL    HW1 5367   7.238   7.098   3.033 -0.0539 -0.4049 -0.0154
 1614SOL    HW2 5368   7.248   7.001   3.149  1.0597  0.7664  0.8989
 1615SOL     OW 5369   4.627   0.983   1.483  0.2490  0.0753 -0.0381
 1615SOL    HW1 5370   4.583   1.068   1.493  0.8183  0.3860 -0.1639
 1615SOL    HW2 5371   4.696   0.984   1.550  1.3276  0.4045 -1.1195
 1616SOL     OW 5372   5.145   7.206   5.631 -0.4852 -0.3333 -0.1213
 1616SOL    HW1 5373   5.100   7.290   5.635 -0.1736 -0.2039  0.8226
 1616SOL    HW2 5374   5.171   7.197   5.539  0.9469  1.3927  0.0640
 1617SOL     OW 5375   6.064   2.511   0.118 -0.1648  0.9439  0.0256
 1617SOL    HW1 5376   5.998   2.538   0.183  0.5287 -0.2017  1.2419
 1617SOL    HW2 5377   6.091   2.593   0.077 -2.6476  1.4110 -0.8378
 1618SOL     OW 5378   7.465   7.525   4.855 -0.1911  0.1524 -0.1410
 1618SOL    HW1 5379   7.559   7.524   4.836 -0.2721 -0.6696 -0.5358
 1618SOL    HW2 5380   7.424   7.549   4.773 -0.3371  0.3520 -0.0099
 1619SOL     OW 5381   4.712   6.015   0.328 -0.0536  0.2318 -0.5262
 1619SOL    HW1 5382   4.704   5.929   0.371  0.1967  0.4118 -0.1115
 1619SOL    HW2 5383   4.672   6.003   0.242  3.1552 -1.3432 -1.9605
 1620SOL     OW 5384   1.317   0.800   0.578  0.2169  0.4465  0.2452
 1620SOL    HW1 5385   1.338   0.715   0.539 -1.0152 -0.1020  0.7168
 1620SOL    HW2 5386   1.396   0.826   0.624  0.8431 -0.1069 -0.5049
 1621SOL     OW 5387   1.133   4.730   1.556  0.2820  0.5012 -0.3026
 1621SOL    HW1 5388   1.206   4.789   1.570  1.1649 -0.8162  0.9717
 1621SOL    HW2 5389   1.168   4.643   1.576 -2.1174  0.0035  2.5069
 1622SOL     OW 5390   2.234   5.449   2.384 -0.4652  0.2510 -0.5697
 1622SOL    HW1 5391   2.267   5.492   2.305 -1.3042 -0.2235 -1.1992
 1622SOL    HW2 5392   2.165   5.506   2.415 -0.3750  0.2583 -0.3851
 1623SOL     OW 5393   7.249   2.710   3.361 -0.3482  0.1154  0.4886
 1623SOL    HW1 5394   7.223   2.691   3.451  1.2930 -0.6655  0.8273
 1623SOL    HW2 5395   7.282   2.799   3.363  1.0109 -0.3830  0.9844
 1624SOL     OW 5396   2.019   1.178   4.154  0.1875  0.1876 -0.1628
 1624SOL    HW1 5397   2.100   1.130   4.139  0.3424 -0.5600  2.4800
 1624SOL    HW2 5398   2.024   1.253   4.095  1.4387 -1.3119 -2.0843
 1625SOL     OW 5399   1.090   6.475   0.277  0.4715  0.1544  0.2605
 1625SOL    HW1 5400   1.129   6.471   0.189  0.1188 -1.0335  0.1402
 1625SOL    HW2 5401   1.125   6.398   0.322  0.8155  0.8706  1.2501
 1626SOL     OW 5402   2.164   5.656   3.400  0.6432 -0.0214  0.2025
 1626SOL    HW1 5403   2.070   5.648   3.420  0.8331 -2.9237  0.3132
 1626SOL    HW2 5404   2.202   5.693   3.479 -0.1929 -0.4155  0.8059
 1627SOL     OW 5405   1.859   3.189   5.816 -0.0604 -0.3217 -0.0617
 1627SOL    HW1 5406   1.928   3.166   5.879 -0.7325  0.4363  0.9775
 1627SOL    HW2 5407   1.794   3.235   5.868 -1.4875 -1.2477 -0.9796
 1628SOL     OW 5408   5.027   6.100   0.645  0.7133 -0.5314 -0.1995
 1628SOL    HW1 5409   5.056   6.188   0.621 -0.2698 -0.3905 -0.9220
 1628SOL    HW2 5410   5.026   6.052   0.562 -1.8923 -0.2862 -0.3935
 1629SOL     OW 5411   2.646   7.471   1.994 -0.2282  0.9353 -0.3809
 1629SOL    HW1 5412   2.552   7.467   1.978  0.0515 -1.2414 -1.9481
 1629SOL    HW2 5413   2.686   7.456   1.908  1.5358  0.4936  0.4634
 1630SOL     OW 5414   3.018   0.947   0.716  0.0856  0.4103 -0.3849
 1630SOL    HW1 5415   3.033   1.040   0.735 -1.2758  0.4036  0.8539
 1630SOL    HW2 5416   3.063   0.933   0.633 -1.5013  2.7212 -1.7714
 1631SOL     OW 5417   4.257   5.092   2.122 -0.1581  0.0544  0.1184
 1631SOL    HW1 5418   4.318   5.150   2.077  0.7439 -2.3512 -2.0904
 1631SOL    HW2 5419   4.261   5.118   2.213  2.2858  1.6452 -0.3454
 1632SOL     OW 5420   1.018   6.104   5.652 -0.0638  0.1610  0.2924
 1632SOL    HW1 5421   1.010   6.197   5.632  0.8427  0.2850  0.4883
 1632SOL    HW2 5422   1.110   6.083   5.637 -0.1307 -0.5671  0.8157
 1633SOL     OW 5423   0.428   2.397   5.042  0.9721 -0.0637  0.9840
 1633SOL    HW1 5424   0.476   2.419   5.121 -0.0028  0.4709  1.4421
 1633SOL    HW2 5425   0.496   2.366   4.981  2.0096  1.4387  1.3177
 1634SOL     OW 5426   1.152   5.007   1.819 -0.3359  0.3165 -0.0435
 1634SOL    HW1 5427   1.131   4.943   1.887 -0.0757 -0.5370 -0.7428
 1634SOL    HW2 5428   1.066   5.040   1.790 -0.4136  1.2773  1.2273
 1635SOL     OW 5429   4.634   5.965   0.997 -0.3793 -0.3611 -0.1051
 1635SOL    HW1 5430   4.669   5.906   1.065  0.4842  0.0020 -0.2187
 1635SOL    HW2 5431   4.590   5.907   0.935 -1.0040 -0.7185  0.6503
 1636SOL     OW 5432   7.505   0.236   3.850  0.1630  0.1588 -0.0682
 1636SOL    HW1 5433   7.536   0.206   3.765  1.0977  0.3257  0.1964
 1636SOL    HW2 5434   7.585   0.244   3.903 -0.4660 -0.5731  1.0301
 1637SOL     OW 5435   1.611   4.295   5.182  0.1246  0.0042 -0.2908
 1637SOL    HW1 5436   1.534   4.348   5.204  0.8573  1.9577 -2.0597
 1637SOL    HW2 5437   1.575   4.211   5.152 -1.4123  1.1290 -1.7892
 1638SOL     OW 5438   2.736   7.264   4.976 -0.3990  0.3157 -0.6071
 1638SOL    HW1 5439   2.654   7.277   4.928 -0.9022  0.1679  0.1929
 1638SOL    HW2 5440   2.741   7.340   5.034 -0.5268 -0.2321  0.1281
 1639SOL     OW 5441   1.055   2.842   4.648 -0.0149 -0.6892 -0.0121
 1639SOL    HW1 5442   0.978   2.837   4.703 -0.0198  0.7871  0.1506
 1639SOL    HW2 5443   1.029   2.801   4.566 -0.6582 -1.0641  0.3759
 1640SOL     OW 5444   2.206   3.990   4.919  0.3212  0.0622  0.0600
 1640SOL    HW1 5445   2.259   4.008   4.841 -0.2338  0.1384 -0.3089
 1640SOL    HW2 5446   2.128   4.045   4.908 -0.4559 -1.0190 -0.0782
 1641SOL     OW 5447   6.967   3.869   1.921  0.0617 -0.2767  0.7526
 1641SOL    HW1 5448   6.994   3.811   1.850 -1.3295  0.8903 -0.8099
 1641SOL    HW2 5449   7.032   3.940   1.920  0.1599 -0.3642  0.8114
 1642SOL     OW 5450   6.375   6.838   3.975 -0.0690 -0.8685  0.0202
 1642SOL    HW1 5451   6.386   6.921   3.929  1.4597 -1.8649 -1.5360
 1642SOL    HW2 5452   6.442   6.840   4.044 -0.2919 -0.6598  0.2327
 1643SOL     OW 5453   6.830   7.374   6.005 -0.9062  0.3283  0.2437
 1643SOL    HW1 5454   6.753   7.409   5.960 -1.2180  1.7547  1.7499
 1643SOL    HW2 5455   6.859   7.446   6.062  1.1223 -0.4228  0.2579
 1644SOL     OW 5456   2.763   4.714   2.195  0.1960 -0.1164  0.2442
 1644SOL    HW1 5457   2.802   4.728   2.108  0.8262  0.1312  0.5593
 1644SOL    HW2 5458   2.773   4.620   2.211 -0.4673 -0.2743 -0.1969
 1645SOL     OW 5459   4.638   4.479   5.534 -0.3819 -0.3209  0.2814
 1645SOL    HW1 5460   4.639   4.480   5.438 -0.6200  2.3504  0.2174
 1645SOL    HW2 5461   4.728   4.461   5.559 -0.5306 -2.1752 -0.3841
 1646SOL     OW 5462   6.728   2.583   1.981  0.1900  0.4716  0.2011
 1646SOL    HW1 5463   6.812   2.611   2.018  0.3458 -0.6385  0.7412
 1646SOL    HW2 5464   6.695   2.660   1.936  1.4189  0.9808  0.1222
 1647SOL     OW 5465   5.760   3.262   0.797 -0.3235 -0.3879 -0.2678
 1647SOL    HW1 5466   5.789   3.242   0.708 -1.5279 -1.5254 -0.4359
 1647SOL    HW2 5467   5.770   3.179   0.845 -4.7232 -1.4255 -0.7701
 1648SOL     OW 5468   3.528   5.841   4.392  0.5648  0.1221  0.2044
 1648SOL    HW1 5469   3.542   5.904   4.463 -0.9187  1.2319 -0.4230
 1648SOL    HW2 5470   3.614   5.830   4.352  1.1837  0.4174  1.4178
 1649SOL     OW 5471   0.889   6.384   2.223 -0.5196 -0.3845  0.1099
 1649SOL    HW1 5472   0.921   6.375   2.312 -0.7461  0.5980  0.2918
 1649SOL    HW2 5473   0.810   6.438   2.230 -0.7939 -0.6727 -0.6297
 1650SOL     OW 5474   6.563   5.624   7.423  0.0569 -0.0729 -0.2232
 1650SOL    HW1 5475   6.577   5.595   7.332  2.3584  1.8894 -0.6010
 1650SOL    HW2 5476   6.593   5.551   7.476  2.0034 -0.0004 -1.1189
 1651SOL     OW 5477   5.709   0.342   1.208  0.7440 -0.3221  0.1073
 1651SOL    HW1 5478   5.673   0.283   1.275 -2.8595  1.3340 -0.0886
 1651SOL    HW2 5479   5.711   0.289   1.128 -1.3910 -0.5845  0.1583
 1652SOL     OW 5480   3.361   4.786   0.591 -0.1818  0.3783 -0.3531
 1652SOL    HW1 5481   3.428   4.792   0.522  1.5467 -1.4990  1.0394
 1652SOL    HW2 5482   3.352   4.875   0.624  0.8547  0.8629 -1.3108
 1653SOL     OW 5483   1.617   7.305   6.540 -0.0040  0.0594  0.4415
 1653SOL    HW1 5484   1.534   7.350   6.527 -0.1174 -0.0620  0.7514
 1653SOL    HW2 5485   1.625   7.296   6.635 -0.1002 -0.7983  0.3752
 1654SOL     OW 5486   6.572   4.159   3.821 -0.1991 -0.0400 -0.7451
 1654SOL    HW1 5487   6.557   4.250   3.844 -0.0511  0.2056 -1.5673
 1654SOL    HW2 5488   6.638   4.163   3.751 -1.2051 -0.6788 -1.7637
 1655SOL     OW 5489   5.665   0.224   1.499 -0.3213  0.3137  0.6708
 1655SOL    HW1 5490   5.696   0.171   1.571  1.8834  0.5685 -0.0285
 1655SOL    HW2 5491   5.676   0.315   1.529 -0.9739  0.4220  0.6156
 1656SOL     OW 5492   0.396   6.002   1.865  0.1808 -0.4223  0.2384
 1656SOL    HW1 5493   0.356   5.940   1.805 -0.2022  2.0831 -2.3185
 1656SOL    HW2 5494   0.323   6.037   1.916  0.1462 -0.8125  0.4566
 1657SOL     OW 5495   3.826   0.903   4.242 -0.3450  0.2167 -0.5377
 1657SOL    HW1 5496   3.893   0.862   4.187  0.1545  1.7202 -1.0801
 1657SOL    HW2 5497   3.875   0.951   4.308 -0.8344  1.8726 -1.3293
 1658SOL     OW 5498   1.118   1.680   1.098  0.0381  0.0195 -0.1007
 1658SOL    HW1 5499   1.117   1.607   1.159 -0.1383 -0.1289 -0.2826
 1658SOL    HW2 5500   1.118   1.758   1.154  0.9764 -0.1184  0.1062
 1659SOL     OW 5501   6.105   3.929   1.765 -0.3734  0.2311 -0.9431
 1659SOL    HW1 5502   6.128   3.910   1.856 -0.4350 -1.2609 -1.2125
 1659SOL    HW2 5503   6.045   4.003   1.771 -1.1993 -0.5020  0.3309
 1660SOL     OW 5504   2.122   1.929   4.065  0.0504  0.0499 -0.5450
 1660SOL    HW1 5505   2.116   1.855   4.005  0.1448  0.9114 -1.6601
 1660SOL    HW2 5506   2.174   1.993   4.017  2.9169 -0.4120  1.6998
 1661SOL     OW 5507   6.649   7.542   3.407  0.1289  0.4250 -0.0256
 1661SOL    HW1 5508   6.662   7.577   3.495  1.4664  2.1086 -0.8195
 1661SOL    HW2 5509   6.700   7.601   3.351  0.4677 -1.4346 -1.7742
 1662SOL     OW 5510   0.893   1.082   3.656 -0.1181 -0.1081 -0.0946
 1662SOL    HW1 5511   0.835   1.144   3.701  0.9853  0.3481  0.7217
 1662SOL    HW2 5512   0.967   1.134   3.627  1.8407 -1.2921  2.3618
 1663SOL     OW 5513   4.404   1.902   4.734 -0.1596 -0.4067 -0.1165
 1663SOL    HW1 5514   4.328   1.906   4.793 -0.2274 -2.0695 -0.0509
 1663SOL    HW2 5515   4.406   1.989   4.693 -0.2661  0.7329  2.1156
 1664SOL     OW 5516   6.303   3.696   0.229  0.3050  0.2038  0.1574
 1664SOL    HW1 5517   6.298   3.770   0.169  0.0666 -0.3321 -0.4859
 1664SOL    HW2 5518   6.271   3.621   0.179  3.7766 -1.1021 -0.3861
 1665SOL     OW 5519   5.117   2.991   3.488  0.0446  0.0684  0.2264
 1665SOL    HW1 5520   5.101   3.024   3.576 -1.1727  3.0019 -0.9780
 1665SOL    HW2 5521   5.210   3.008   3.472 -0.4596  2.8834 -0.2192
 1666SOL     OW 5522   3.740   6.489   7.359  0.0066 -0.3802 -0.2420
 1666SOL    HW1 5523   3.655   6.456   7.389  0.0118 -1.4684 -1.3412
 1666SOL    HW2 5524   3.719   6.569   7.311 -0.2829 -0.1293  0.2928
 1667SOL     OW 5525   6.753   7.228   5.070  0.3891 -0.1882 -0.1321
 1667SOL    HW1 5526   6.668   7.193   5.097  0.0449  1.5539  1.2193
 1667SOL    HW2 5527   6.737   7.265   4.983 -0.9120  2.2215  1.0563
 1668SOL     OW 5528   4.015   3.587   2.529 -0.2611  0.6365  0.2328
 1668SOL    HW1 5529   4.063   3.513   2.567  1.2598  1.3836 -0.1838
 1668SOL    HW2 5530   4.026   3.658   2.591 -0.1777  1.0432 -0.2413
 1669SOL     OW 5531   5.754   5.187   0.481 -0.4954 -0.2309 -0.2193
 1669SOL    HW1 5532   5.764   5.106   0.531 -0.4469  0.4014  0.8288
 1669SOL    HW2 5533   5.840   5.202   0.442  0.7437  1.3737  2.8511
 1670SOL     OW 5534   0.682   0.152   7.244  0.0361 -0.0546  0.2472
 1670SOL    HW1 5535   0.687   0.112   7.331 -0.1903 -2.9381 -0.9702
 1670SOL    HW2 5536   0.765   0.201   7.235 -0.2613  0.9221  2.3052
 1671SOL     OW 5537   6.008   6.907   7.484  0.1135  0.5312 -0.7528
 1671SOL    HW1 5538   6.065   6.982   7.469  0.2417  0.2919 -1.5224
 1671SOL    HW2 5539   5.924   6.946   7.510  0.5882  0.8819  0.2991
 1672SOL     OW 5540   3.401   3.046   4.896 -0.0566  0.0094  0.1157
 1672SOL    HW1 5541   3.309   3.070   4.909 -0.4465 -1.6571  0.7077
 1672SOL    HW2 5542   3.409   3.034   4.802 -0.9567 -1.5747  0.2015
 1673SOL     OW 5543   6.789   2.800   6.433  0.2831 -0.3647 -0.0809
 1673SOL    HW1 5544   6.820   2.835   6.349  0.6295 -1.6582 -0.5121
 1673SOL    HW2 5545   6.728   2.866   6.465  0.7250  0.5135 -0.9784
 1674SOL     OW 5546   5.699   0.628   6.084  0.4229 -0.1499 -0.2226
 1674SOL    HW1 5547   5.709   0.712   6.040 -1.0429  0.8756  1.2789
 1674SOL    HW2 5548   5.761   0.570   6.039  0.2871  1.2606 -2.4021
 1675SOL     OW 5549   1.275   4.127   1.769  0.1483 -0.2828  0.0068
 1675SOL    HW1 5550   1.222   4.057   1.733 -1.7212  1.1056 -0.0813
 1675SOL    HW2 5551   1.340   4.146   1.701 -0.8186 -0.3577 -0.9501
 1676SOL     OW 5552   0.207   0.452   5.742  0.2747 -0.4964 -0.0854
 1676SOL    HW1 5553   0.140   0.425   5.804 -0.6715 -0.9901 -1.2832
 1676SOL    HW2 5554   0.193   0.397   5.665 -0.4191  1.9457 -1.8360
 1677SOL     OW 5555   4.604   7.190   4.973  0.5310  0.0345  0.7349
 1677SOL    HW1 5556   4.569   7.239   5.047  0.2717  2.4429 -0.8880
 1677SOL    HW2 5557   4.609   7.253   4.901  3.4789 -1.4654 -0.5705
 1678SOL     OW 5558   2.189   6.351   0.480  0.4165  0.4540 -0.6234
 1678SOL    HW1 5559   2.148   6.289   0.540 -2.8675  2.4453 -0.5618
 1678SOL    HW2 5560   2.256   6.395   0.533  0.0463 -0.2786  0.4828
 1679SOL     OW 5561   4.925   7.186   5.792 -0.5525  0.1786  0.4753
 1679SOL    HW1 5562   5.003   7.180   5.737  0.2367  0.1098  1.5799
 1679SOL    HW2 5563   4.899   7.095   5.806 -1.6175  0.2266 -0.9377
 1680SOL     OW 5564   6.483   4.749   6.038 -0.4705  0.1249  0.3080
 1680SOL    HW1 5565   6.426   4.774   6.110 -1.1165  0.8962 -0.4584
 1680SOL    HW2 5566   6.459   4.658   6.019 -1.0772  0.2791  0.3345
 1681SOL     OW 5567   7.200   1.218   0.145  0.1756 -0.5648  0.0927
 1681SOL    HW1 5568   7.266   1.159   0.107  0.4851 -0.5194  0.5539
 1681SOL    HW2 5569   7.239   1.305   0.137 -0.2882 -0.4080 -0.6045
 1682SOL     OW 5570   2.430   5.451   3.680  0.3143  0.1570  0.6581
 1682SOL    HW1 5571   2.404   5.362   3.702 -0.4096  0.2175  0.0937
 1682SOL    HW2 5572   2.360   5.506   3.714  1.0849  0.5830  1.6013
 1683SOL     OW 5573   3.460   4.820   4.857 -0.4418 -0.1791  0.1743
 1683SOL    HW1 5574   3.504   4.741   4.825  0.4572 -0.1109  1.1613
 1683SOL    HW2 5575   3.367   4.801   4.850 -0.2392 -1.4130  0.5864
 1684SOL     OW 5576   0.837   4.724   3.429  0.1292 -0.0432 -0.2862
 1684SOL    HW1 5577   0.906   4.752   3.490  2.4151  0.2104 -2.7681
 1684SOL    HW2 5578   0.826   4.631   3.447 -0.2466  0.2803  1.3634
 1685SOL     OW 5579   0.906   1.971   1.959 -0.2642  0.6578  0.1702
 1685SOL    HW1 5580   0.881   1.879   1.952  0.5291  0.3475  1.0634
 1685SOL    HW2 5581   0.860   2.015   1.888  0.8960 -0.7573 -1.5204
 1686SOL     OW 5582   7.299   5.992   7.240 -0.2445  0.2710  0.1346
 1686SOL    HW1 5583   7.366   6.054   7.269 -1.0064  0.5528  1.3505
 1686SOL    HW2 5584   7.329   5.963   7.153  1.3159  0.5673  0.5443
 1687SOL     OW 5585   4.058   3.148   0.693 -0.0986  0.5495  0.0882
 1687SOL    HW1 5586   3.966   3.162   0.714  0.3333  1.9527  1.1400
 1687SOL    HW2 5587   4.095   3.235   0.685  0.6669  0.0911 -2.7325
 1688SOL     OW 5588   1.671   4.989   5.244 -0.0847  0.0009 -0.4486
 1688SOL    HW1 5589   1.584   5.021   5.266  0.2850  1.5665 -1.1351
 1688SOL    HW2 5590   1.703   5.050   5.178  0.5465 -2.0143 -2.1166
 1689SOL     OW 5591   0.557   6.264   5.124  0.0749 -0.5313 -0.5418
 1689SOL    HW1 5592   0.645   6.292   5.147 -0.0568 -0.4398 -0.1454
 1689SOL    HW2 5593   0.566   6.226   5.037  0.4891 -0.4423 -0.5393
 1690SOL     OW 5594   3.648   1.933   1.227  0.2759 -0.0028  0.6753
 1690SOL    HW1 5595   3.665   2.024   1.201 -1.2037 -0.1262 -0.9454
 1690SOL    HW2 5596   3.734   1.891   1.226  0.7200  0.8686 -0.7701
 1691SOL     OW 5597   0.043   7.377   3.176 -0.0075  0.2314  0.5523
 1691SOL    HW1 5598  -0.008   7.316   3.123  0.3372  0.1603  0.2956
 1691SOL    HW2 5599  -0.010   7.456   3.180 -0.0787  0.2033  0.1817
 1692SOL     OW 5600   4.823   1.205   4.572 -0.3126  0.3319  0.1953
 1692SOL    HW1 5601   4.852   1.160   4.493  1.2476  0.1980  0.8010
 1692SOL    HW2 5602   4.844   1.144   4.643 -0.9791  0.7677  0.7832
 1693SOL     OW 5603   3.709   5.728   6.987  0.1615  0.4366 -0.8217
 1693SOL    HW1 5604   3.737   5.736   7.078 -0.2743  0.9111 -0.7212
 1693SOL    HW2 5605   3.651   5.803   6.973 -0.5815 -0.1953 -1.1948
 1694SOL     OW 5606   1.313   7.356   6.830  0.2918  0.0051  0.8319
 1694SOL    HW1 5607   1.388   7.345   6.888  1.4905  2.4967 -0.1215
 1694SOL    HW2 5608   1.254   7.413   6.879 -0.6593 -1.2862  1.2443
 1695SOL     OW 5609   2.838   3.310   1.432  0.5209  0.3969 -0.2028
 1695SOL    HW1 5610   2.802   3.372   1.496  1.3371  1.1412 -0.4559
 1695SOL    HW2 5611   2.762   3.259   1.404 -0.1084  1.0524  0.2596
 1696SOL     OW 5612   3.265   6.183   5.203 -0.3522 -0.0072 -0.0258
 1696SOL    HW1 5613   3.208   6.258   5.220 -0.6704 -0.3639  0.4891
 1696SOL    HW2 5614   3.205   6.110   5.188 -0.0445 -0.5703  1.3468
 1697SOL     OW 5615   4.972   7.511   4.619 -0.1394 -0.2160 -0.6264
 1697SOL    HW1 5616   4.953   7.423   4.650  2.7251 -1.1139 -1.1278
 1697SOL    HW2 5617   4.961   7.567   4.696  1.6542 -1.6044  0.7106
 1698SOL     OW 5618   1.056   1.982   2.201 -0.5531  0.1276  0.7660
 1698SOL    HW1 5619   1.049   2.075   2.225  2.1420  1.2684 -2.1917
 1698SOL    HW2 5620   1.000   1.973   2.124  2.4342  0.5921 -1.6557
 1699SOL     OW 5621   7.439   2.569   5.389  0.1542 -0.3942 -0.3120
 1699SOL    HW1 5622   7.474   2.557   5.300 -0.6521 -0.5401 -0.6211
 1699SOL    HW2 5623   7.345   2.553   5.380 -0.6430  3.3507 -0.2035
 1700SOL     OW 5624   4.218   2.213   1.875  0.3179 -0.2175 -0.5410
 1700SOL    HW1 5625   4.306   2.238   1.848  0.7353  0.5418  1.3693
 1700SOL    HW2 5626   4.225   2.120   1.898  1.1436  0.2908  1.4465
 1701SOL     OW 5627   1.906   4.215   1.177  0.1214  0.1928 -1.1550
 1701SOL    HW1 5628   1.940   4.286   1.122 -0.1144 -0.0723 -1.6435
 1701SOL    HW2 5629   1.984   4.170   1.209  0.2472 -0.3796 -2.2252
 1702SOL     OW 5630   2.367   3.550   1.198 -0.0284  0.3939  0.1563
 1702SOL    HW1 5631   2.308   3.554   1.273  0.3961 -0.5266  0.5591
 1702SOL    HW2 5632   2.310   3.536   1.123 -0.3434 -0.3127  0.5187
 1703SOL     OW 5633   4.513   1.464   4.579  0.2470  0.4179 -0.3845
 1703SOL    HW1 5634   4.449   1.522   4.538 -0.4053 -0.5357 -0.7632
 1703SOL    HW2 5635   4.595   1.481   4.531  0.8678  3.0762  1.3871
 1704SOL     OW 5636   3.697   4.805   4.478 -0.0180  0.2438  0.4822
 1704SOL    HW1 5637   3.612   4.785   4.517  0.3093 -1.7396  0.2656
 1704SOL    HW2 5638   3.707   4.740   4.408  1.0961  1.2972 -0.3778
 1705SOL     OW 5639   1.716   2.320   3.687 -0.0937 -0.5729 -0.0088
 1705SOL    HW1 5640   1.634   2.325   3.639 -0.0914  4.7090 -0.0083
 1705SOL    HW2 5641   1.696   2.355   3.774  1.7939 -1.0908  0.6938
 1706SOL     OW 5642   6.929   2.200   0.398  0.3825 -0.4296 -0.0411
 1706SOL    HW1 5643   6.982   2.274   0.368 -1.3309  1.1051  0.5316
 1706SOL    HW2 5644   6.917   2.146   0.320  1.3672  0.0629 -0.5557
 1707SOL     OW 5645   3.713   0.529   2.595  0.2990 -0.1505  0.4686
 1707SOL    HW1 5646   3.623   0.525   2.626  0.3876  0.0717  0.7675
 1707SOL    HW2 5647   3.712   0.598   2.529  0.4060  0.4204  1.0441
 1708SOL     OW 5648   2.937   0.261   2.549  0.2070 -0.4698  0.0050
 1708SOL    HW1 5649   3.006   0.320   2.580  0.2850  0.2414 -1.4571
 1708SOL    HW2 5650   2.971   0.174   2.569  1.5312 -0.1358 -0.6513
 1709SOL     OW 5651   1.568   7.401   7.560  0.2073 -0.5615  0.1720
 1709SOL    HW1 5652   1.621   7.423   7.483  0.0979 -1.3164 -0.1217
 1709SOL    HW2 5653   1.500   7.342   7.527 -1.7714  1.5212  0.2426
 1710SOL     OW 5654   7.471   6.410   3.722 -0.5325  0.2722  0.3797
 1710SOL    HW1 5655   7.552   6.425   3.673 -1.5768 -2.7385 -2.6290
 1710SOL    HW2 5656   7.481   6.323   3.759 -1.2276  1.1050  2.6504
 1711SOL     OW 5657   5.594   7.071   2.785 -0.0709 -0.5940  0.3176
 1711SOL    HW1 5658   5.524   7.129   2.755  1.1060  0.5124 -0.4242
 1711SOL    HW2 5659   5.670   7.129   2.793  1.1273 -2.0221 -0.3229
 1712SOL     OW 5660   2.776   5.673   4.420 -0.1004  0.0935  0.3332
 1712SOL    HW1 5661   2.697   5.722   4.445 -0.2308  0.4122 -0.6587
 1712SOL    HW2 5662   2.770   5.666   4.325  1.3998  0.6826  0.1776
 1713SOL     OW 5663   7.092   3.868   6.181  0.3106 -0.0098  0.3013
 1713SOL    HW1 5664   7.013   3.860   6.234 -0.7951 -0.1897 -1.2951
 1713SOL    HW2 5665   7.084   3.798   6.116  0.7144  1.3094 -1.2151
 1714SOL     OW 5666   3.315   4.738   4.057  0.0192  0.4777 -0.0943
 1714SOL    HW1 5667   3.384   4.672   4.059 -1.0526 -0.7186 -0.7726
 1714SOL    HW2 5668   3.300   4.760   4.149  1.0994  0.5560  0.0738
 1715SOL     OW 5669   3.933   0.234   0.481 -0.2923  0.2280  0.0430
 1715SOL    HW1 5670   3.954   0.146   0.448  1.6630  0.0820  1.4866
 1715SOL    HW2 5671   3.968   0.293   0.415  0.9879 -0.0867  0.4049
 1716SOL     OW 5672   7.443   3.813   4.142  0.5171 -0.2237 -0.5958
 1716SOL    HW1 5673   7.427   3.776   4.055  0.4841  1.3312 -1.2808
 1716SOL    HW2 5674   7.474   3.902   4.125  1.2974 -0.1631  0.9733
 1717SOL     OW 5675   3.422   3.113   0.722  0.1547  0.4659 -0.0522
 1717SOL    HW1 5676   3.496   3.115   0.782  2.5079  1.6450 -2.7893
 1717SOL    HW2 5677   3.390   3.204   0.720  1.3838  0.9273 -1.9091
 1718SOL     OW 5678   1.437   1.582   1.723  0.2731 -0.2171  0.1287
 1718SOL    HW1 5679   1.462   1.543   1.807  0.9468  0.2125  0.1289
 1718SOL    HW2 5680   1.474   1.522   1.658 -1.3206 -1.2548  0.1041
 1719SOL     OW 5681   1.201   4.827   0.576  0.7965  0.2766 -0.6622
 1719SOL    HW1 5682   1.224   4.745   0.531  1.0205  0.2196 -0.4440
 1719SOL    HW2 5683   1.163   4.881   0.507  1.6845  0.4155 -1.0678
 1720SOL     OW 5684   3.225   5.352   1.468  0.3261 -0.6365  0.2456
 1720SOL    HW1 5685   3.280   5.275   1.479 -0.8938 -1.5844 -0.0822
 1720SOL    HW2 5686   3.286   5.426   1.470  1.5380 -1.6149  0.3694
 1721SOL     OW 5687   4.946   5.271   6.792 -0.1109  0.5557 -0.0118
 1721SOL    HW1 5688   4.934   5.349   6.737  0.0303  1.0386  0.6245
 1721SOL    HW2 5689   5.005   5.215   6.742 -0.8003  0.5200 -0.8095
 1722SOL     OW 5690   5.206   6.857   2.965 -0.1148 -0.0338  0.1821
 1722SOL    HW1 5691   5.240   6.781   2.919 -1.2915 -0.1374 -0.5424
 1722SOL    HW2 5692   5.252   6.931   2.927  1.9399 -0.4306  1.7296
 1723SOL     OW 5693   6.504   5.932   7.310 -0.0699  0.5368  0.0366
 1723SOL    HW1 5694   6.561   5.884   7.370 -1.3471 -3.1664 -1.4183
 1723SOL    HW2 5695   6.450   5.987   7.367  0.6069 -0.7563  2.0298
 1724SOL     OW 5696   3.275   1.066   5.754  0.4985  0.3096  0.0294
 1724SOL    HW1 5697   3.342   1.018   5.707  0.0872 -0.4681  0.2135
 1724SOL    HW2 5698   3.272   1.152   5.713  0.6964 -0.0953 -0.8357
 1725SOL     OW 5699   4.203   5.199   3.191 -0.1577  0.2791 -0.1198
 1725SOL    HW1 5700   4.189   5.105   3.182  1.8365 -0.2886  1.8638
 1725SOL    HW2 5701   4.173   5.220   3.280  2.0829  0.8757  0.5640
 1726SOL     OW 5702   3.069   1.784   2.860 -0.1443  0.1984 -0.3721
 1726SOL    HW1 5703   3.044   1.870   2.894  0.7205 -0.6429  2.6483
 1726SOL    HW2 5704   2.987   1.735   2.856 -0.5908  1.0065 -1.7936
 1727SOL     OW 5705   6.177   6.042   2.281  0.2215 -0.6705  0.3704
 1727SOL    HW1 5706   6.188   6.093   2.361 -0.7977 -0.0560  0.1469
 1727SOL    HW2 5707   6.094   6.074   2.244  0.5757 -1.0776 -0.8213
 1728SOL     OW 5708   5.630   2.402   7.053  0.5514 -0.5455 -0.2543
 1728SOL    HW1 5709   5.542   2.437   7.073  0.5041 -1.1523  0.6480
 1728SOL    HW2 5710   5.683   2.480   7.037  0.2063 -0.0872  0.7338
 1729SOL     OW 5711   0.998   6.110   6.128  0.1785 -0.4717  0.2652
 1729SOL    HW1 5712   0.982   6.184   6.070  2.1373  0.8353  1.2942
 1729SOL    HW2 5713   0.915   6.098   6.174 -0.2952  0.8082 -0.2036
 1730SOL     OW 5714   3.998   1.004   0.398 -0.0060 -0.4335  0.0294
 1730SOL    HW1 5715   3.968   0.972   0.483 -2.2731  0.4343 -0.3849
 1730SOL    HW2 5716   4.026   0.925   0.352  1.7109 -0.8724  1.6876
 1731SOL     OW 5717   5.111   0.789   3.030  0.9399  0.3589 -0.4327
 1731SOL    HW1 5718   5.029   0.837   3.022  1.8825  2.0502 -0.5652
 1731SOL    HW2 5719   5.122   0.746   2.945 -0.2303 -0.6580 -0.0963
 1732SOL     OW 5720   2.476   0.355   3.774  0.2350  0.2034 -0.3530
 1732SOL    HW1 5721   2.538   0.415   3.816 -0.2629  1.4672 -1.3907
 1732SOL    HW2 5722   2.392   0.376   3.814  0.0014  0.4438 -0.9637
 1733SOL     OW 5723   4.681   1.881   3.294 -0.2942 -0.2823 -0.0275
 1733SOL    HW1 5724   4.707   1.955   3.238 -1.5615  0.3068  0.1383
 1733SOL    HW2 5725   4.673   1.807   3.234  1.3916 -0.4318 -0.1380
 1734SOL     OW 5726   5.379   0.815   0.632 -0.1212 -0.2869  0.1386
 1734SOL    HW1 5727   5.338   0.754   0.570  1.3972 -1.7346  0.4969
 1734SOL    HW2 5728   5.440   0.866   0.580 -1.8762  1.4920 -0.2916
 1735SOL     OW 5729   4.519   1.506   7.364 -0.3692  0.4750 -0.2493
 1735SOL    HW1 5730   4.481   1.483   7.280 -1.0259 -0.3371  0.2539
 1735SOL    HW2 5731   4.535   1.422   7.408  0.1123  0.8749  0.3695
 1736SOL     OW 5732   5.876   0.714   3.865  0.0641  0.2098  0.3957
 1736SOL    HW1 5733   5.879   0.652   3.792  0.6273 -1.0022  1.4192
 1736SOL    HW2 5734   5.783   0.730   3.879 -0.1419 -1.2105  0.7620
 1737SOL     OW 5735   6.780   0.536   5.211 -0.4169  0.6677 -0.3206
 1737SOL    HW1 5736   6.804   0.446   5.230 -0.8403  0.8625  1.3326
 1737SOL    HW2 5737   6.811   0.586   5.286  0.7705  2.1014 -1.6879
 1738SOL     OW 5738   0.515   0.370   5.888 -0.3939 -0.2145 -0.1952
 1738SOL    HW1 5739   0.582   0.319   5.843 -0.1040  0.7047 -0.8326
 1738SOL    HW2 5740   0.459   0.404   5.818 -0.6983  0.1703  0.2305
 1739SOL     OW 5741   1.896   2.935   1.299  0.2326 -0.4972 -0.5498
 1739SOL    HW1 5742   1.892   3.029   1.319 -2.0712 -0.0229 -2.6249
 1739SOL    HW2 5743   1.829   2.895   1.355  0.8382 -0.8332 -0.0562
 1740SOL     OW 5744   0.251   0.052   3.780 -0.1352 -0.4821  0.0499
 1740SOL    HW1 5745   0.320   0.105   3.821 -1.3634  1.1446  0.1427
 1740SOL    HW2 5746   0.217   0.108   3.710 -3.3556  0.1000  1.8844
 1741SOL     OW 5747   2.234   0.669   6.212 -0.1331 -0.4353 -0.3662
 1741SOL    HW1 5748   2.192   0.731   6.153 -0.9444  0.2598  0.9121
 1741SOL    HW2 5749   2.325   0.699   6.218 -0.2959  0.0796 -0.4792
 1742SOL     OW 5750   4.375   5.175   0.138 -0.2380  0.6391  0.6279
 1742SOL    HW1 5751   4.394   5.108   0.203  1.7085 -0.0541 -0.5713
 1742SOL    HW2 5752   4.392   5.258   0.183  1.1292  0.1675  1.0261
 1743SOL     OW 5753   6.652   0.766   7.024 -0.0760 -0.4144  0.1114
 1743SOL    HW1 5754   6.642   0.764   6.929  0.0505  1.3900  0.0251
 1743SOL    HW2 5755   6.563   0.760   7.058 -0.1874 -0.2523 -0.1517
 1744SOL     OW 5756   1.350   5.529   5.249 -0.1526  0.3820  0.5887
 1744SOL    HW1 5757   1.364   5.594   5.318 -2.5156 -0.0785  1.6187
 1744SOL    HW2 5758   1.284   5.569   5.192 -1.6387 -1.0533  1.2366
 1745SOL     OW 5759   2.703   4.947   3.868 -0.2051  0.2806  0.2028
 1745SOL    HW1 5760   2.762   5.008   3.912  0.2651 -0.2237  0.2790
 1745SOL    HW2 5761   2.676   4.885   3.937  0.8791 -0.7781 -0.2803
 1746SOL     OW 5762   3.947   0.335   5.801  0.6258 -0.2655  0.0353
 1746SOL    HW1 5763   3.869   0.281   5.790 -0.2626  0.0439  3.7223
 1746SOL    HW2 5764   3.917   0.424   5.783  0.9699 -0.4463 -1.5812
 1747SOL     OW 5765   4.860   5.155   3.052 -0.0003 -0.6685  0.0927
 1747SOL    HW1 5766   4.835   5.145   2.960  0.0197 -0.5889  0.0787
 1747SOL    HW2 5767   4.942   5.105   3.060  0.3059 -0.2015 -0.0692
 1748SOL     OW 5768   3.947   7.034   2.076  0.0122 -0.4368  0.3111
 1748SOL    HW1 5769   3.890   7.023   2.152 -0.5555 -1.0540 -0.1855
 1748SOL    HW2 5770   3.906   7.104   2.025  0.7969  0.4861  0.9276
 1749SOL     OW 5771   4.689   3.732   1.465  0.5248  0.5720 -0.0143
 1749SOL    HW1 5772   4.610   3.777   1.494  1.0193  0.7800  1.0630
 1749SOL    HW2 5773   4.722   3.688   1.543  0.7545 -0.6273 -0.7476
 1750SOL     OW 5774   5.196   2.667   0.378  0.0380  0.3106  0.3300
 1750SOL    HW1 5775   5.206   2.740   0.317 -1.6082  1.4996  1.4093
 1750SOL    HW2 5776   5.104   2.644   0.374  0.2188 -0.6545  1.1843
 1751SOL     OW 5777   1.816   5.202   5.606 -0.0246  0.7469 -0.1233
 1751SOL    HW1 5778   1.891   5.142   5.602  0.1067  0.8890  0.2585
 1751SOL    HW2 5779   1.816   5.235   5.695 -2.4600 -1.7372  0.9640
 1752SOL     OW 5780   6.118   1.797   1.922  0.0216 -0.6872  0.8614
 1752SOL    HW1 5781   6.175   1.865   1.957 -2.1292  1.5102  0.4000
 1752SOL    HW2 5782   6.152   1.780   1.834 -0.2259  0.8992  0.4254
 1753SOL     OW 5783   2.587   1.620   2.421  0.5529  0.2154 -0.3112
 1753SOL    HW1 5784   2.493   1.603   2.416  0.8692 -1.8497 -0.2796
 1753SOL    HW2 5785   2.627   1.533   2.419  2.3494  0.8534  2.4548
 1754SOL     OW 5786   2.839   5.181   3.968  0.2543  0.3048  0.2270
 1754SOL    HW1 5787   2.820   5.216   4.055 -3.8706  1.2748 -0.8336
 1754SOL    HW2 5788   2.843   5.258   3.911 -0.4897 -0.4391 -0.8837
 1755SOL     OW 5789   6.327   7.252   1.402 -0.2854 -0.0709  0.1729
 1755SOL    HW1 5790   6.235   7.278   1.415 -0.5492 -1.4468  1.2821
 1755SOL    HW2 5791   6.371   7.279   1.483  0.9926  3.1365 -1.4003
 1756SOL     OW 5792   4.461   1.218   3.758  0.3458  0.5931  0.0466
 1756SOL    HW1 5793   4.433   1.273   3.684 -1.0219 -0.8716 -0.6033
 1756SOL    HW2 5794   4.440   1.129   3.730 -0.0717 -0.0290  2.1599
 1757SOL     OW 5795   3.388   6.189   1.673 -0.1478 -0.5350 -0.4685
 1757SOL    HW1 5796   3.398   6.152   1.760  0.4404 -0.9665 -0.7156
 1757SOL    HW2 5797   3.423   6.278   1.681 -1.2791 -0.1169  0.0474
 1758SOL     OW 5798   2.274   1.194   0.814  0.0996 -0.5537  0.4603
 1758SOL    HW1 5799   2.288   1.099   0.804 -0.6683 -0.7129  0.7556
 1758SOL    HW2 5800   2.280   1.228   0.725  1.6236 -0.6847  0.4962
 1759SOL     OW 5801   5.144   5.080   3.487 -0.7427  0.1503 -0.9314
 1759SOL    HW1 5802   5.083   5.136   3.535  0.0364 -0.0335  0.3313
 1759SOL    HW2 5803   5.209   5.141   3.452  0.8087  0.0553  1.4780
 1760SOL     OW 5804   3.375   4.176   6.822  0.2711  0.5161  0.0219
 1760SOL    HW1 5805   3.413   4.162   6.908  0.0623  0.5907  0.1273
 1760SOL    HW2 5806   3.446   4.158   6.761 -0.2702 -2.2894  0.0762
 1761SOL     OW 5807   4.127   5.979   0.655 -0.1793  0.3505 -0.2329
 1761SOL    HW1 5808   4.135   6.060   0.606 -1.3850  0.1576 -0.7744
 1761SOL    HW2 5809   4.093   6.005   0.740  0.5619  0.5293  0.0168
 1762SOL     OW 5810   1.443   7.559   4.971  0.1840  0.2506  0.0893
 1762SOL    HW1 5811   1.490   7.484   4.934 -1.1814 -1.6466  1.9220
 1762SOL    HW2 5812   1.352   7.529   4.977 -0.1102  1.3867  2.4132
 1763SOL     OW 5813   5.689   1.301   6.432 -0.1139  0.2299 -0.0052
 1763SOL    HW1 5814   5.689   1.361   6.507  1.0321 -1.4145  1.3775
 1763SOL    HW2 5815   5.620   1.237   6.452 -1.0681  0.7912 -1.2899
 1764SOL     OW 5816   3.816   7.428   5.247 -0.1432 -0.3223  0.3966
 1764SOL    HW1 5817   3.825   7.521   5.227 -1.4849  0.3739  2.6764
 1764SOL    HW2 5818   3.742   7.400   5.193  0.2169 -0.0840 -0.2432
 1765SOL     OW 5819   3.786   3.387   3.440 -0.4482  0.7812 -0.2008
 1765SOL    HW1 5820   3.872   3.427   3.425 -0.6108  0.7784 -1.2191
 1765SOL    HW2 5821   3.756   3.427   3.522  0.2516  1.2587 -0.1611
 1766SOL     OW 5822   4.176   3.322   2.957  0.1239  0.4271 -0.0257
 1766SOL    HW1 5823   4.187   3.410   2.993  0.4606  0.1066  0.6700
 1766SOL    HW2 5824   4.263   3.282   2.961  0.0481  0.1775 -0.6607
 1767SOL     OW 5825   2.307   4.134   0.653  0.0186  0.0313  0.2105
 1767SOL    HW1 5826   2.268   4.055   0.689  1.2807 -1.3760 -1.3439
 1767SOL    HW2 5827   2.399   4.129   0.678  0.5103 -0.0034 -1.4577
 1768SOL     OW 5828   0.005   0.289   0.278 -0.0854  0.0519  0.1626
 1768SOL    HW1 5829   0.006   0.315   0.370 -0.7319 -1.5595  0.6673
 1768SOL    HW2 5830   0.083   0.330   0.241 -0.4558  1.6987  1.1267
 1769SOL     OW 5831   5.068   2.420   1.265  0.2846  0.0648 -0.3355
 1769SOL    HW1 5832   5.107   2.484   1.324  0.2514 -0.4807  0.2883
 1769SOL    HW2 5833   5.027   2.472   1.196 -1.5794  0.8304  1.2710
 1770SOL     OW 5834   5.470   3.039   1.432 -0.5513  0.1537  0.5636
 1770SOL    HW1 5835   5.444   3.007   1.519 -1.8780 -1.6247 -0.4372
 1770SOL    HW2 5836   5.389   3.069   1.392 -0.3670 -1.1756 -0.9029
 1771SOL     OW 5837   6.369   0.662   6.092  0.8377  0.0228 -0.1138
 1771SOL    HW1 5838   6.435   0.713   6.044  1.3056  0.8964  1.3641
 1771SOL    HW2 5839   6.384   0.572   6.064 -0.0479  0.6290 -2.8465
 1772SOL     OW 5840   6.751   3.316   4.644  0.4846 -0.1016  0.7312
 1772SOL    HW1 5841   6.668   3.275   4.669 -0.5742  2.6277  2.1773
 1772SOL    HW2 5842   6.732   3.410   4.646  3.2189  0.5683 -0.5050
 1773SOL     OW 5843   1.398   4.051   5.403  0.1055  0.0435 -0.5641
 1773SOL    HW1 5844   1.363   4.135   5.433 -1.7552 -2.0370  3.9266
 1773SOL    HW2 5845   1.323   4.006   5.364  0.1875 -0.7555  0.1670
 1774SOL     OW 5846   1.697   6.141   3.451 -0.1973 -0.3930  0.7388
 1774SOL    HW1 5847   1.714   6.178   3.364 -0.6303 -2.2878 -0.2077
 1774SOL    HW2 5848   1.775   6.163   3.502 -0.1414  1.1633  0.0346
 1775SOL     OW 5849   5.130   1.942   1.561 -0.1364  0.6148 -0.5384
 1775SOL    HW1 5850   5.084   2.008   1.613  0.6430  2.1941 -1.7798
 1775SOL    HW2 5851   5.192   1.903   1.622  1.0151  2.6735 -0.3037
 1776SOL     OW 5852   0.250   6.933   6.683  0.0939  0.1037 -0.0936
 1776SOL    HW1 5853   0.310   6.919   6.610  0.4239 -0.7808  0.3414
 1776SOL    HW2 5854   0.167   6.958   6.641  0.7412  1.3764 -0.6972
 1777SOL     OW 5855   7.287   0.396   2.568  0.5339  0.3650 -0.2054
 1777SOL    HW1 5856   7.314   0.356   2.651  0.3879  0.0251 -0.3192
 1777SOL    HW2 5857   7.310   0.331   2.502 -1.8373 -0.6229 -0.1902
 1778SOL     OW 5858   5.381   0.425   2.754  0.1515 -0.0843 -0.4271
 1778SOL    HW1 5859   5.375   0.519   2.737  2.5910 -0.0296 -1.3783
 1778SOL    HW2 5860   5.446   0.418   2.824  0.7634 -1.0892 -1.0743
 1779SOL     OW 5861   3.951   1.120   2.616  0.4759  0.1240 -0.4197
 1779SOL    HW1 5862   3.864   1.119   2.656  0.4001  1.3591 -0.5221
 1779SOL    HW2 5863   3.938   1.082   2.529 -0.4173  2.2406 -1.2695
 1780SOL     OW 5864   1.066   1.908   4.343 -0.4107  0.0340  0.3314
 1780SOL    HW1 5865   0.995   1.947   4.291 -0.0180 -1.1391 -1.1731
 1780SOL    HW2 5866   1.082   1.971   4.413  0.0773  2.5374 -1.8565
 1781SOL     OW 5867   2.569   2.746   2.835 -0.4201 -0.2172 -0.0631
 1781SOL    HW1 5868   2.599   2.752   2.745 -1.0440 -0.1022 -0.2656
 1781SOL    HW2 5869   2.615   2.670   2.871 -0.5615 -0.5727 -0.6272
 1782SOL     OW 5870   0.086   3.138   4.165 -0.9280 -0.6728 -0.1362
 1782SOL    HW1 5871   0.118   3.079   4.096 -0.7627 -1.2375  0.4136
 1782SOL    HW2 5872   0.144   3.214   4.160 -0.9577 -0.6786 -0.6603
 1783SOL     OW 5873   2.451   7.165   3.553  0.0079  0.2228  0.6253
 1783SOL    HW1 5874   2.390   7.129   3.489  2.5507 -0.8358 -1.4213
 1783SOL    HW2 5875   2.479   7.089   3.605 -0.2629  0.6623  1.4378
 1784SOL     OW 5876   4.631   4.797   6.306 -0.4690  0.8887  0.3931
 1784SOL    HW1 5877   4.599   4.884   6.283 -0.8098  1.1582  1.8318
 1784SOL    HW2 5878   4.582   4.773   6.384 -1.2961 -1.1433 -0.6806
 1785SOL     OW 5879   3.436   4.886   0.030  0.1043  0.3976 -0.1647
 1785SOL    HW1 5880   3.367   4.838  -0.015 -1.1249  1.1563  0.8264
 1785SOL    HW2 5881   3.499   4.908  -0.038 -1.0634  0.4209 -1.2764
 1786SOL     OW 5882   0.851   4.020   5.145 -0.2257 -0.1202 -0.1479
 1786SOL    HW1 5883   0.826   4.027   5.053  0.3547 -0.3172 -0.3247
 1786SOL    HW2 5884   0.818   3.934   5.173  1.2960 -0.9194 -0.7199
 1787SOL     OW 5885   1.788   6.436   0.783  0.1769 -0.1660  0.1917
 1787SOL    HW1 5886   1.838   6.378   0.840  0.8547 -0.6057 -0.8209
 1787SOL    HW2 5887   1.790   6.393   0.697 -2.4749 -0.5267  0.2366
 1788SOL     OW 5888   7.473   1.597   0.377 -1.0818 -0.0202  0.1619
 1788SOL    HW1 5889   7.436   1.516   0.413 -0.8670  0.4691  1.5423
 1788SOL    HW2 5890   7.558   1.570   0.342 -1.7011 -0.6927 -0.8530
 1789SOL     OW 5891   0.089   7.338   0.670 -0.7187 -0.1884 -0.2571
 1789SOL    HW1 5892   0.046   7.419   0.697 -0.3709  0.1901 -0.7966
 1789SOL    HW2 5893   0.033   7.268   0.703 -2.1325  0.2929 -1.5089
 1790SOL     OW 5894   2.952   3.185   2.671 -0.5498 -0.2860  0.4432
 1790SOL    HW1 5895   3.020   3.175   2.736 -0.5677 -1.1383  0.3462
 1790SOL    HW2 5896   2.928   3.095   2.647 -0.9574  0.0051 -0.2959
 1791SOL     OW 5897   5.950   2.366   4.371  0.5120 -0.4067 -0.8258
 1791SOL    HW1 5898   5.878   2.310   4.343  0.2144 -0.3816 -0.1296
 1791SOL    HW2 5899   5.985   2.403   4.289  0.7358 -1.6084 -1.2955
 1792SOL     OW 5900   3.431   3.057   7.511 -0.0036  0.3447  0.2913
 1792SOL    HW1 5901   3.351   3.033   7.558 -0.8383 -0.2724 -1.3833
 1792SOL    HW2 5902   3.493   2.987   7.533 -0.3328  0.1384  0.5846
 1793SOL     OW 5903   3.884   0.298   3.771 -0.0960  0.1299 -0.4074
 1793SOL    HW1 5904   3.822   0.337   3.833 -1.7148  0.1289 -1.9287
 1793SOL    HW2 5905   3.970   0.329   3.800 -0.7771  0.1521  1.7738
 1794SOL     OW 5906   2.220   5.639   6.410 -0.3726 -0.2382  0.5887
 1794SOL    HW1 5907   2.300   5.590   6.428 -0.2106  0.5647  2.2061
 1794SOL    HW2 5908   2.157   5.573   6.381  0.3107 -1.1671  1.1815
 1795SOL     OW 5909   2.616   3.399   1.046 -0.0536  0.0314 -0.2323
 1795SOL    HW1 5910   2.679   3.458   1.088  1.4315 -0.3925 -1.7549
 1795SOL    HW2 5911   2.585   3.448   0.970  0.5009 -0.7826 -0.9987
 1796SOL     OW 5912   3.813   4.955   0.467  0.2479 -0.2632  0.2591
 1796SOL    HW1 5913   3.827   5.050   0.470 -0.6503 -0.0888 -0.4530
 1796SOL    HW2 5914   3.851   4.928   0.384  1.2220 -0.6659  0.8295
 1797SOL     OW 5915   1.450   3.542   1.958 -0.1547 -0.0010 -0.1821
 1797SOL    HW1 5916   1.408   3.621   1.923 -0.6569  0.7712  2.0053
 1797SOL    HW2 5917   1.538   3.542   1.919 -0.9485  0.2603 -2.1039
 1798SOL     OW 5918   7.162   6.166   1.606  0.4131  0.1217  0.0386
 1798SOL    HW1 5919   7.074   6.172   1.643  0.3356  0.6154 -0.2220
 1798SOL    HW2 5920   7.155   6.098   1.539 -0.1840  1.2755 -1.1118
 1799SOL     OW 5921   3.533   6.526   3.027 -0.0672 -0.1785  0.5992
 1799SOL    HW1 5922   3.448   6.490   3.001  0.6148 -0.8803 -0.7559
 1799SOL    HW2 5923   3.524   6.620   3.010 -0.2756 -0.3693 -0.4472
 1800SOL     OW 5924   3.801   2.940   0.914  0.0478  0.0670  0.4537
 1800SOL    HW1 5925   3.713   2.965   0.941  0.4118  0.3925  1.3844
 1800SOL    HW2 5926   3.812   2.850   0.945 -1.2891 -1.4562 -2.9587
 1801SOL     OW 5927   3.501   4.102   4.839  0.2558 -0.6519 -0.0652
 1801SOL    HW1 5928   3.583   4.149   4.823  0.6961 -1.1166  0.7540
 1801SOL    HW2 5929   3.444   4.128   4.767  0.7403  0.5556 -0.0297
 1802SOL     OW 5930   4.452   4.042   3.030  0.7282 -0.0533  0.4596
 1802SOL    HW1 5931   4.453   3.953   2.994 -0.7490 -0.3344  1.0685
 1802SOL    HW2 5932   4.457   4.098   2.952  0.4943 -0.6587 -0.0043
 1803SOL     OW 5933   5.642   1.566   0.857  0.1204 -0.3107 -0.2530
 1803SOL    HW1 5934   5.630   1.477   0.823 -0.6467 -0.7065  0.9718
 1803SOL    HW2 5935   5.560   1.611   0.837 -0.9936 -1.0169  2.3126
 1804SOL     OW 5936   5.519   5.525   7.073 -0.0496  0.0413  0.2397
 1804SOL    HW1 5937   5.600   5.553   7.114  1.9784 -4.0495 -0.4911
 1804SOL    HW2 5938   5.517   5.572   6.989 -0.4980  2.9718  1.7908
 1805SOL     OW 5939   0.972   2.999   4.338  0.3734  0.0065 -0.0989
 1805SOL    HW1 5940   1.016   2.917   4.362  2.2112  1.0862  0.4529
 1805SOL    HW2 5941   0.964   2.995   4.243  0.7423 -0.6773 -0.1086
 1806SOL     OW 5942   1.271   6.783   7.449  0.3976  0.4131  0.1145
 1806SOL    HW1 5943   1.320   6.748   7.374 -0.0637  0.0766 -0.0336
 1806SOL    HW2 5944   1.330   6.848   7.488  1.4254 -0.8022  0.6348
 1807SOL     OW 5945   4.300   6.346   1.217  0.0369  0.0540 -0.7635
 1807SOL    HW1 5946   4.221   6.301   1.246 -0.0929  0.6540 -0.1610
 1807SOL    HW2 5947   4.270   6.431   1.187  0.3705  0.0214 -1.1954
 1808SOL     OW 5948   2.785   4.045   1.010 -0.6089 -0.5615 -0.7630
 1808SOL    HW1 5949   2.851   4.114   0.999 -0.6334 -0.5550 -0.8724
 1808SOL    HW2 5950   2.718   4.085   1.066 -0.3344 -0.6955 -0.3304
 1809SOL     OW 5951   0.073   1.630   4.128  0.2704 -0.2023 -0.1247
 1809SOL    HW1 5952   0.088   1.542   4.161 -0.2734 -0.4286 -0.4803
 1809SOL    HW2 5953   0.019   1.672   4.194  0.4222 -0.1731 -0.0177
 1810SOL     OW 5954   3.076   2.607   6.789  0.1079  0.2996 -0.0283
 1810SOL    HW1 5955   3.167   2.625   6.763  0.0336 -0.4129 -0.8372
 1810SOL    HW2 5956   3.084   2.560   6.872  0.5544 -0.7530 -0.6418
 1811SOL     OW 5957   7.441   2.134   4.578  0.2855  0.0000  0.0157
 1811SOL    HW1 5958   7.384   2.190   4.525  0.1059  2.0110  2.1878
 1811SOL    HW2 5959   7.525   2.180   4.580  0.5885 -0.5665  0.6589
 1812SOL     OW 5960   0.779   6.274   3.399 -0.6430 -0.1992  0.3582
 1812SOL    HW1 5961   0.712   6.302   3.337  0.3102  0.3903 -0.4222
 1812SOL    HW2 5962   0.768   6.333   3.474  1.0518  2.0918 -1.0794
 1813SOL     OW 5963   0.314   3.179   5.691 -0.1176 -0.0086 -0.0540
 1813SOL    HW1 5964   0.409   3.182   5.678 -0.2190 -0.6290 -1.0639
 1813SOL    HW2 5965   0.283   3.263   5.656  0.0288  0.0553 -0.0325
 1814SOL     OW 5966   5.709   3.895   3.980  0.0205  0.2884  0.1907
 1814SOL    HW1 5967   5.726   3.807   3.947 -1.4764  0.6175 -1.5954
 1814SOL    HW2 5968   5.646   3.882   4.051 -1.3512 -0.0311 -1.0324
 1815SOL     OW 5969   3.711   6.324   4.374  0.0968  0.1776  0.4222
 1815SOL    HW1 5970   3.750   6.245   4.411 -1.8312 -1.1726 -0.2957
 1815SOL    HW2 5971   3.628   6.295   4.337 -0.8223  2.6137  0.3990
 1816SOL     OW 5972   1.247   7.413   5.125 -0.2555 -0.1370  0.3130
 1816SOL    HW1 5973   1.187   7.450   5.189 -1.9329  0.8189 -1.7006
 1816SOL    HW2 5974   1.212   7.325   5.108 -1.7843  0.7508 -1.5488
 1817SOL     OW 5975   0.236   2.500   5.226 -0.0989  0.0844  0.2011
 1817SOL    HW1 5976   0.291   2.524   5.301  0.0663 -0.9683  0.4258
 1817SOL    HW2 5977   0.292   2.444   5.172 -0.8457 -0.7790  0.2950
 1818SOL     OW 5978   7.506   1.368   4.695 -0.3965 -0.4135 -0.1543
 1818SOL    HW1 5979   7.552   1.428   4.753  1.1001 -1.1336 -0.5448
 1818SOL    HW2 5980   7.419   1.358   4.734 -0.8738  2.3050 -0.3129
 1819SOL     OW 5981   3.554   1.404   0.714  0.0966 -0.1274  0.2664
 1819SOL    HW1 5982   3.492   1.465   0.753  0.9365  0.5205  0.6463
 1819SOL    HW2 5983   3.620   1.460   0.673  0.0278 -0.7992 -0.7916
 1820SOL     OW 5984   6.338   0.213   3.646 -0.1599 -0.3587  0.1957
 1820SOL    HW1 5985   6.251   0.225   3.607 -0.2417  1.1668  0.7721
 1820SOL    HW2 5986   6.321   0.170   3.730 -0.7996  2.8689  1.8840
 1821SOL     OW 5987   3.696   4.539   0.424 -0.1707  0.4427  0.2154
 1821SOL    HW1 5988   3.660   4.586   0.499 -0.2006 -0.4805  0.7919
 1821SOL    HW2 5989   3.776   4.586   0.402  0.0444  0.4996  1.0759
 1822SOL     OW 5990   2.512   7.103   2.172  0.3676 -0.1736  0.1097
 1822SOL    HW1 5991   2.582   7.135   2.114 -0.1397  0.2512 -0.2857
 1822SOL    HW2 5992   2.519   7.158   2.250  0.0887  0.2941 -0.1866
 1823SOL     OW 5993   6.840   2.311   1.980 -0.0593  0.0615 -0.3769
 1823SOL    HW1 5994   6.847   2.326   2.074 -0.2843 -1.3935 -0.0913
 1823SOL    HW2 5995   6.795   2.388   1.946  0.2404  0.7159  0.6667
 1824SOL     OW 5996   6.749   1.225   7.309 -0.4145  0.0470 -0.0443
 1824SOL    HW1 5997   6.799   1.157   7.354 -0.9320 -0.0063  0.4719
 1824SOL    HW2 5998   6.697   1.177   7.244 -1.7348 -0.2404  1.1669
 1825SOL     OW 5999   0.005   2.268   1.614  0.9830 -0.0965  0.3709
 1825SOL    HW1 6000  -0.059   2.199   1.595  1.1594  0.1367 -1.1273
 1825SOL    HW2 6001  -0.031   2.311   1.692  1.0564 -2.0655  1.5904
 1826SOL     OW 6002   7.332   6.986   6.067  0.2585  0.0023 -0.1380
 1826SOL    HW1 6003   7.387   6.999   5.990 -0.0721  1.4363 -0.1723
 1826SOL    HW2 6004   7.256   6.938   6.035  1.1129 -1.3243 -0.2406
 1827SOL     OW 6005   2.782   1.933   2.677 -0.3698 -0.4997 -0.0877
 1827SOL    HW1 6006   2.691   1.932   2.647 -0.5543  0.5622  0.3823
 1827SOL    HW2 6007   2.782   1.874   2.752 -1.2438  1.2890  1.3938
 1828SOL     OW 6008   0.431   2.313   6.496  0.1169 -0.2970  0.1069
 1828SOL    HW1 6009   0.355   2.371   6.497  0.1952 -0.1449  2.3957
 1828SOL    HW2 6010   0.399   2.229   6.526  0.4909 -0.7963 -0.8453
 1829SOL     OW 6011   3.265   1.143   0.159 -0.3062 -0.3095  0.1418
 1829SOL    HW1 6012   3.219   1.184   0.086 -1.0068 -0.4935  0.4730
 1829SOL    HW2 6013   3.272   1.212   0.225  1.0606  0.1031 -0.4003
 1830SOL     OW 6014   0.040   4.527   1.559 -0.6140 -0.3397 -0.4023
 1830SOL    HW1 6015   0.016   4.442   1.523 -0.7256 -0.8380  0.7872
 1830SOL    HW2 6016   0.135   4.531   1.550 -0.2496 -1.7993  1.9348
 1831SOL     OW 6017   5.742   7.528   0.704 -0.3328 -0.1394 -0.4168
 1831SOL    HW1 6018   5.821   7.496   0.659  0.1826  1.5070 -0.7610
 1831SOL    HW2 6019   5.705   7.592   0.644  0.2896  2.0233  1.3992
 1832SOL     OW 6020   3.774   5.463   2.006 -0.5144 -0.4048  0.0959
 1832SOL    HW1 6021   3.807   5.394   1.949 -0.8708  1.1481 -2.1082
 1832SOL    HW2 6022   3.706   5.507   1.955 -1.3192  0.6845  1.9711
 1833SOL     OW 6023   1.627   1.083   1.025  0.0546 -0.1018 -0.2788
 1833SOL    HW1 6024   1.612   1.165   1.071  1.6532  0.1315 -0.1396
 1833SOL    HW2 6025   1.680   1.107   0.949 -0.2212 -0.8894 -0.7354
 1834SOL     OW 6026   0.608   5.687   5.530 -0.0191  0.4688  0.1567
 1834SOL    HW1 6027   0.613   5.638   5.448 -2.2273  0.0063  0.2356
 1834SOL    HW2 6028   0.662   5.637   5.591  1.7222  0.8665 -0.9995
 1835SOL     OW 6029   0.956   6.354   5.917  0.2910  0.3754  0.1477
 1835SOL    HW1 6030   0.962   6.439   5.873  0.7947 -0.5831 -1.7576
 1835SOL    HW2 6031   0.878   6.314   5.881  3.2363 -2.4791 -4.0551
 1836SOL     OW 6032   2.880   0.041   2.819 -0.3599  0.1969  0.0208
 1836SOL    HW1 6033   2.870   0.013   2.910 -2.3623 -0.6275 -0.3951
 1836SOL    HW2 6034   2.874  -0.041   2.768  2.3620  0.4153 -0.8257
 1837SOL     OW 6035   3.271   0.725   7.487  0.0033 -0.3645  0.1164
 1837SOL    HW1 6036   3.228   0.685   7.562  0.5657 -1.4700 -0.1293
 1837SOL    HW2 6037   3.242   0.816   7.488 -0.0573 -0.3866  1.6161
 1838SOL     OW 6038   4.412   0.270   1.466 -0.0926 -0.3244 -0.2401
 1838SOL    HW1 6039   4.342   0.204   1.464  0.7587 -1.2568  0.1563
 1838SOL    HW2 6040   4.376   0.344   1.416 -0.4732 -1.6888 -2.1211
 1839SOL     OW 6041   0.364   3.589   4.493  0.2651 -0.4570  0.8276
 1839SOL    HW1 6042   0.336   3.600   4.584 -1.2482  1.6617  0.1561
 1839SOL    HW2 6043   0.377   3.678   4.460  0.8817 -1.1842 -1.0276
 1840SOL     OW 6044   6.483   6.214   4.127  0.2834  0.2003 -0.1761
 1840SOL    HW1 6045   6.556   6.174   4.080  1.2247 -0.0550  1.4176
 1840SOL    HW2 6046   6.525   6.278   4.186 -0.9500  1.4611 -0.6116
 1841SOL     OW 6047   2.372   0.516   4.286  0.2532 -0.3152 -0.7178
 1841SOL    HW1 6048   2.332   0.555   4.208  0.1660  0.8495 -0.1120
 1841SOL    HW2 6049   2.452   0.475   4.253  1.7883  2.6483 -1.0798
 1842SOL     OW 6050   4.736   6.191   6.733 -0.1725 -0.0936 -0.3393
 1842SOL    HW1 6051   4.672   6.123   6.711  0.6009 -1.1535  0.5781
 1842SOL    HW2 6052   4.746   6.185   6.828  0.1155  1.1377 -0.2725
 1843SOL     OW 6053   4.860   6.237   3.809 -0.1261 -0.1996 -0.3380
 1843SOL    HW1 6054   4.819   6.152   3.797  1.5489 -1.3500  1.4274
 1843SOL    HW2 6055   4.929   6.241   3.742  0.2230 -0.5297  0.0004
 1844SOL     OW 6056   0.692   7.176   4.026 -0.1686 -0.4034  0.3234
 1844SOL    HW1 6057   0.730   7.249   3.976  1.7467 -0.8312  1.0494
 1844SOL    HW2 6058   0.609   7.210   4.058  0.0287  0.9710 -0.5162
 1845SOL     OW 6059   3.242   7.219   2.549  0.2348 -0.4642  0.2731
 1845SOL    HW1 6060   3.194   7.236   2.467 -0.7174 -0.5187  0.8011
 1845SOL    HW2 6061   3.328   7.258   2.535  1.4589 -3.5354 -2.1630
 1846SOL     OW 6062   5.191   2.610   1.441  0.0321  0.0414  0.0817
 1846SOL    HW1 6063   5.200   2.684   1.382  2.4533 -1.7764 -2.0724
 1846SOL    HW2 6064   5.265   2.618   1.502 -0.9824  0.5153  1.3065
 1847SOL     OW 6065   3.919   4.369   0.901  0.0514 -0.5271  0.3542
 1847SOL    HW1 6066   3.973   4.323   0.836 -1.2080 -0.6674 -0.6240
 1847SOL    HW2 6067   3.891   4.449   0.855  0.2680  0.0568  1.2190
 1848SOL     OW 6068   5.293   0.662   0.418 -0.3158 -0.2930 -0.8910
 1848SOL    HW1 6069   5.388   0.676   0.425 -0.3775 -0.3352  0.1099
 1848SOL    HW2 6070   5.285   0.574   0.383  0.0156 -0.1867 -1.2477
 1849SOL     OW 6071   5.729   2.244   4.777 -0.5398 -0.4616  0.4855
 1849SOL    HW1 6072   5.635   2.259   4.781 -0.3396  0.7519  1.0004
 1849SOL    HW2 6073   5.765   2.325   4.741  0.4464 -0.2874  1.7714
 1850SOL     OW 6074   7.359   4.663   7.283  0.1394 -0.0693  0.0233
 1850SOL    HW1 6075   7.417   4.612   7.339  0.5688 -0.2827 -0.5995
 1850SOL    HW2 6076   7.308   4.717   7.343  2.4801  1.7580  0.5346
 1851SOL     OW 6077   1.235   2.436   5.759 -0.2550  0.0367 -0.6057
 1851SOL    HW1 6078   1.149   2.445   5.801 -0.0245 -0.8505  0.0672
 1851SOL    HW2 6079   1.215   2.429   5.665 -0.9123 -0.1256 -0.4584
 1852SOL     OW 6080   1.775   2.522   6.729 -0.4742 -0.0751  0.1230
 1852SOL    HW1 6081   1.811   2.454   6.672  2.2140  0.2465  1.2970
 1852SOL    HW2 6082   1.680   2.512   6.722 -0.1811 -2.1302 -1.8461
 1853SOL     OW 6083   0.332   3.882   1.962  0.2520 -0.2464 -0.4174
 1853SOL    HW1 6084   0.371   3.923   1.885 -0.6641  1.0103 -0.2456
 1853SOL    HW2 6085   0.237   3.896   1.952  0.1758  1.3186  1.6237
 1854SOL     OW 6086   6.348   1.904   6.077  0.3534 -0.1403  0.5878
 1854SOL    HW1 6087   6.396   1.923   6.157  1.4297 -0.7673  0.1124
 1854SOL    HW2 6088   6.340   1.809   6.076 -0.6931 -0.0625  0.5263
 1855SOL     OW 6089   4.318   0.400   6.984 -0.2801  0.2913  0.0468
 1855SOL    HW1 6090   4.404   0.443   6.985  0.2137 -0.6754 -0.0039
 1855SOL    HW2 6091   4.255   0.472   6.991  0.4836  1.1237 -1.3518
 1856SOL     OW 6092   5.019   3.442   6.532 -0.6216  0.4054 -0.2956
 1856SOL    HW1 6093   5.077   3.377   6.493  0.5268  2.3564 -2.0395
 1856SOL    HW2 6094   4.937   3.394   6.549  0.7497 -1.9027  0.2949
 1857SOL     OW 6095   3.826   3.262   6.078  0.4083 -0.3307  0.2157
 1857SOL    HW1 6096   3.740   3.278   6.039 -0.4430 -0.9843  1.7601
 1857SOL    HW2 6097   3.885   3.320   6.030 -1.3038  1.9951  0.7575
 1858SOL     OW 6098   0.470   1.687   4.675  1.0696 -0.2354  0.2792
 1858SOL    HW1 6099   0.546   1.655   4.627 -0.6474 -2.0478 -1.4622
 1858SOL    HW2 6100   0.438   1.761   4.623 -0.2086 -1.5721 -0.9442
 1859SOL     OW 6101   0.941   4.537   4.106  0.1246 -0.2490  0.2877
 1859SOL    HW1 6102   0.930   4.442   4.100 -0.2346 -0.1274 -1.5796
 1859SOL    HW2 6103   0.855   4.572   4.080  0.4654  0.6016  0.2847
 1860SOL     OW 6104   5.394   4.467   6.942 -0.1957  0.2892  0.1911
 1860SOL    HW1 6105   5.433   4.404   6.882  0.3121  0.6194  0.1598
 1860SOL    HW2 6106   5.437   4.449   7.026 -0.1435  0.5074  0.2114
 1861SOL     OW 6107   4.167   0.226   3.574  0.1606  0.3031  0.4698
 1861SOL    HW1 6108   4.223   0.188   3.642 -0.8836 -1.4426  0.4315
 1861SOL    HW2 6109   4.081   0.187   3.591 -1.1671  3.1105  0.7293
 1862SOL     OW 6110   6.349   2.817   6.969 -0.0403 -0.2156 -0.1253
 1862SOL    HW1 6111   6.288   2.825   7.042  0.0622 -1.2693  0.0878
 1862SOL    HW2 6112   6.356   2.906   6.934 -0.9435  0.0938  0.4484
 1863SOL     OW 6113   7.017   6.519   7.138  0.4705 -0.1098 -0.5386
 1863SOL    HW1 6114   7.111   6.518   7.121  0.5268 -0.7813 -0.1942
 1863SOL    HW2 6115   6.982   6.447   7.086  0.0569  0.5049 -1.1293
 1864SOL     OW 6116   0.734   6.092   3.854 -0.4976 -0.0018 -0.0851
 1864SOL    HW1 6117   0.745   6.068   3.946  0.9937 -0.9293 -0.4824
 1864SOL    HW2 6118   0.725   6.187   3.855 -0.4451  0.0037  1.0142
 1865SOL     OW 6119   6.424   5.604   5.669  0.1483  0.8544 -0.0038
 1865SOL    HW1 6120   6.358   5.550   5.713  1.1969 -0.7382 -0.2781
 1865SOL    HW2 6121   6.393   5.609   5.578 -0.3103  1.3272  0.1723
 1866SOL     OW 6122   2.297   2.996   4.551  0.1155 -0.1025 -0.3949
 1866SOL    HW1 6123   2.310   3.072   4.607 -1.4502  0.3243 -0.5503
 1866SOL    HW2 6124   2.274   2.925   4.612  0.9945 -0.3081 -0.2977
 1867SOL     OW 6125   6.164   7.052   1.202  0.0621  0.3389 -0.1648
 1867SOL    HW1 6126   6.107   7.035   1.276 -0.6966 -1.8372 -1.1529
 1867SOL    HW2 6127   6.233   7.108   1.237 -1.2826  0.9394  1.6838
 1868SOL     OW 6128   0.768   0.787   5.831 -0.3436  0.1167  0.2462
 1868SOL    HW1 6129   0.762   0.882   5.834 -1.9283  0.0584  0.1321
 1868SOL    HW2 6130   0.688   0.757   5.875 -0.9461 -1.1255 -1.5964
 1869SOL     OW 6131   1.632   4.647   6.294 -0.6455  0.2032 -0.2482
 1869SOL    HW1 6132   1.612   4.733   6.256  1.5136  1.3779  1.0455
 1869SOL    HW2 6133   1.546   4.608   6.311 -1.7249  2.4358 -0.1767
 1870SOL     OW 6134   6.411   5.533   4.376  0.3459  0.3995 -0.0711
 1870SOL    HW1 6135   6.356   5.600   4.415 -0.1541 -0.4226  0.6908
 1870SOL    HW2 6136   6.379   5.524   4.287 -0.4228  0.3016  0.2068
 1871SOL     OW 6137   3.814   1.271   0.631  0.3550  0.2985  0.6203
 1871SOL    HW1 6138   3.822   1.219   0.711  0.7767  2.2725  1.9070
 1871SOL    HW2 6139   3.895   1.252   0.583  0.5902 -0.0846  1.1569
 1872SOL     OW 6140   3.241   6.221   4.515 -0.1636 -0.0100  0.1342
 1872SOL    HW1 6141   3.216   6.129   4.520 -0.1574 -0.0534 -0.4826
 1872SOL    HW2 6142   3.196   6.263   4.588 -2.0670 -0.0793 -0.9251
 1873SOL     OW 6143   5.372   3.704   7.356 -0.2359  0.2935  0.2931
 1873SOL    HW1 6144   5.311   3.712   7.430 -0.7261  0.8493 -0.1554
 1873SOL    HW2 6145   5.391   3.610   7.351 -0.9480  0.1288  0.5278
 1874SOL     OW 6146   1.129   6.883   6.081 -0.1277 -0.0412 -0.7688
 1874SOL    HW1 6147   1.151   6.934   6.159 -1.3979 -0.5679 -0.0493
 1874SOL    HW2 6148   1.195   6.909   6.017  0.5933  0.8331  0.2882
 1875SOL     OW 6149   3.090   4.091   6.650  0.3442  0.0933  0.2411
 1875SOL    HW1 6150   3.183   4.091   6.671  0.6917 -1.2656 -1.0868
 1875SOL    HW2 6151   3.046   4.114   6.732  1.8525  1.3545  0.7364
 1876SOL     OW 6152   4.042   2.439   1.830 -0.5222 -0.0766  0.3054
 1876SOL    HW1 6153   4.088   2.368   1.874  0.7182  0.5538  0.0866
 1876SOL    HW2 6154   4.103   2.513   1.833 -0.4778  0.0928 -2.1745
 1877SOL     OW 6155   6.414   1.113   0.818  0.7577 -0.1793 -0.2012
 1877SOL    HW1 6156   6.486   1.175   0.827  0.4318 -0.0086  1.3688
 1877SOL    HW2 6157   6.400   1.108   0.723  2.3792  0.2818 -0.5029
 1878SOL     OW 6158   4.734   6.851   1.323 -0.0291  0.4651  0.4673
 1878SOL    HW1 6159   4.811   6.810   1.362  0.4652 -0.2505 -1.1640
 1878SOL    HW2 6160   4.753   6.853   1.229 -0.5844  3.3029  0.3290
 1879SOL     OW 6161   2.159   5.259   5.423  0.3550 -0.4048 -0.1269
 1879SOL    HW1 6162   2.213   5.186   5.454 -0.3749 -0.5246  0.8948
 1879SOL    HW2 6163   2.071   5.238   5.453 -0.0012  0.5192 -0.4960
 1880SOL     OW 6164   7.444   6.914   0.893 -0.2109  0.1859  0.2717
 1880SOL    HW1 6165   7.439   6.825   0.858 -2.0438 -0.1011  1.1436
 1880SOL    HW2 6166   7.423   6.905   0.986 -0.7833  1.5553  0.3002
 1881SOL     OW 6167   7.542   4.070   2.130 -0.2412 -0.3684  0.0818
 1881SOL    HW1 6168   7.633   4.067   2.158  0.2695 -1.7586 -1.5586
 1881SOL    HW2 6169   7.546   4.069   2.034 -1.9610  1.0876 -0.0773
 1882SOL     OW 6170   6.223   3.967   2.802 -0.0167  0.3355 -0.2941
 1882SOL    HW1 6171   6.160   3.896   2.795 -0.4205  0.5387  0.9786
 1882SOL    HW2 6172   6.283   3.953   2.729 -1.7549  0.3820 -1.8292
 1883SOL     OW 6173   0.523   0.431   5.400  0.0741 -0.2874  0.2210
 1883SOL    HW1 6174   0.536   0.336   5.401  0.0101 -0.3624 -1.9582
 1883SOL    HW2 6175   0.491   0.452   5.488  1.5082 -2.0497  1.2254
 1884SOL     OW 6176   2.278   3.888   0.451 -0.1969  0.3042 -0.4585
 1884SOL    HW1 6177   2.318   3.975   0.442 -0.6454  0.3845 -2.0567
 1884SOL    HW2 6178   2.340   3.838   0.504  0.1298  1.5519  0.3771
 1885SOL     OW 6179   3.884   1.507   3.578 -0.6086 -0.3071  0.2403
 1885SOL    HW1 6180   3.828   1.551   3.514 -1.3722  0.2706  1.2811
 1885SOL    HW2 6181   3.841   1.422   3.593  0.4228 -1.1295 -1.1510
 1886SOL     OW 6182   3.624   5.723   6.464 -0.0137  0.5852 -0.3181
 1886SOL    HW1 6183   3.621   5.672   6.545  0.3113  1.1202  0.0398
 1886SOL    HW2 6184   3.592   5.810   6.489 -1.9535  0.1845 -1.2323
 1887SOL     OW 6185   3.826   6.501   2.006 -0.2083 -0.3428 -0.2410
 1887SOL    HW1 6186   3.921   6.514   2.015 -0.3790  1.7882 -0.8139
 1887SOL    HW2 6187   3.811   6.495   1.912 -0.6751 -0.1963 -0.1807
 1888SOL     OW 6188   3.963   6.909   4.395  0.2058 -0.6349 -0.1908
 1888SOL    HW1 6189   3.988   7.000   4.381 -1.0794 -0.3102 -0.4752
 1888SOL    HW2 6190   3.886   6.896   4.340  1.1365 -2.2907 -1.1780
 1889SOL     OW 6191   1.002   5.984   0.813  0.0835 -0.5449  0.0989
 1889SOL    HW1 6192   0.999   5.931   0.733 -0.7622  0.9049 -0.9051
 1889SOL    HW2 6193   0.969   5.926   0.882 -0.6154 -1.3933 -0.9103
 1890SOL     OW 6194   7.191   5.281   6.666 -0.3788  0.1595  0.0179
 1890SOL    HW1 6195   7.149   5.311   6.747  0.4470  1.4420  0.0035
 1890SOL    HW2 6196   7.122   5.289   6.599 -1.3781 -1.8891  0.7374
 1891SOL     OW 6197   3.600   3.943   3.980 -0.2484 -0.2637 -0.4084
 1891SOL    HW1 6198   3.607   3.855   4.017  1.5975 -0.8958 -2.1140
 1891SOL    HW2 6199   3.604   3.930   3.886 -2.5024  1.4943 -0.8470
 1892SOL     OW 6200   6.835   1.507   2.135 -0.4096 -0.3627 -0.8794
 1892SOL    HW1 6201   6.813   1.567   2.206  0.3979 -1.2913  0.2078
 1892SOL    HW2 6202   6.784   1.428   2.153  0.4985 -0.9478 -0.7788
 1893SOL     OW 6203   0.893   0.162   0.591 -0.1009  0.3359  0.0621
 1893SOL    HW1 6204   0.865   0.236   0.645 -1.0729 -1.1134  1.6647
 1893SOL    HW2 6205   0.816   0.106   0.586  0.5079 -0.4090 -1.4148
 1894SOL     OW 6206   5.827   6.863   4.687 -0.6612  0.8609  0.0107
 1894SOL    HW1 6207   5.918   6.873   4.659 -0.2499  0.3482  1.1080
 1894SOL    HW2 6208   5.832   6.862   4.783 -1.6612 -0.5421  0.0714
 1895SOL     OW 6209   1.664   6.687   0.555  0.2198  0.1536 -0.1762
 1895SOL    HW1 6210   1.595   6.672   0.490  0.0906  2.0838 -0.5342
 1895SOL    HW2 6211   1.693   6.599   0.579 -0.5746 -0.6388 -1.9412
 1896SOL     OW 6212   4.348   3.765   2.557  0.7486 -0.5509 -0.2716
 1896SOL    HW1 6213   4.387   3.765   2.470  1.0734  0.4412 -0.1371
 1896SOL    HW2 6214   4.369   3.679   2.592  2.1073 -0.3563 -0.5302
 1897SOL     OW 6215   6.263   5.774   0.193 -0.2054 -0.3322 -0.7332
 1897SOL    HW1 6216   6.294   5.782   0.103 -1.4631 -1.5182 -1.2991
 1897SOL    HW2 6217   6.176   5.813   0.192  0.9718  2.6376  0.7597
 1898SOL     OW 6218   2.446   2.762   5.097 -0.6253 -0.0351  0.4159
 1898SOL    HW1 6219   2.419   2.672   5.117 -0.8876  0.1566  0.9480
 1898SOL    HW2 6220   2.475   2.759   5.005 -0.4834 -0.6925  0.4773
 1899SOL     OW 6221   2.879   2.806   6.832 -0.1376 -0.3905 -0.6719
 1899SOL    HW1 6222   2.944   2.743   6.802 -0.0207 -1.3633  1.5104
 1899SOL    HW2 6223   2.854   2.777   6.919  1.9709  4.0362  1.7565
 1900SOL     OW 6224   6.748   5.115   2.557 -0.1334 -0.4133 -0.0307
 1900SOL    HW1 6225   6.695   5.120   2.478 -0.4146 -1.4501  0.0797
 1900SOL    HW2 6226   6.711   5.181   2.615 -1.1852 -0.9741 -0.0380
 1901SOL     OW 6227   6.470   7.349   0.695 -0.0014  0.4231  0.0508
 1901SOL    HW1 6228   6.429   7.263   0.695  0.5301  0.1404  1.3924
 1901SOL    HW2 6229   6.529   7.347   0.770 -0.4184  2.1542  0.4773
 1902SOL     OW 6230   0.137   0.246   3.632  0.2945 -0.0786 -0.0250
 1902SOL    HW1 6231   0.128   0.334   3.670 -0.5916 -0.3352  0.3887
 1902SOL    HW2 6232   0.161   0.263   3.541 -1.0086  0.6527 -0.2705
 1903SOL     OW 6233   2.493   5.336   2.748 -0.4740 -0.3175 -0.9460
 1903SOL    HW1 6234   2.524   5.409   2.695 -0.9719  1.2663  0.8212
 1903SOL    HW2 6235   2.409   5.312   2.710 -1.1185  1.2105 -0.5490
 1904SOL     OW 6236   3.955   7.391   7.188  0.2864 -0.1427  0.1200
 1904SOL    HW1 6237   4.050   7.380   7.181  0.1885 -2.4704  1.3274
 1904SOL    HW2 6238   3.926   7.316   7.241 -1.8715  1.9818  2.2502
 1905SOL     OW 6239   4.213   5.372   7.332  0.5000  0.2383 -0.8363
 1905SOL    HW1 6240   4.280   5.305   7.342  0.3098  0.2986  1.7328
 1905SOL    HW2 6241   4.259   5.455   7.345  0.1759  0.3550 -0.3879
 1906SOL     OW 6242   6.222   7.559   5.878  0.3647 -0.3399 -0.2491
 1906SOL    HW1 6243   6.220   7.492   5.947  1.5293 -0.6115 -0.4621
 1906SOL    HW2 6244   6.296   7.615   5.902  0.1432  0.1645 -0.7346
 1907SOL     OW 6245   5.999   1.257   5.074 -0.4505  0.4741  0.3842
 1907SOL    HW1 6246   5.940   1.289   5.142 -1.5753  1.6494 -1.0635
 1907SOL    HW2 6247   5.978   1.164   5.066 -1.0090  0.5415  0.9702
 1908SOL     OW 6248   5.343   1.405   6.198  0.1710 -0.2284  0.3867
 1908SOL    HW1 6249   5.257   1.446   6.206  0.3991  0.2877  0.2489
 1908SOL    HW2 6250   5.329   1.314   6.222 -0.2111  0.0826  1.4084
 1909SOL     OW 6251   0.922   4.150   0.984  0.0397 -0.5811  0.8826
 1909SOL    HW1 6252   1.006   4.121   1.019  0.9911  1.5612  0.4992
 1909SOL    HW2 6253   0.879   4.193   1.058  0.3247  0.4216  0.4766
 1910SOL     OW 6254   1.073   6.249   3.693 -0.4756  0.2756  0.3245
 1910SOL    HW1 6255   1.066   6.153   3.699 -2.3582  0.3132 -0.5741
 1910SOL    HW2 6256   1.101   6.266   3.603 -0.5258  0.5784  0.3648
 1911SOL     OW 6257   6.099   5.831   5.121  0.0853  0.3876  0.1014
 1911SOL    HW1 6258   6.062   5.919   5.136 -2.6508 -0.4059 -1.2936
 1911SOL    HW2 6259   6.043   5.773   5.173  0.1595 -0.7921 -1.0992
 1912SOL     OW 6260   3.033   1.748   6.264  0.5759 -0.2747 -0.2045
 1912SOL    HW1 6261   2.971   1.675   6.264  0.3758 -0.1161 -1.0536
 1912SOL    HW2 6262   3.119   1.707   6.275  0.4283 -0.5989 -0.2497
 1913SOL     OW 6263   6.480   0.211   5.712 -0.0530 -0.3540  0.4656
 1913SOL    HW1 6264   6.447   0.130   5.674 -0.0621 -0.6462  1.0774
 1913SOL    HW2 6265   6.405   0.250   5.756  0.1328 -0.4127  0.8412
 1914SOL     OW 6266   0.548   4.733   7.534 -0.3734  0.5887  0.0259
 1914SOL    HW1 6267   0.546   4.689   7.619  0.0037  1.4634  0.5046
 1914SOL    HW2 6268   0.640   4.733   7.510 -0.2157  2.0124  0.5344
 1915SOL     OW 6269   2.015   7.276   2.548  0.2661  0.3504 -0.6257
 1915SOL    HW1 6270   1.984   7.248   2.634 -0.0701  2.6453  0.0697
 1915SOL    HW2 6271   1.965   7.223   2.486 -0.3002 -0.5480  0.5567
 1916SOL     OW 6272   5.764   0.788   6.837  0.3366  0.0325 -0.1204
 1916SOL    HW1 6273   5.831   0.742   6.787 -1.3440 -1.3228 -1.2562
 1916SOL    HW2 6274   5.804   0.872   6.859  2.5819 -0.9306 -0.2476
 1917SOL     OW 6275   7.254   1.861   6.321 -0.4991 -0.2268  0.2009
 1917SOL    HW1 6276   7.334   1.851   6.270 -0.5985  1.4496 -0.3427
 1917SOL    HW2 6277   7.274   1.820   6.405  0.1560 -1.7577 -0.6669
 1918SOL     OW 6278   4.313   3.772   4.792 -0.0103  0.1666 -0.3228
 1918SOL    HW1 6279   4.391   3.718   4.800 -0.3267 -0.4205 -1.1245
 1918SOL    HW2 6280   4.337   3.839   4.727 -0.1449  0.0322 -0.5122
 1919SOL     OW 6281   7.529   4.801   0.923  0.0764 -0.2374  0.3219
 1919SOL    HW1 6282   7.444   4.844   0.918 -0.3552 -1.2001 -1.5735
 1919SOL    HW2 6283   7.513   4.721   0.973 -0.4012 -0.9215 -0.8804
 1920SOL     OW 6284   6.016   7.292   0.899  0.2131 -0.5033 -0.5069
 1920SOL    HW1 6285   5.934   7.242   0.892  0.7488 -1.1883 -2.5087
 1920SOL    HW2 6286   6.074   7.252   0.835  1.4962  1.1702 -0.4597
 1921SOL     OW 6287   2.706   6.149   0.318  0.2279  0.0027  0.3902
 1921SOL    HW1 6288   2.736   6.065   0.285  1.9027  0.3741  0.8192
 1921SOL    HW2 6289   2.613   6.137   0.335  0.0017 -1.1378 -1.4007
 1922SOL     OW 6290   1.659   3.280   5.206  0.1278  0.4263 -0.8286
 1922SOL    HW1 6291   1.713   3.227   5.265 -0.1827 -0.0686 -0.9810
 1922SOL    HW2 6292   1.628   3.218   5.140  0.1351  0.8947 -1.2779
 1923SOL     OW 6293   4.072   2.677   2.842  0.1393 -0.1375  0.3502
 1923SOL    HW1 6294   3.987   2.696   2.881  0.3519  0.8959  0.3259
 1923SOL    HW2 6295   4.091   2.587   2.868 -1.1191 -0.5025  0.0653
 1924SOL     OW 6296   3.920   0.763   5.279  0.0308  0.4069  0.4473
 1924SOL    HW1 6297   4.005   0.749   5.237 -1.1800 -0.1862 -1.9591
 1924SOL    HW2 6298   3.891   0.676   5.304  0.0283  0.5866  1.0781
 1925SOL     OW 6299   2.575   0.801   5.011 -0.8302  0.7355 -1.0658
 1925SOL    HW1 6300   2.549   0.755   4.931  0.3471 -0.9759 -0.5289
 1925SOL    HW2 6301   2.493   0.825   5.053 -1.5105 -0.8445 -1.4332
 1926SOL     OW 6302   6.289   3.046   2.104  0.2331  0.0430 -0.1141
 1926SOL    HW1 6303   6.286   2.955   2.132 -0.2989  0.5225  1.5262
 1926SOL    HW2 6304   6.357   3.049   2.037  0.8302 -1.3963  0.3959
 1927SOL     OW 6305   0.886   3.532   1.269 -0.2656 -0.3475  0.4443
 1927SOL    HW1 6306   0.973   3.570   1.282  0.1918 -1.3158  0.3528
 1927SOL    HW2 6307   0.826   3.605   1.281  0.5757  0.4099  0.2186
 1928SOL     OW 6308   2.195   3.178   7.286  0.2029 -0.4392  0.1927
 1928SOL    HW1 6309   2.266   3.172   7.350 -0.4287 -0.1421  0.9343
 1928SOL    HW2 6310   2.218   3.253   7.232 -0.4770  0.8511  1.6221
 1929SOL     OW 6311   2.734   0.619   5.194 -0.7306 -0.3819  0.4637
 1929SOL    HW1 6312   2.808   0.673   5.221  1.2362 -2.4839 -0.3469
 1929SOL    HW2 6313   2.706   0.656   5.110  2.2104 -1.8963 -1.3555
 1930SOL     OW 6314   3.262   2.599   0.874 -0.4820 -0.3188  0.1450
 1930SOL    HW1 6315   3.321   2.662   0.917  0.4111 -0.6053 -0.6327
 1930SOL    HW2 6316   3.297   2.514   0.900 -2.3251 -0.5645  2.0852
 1931SOL     OW 6317   2.156   0.544   1.478 -0.7508 -0.0629 -0.3482
 1931SOL    HW1 6318   2.208   0.615   1.514  0.5126 -0.0778 -2.0339
 1931SOL    HW2 6319   2.185   0.466   1.525  0.4850 -0.0018 -0.9830
 1932SOL     OW 6320   7.263   5.287   5.567 -0.2325  0.0065 -0.2527
 1932SOL    HW1 6321   7.264   5.382   5.558 -0.6220 -0.0090 -0.4853
 1932SOL    HW2 6322   7.210   5.271   5.645 -0.2142 -0.0176 -0.2456
 1933SOL     OW 6323   1.856   1.043   3.556 -0.0127 -0.3343 -0.2887
 1933SOL    HW1 6324   1.843   1.001   3.641  0.3579 -0.9945 -0.5504
 1933SOL    HW2 6325   1.898   0.975   3.502 -0.4039  0.0205 -1.0492
 1934SOL     OW 6326   7.413   4.648   6.581  0.0660 -0.0237 -0.3152
 1934SOL    HW1 6327   7.432   4.624   6.490  1.3404  0.9246 -0.3345
 1934SOL    HW2 6328   7.343   4.713   6.575 -0.5774 -0.7362 -0.5416
 1935SOL     OW 6329   1.253   4.547   0.863  0.3378  0.0153 -0.0637
 1935SOL    HW1 6330   1.305   4.627   0.866 -1.3287  1.1246  0.5009
 1935SOL    HW2 6331   1.208   4.544   0.947 -0.2447 -1.0792 -0.3927
 1936SOL     OW 6332   2.941   5.185   3.398 -0.2450  0.2967  0.8747
 1936SOL    HW1 6333   2.847   5.197   3.384 -0.2130  0.2465  0.6109
 1936SOL    HW2 6334   2.967   5.120   3.333  0.1238  0.8905  0.4147
 1937SOL     OW 6335   5.380   1.286   3.524  0.2644  0.0723 -0.1413
 1937SOL    HW1 6336   5.332   1.368   3.535 -1.7527 -0.6252 -2.8573
 1937SOL    HW2 6337   5.379   1.246   3.611 -1.3133  1.5542  0.5723
 1938SOL     OW 6338   4.130   0.694   1.635  0.4837  0.1564 -0.2784
 1938SOL    HW1 6339   4.195   0.743   1.685  1.0878 -0.7877 -0.1196
 1938SOL    HW2 6340   4.179   0.624   1.593 -0.5572 -1.2023  0.6719
 1939SOL     OW 6341   7.031   4.393   6.775  0.3938 -0.0734 -0.2123
 1939SOL    HW1 6342   7.120   4.424   6.793  1.2835 -2.2920 -0.4810
 1939SOL    HW2 6343   7.000   4.449   6.703  0.9172  1.7718  0.9294
 1940SOL     OW 6344   4.086   6.831   1.933 -0.1546  0.0810 -0.3032
 1940SOL    HW1 6345   4.081   6.874   1.847 -1.0684  0.6983  0.0455
 1940SOL    HW2 6346   4.049   6.894   1.994  2.6832  0.6215  0.9727
 1941SOL     OW 6347   3.235   3.242   1.012 -0.0640  0.6400 -0.2589
 1941SOL    HW1 6348   3.147   3.259   1.045 -0.7277  2.2255 -2.6017
 1941SOL    HW2 6349   3.246   3.303   0.939  3.8615  2.1292  1.2858
 1942SOL     OW 6350   4.260   0.735   2.336  0.0821  0.2147  0.4640
 1942SOL    HW1 6351   4.290   0.822   2.361  0.2555  0.1333  0.5361
 1942SOL    HW2 6352   4.220   0.699   2.415 -1.0495  0.6786  0.1382
 1943SOL     OW 6353   3.176   0.463   4.608 -0.0912 -0.8097  0.3663
 1943SOL    HW1 6354   3.138   0.431   4.690  1.2689  0.1580  1.4502
 1943SOL    HW2 6355   3.270   0.466   4.626  0.0712  1.2571 -0.5475
 1944SOL     OW 6356   0.646   5.939   5.862 -0.1643 -0.0693 -0.6715
 1944SOL    HW1 6357   0.610   5.879   5.928 -1.4025 -0.1723 -1.4236
 1944SOL    HW2 6358   0.739   5.919   5.860 -0.3514 -1.0620  0.0291
 1945SOL     OW 6359   7.069   0.708   4.979 -0.3976 -0.1846  0.0795
 1945SOL    HW1 6360   7.155   0.685   4.943 -1.0414  0.9340 -2.3374
 1945SOL    HW2 6361   7.013   0.634   4.955 -0.3768 -0.4036  0.6876
 1946SOL     OW 6362   7.003   6.308   0.085 -0.7512 -0.3559  0.2320
 1946SOL    HW1 6363   6.986   6.295  -0.009 -0.1041  0.9786 -0.0908
 1946SOL    HW2 6364   6.920   6.341   0.120 -1.0308 -0.9695  0.1687
 1947SOL     OW 6365   3.537   6.216   5.916 -0.0676  0.2603  0.1957
 1947SOL    HW1 6366   3.538   6.143   5.854 -0.1743  0.7814 -0.4357
 1947SOL    HW2 6367   3.604   6.193   5.981 -0.8241 -0.8918  0.6016
 1948SOL     OW 6368   6.951   2.950   3.666 -0.5065 -0.0444 -0.1046
 1948SOL    HW1 6369   6.924   2.902   3.744  0.1765 -0.8119 -0.3280
 1948SOL    HW2 6370   7.046   2.961   3.676 -0.5765  0.7846 -0.3186
 1949SOL     OW 6371   6.416   1.957   2.456  0.4997 -0.0342 -0.0707
 1949SOL    HW1 6372   6.338   2.008   2.433  0.9026  0.5884 -0.0654
 1949SOL    HW2 6373   6.482   1.984   2.392  1.9645  2.4598  2.2947
 1950SOL     OW 6374   4.269   7.398   6.340 -0.4886 -0.0945  0.2515
 1950SOL    HW1 6375   4.186   7.350   6.341 -2.0664  2.3832  1.6224
 1950SOL    HW2 6376   4.266   7.449   6.258  0.3578 -1.0014 -0.3606
 1951SOL     OW 6377   2.610   0.202   3.563  0.2830  0.3704  0.0097
 1951SOL    HW1 6378   2.536   0.152   3.530  1.7755 -2.0757  0.1576
 1951SOL    HW2 6379   2.577   0.244   3.642 -1.0256 -0.3732 -0.1124
 1952SOL     OW 6380   7.092   7.389   2.880 -0.0110 -0.1145 -0.1903
 1952SOL    HW1 6381   7.134   7.463   2.836 -0.5342  0.2035 -0.1681
 1952SOL    HW2 6382   7.157   7.319   2.878  1.1816  0.8825  1.3326
 1953SOL     OW 6383   1.567   1.746   3.079  0.2627 -0.7001 -0.3615
 1953SOL    HW1 6384   1.473   1.731   3.091 -0.2586  1.8239 -0.7195
 1953SOL    HW2 6385   1.603   1.738   3.167 -0.8470  1.3748  0.3465
 1954SOL     OW 6386   0.949   0.850   5.503  0.4804  0.5402 -0.1110
 1954SOL    HW1 6387   1.012   0.870   5.572 -0.5064  1.0307  0.6617
 1954SOL    HW2 6388   0.930   0.757   5.515  0.5321  0.5551  0.0969
 1955SOL     OW 6389   7.401   6.384   6.424  0.6646 -0.0596 -0.1702
 1955SOL    HW1 6390   7.486   6.349   6.454  1.0120  0.1477 -0.9014
 1955SOL    HW2 6391   7.414   6.402   6.331 -1.0037 -2.5573 -0.9764
 1956SOL     OW 6392   2.443   5.444   3.014 -0.1547  0.3097 -0.7449
 1956SOL    HW1 6393   2.443   5.395   2.931  0.5989 -0.3306 -0.3772
 1956SOL    HW2 6394   2.355   5.432   3.048 -0.3574  0.2566 -1.2714
 1957SOL     OW 6395   0.208   6.617   2.588 -0.0055  0.4662  0.2817
 1957SOL    HW1 6396   0.184   6.591   2.500  2.9054 -0.8683 -0.2346
 1957SOL    HW2 6397   0.176   6.547   2.644  0.2919  0.0797 -0.0309
 1958SOL     OW 6398   7.219   1.574   4.374  0.2357  0.4114  0.3150
 1958SOL    HW1 6399   7.260   1.527   4.447  0.3605  0.0527  0.0178
 1958SOL    HW2 6400   7.130   1.537   4.370  0.3339  0.1992  0.0814
 1959SOL     OW 6401   4.818   4.545   4.874  0.0238 -0.1771 -0.0038
 1959SOL    HW1 6402   4.831   4.555   4.968 -0.7214 -0.3288  0.1212
 1959SOL    HW2 6403   4.846   4.629   4.837  1.4298 -0.5221  0.2188
 1960SOL     OW 6404   7.513   1.921   1.227  0.5712  0.1009  1.0005
 1960SOL    HW1 6405   7.535   1.849   1.168 -0.2980 -0.0199  0.8054
 1960SOL    HW2 6406   7.529   1.887   1.315  2.1745  0.3837  0.8468
 1961SOL     OW 6407   4.556   5.320   3.607 -0.1176  0.5758  0.0475
 1961SOL    HW1 6408   4.525   5.230   3.617  0.5351  0.2560 -0.7035
 1961SOL    HW2 6409   4.611   5.335   3.684  2.7662 -0.9704 -1.5302
 1962SOL     OW 6410   6.023   5.873   0.186 -0.2540 -0.7395 -0.0189
 1962SOL    HW1 6411   5.971   5.913   0.116  3.3547  1.4632 -1.7360
 1962SOL    HW2 6412   6.005   5.927   0.263 -0.2741  0.2130 -0.6682
 1963SOL     OW 6413   5.716   0.371   2.546  0.6334 -0.2355 -0.1791
 1963SOL    HW1 6414   5.724   0.394   2.453  0.2460  1.3059  0.1451
 1963SOL    HW2 6415   5.655   0.436   2.582  1.6085 -0.1310  1.3808
 1964SOL     OW 6416   2.934   4.433   4.254 -0.6026  0.5912  0.5252
 1964SOL    HW1 6417   2.894   4.351   4.226  1.5386 -0.5818  0.6353
 1964SOL    HW2 6418   2.989   4.460   4.181 -0.1510  1.1336  1.0487
 1965SOL     OW 6419   1.185   2.534   1.464 -0.3632  0.5238 -0.0632
 1965SOL    HW1 6420   1.127   2.599   1.425 -1.5083  0.4559  1.4233
 1965SOL    HW2 6421   1.185   2.555   1.557  1.9777  0.4616  0.0137
 1966SOL     OW 6422   6.767   1.997   0.469  0.0192  0.5590 -0.6535
 1966SOL    HW1 6423   6.827   2.071   0.456 -1.8562  2.6284  1.5532
 1966SOL    HW2 6424   6.711   1.997   0.391  2.7135 -1.4613 -2.7914
 1967SOL     OW 6425   2.719   3.446   0.483 -0.0469 -0.0424  0.2315
 1967SOL    HW1 6426   2.734   3.352   0.490 -0.4531  0.0236  3.0959
 1967SOL    HW2 6427   2.795   3.486   0.525 -0.3107  0.8650 -0.1317
 1968SOL     OW 6428   2.820   5.140   4.757  0.1971  0.4612 -0.2972
 1968SOL    HW1 6429   2.891   5.138   4.693  0.4660 -1.4255 -0.0062
 1968SOL    HW2 6430   2.855   5.092   4.833 -0.5225  1.6522  0.8370
 1969SOL     OW 6431   5.574   7.052   6.067 -0.3816  0.2017  0.1823
 1969SOL    HW1 6432   5.535   7.126   6.113  1.0779  1.4678 -0.5201
 1969SOL    HW2 6433   5.543   7.060   5.977  1.4739  1.3121 -0.4235
 1970SOL     OW 6434   4.803   1.960   4.547  0.5548  0.4064  0.1939
 1970SOL    HW1 6435   4.819   2.043   4.502  0.8470  1.6370  2.4094
 1970SOL    HW2 6436   4.854   1.896   4.497  0.9354  1.6849 -1.1397
 1971SOL     OW 6437   4.161   3.965   2.684  0.9197 -0.4397  0.3723
 1971SOL    HW1 6438   4.076   3.926   2.707  0.1085  0.9192 -0.1791
 1971SOL    HW2 6439   4.195   3.908   2.615  0.2352 -0.7375  0.2679
 1972SOL     OW 6440   2.923   2.074   0.270  0.0822 -0.4406  0.2991
 1972SOL    HW1 6441   2.877   2.080   0.187  0.3964  3.9449  0.2361
 1972SOL    HW2 6442   3.002   2.127   0.258  1.0491 -1.1067  2.9039
 1973SOL     OW 6443   6.054   2.505   2.254  0.0277 -0.5103 -0.2647
 1973SOL    HW1 6444   6.143   2.521   2.283 -0.0017 -0.3983 -0.2331
 1973SOL    HW2 6445   5.999   2.552   2.317 -0.0768 -1.0026  0.0154
 1974SOL     OW 6446   4.860   1.354   6.310 -0.1103  0.0935  0.2640
 1974SOL    HW1 6447   4.856   1.312   6.396  1.3701 -1.1204 -0.2133
 1974SOL    HW2 6448   4.813   1.293   6.253 -2.8830  1.8649  0.4975
 1975SOL     OW 6449   3.223   1.212   5.332  0.1630 -0.1129 -0.1072
 1975SOL    HW1 6450   3.137   1.212   5.290  0.4150  2.1980 -0.7538
 1975SOL    HW2 6451   3.283   1.185   5.263  0.0371 -1.3776  0.2487
 1976SOL     OW 6452   5.348   1.884   3.645 -0.7670  0.1366 -0.2191
 1976SOL    HW1 6453   5.378   1.885   3.554  0.6351 -0.5248  0.2026
 1976SOL    HW2 6454   5.423   1.852   3.694 -1.7799 -0.3350  1.0817
 1977SOL     OW 6455   0.996   2.123   0.996  0.1030 -0.3776  0.4187
 1977SOL    HW1 6456   0.989   2.077   1.079  0.9355  1.1487  1.3816
 1977SOL    HW2 6457   1.022   2.212   1.020 -1.7349  0.7086 -1.3340
 1978SOL     OW 6458   3.908   4.584   2.281  0.2042 -0.1171  0.1883
 1978SOL    HW1 6459   3.916   4.680   2.284 -0.6349  0.0551 -1.6425
 1978SOL    HW2 6460   3.998   4.553   2.273  0.5353  0.4590  1.4189
 1979SOL     OW 6461   6.402   1.600   3.668  0.0366 -0.2284  0.3979
 1979SOL    HW1 6462   6.464   1.627   3.736  0.5659  0.5767 -0.3762
 1979SOL    HW2 6463   6.326   1.657   3.681  0.5245  0.5928 -0.2640
 1980SOL     OW 6464   2.677   6.455   1.558 -0.5056  0.1811  1.0349
 1980SOL    HW1 6465   2.654   6.365   1.580 -3.8735  0.4121 -0.8985
 1980SOL    HW2 6466   2.745   6.446   1.491  0.2537 -0.8132  1.8918
 1981SOL     OW 6467   7.550   0.913   7.107  0.1221 -0.4276  0.1290
 1981SOL    HW1 6468   7.587   1.001   7.118 -2.0967  0.5335  0.6139
 1981SOL    HW2 6469   7.538   0.903   7.013 -0.0509  0.0195  0.0991
 1982SOL     OW 6470   0.691   6.407   4.166  0.3418  0.1734  0.4124
 1982SOL    HW1 6471   0.743   6.381   4.242  2.4947  0.2197 -0.9687
 1982SOL    HW2 6472   0.660   6.495   4.187  0.1273 -0.1599  1.5837
 1983SOL     OW 6473   4.032   4.729   2.901  0.3512  0.4632 -0.0938
 1983SOL    HW1 6474   4.009   4.685   2.819 -1.2526  0.8905  0.0892
 1983SOL    HW2 6475   3.976   4.806   2.904  0.1703  0.3176  1.5345
 1984SOL     OW 6476   0.192   2.333   3.883 -0.2913  0.1769 -0.4679
 1984SOL    HW1 6477   0.097   2.338   3.893 -0.2895 -0.1946 -0.2436
 1984SOL    HW2 6478   0.215   2.246   3.917  0.4219  1.1373  1.6209
 1985SOL     OW 6479   3.660   2.538   4.956  0.0127 -0.2896 -0.4247
 1985SOL    HW1 6480   3.593   2.572   5.015  1.7761  1.3121  0.7744
 1985SOL    HW2 6481   3.664   2.601   4.884 -1.8242 -2.0055 -2.1383
 1986SOL     OW 6482   3.943   4.899   3.446 -0.4774  0.1021 -0.1028
 1986SOL    HW1 6483   3.996   4.820   3.433 -0.9009 -0.3216  0.6635
 1986SOL    HW2 6484   3.884   4.900   3.371 -0.8495 -0.6306  0.1689
 1987SOL     OW 6485   7.103   1.572   3.422  0.5031 -0.5048  0.5633
 1987SOL    HW1 6486   7.184   1.530   3.449  1.6284  2.1641  1.6804
 1987SOL    HW2 6487   7.129   1.627   3.348 -0.6145 -0.6830  0.0220
 1988SOL     OW 6488   4.405   7.509   0.268 -0.3791 -0.0480  0.6209
 1988SOL    HW1 6489   4.493   7.507   0.305 -0.2328  1.3298  0.4206
 1988SOL    HW2 6490   4.349   7.475   0.337  0.3045 -1.0328  0.7164
 1989SOL     OW 6491   4.982   3.431   2.619 -0.1610 -0.5538 -0.0390
 1989SOL    HW1 6492   5.068   3.460   2.588 -0.0273  1.0747  1.6670
 1989SOL    HW2 6493   4.980   3.337   2.598  1.7328 -0.4957 -0.7404
 1990SOL     OW 6494   1.652   4.599   3.821  0.7807  0.0352  0.0916
 1990SOL    HW1 6495   1.681   4.687   3.799  0.3330  0.2703  0.4149
 1990SOL    HW2 6496   1.642   4.555   3.737  1.3116  0.1925 -0.0564
 1991SOL     OW 6497   3.778   7.386   2.134 -0.0051 -0.2735  0.0138
 1991SOL    HW1 6498   3.782   7.406   2.227 -0.0638 -0.0673 -0.0268
 1991SOL    HW2 6499   3.688   7.359   2.118  0.2269 -1.1711  0.1859
 1992SOL     OW 6500   3.829   5.768   3.150  0.0036 -0.2345  0.2659
 1992SOL    HW1 6501   3.806   5.831   3.218 -0.6579  0.0386 -0.2024
 1992SOL    HW2 6502   3.907   5.804   3.108  0.1852 -0.2111  0.6229
 1993SOL     OW 6503   2.080   7.193   5.012  0.3271  0.2973  0.3842
 1993SOL    HW1 6504   2.140   7.137   5.061  0.4636 -1.2986 -1.4772
 1993SOL    HW2 6505   2.118   7.280   5.018  2.1968 -0.4557  0.3010
 1994SOL     OW 6506   5.832   2.711   6.301 -0.1609 -0.0248 -0.3202
 1994SOL    HW1 6507   5.871   2.796   6.281 -1.1406  0.6179  0.4102
 1994SOL    HW2 6508   5.841   2.661   6.221 -0.0254  0.9434 -0.9254
 1995SOL     OW 6509   6.750   0.426   2.598 -0.2559 -0.1730  0.0510
 1995SOL    HW1 6510   6.684   0.494   2.582 -0.4820 -0.5908 -0.8356
 1995SOL    HW2 6511   6.827   0.456   2.549  0.0290  0.0251  0.6156
 1996SOL     OW 6512   7.373   1.002   1.369  0.2011 -0.2689 -0.6813
 1996SOL    HW1 6513   7.287   0.964   1.388  1.2164 -1.8680  1.0935
 1996SOL    HW2 6514   7.424   0.986   1.448  1.2231  3.5606 -0.3571
 1997SOL     OW 6515   1.529   1.703   1.344  0.2484  0.4153  0.2697
 1997SOL    HW1 6516   1.534   1.660   1.259 -1.8512  2.2886 -0.9049
 1997SOL    HW2 6517   1.601   1.766   1.344  0.2030  0.4652 -0.1511
 1998SOL     OW 6518   3.103   4.629   5.297 -0.0842  0.2058  0.1724
 1998SOL    HW1 6519   3.078   4.563   5.361  0.2353  0.8262  0.9665
 1998SOL    HW2 6520   3.148   4.581   5.228 -0.3495 -0.4676  0.4684
 1999SOL     OW 6521   6.556   7.225   0.114  0.2651 -0.3437 -0.3691
 1999SOL    HW1 6522   6.579   7.134   0.129 -0.7585 -0.5661 -0.0687
 1999SOL    HW2 6523   6.473   7.237   0.160  0.4725  0.7926 -0.2439
 2000SOL     OW 6524   5.430   5.210   1.790  0.4256  0.3702 -0.0927
 2000SOL    HW1 6525   5.518   5.201   1.753  0.0287  1.6773 -1.4179
 2000SOL    HW2 6526   5.442   5.267   1.866  0.8139 -0.0382  0.1607
 2001SOL     OW 6527   6.467   4.224   6.818 -0.4286 -0.0011  0.1351
 2001SOL    HW1 6528   6.547   4.192   6.776 -1.8248 -1.2716 -1.6953
 2001SOL    HW2 6529   6.455   4.168   6.895  0.3058  0.0658  0.3024
 2002SOL     OW 6530   4.403   5.715   4.825 -0.2873  0.0022 -0.8962
 2002SOL    HW1 6531   4.376   5.635   4.870 -1.8903  1.3756  0.7683
 2002SOL    HW2 6532   4.359   5.712   4.740 -1.8124 -0.0693 -0.1285
 2003SOL     OW 6533   0.668   0.779   2.224  0.0771 -0.0287 -0.1238
 2003SOL    HW1 6534   0.660   0.874   2.233  1.0612  0.0461  0.0580
 2003SOL    HW2 6535   0.752   0.758   2.265  0.9118 -0.7009 -2.0998
 2004SOL     OW 6536   7.292   4.376   3.975  0.1937 -0.3305 -1.1134
 2004SOL    HW1 6537   7.364   4.376   3.912 -0.5674  0.8943 -2.0135
 2004SOL    HW2 6538   7.280   4.467   4.000 -1.8051 -0.3148 -1.9022
 2005SOL     OW 6539   2.650   2.249   5.753 -0.0042  0.5305 -0.0113
 2005SOL    HW1 6540   2.639   2.170   5.806 -0.7909  0.0326 -0.8911
 2005SOL    HW2 6541   2.706   2.306   5.806  1.7107 -1.1284  0.0592
 2006SOL     OW 6542   1.692   6.701   7.508  0.2699  0.1858  0.4545
 2006SOL    HW1 6543   1.729   6.623   7.466  0.2098  0.8733 -0.9542
 2006SOL    HW2 6544   1.765   6.762   7.514  0.0695  0.4226  0.5044
 2007SOL     OW 6545   2.642   6.004   0.908 -0.3934  0.2743 -0.5745
 2007SOL    HW1 6546   2.576   5.934   0.905 -2.0459  1.7802 -1.1558
 2007SOL    HW2 6547   2.650   6.033   0.817 -0.8584  1.8022 -0.1586
 2008SOL     OW 6548   3.294   2.225   2.818 -0.5459  0.1823  0.5931
 2008SOL    HW1 6549   3.299   2.143   2.770 -3.0642  0.1459  0.2566
 2008SOL    HW2 6550   3.346   2.211   2.897 -2.4228 -2.4409  1.4717
 2009SOL     OW 6551   6.580   0.490   5.903 -0.1920 -0.0392 -0.6859
 2009SOL    HW1 6552   6.632   0.472   5.981 -0.3242  1.4473 -0.2158
 2009SOL    HW2 6553   6.621   0.440   5.834  0.2158 -1.0181  0.2436
 2010SOL     OW 6554   1.005   5.043   5.148 -0.1901  0.1647  0.0883
 2010SOL    HW1 6555   0.948   4.976   5.186  2.6502 -2.0682  0.6911
 2010SOL    HW2 6556   1.035   5.094   5.223 -2.8875  2.8225 -0.4195
 2011SOL     OW 6557   0.510   4.474   2.468 -0.3480  0.1730 -0.0676
 2011SOL    HW1 6558   0.485   4.400   2.413  2.1708 -0.4857 -0.4542
 2011SOL    HW2 6559   0.462   4.548   2.432 -1.3766 -0.8817 -0.9478
 2012SOL     OW 6560   3.505   1.476   3.930 -0.1669  0.5079 -0.1070
 2012SOL    HW1 6561   3.499   1.450   4.021 -0.0031  0.2610 -0.1656
 2012SOL    HW2 6562   3.586   1.527   3.924  0.0688  0.1311 -0.2050
 2013SOL     OW 6563   7.518   0.923   1.128 -0.4495 -0.5640  0.1065
 2013SOL    HW1 6564   7.539   1.017   1.127 -0.5948 -0.4863  1.7182
 2013SOL    HW2 6565   7.428   0.919   1.159 -0.4223 -1.2402  0.1118
 2014SOL     OW 6566   6.176   1.109   5.811  0.3046  0.4176  0.3577
 2014SOL    HW1 6567   6.089   1.099   5.771  1.3368 -3.2505 -1.4121
 2014SOL    HW2 6568   6.169   1.065   5.896  0.6589 -0.9380 -0.2893
 2015SOL     OW 6569   0.672   1.359   2.358  0.4812 -0.0344  0.0234
 2015SOL    HW1 6570   0.725   1.406   2.422  0.0510  0.7789 -0.2053
 2015SOL    HW2 6571   0.736   1.327   2.293  0.7503  0.4846  0.0252
 2016SOL     OW 6572   1.068   5.484   3.637  0.1951 -0.1584  0.0879
 2016SOL    HW1 6573   1.024   5.450   3.715 -1.6136  1.2447 -0.2508
 2016SOL    HW2 6574   1.128   5.550   3.671 -0.1298  0.0020  0.3634
 2017SOL     OW 6575   4.619   5.323   6.854  0.0879  0.3432 -0.6488
 2017SOL    HW1 6576   4.675   5.256   6.815 -1.6933 -1.0055 -0.9903
 2017SOL    HW2 6577   4.534   5.311   6.812 -1.3381  0.2832  2.0091
 2018SOL     OW 6578   3.278   4.800   4.315  0.3587 -0.8525  0.8965
 2018SOL    HW1 6579   3.308   4.836   4.399  0.7197 -0.9958  0.8303
 2018SOL    HW2 6580   3.243   4.713   4.338 -0.7505 -0.3679  1.0958
 2019SOL     OW 6581   3.049   5.588   4.692 -0.4328  0.9556 -0.4681
 2019SOL    HW1 6582   2.976   5.543   4.648  0.6010 -0.7207 -0.5460
 2019SOL    HW2 6583   3.120   5.524   4.692  0.9576  2.4400 -0.1078
 2020SOL     OW 6584   1.978   4.757   5.499  0.2922 -0.3957 -0.0307
 2020SOL    HW1 6585   1.966   4.750   5.594  1.2681 -0.2072  0.1141
 2020SOL    HW2 6586   2.050   4.698   5.479  2.0282  1.6378 -0.2035
 2021SOL     OW 6587   3.990   3.120   7.364  0.4451  0.6221  0.0343
 2021SOL    HW1 6588   3.930   3.109   7.437  2.0689 -1.4660  1.1301
 2021SOL    HW2 6589   4.047   3.192   7.391  1.3840 -0.4959  1.1045
 2022SOL     OW 6590   4.745   0.360   6.443 -0.1970  0.4020 -0.0116
 2022SOL    HW1 6591   4.678   0.298   6.472  1.0593 -0.0084  2.2362
 2022SOL    HW2 6592   4.698   0.442   6.430 -1.6661 -0.6304 -1.8120
 2023SOL     OW 6593   2.075   3.381   3.722 -0.6143  0.2166 -0.0424
 2023SOL    HW1 6594   2.087   3.293   3.686 -3.1825  0.1545 -0.9808
 2023SOL    HW2 6595   2.105   3.440   3.652  1.7618  0.1594  0.8518
 2024SOL     OW 6596   0.804   2.644   6.014  0.8523 -0.3901  0.9150
 2024SOL    HW1 6597   0.784   2.589   5.939  0.8214  0.3244  0.3883
 2024SOL    HW2 6598   0.728   2.702   6.022  0.4868 -0.9857  1.9962
 2025SOL     OW 6599   0.687   0.338   6.945 -0.1904 -0.3923  0.5207
 2025SOL    HW1 6600   0.667   0.247   6.925  1.0609 -0.5024 -0.3219
 2025SOL    HW2 6601   0.712   0.337   7.037  1.3157 -1.1920  0.1379
 2026SOL     OW 6602   2.041   3.632   1.963  0.1029 -0.2708  0.0281
 2026SOL    HW1 6603   2.111   3.691   1.937  0.5464 -0.6691  0.3060
 2026SOL    HW2 6604   2.079   3.544   1.955 -1.3311 -0.7647 -3.0298
 2027SOL     OW 6605   3.449   0.132   3.645 -0.0150 -0.3494  0.0369
 2027SOL    HW1 6606   3.440   0.191   3.570  0.4815  1.8354  1.5717
 2027SOL    HW2 6607   3.359   0.111   3.670 -0.2779  0.8093  0.1654
 2028SOL     OW 6608   6.612   5.684   5.322  0.4039  0.2568  0.1365
 2028SOL    HW1 6609   6.523   5.689   5.355 -0.2220 -0.5140 -1.3379
 2028SOL    HW2 6610   6.632   5.773   5.293 -0.3295  0.1966 -0.5893
 2029SOL     OW 6611   4.564   0.789   6.224 -0.2806 -0.8143 -0.0981
 2029SOL    HW1 6612   4.512   0.862   6.191  0.4662 -0.9161 -1.6011
 2029SOL    HW2 6613   4.601   0.749   6.145  1.2183 -1.3808  0.8529
 2030SOL     OW 6614   5.056   2.485   6.917 -0.3401 -0.1367 -0.0604
 2030SOL    HW1 6615   5.111   2.469   6.840  0.8336  2.4682  0.1517
 2030SOL    HW2 6616   4.969   2.454   6.890  0.1879  0.0337 -2.1771
 2031SOL     OW 6617   6.474   2.476   5.723  0.2214  0.2211  0.0397
 2031SOL    HW1 6618   6.499   2.470   5.631 -1.8069  0.6881 -0.5956
 2031SOL    HW2 6619   6.394   2.528   5.723 -1.1649 -1.7128  1.7896
 2032SOL     OW 6620   1.423   0.739   1.322  0.0176 -0.1336 -0.0578
 2032SOL    HW1 6621   1.470   0.790   1.256  1.3322  0.3824  1.2482
 2032SOL    HW2 6622   1.412   0.799   1.396 -0.4835 -1.0346  0.6187
 2033SOL     OW 6623   6.996   3.569   6.617 -0.0219  0.0653  0.0884
 2033SOL    HW1 6624   7.008   3.571   6.522  1.0657  1.4994  0.2259
 2033SOL    HW2 6625   6.949   3.650   6.638  0.3698  0.1065  0.8557
 2034SOL     OW 6626   4.215   0.148   4.493 -0.2640 -0.5468  0.1024
 2034SOL    HW1 6627   4.292   0.204   4.504 -1.5750  1.2953  0.4875
 2034SOL    HW2 6628   4.173   0.181   4.413 -1.4359 -0.4812  0.7202
 2035SOL     OW 6629   1.214   5.441   7.046  0.0483  0.0932 -0.1362
 2035SOL    HW1 6630   1.216   5.358   6.999 -0.9524  0.5815 -1.0663
 2035SOL    HW2 6631   1.301   5.478   7.033  0.0685 -0.1945 -0.8386
 2036SOL     OW 6632   0.836   7.239   0.600 -0.5861 -0.0247  0.2594
 2036SOL    HW1 6633   0.757   7.219   0.551  0.2765 -1.9296 -0.4558
 2036SOL    HW2 6634   0.826   7.191   0.682 -0.8595  1.0229  0.8488
 2037SOL     OW 6635   3.071   2.615   7.499  0.7424 -0.3720  0.6283
 2037SOL    HW1 6636   3.106   2.527   7.491 -0.0884 -0.8398  1.7209
 2037SOL    HW2 6637   3.081   2.654   7.413 -0.5030 -2.1768 -0.4039
 2038SOL     OW 6638   2.981   5.777   1.929 -0.2578  0.1322 -0.3016
 2038SOL    HW1 6639   2.961   5.709   1.866 -0.2717 -0.4612  0.3287
 2038SOL    HW2 6640   2.905   5.836   1.926  1.0109  1.8301 -3.0039
 2039SOL     OW 6641   2.950   1.815   2.327  0.2066  0.4939  0.0288
 2039SOL    HW1 6642   2.994   1.838   2.409  1.0992  1.1040 -0.6051
 2039SOL    HW2 6643   2.924   1.723   2.338 -0.6387  0.8733  1.3975
 2040SOL     OW 6644   1.382   6.405   6.492 -0.2289 -0.4284  0.2276
 2040SOL    HW1 6645   1.472   6.419   6.520 -0.6580  0.4883  1.2047
 2040SOL    HW2 6646   1.366   6.312   6.508  0.5747 -0.6179 -0.0544
 2041SOL     OW 6647   7.455   3.018   3.900  0.7567 -0.0678  0.4499
 2041SOL    HW1 6648   7.406   3.099   3.884  0.6627 -0.2759 -0.3739
 2041SOL    HW2 6649   7.395   2.963   3.950  1.3085  0.8758  2.2402
 2042SOL     OW 6650   5.102   4.828   7.099 -0.0171 -0.2216 -0.3499
 2042SOL    HW1 6651   5.135   4.907   7.140  0.9124 -1.2736  0.9974
 2042SOL    HW2 6652   5.179   4.789   7.057 -0.0789 -1.2733  0.4687
 2043SOL     OW 6653   1.851   2.812   3.031 -0.1651  0.0283 -0.1889
 2043SOL    HW1 6654   1.843   2.906   3.048 -1.0324  0.0946 -0.8884
 2043SOL    HW2 6655   1.863   2.806   2.937 -0.6330 -0.5900 -0.2105
 2044SOL     OW 6656   1.994   0.379   0.416 -0.3548 -0.0647 -0.2112
 2044SOL    HW1 6657   1.905   0.350   0.439 -0.8806  2.1756  0.8779
 2044SOL    HW2 6658   2.048   0.349   0.489 -0.8494  1.3268  0.7839
 2045SOL     OW 6659   4.157   0.140   0.896 -0.4399  0.0671  0.3140
 2045SOL    HW1 6660   4.087   0.157   0.959  0.5593  2.4603  0.9157
 2045SOL    HW2 6661   4.193   0.055   0.921 -1.7159 -0.2032  1.3216
 2046SOL     OW 6662   2.449   5.711   1.605  0.8256  0.0826  0.2170
 2046SOL    HW1 6663   2.487   5.626   1.582  1.4620  0.2848  0.5172
 2046SOL    HW2 6664   2.495   5.738   1.684  0.4163  0.5754  0.2944
 2047SOL     OW 6665   3.255   6.529   0.106  0.6609 -0.0721 -0.3547
 2047SOL    HW1 6666   3.319   6.590   0.142  0.5230  0.7294 -1.4301
 2047SOL    HW2 6667   3.177   6.582   0.091 -0.4676 -1.1335  1.3921
 2048SOL     OW 6668   4.972   0.505   4.861  0.0734  0.0498  0.0366
 2048SOL    HW1 6669   4.995   0.418   4.890 -1.0095  0.3184  1.8539
 2048SOL    HW2 6670   4.921   0.542   4.933 -1.3451  1.3893 -1.5430
 2049SOL     OW 6671   7.464   5.705   6.284 -0.1044  0.0360 -0.6768
 2049SOL    HW1 6672   7.455   5.787   6.332 -2.2293 -0.4158 -0.1773
 2049SOL    HW2 6673   7.459   5.729   6.192 -1.1473  0.4675 -0.5254
 2050SOL     OW 6674   2.708   4.388   7.486 -0.2406  0.5577 -0.3033
 2050SOL    HW1 6675   2.716   4.408   7.580  3.4448  0.2831 -0.4400
 2050SOL    HW2 6676   2.696   4.474   7.444 -1.5625  0.7119  0.3184
 2051SOL     OW 6677   1.303   1.100   0.748 -0.0012  0.0336  0.0769
 2051SOL    HW1 6678   1.362   1.029   0.774  0.0869  0.4025  0.9130
 2051SOL    HW2 6679   1.361   1.172   0.726 -0.1345  0.7791  2.0210
 2052SOL     OW 6680   6.175   7.452   3.611 -0.3092  0.9338 -0.1743
 2052SOL    HW1 6681   6.144   7.498   3.688  0.1384  0.6441  0.1870
 2052SOL    HW2 6682   6.110   7.384   3.595 -0.6569  1.3045 -0.3474
 2053SOL     OW 6683   7.228   1.983   0.257  0.0035 -0.1890 -0.8783
 2053SOL    HW1 6684   7.155   1.930   0.290  0.0854  1.0123  1.4493
 2053SOL    HW2 6685   7.198   2.013   0.171 -1.5443 -1.0961 -0.7037
 2054SOL     OW 6686   4.202   5.863   5.043  0.3070 -0.0250 -0.0499
 2054SOL    HW1 6687   4.186   5.776   5.079  1.3767  0.3405  1.3646
 2054SOL    HW2 6688   4.269   5.848   4.976 -1.1022 -0.5806 -1.4054
 2055SOL     OW 6689   6.411   5.287   2.240  0.1115 -0.5395  0.9203
 2055SOL    HW1 6690   6.331   5.246   2.208  1.4380 -3.0911  0.6164
 2055SOL    HW2 6691   6.406   5.377   2.208 -1.8238 -1.1008 -0.5482
 2056SOL     OW 6692   5.992   2.016   4.149 -0.4428  0.0636 -0.3211
 2056SOL    HW1 6693   6.076   2.026   4.194 -1.1502 -0.9693  1.3109
 2056SOL    HW2 6694   5.980   2.099   4.102  1.2727  0.3925 -0.2413
 2057SOL     OW 6695   5.708   3.048   5.510  0.5843 -0.4331 -0.1718
 2057SOL    HW1 6696   5.706   3.005   5.425  2.1717 -1.6434  0.3695
 2057SOL    HW2 6697   5.628   3.019   5.554  0.5665 -1.1068 -0.6390
 2058SOL     OW 6698   6.547   1.520   0.603 -0.1081 -0.7580 -0.5334
 2058SOL    HW1 6699   6.613   1.451   0.591  0.3479 -0.0160 -2.5258
 2058SOL    HW2 6700   6.477   1.498   0.541 -0.6276 -0.1843 -0.1686
 2059SOL     OW 6701   4.658   5.490   4.810 -0.2948  0.3322 -0.1944
 2059SOL    HW1 6702   4.574   5.507   4.853 -0.0288  0.2887  0.3508
 2059SOL    HW2 6703   4.711   5.567   4.829 -0.6476  0.9744 -1.6821
 2060SOL     OW 6704   1.471   0.308   3.346  0.1656 -0.4803  0.5068
 2060SOL    HW1 6705   1.560   0.313   3.380 -0.0170  2.4519  0.8158
 2060SOL    HW2 6706   1.424   0.256   3.411  0.8515  1.1814  2.4407
 2061SOL     OW 6707   2.770   1.295   1.224  0.0086  0.1575 -0.3828
 2061SOL    HW1 6708   2.852   1.261   1.188 -0.7932 -1.5366 -0.6611
 2061SOL    HW2 6709   2.701   1.247   1.179 -1.2141  2.1952 -0.8310
 2062SOL     OW 6710   4.853   3.280   3.774 -0.0403 -0.5222 -0.0307
 2062SOL    HW1 6711   4.840   3.264   3.681  0.6256 -0.3208 -0.1623
 2062SOL    HW2 6712   4.947   3.266   3.788  0.1021  0.7371  0.3487
 2063SOL     OW 6713   0.233   1.828   7.291  0.4070  1.1832  0.4764
 2063SOL    HW1 6714   0.228   1.766   7.364 -1.2492 -0.0693 -0.6184
 2063SOL    HW2 6715   0.168   1.895   7.312 -0.9150  0.2120 -0.3073
 2064SOL     OW 6716   1.307   3.068   1.442  0.1241  0.4899 -0.1719
 2064SOL    HW1 6717   1.296   3.147   1.496 -0.9262  0.0340  0.3165
 2064SOL    HW2 6718   1.295   2.996   1.504  0.1504 -0.0433 -0.7877
 2065SOL     OW 6719   7.064   7.155   5.489 -0.4223  0.2763  0.0518
 2065SOL    HW1 6720   7.138   7.153   5.429 -1.3578 -1.8550 -1.1282
 2065SOL    HW2 6721   7.097   7.116   5.570  0.5328  2.1390  0.6085
 2066SOL     OW 6722   3.212   2.683   4.896 -0.3350  0.1822 -0.1635
 2066SOL    HW1 6723   3.217   2.621   4.968 -0.8028  0.2088 -0.1071
 2066SOL    HW2 6724   3.304   2.697   4.870 -0.3042 -1.7840 -1.2583
 2067SOL     OW 6725   5.525   5.809   3.244 -0.0511  0.4537 -0.3910
 2067SOL    HW1 6726   5.508   5.849   3.330 -1.1565  0.5148 -0.6277
 2067SOL    HW2 6727   5.483   5.724   3.248  0.0144  0.3995 -0.8307
 2068SOL     OW 6728   6.518   0.617   1.018 -0.3870  0.3432  0.2940
 2068SOL    HW1 6729   6.508   0.525   0.993 -1.9004  0.5396  0.0948
 2068SOL    HW2 6730   6.577   0.654   0.953  1.8879 -0.9055  1.4938
 2069SOL     OW 6731   2.429   4.366   5.756 -0.4481 -0.4159  0.6704
 2069SOL    HW1 6732   2.383   4.426   5.697  1.8281  0.5930 -0.2134
 2069SOL    HW2 6733   2.439   4.285   5.706 -1.4481 -0.7168  0.9547
 2070SOL     OW 6734   3.128   2.065   0.509  0.1098  0.0028 -0.4970
 2070SOL    HW1 6735   3.154   2.040   0.421  1.8357  0.0250 -0.0265
 2070SOL    HW2 6736   3.198   2.122   0.540 -1.6354  2.0188  0.0259
 2071SOL     OW 6737   7.059   5.519   7.414  0.3170  0.2342 -0.2183
 2071SOL    HW1 6738   7.127   5.586   7.419 -0.7931  1.3416  0.2255
 2071SOL    HW2 6739   6.995   5.554   7.352 -0.8627  0.1464  0.9191
 2072SOL     OW 6740   1.003   2.525   6.181 -0.0585 -0.5846 -0.3919
 2072SOL    HW1 6741   0.938   2.559   6.119  0.9583  0.3620 -0.9598
 2072SOL    HW2 6742   1.085   2.524   6.133  0.6356 -0.4359  0.7457
 2073SOL     OW 6743   1.140   6.588   0.017 -0.0571  0.1238 -0.2635
 2073SOL    HW1 6744   1.048   6.594  -0.008 -0.1998 -0.4719  0.0856
 2073SOL    HW2 6745   1.186   6.645  -0.044 -0.5364 -0.3459 -1.0691
 2074SOL     OW 6746   0.451   4.666   6.070 -0.5101 -0.2946  0.4689
 2074SOL    HW1 6747   0.441   4.752   6.111 -0.6884  0.1482 -0.4711
 2074SOL    HW2 6748   0.421   4.604   6.136 -0.7493  0.3928  1.0171
 2075SOL     OW 6749   5.458   0.465   1.139 -0.3087 -0.2587 -0.0652
 2075SOL    HW1 6750   5.537   0.442   1.187 -1.2278 -0.6148  1.3259
 2075SOL    HW2 6751   5.386   0.436   1.195 -1.4408  0.7465 -0.9364
 2076SOL     OW 6752   2.875   6.041   2.781  0.4979  0.1290  0.1441
 2076SOL    HW1 6753   2.873   6.067   2.873  1.6247 -0.3593  0.3287
 2076SOL    HW2 6754   2.882   5.946   2.782  1.3662  0.1694 -0.4133
 2077SOL     OW 6755   1.094   1.229   2.018 -0.0135  0.2498 -0.1783
 2077SOL    HW1 6756   1.186   1.206   2.030  0.0098  0.9826  1.3207
 2077SOL    HW2 6757   1.056   1.155   1.971  0.7874 -1.2827  1.4696
 2078SOL     OW 6758   4.044   2.371   7.454  0.3263 -0.3410  0.1293
 2078SOL    HW1 6759   3.997   2.292   7.427  0.8734 -0.4275 -0.5950
 2078SOL    HW2 6760   4.063   2.357   7.546 -0.5019 -0.5857  0.2703
 2079SOL     OW 6761   7.118   1.293   3.238  0.0090 -0.0407  0.2897
 2079SOL    HW1 6762   7.118   1.381   3.277 -2.6926 -1.2298  3.4312
 2079SOL    HW2 6763   7.066   1.303   3.158 -2.3826  0.9205  1.8319
 2080SOL     OW 6764   6.259   2.425   1.723 -0.3242 -0.4140  0.0238
 2080SOL    HW1 6765   6.300   2.462   1.645 -0.0276 -1.5071 -0.3453
 2080SOL    HW2 6766   6.328   2.425   1.789  0.3046 -2.2203 -0.5871
 2081SOL     OW 6767   3.641   0.019   3.942 -0.3542  0.2707 -0.3272
 2081SOL    HW1 6768   3.680   0.080   4.004 -2.8039  1.9964 -0.3433
 2081SOL    HW2 6769   3.681  -0.065   3.962  0.7600  1.2660  1.8995
 2082SOL     OW 6770   3.633   3.913   2.229 -0.1374  0.2479  0.5065
 2082SOL    HW1 6771   3.611   3.964   2.307 -0.0490  0.6837  0.2504
 2082SOL    HW2 6772   3.727   3.926   2.218 -0.2993  0.9047 -0.1720
 2083SOL     OW 6773   3.732   2.396   0.138 -0.1484 -0.1370 -0.0413
 2083SOL    HW1 6774   3.720   2.303   0.118  0.4645 -0.2546  0.1372
 2083SOL    HW2 6775   3.791   2.397   0.213 -3.1058  0.2482  2.4867
 2084SOL     OW 6776   5.723   3.771   1.617 -0.1939 -0.3161 -0.1199
 2084SOL    HW1 6777   5.796   3.799   1.561 -0.6877 -0.8126 -1.0453
 2084SOL    HW2 6778   5.655   3.745   1.555 -1.6519  1.3422  0.7368
 2085SOL     OW 6779   0.613   2.609   4.723 -0.1047  0.0931 -0.6538
 2085SOL    HW1 6780   0.697   2.652   4.707  0.8329  0.0894  3.1067
 2085SOL    HW2 6781   0.551   2.681   4.733  0.5486  0.4561  1.2956
 2086SOL     OW 6782   6.158   2.566   1.966 -0.4068  0.1352  0.0992
 2086SOL    HW1 6783   6.110   2.534   2.043 -0.3028  2.3738  1.1746
 2086SOL    HW2 6784   6.241   2.519   1.968 -1.0255 -0.9756  0.4343
 2087SOL     OW 6785   3.620   0.105   4.864  0.2272  0.0864 -0.4469
 2087SOL    HW1 6786   3.563   0.031   4.884  0.3504  0.2576  0.6068
 2087SOL    HW2 6787   3.577   0.180   4.904  1.7442  0.0257  1.4484
 2088SOL     OW 6788   2.321   7.117   1.739  0.0273  0.3580  0.3861
 2088SOL    HW1 6789   2.310   7.034   1.785  0.1266 -0.5590 -1.1482
 2088SOL    HW2 6790   2.263   7.110   1.663  1.4739  0.8414 -0.8200
 2089SOL     OW 6791   5.025   2.503   0.635  0.1502  0.0660  0.3661
 2089SOL    HW1 6792   5.023   2.572   0.701 -0.3639 -0.1570  0.5813
 2089SOL    HW2 6793   4.975   2.539   0.561  0.1075  0.0272  0.3760
 2090SOL     OW 6794   2.884   0.854   6.168 -0.2241  0.0274  0.3268
 2090SOL    HW1 6795   2.950   0.836   6.235  0.4017  0.8108 -0.0561
 2090SOL    HW2 6796   2.849   0.941   6.191 -0.3287  0.1039 -0.0998
 2091SOL     OW 6797   6.494   2.935   4.803 -0.6632 -0.3567  0.0582
 2091SOL    HW1 6798   6.414   2.893   4.772 -0.8715 -0.8213  1.1968
 2091SOL    HW2 6799   6.548   2.863   4.836  0.2655 -0.0581 -0.7462
 2092SOL     OW 6800   2.367   3.127   6.048  0.6523 -0.3438  0.4089
 2092SOL    HW1 6801   2.444   3.164   6.091  0.6170 -0.1761  0.3267
 2092SOL    HW2 6802   2.354   3.181   5.970  0.7639 -0.6949  0.1441
 2093SOL     OW 6803   5.608   3.764   4.497 -0.1796  0.2843 -0.4657
 2093SOL    HW1 6804   5.586   3.742   4.587 -3.0909  0.8966 -0.9343
 2093SOL    HW2 6805   5.668   3.694   4.469  0.5017 -0.1063  1.7879
 2094SOL     OW 6806   0.701   5.034   3.584 -0.2856  0.2946  0.0422
 2094SOL    HW1 6807   0.767   4.983   3.632 -1.6091 -0.6334  0.9457
 2094SOL    HW2 6808   0.733   5.036   3.494  1.6999  1.1135  0.7166
 2095SOL     OW 6809   5.349   2.860   0.601  0.3586  0.0508  0.4959
 2095SOL    HW1 6810   5.327   2.808   0.678  1.0603 -1.5996 -0.3556
 2095SOL    HW2 6811   5.313   2.810   0.527  0.2008  1.2959 -0.3019
 2096SOL     OW 6812   2.478   6.131   3.931  0.8222 -0.3225 -0.2893
 2096SOL    HW1 6813   2.463   6.115   4.024 -0.8337 -0.4689 -0.5532
 2096SOL    HW2 6814   2.540   6.063   3.905 -1.0339 -2.2512  0.0738
 2097SOL     OW 6815   2.781   7.174   6.014 -0.3944 -0.0662  0.2256
 2097SOL    HW1 6816   2.706   7.186   5.956  0.0330  0.5650 -0.2147
 2097SOL    HW2 6817   2.743   7.152   6.099 -1.0026 -2.7272 -0.6532
 2098SOL     OW 6818   4.820   2.356   2.135  0.2282  0.4182  0.5781
 2098SOL    HW1 6819   4.914   2.361   2.119  0.0244 -2.0068 -2.3509
 2098SOL    HW2 6820   4.781   2.404   2.062 -0.7696 -1.2850 -0.0777
 2099SOL     OW 6821   4.793   4.239   0.452 -0.0857  0.0957 -0.5977
 2099SOL    HW1 6822   4.776   4.301   0.522  1.6504 -0.7016  0.5869
 2099SOL    HW2 6823   4.707   4.224   0.412 -0.9431  1.3035  0.6980
 2100SOL     OW 6824   0.413   3.405   3.066 -0.1227 -0.0109 -0.2880
 2100SOL    HW1 6825   0.472   3.479   3.083 -0.2328 -0.1538  0.8140
 2100SOL    HW2 6826   0.410   3.398   2.971  0.1422  1.1981 -0.4042
 2101SOL     OW 6827   5.801   3.886   2.103  0.0877  0.0952  0.4931
 2101SOL    HW1 6828   5.796   3.982   2.098 -0.1919  0.0589 -0.0085
 2101SOL    HW2 6829   5.726   3.861   2.156 -0.4522  0.0843 -0.2734
 2102SOL     OW 6830   0.984   2.843   0.989 -0.5089  0.2361 -0.4568
 2102SOL    HW1 6831   0.958   2.901   0.918 -1.4095  1.5522  0.9005
 2102SOL    HW2 6832   0.957   2.888   1.068 -0.6322 -1.7490  0.6904
 2103SOL     OW 6833   7.072   4.604   4.614 -0.0930  0.1801 -0.3831
 2103SOL    HW1 6834   7.137   4.662   4.653  0.7936 -0.8611 -0.2460
 2103SOL    HW2 6835   6.991   4.622   4.661 -0.1904  2.2293 -1.2320
 2104SOL     OW 6836   0.329   1.290   4.861  0.1064  0.2276 -0.4346
 2104SOL    HW1 6837   0.409   1.334   4.831 -0.3173  1.3661  0.0445
 2104SOL    HW2 6838   0.352   1.197   4.861  1.4073  0.5243 -0.3800
 2105SOL     OW 6839   7.523   3.317   2.039  0.0772 -0.0234  0.4948
 2105SOL    HW1 6840   7.509   3.223   2.050  1.2452 -0.3375 -0.4697
 2105SOL    HW2 6841   7.606   3.334   2.082  0.3916  0.3599 -0.2441
 2106SOL     OW 6842   5.985   2.525   4.962 -0.0935 -0.0719 -0.1088
 2106SOL    HW1 6843   5.933   2.519   4.882 -1.1732  0.1453  0.5576
 2106SOL    HW2 6844   6.070   2.558   4.933  0.0523 -1.4623 -1.3730
 2107SOL     OW 6845   2.293   0.340   1.591 -0.2617 -0.3847  0.0360
 2107SOL    HW1 6846   2.245   0.258   1.579  0.5101 -1.0320  1.1676
 2107SOL    HW2 6847   2.385   0.314   1.585  0.0035  0.2886  1.0056
 2108SOL     OW 6848   3.475   6.882   0.535 -0.0007 -0.0404 -0.6527
 2108SOL    HW1 6849   3.540   6.950   0.517  0.2930 -0.2996 -0.5751
 2108SOL    HW2 6850   3.443   6.857   0.448  0.5137 -0.4073 -0.7424
 2109SOL     OW 6851   0.645   6.429   3.590  0.0710  0.5123 -0.2007
 2109SOL    HW1 6852   0.608   6.384   3.666  0.6340  0.6755  0.1789
 2109SOL    HW2 6853   0.579   6.493   3.565 -0.9259 -0.7941 -1.0152
 2110SOL     OW 6854   6.383   1.428   6.426  0.2804 -0.6682 -0.1488
 2110SOL    HW1 6855   6.411   1.519   6.419  0.6871 -0.8078 -0.4478
 2110SOL    HW2 6856   6.384   1.396   6.336 -0.2717 -0.8500 -0.0895
 2111SOL     OW 6857   0.165   6.957   0.583 -0.0626  0.3442  0.0273
 2111SOL    HW1 6858   0.091   6.896   0.576  3.0130 -3.8819  0.6376
 2111SOL    HW2 6859   0.153   6.999   0.669 -0.7635 -1.7772  1.0388
 2112SOL     OW 6860   0.619   0.498   2.080 -0.2807 -0.3175 -0.0772
 2112SOL    HW1 6861   0.589   0.465   2.165  0.8831 -0.0009  0.4841
 2112SOL    HW2 6862   0.700   0.451   2.064 -1.4015 -1.7292 -1.9251
 2113SOL     OW 6863   4.561   0.194   5.492  0.3291  0.1260 -0.8636
 2113SOL    HW1 6864   4.631   0.249   5.457  0.5217 -0.2505 -1.0782
 2113SOL    HW2 6865   4.601   0.108   5.503  0.4319  0.3596  0.8357
 2114SOL     OW 6866   6.642   3.350   6.668 -0.8601 -0.4962 -0.1688
 2114SOL    HW1 6867   6.726   3.307   6.654 -0.0819  1.1526 -0.8778
 2114SOL    HW2 6868   6.623   3.337   6.761  1.5040  1.2975  0.6601
 2115SOL     OW 6869   6.288   5.153   0.911 -0.0737 -0.0039  0.1244
 2115SOL    HW1 6870   6.362   5.205   0.942 -1.4465  2.6859 -0.8103
 2115SOL    HW2 6871   6.314   5.062   0.928  3.5974  0.7525 -0.5631
 2116SOL     OW 6872   6.658   4.580   0.684  0.5788  0.1378 -0.0110
 2116SOL    HW1 6873   6.715   4.528   0.741  2.0668  0.5969 -1.0238
 2116SOL    HW2 6874   6.587   4.521   0.661  1.5396 -1.0414 -0.0792
 2117SOL     OW 6875   5.018   3.282   1.127 -0.1364  0.3733 -0.0244
 2117SOL    HW1 6876   5.015   3.343   1.200  1.3701 -0.1470  0.5149
 2117SOL    HW2 6877   4.946   3.310   1.070 -0.9997  1.1255  1.3661
 2118SOL     OW 6878   4.921   0.685   5.699 -0.3580 -0.5149  0.6546
 2118SOL    HW1 6879   4.985   0.704   5.768 -0.6583  1.2817  0.4960
 2118SOL    HW2 6880   4.844   0.737   5.723 -1.3260 -1.6925  0.1907
 2119SOL     OW 6881   2.228   6.432   6.322 -0.3016 -0.0698  0.1799
 2119SOL    HW1 6882   2.271   6.379   6.388 -0.7993  0.8974  1.3238
 2119SOL    HW2 6883   2.285   6.508   6.311 -0.3350 -0.1144 -0.3458
 2120SOL     OW 6884   3.525   6.931   6.948  0.5590  0.3006  0.3663
 2120SOL    HW1 6885   3.563   6.845   6.931  1.5760  0.9035 -0.5910
 2120SOL    HW2 6886   3.598   6.992   6.937 -0.3420  1.3760  0.1206
 2121SOL     OW 6887   5.630   1.821   1.868 -0.0271  0.0958  0.3260
 2121SOL    HW1 6888   5.613   1.906   1.909  0.4258  0.7359 -0.7758
 2121SOL    HW2 6889   5.663   1.842   1.781  1.9847 -1.1731  0.7100
 2122SOL     OW 6890   4.854   4.585   1.495 -0.6381 -0.1718  1.0606
 2122SOL    HW1 6891   4.843   4.680   1.493  1.5477  0.1155 -0.2662
 2122SOL    HW2 6892   4.769   4.551   1.465 -0.8963  1.4413 -0.2160
 2123SOL     OW 6893   6.455   4.613   1.819  0.4681  0.2542  0.1451
 2123SOL    HW1 6894   6.451   4.581   1.729  0.0536  0.6057  0.0380
 2123SOL    HW2 6895   6.375   4.665   1.830  0.6622  0.4548  0.6240
 2124SOL     OW 6896   5.689   3.965   6.678  0.3337 -0.5934 -0.8639
 2124SOL    HW1 6897   5.762   4.004   6.631  1.3037 -0.7246  0.4648
 2124SOL    HW2 6898   5.635   3.925   6.610  0.4836  1.1079 -2.0516
 2125SOL     OW 6899   2.065   3.834   6.864  0.4342 -0.1259  0.7885
 2125SOL    HW1 6900   2.098   3.771   6.800  1.4032  0.1099  1.0409
 2125SOL    HW2 6901   2.128   3.829   6.937  0.5732  1.1848  0.7731
 2126SOL     OW 6902   3.108   1.132   3.834 -0.2870  0.5096 -0.1125
 2126SOL    HW1 6903   3.113   1.054   3.888  0.3767 -0.6554 -1.7765
 2126SOL    HW2 6904   3.151   1.200   3.887 -0.1778 -0.4242  1.0444
 2127SOL     OW 6905   1.764   5.782   5.031  0.0740 -0.5420  0.7237
 2127SOL    HW1 6906   1.765   5.716   4.962  0.7626  0.1428  0.0685
 2127SOL    HW2 6907   1.818   5.853   4.998 -1.4187  0.7839  0.9981
 2128SOL     OW 6908   7.490   7.437   3.679  0.3071  0.0931 -0.2229
 2128SOL    HW1 6909   7.424   7.422   3.747  0.4644  0.4357  0.0118
 2128SOL    HW2 6910   7.466   7.522   3.641  0.7570  0.3434  0.0418
 2129SOL     OW 6911   2.327   4.795   0.555  0.6873 -0.4498 -0.5302
 2129SOL    HW1 6912   2.271   4.850   0.501 -1.1112 -0.6782  1.0253
 2129SOL    HW2 6913   2.392   4.856   0.592 -1.3104  0.7367  1.2336
 2130SOL     OW 6914   2.257   1.869   3.451 -0.1265  0.0556 -0.3602
 2130SOL    HW1 6915   2.210   1.953   3.453  0.6519  0.5356 -1.1910
 2130SOL    HW2 6916   2.286   1.861   3.360 -2.6095 -2.5065 -1.0895
 2131SOL     OW 6917   5.138   6.365   2.216 -0.3187 -0.0456 -0.0263
 2131SOL    HW1 6918   5.061   6.414   2.186 -0.3411 -0.1892 -0.2011
 2131SOL    HW2 6919   5.189   6.429   2.266 -0.8395 -0.1044  0.5870
 2132SOL     OW 6920   2.121   7.472   4.663  0.3796 -0.4867  0.1120
 2132SOL    HW1 6921   2.137   7.378   4.658  1.4910 -0.2718 -0.6939
 2132SOL    HW2 6922   2.033   7.479   4.700 -0.3163 -1.8769 -1.1701
 2133SOL     OW 6923   3.597   3.897   0.987  0.0854 -0.2581  0.1694
 2133SOL    HW1 6924   3.617   3.912   0.894  0.9177 -1.6680  0.0865
 2133SOL    HW2 6925   3.675   3.852   1.021  0.0199  0.7163  1.6981
 2134SOL     OW 6926   1.297   1.467   5.100 -0.0762  0.3473  0.2245
 2134SOL    HW1 6927   1.216   1.427   5.132  0.0193  0.4572  0.6121
 2134SOL    HW2 6928   1.356   1.466   5.176  0.2020  0.4857  0.0120
 2135SOL     OW 6929   0.476   3.084   2.706 -0.4791 -0.8065 -0.3618
 2135SOL    HW1 6930   0.413   3.011   2.709 -0.3033 -0.9245  0.7803
 2135SOL    HW2 6931   0.466   3.120   2.618 -2.2410 -0.7384 -0.1679
 2136SOL     OW 6932   3.017   3.707   4.961 -0.4024  0.1643  1.0340
 2136SOL    HW1 6933   3.106   3.734   4.936 -0.3340  0.0195  1.1161
 2136SOL    HW2 6934   2.966   3.719   4.882  0.2273 -2.1619  0.1801
 2137SOL     OW 6935   0.620   2.409   1.338 -0.4245 -0.2616  0.3530
 2137SOL    HW1 6936   0.634   2.368   1.423 -0.5880 -0.6255  0.2085
 2137SOL    HW2 6937   0.706   2.413   1.298 -0.3960 -0.3840  0.4030
 2138SOL     OW 6938   0.700   3.208   2.089  0.2756 -0.1924  0.0968
 2138SOL    HW1 6939   0.737   3.263   2.020  0.9761 -1.3422 -0.4822
 2138SOL    HW2 6940   0.639   3.150   2.043  1.5849 -1.7226  0.2456
 2139SOL     OW 6941   4.378   6.297   3.493  0.1535 -0.6605  0.3393
 2139SOL    HW1 6942   4.394   6.307   3.587 -0.6398 -0.6197  0.4837
 2139SOL    HW2 6943   4.417   6.213   3.471  0.2213 -0.7376  0.7426
 2140SOL     OW 6944   0.466   2.679   6.099  0.0719 -0.3078  0.4837
 2140SOL    HW1 6945   0.525   2.734   6.047 -0.7057  0.4580  0.3853
 2140SOL    HW2 6946   0.378   2.700   6.067 -0.4337  0.1381  2.0451
 2141SOL     OW 6947   5.810   6.616   6.161  0.3612 -0.3325 -0.2673
 2141SOL    HW1 6948   5.835   6.684   6.099  0.2536 -1.3178 -1.4372
 2141SOL    HW2 6949   5.858   6.538   6.132  0.0849 -0.8969  0.7272
 2142SOL     OW 6950   3.040   3.926   6.333  0.1773  0.3779 -0.2972
 2142SOL    HW1 6951   2.988   3.854   6.295  1.2129 -0.9392  0.6834
 2142SOL    HW2 6952   3.121   3.884   6.363 -0.6400  1.2046  3.6234
 2143SOL     OW 6953   5.106   2.261   7.376  0.1517 -0.0363 -0.4869
 2143SOL    HW1 6954   5.113   2.321   7.302  1.2822  0.9360  0.3730
 2143SOL    HW2 6955   5.014   2.267   7.404  0.5634  2.5722  0.5812
 2144SOL     OW 6956   0.575   1.527   3.700 -0.5751  0.5099  0.3356
 2144SOL    HW1 6957   0.669   1.519   3.717 -0.5513  3.2013  1.9954
 2144SOL    HW2 6958   0.566   1.607   3.649 -1.9588 -0.0078 -0.2871
 2145SOL     OW 6959   1.237   2.853   5.171  0.0353 -0.1216  0.7644
 2145SOL    HW1 6960   1.160   2.900   5.136  0.6534  0.5522  0.2810
 2145SOL    HW2 6961   1.210   2.827   5.259 -0.9067 -0.2718  0.4483
 2146SOL     OW 6962   4.159   3.425   7.546 -0.1753  0.1419 -0.3981
 2146SOL    HW1 6963   4.181   3.390   7.632  0.8291 -0.3581 -0.8507
 2146SOL    HW2 6964   4.150   3.520   7.560 -0.6252 -0.0020  0.3642
 2147SOL     OW 6965   3.580   2.373   2.416  0.0781 -0.3939  0.6106
 2147SOL    HW1 6966   3.623   2.449   2.456 -0.6926  0.5774 -0.3175
 2147SOL    HW2 6967   3.493   2.371   2.457  0.7536 -1.9938  2.0597
 2148SOL     OW 6968   4.797   0.594   0.583 -0.2056 -0.2063  0.3597
 2148SOL    HW1 6969   4.732   0.579   0.513 -0.7015  0.9417  0.5499
 2148SOL    HW2 6970   4.864   0.648   0.541  0.3081 -0.8402  0.3497
 2149SOL     OW 6971   5.710   2.512   2.796  0.3034  0.1554  0.0376
 2149SOL    HW1 6972   5.719   2.541   2.706  0.0533 -1.0947 -0.4160
 2149SOL    HW2 6973   5.649   2.438   2.791  1.0300 -0.5400  1.0869
 2150SOL     OW 6974   1.185   1.769   0.080  0.3896  0.3853  0.6729
 2150SOL    HW1 6975   1.192   1.833   0.009 -0.6660  1.7845  1.7669
 2150SOL    HW2 6976   1.222   1.689   0.044 -0.0547  1.0603 -1.4386
 2151SOL     OW 6977   4.605   7.127   2.769 -0.8198  0.2853  0.0375
 2151SOL    HW1 6978   4.510   7.126   2.761 -0.7618 -1.6641 -0.8147
 2151SOL    HW2 6979   4.620   7.141   2.863 -1.9687 -0.0155  0.2862
 2152SOL     OW 6980   6.056   4.385   0.634  0.0092 -0.4910 -0.4090
 2152SOL    HW1 6981   5.989   4.326   0.600 -0.5946  0.2826 -0.5994
 2152SOL    HW2 6982   6.007   4.453   0.680  0.7716 -1.0384  1.2848
 2153SOL     OW 6983   1.794   3.690   3.044  0.6322  0.4651 -0.1369
 2153SOL    HW1 6984   1.879   3.660   3.011  0.3000 -0.7044  0.0075
 2153SOL    HW2 6985   1.803   3.687   3.139 -0.5614 -2.9933  0.0261
 2154SOL     OW 6986   5.774   5.386   6.614 -0.3823 -0.2770 -0.0804
 2154SOL    HW1 6987   5.704   5.332   6.652  0.0031 -0.4846  0.3493
 2154SOL    HW2 6988   5.822   5.419   6.690 -2.4585  3.2800 -0.1222
 2155SOL     OW 6989   2.955   6.187   6.425 -0.2048 -0.3317  0.8045
 2155SOL    HW1 6990   2.980   6.201   6.334 -2.1466  2.9958  0.6193
 2155SOL    HW2 6991   2.865   6.155   6.420 -0.8037  1.1774  1.5216
 2156SOL     OW 6992   5.466   3.914   3.403 -0.0744 -0.0507  0.3111
 2156SOL    HW1 6993   5.413   3.835   3.401  0.9702 -0.7580 -0.2995
 2156SOL    HW2 6994   5.492   3.923   3.494  0.1605 -0.6517  0.3066
 2157SOL     OW 6995   6.649   2.149   5.423  0.6277  0.3959  0.8052
 2157SOL    HW1 6996   6.697   2.076   5.463  0.2924  0.3354  1.1044
 2157SOL    HW2 6997   6.598   2.186   5.495 -0.6439 -0.2556  0.2649
 2158SOL     OW 6998   2.314   0.372   1.247 -0.4134  0.5187  0.0588
 2158SOL    HW1 6999   2.399   0.391   1.206 -0.2149  0.6979  0.5536
 2158SOL    HW2 7000   2.263   0.452   1.235  0.0518  1.0070  1.1890
 2159SOL     OW 7001   2.085   2.029   2.926  0.6436 -0.9996 -0.1516
 2159SOL    HW1 7002   2.142   2.073   2.990 -0.4827  1.3037 -0.6392
 2159SOL    HW2 7003   2.032   1.969   2.979  0.3402  0.2170  0.9786
 2160SOL     OW 7004   3.434   6.340   7.201  0.3142  0.0818  0.3416
 2160SOL    HW1 7005   3.341   6.327   7.219  0.2196 -0.2010 -0.3276
 2160SOL    HW2 7006   3.479   6.285   7.265 -0.0466 -3.3563 -2.0737
 2161SOL     OW 7007   5.630   5.405   4.981 -0.3352  0.0553 -0.1372
 2161SOL    HW1 7008   5.635   5.499   4.965  0.2646  0.1321  0.4628
 2161SOL    HW2 7009   5.685   5.391   5.058 -1.5633 -0.5862  0.6466
 2162SOL     OW 7010   2.692   5.996   3.832 -0.0491 -0.2354 -0.5655
 2162SOL    HW1 7011   2.743   5.915   3.825 -0.5311 -0.4859 -1.2696
 2162SOL    HW2 7012   2.741   6.059   3.778  0.1889 -0.1263 -0.2234
 2163SOL     OW 7013   0.153   6.997   4.561  1.1343 -0.0700  0.2769
 2163SOL    HW1 7014   0.216   6.933   4.595  0.2221 -0.1764  1.8671
 2163SOL    HW2 7015   0.068   6.958   4.580  0.5732  0.7059 -0.5967
 2164SOL     OW 7016   1.504   0.832   0.273 -0.0807  0.3525  0.4432
 2164SOL    HW1 7017   1.509   0.860   0.364  1.3874  1.5712  0.0160
 2164SOL    HW2 7018   1.541   0.743   0.273 -0.0471  0.3649  1.0249
 2165SOL     OW 7019   0.822   4.875   4.904 -0.2006 -0.6883  0.5732
 2165SOL    HW1 7020   0.766   4.810   4.945 -0.2125 -1.6942 -0.9783
 2165SOL    HW2 7021   0.910   4.854   4.935 -0.3280 -0.8019  0.8628
 2166SOL     OW 7022   4.476   4.848   1.935  0.1431 -0.3129  0.2054
 2166SOL    HW1 7023   4.469   4.852   2.030  0.2864 -0.1376  0.2093
 2166SOL    HW2 7024   4.569   4.833   1.918  0.3062  0.7294  0.0695
 2167SOL     OW 7025   5.379   0.703   2.721 -0.0400  0.2313 -0.1055
 2167SOL    HW1 7026   5.286   0.721   2.703 -1.0343 -3.5469  0.2253
 2167SOL    HW2 7027   5.394   0.738   2.809 -1.3034  0.5127  0.0246
 2168SOL     OW 7028   3.085   7.417   5.557 -0.1731  0.3647 -0.1958
 2168SOL    HW1 7029   3.164   7.364   5.564 -0.9922 -0.6923  1.7767
 2168SOL    HW2 7030   3.013   7.354   5.555 -1.0629  1.3393 -0.1109
 2169SOL     OW 7031   7.189   2.263   3.785 -0.2987 -0.0705 -0.4867
 2169SOL    HW1 7032   7.127   2.330   3.815 -1.1670 -1.9966  2.4422
 2169SOL    HW2 7033   7.163   2.184   3.832  2.2458 -1.8678 -1.8769
 2170SOL     OW 7034   6.798   0.930   2.480 -0.7762  0.1377 -0.4071
 2170SOL    HW1 7035   6.840   0.896   2.401 -0.0931  0.3231 -0.1365
 2170SOL    HW2 7036   6.715   0.966   2.450  1.4948  4.9123 -2.0860
 2171SOL     OW 7037   2.523   0.693   1.756 -0.1447  0.4342  0.1015
 2171SOL    HW1 7038   2.596   0.637   1.781 -0.9286 -0.1906  1.0825
 2171SOL    HW2 7039   2.467   0.695   1.834 -2.5721 -1.3051 -1.4738
 2172SOL     OW 7040   7.041   6.456   6.338  0.7569 -0.2749 -0.2633
 2172SOL    HW1 7041   6.974   6.389   6.347  0.5198 -0.0246 -0.1682
 2172SOL    HW2 7042   7.115   6.422   6.388 -0.2908  0.7713  2.1455
 2173SOL     OW 7043   4.807   0.232   1.987  0.7482 -0.0698 -0.0706
 2173SOL    HW1 7044   4.723   0.213   1.945  0.4813 -0.0413  0.4437
 2173SOL    HW2 7045   4.835   0.149   2.024 -0.5925  0.5063  2.4910
 2174SOL     OW 7046   4.083   7.083   3.926  0.0857 -0.5444  0.0218
 2174SOL    HW1 7047   4.149   7.095   3.857 -0.0055  0.4803  0.1021
 2174SOL    HW2 7048   4.040   7.000   3.904 -3.0119  1.7417 -3.7906
 2175SOL     OW 7049   2.169   6.861   1.816 -0.6787  0.0272  0.4011
 2175SOL    HW1 7050   2.226   6.784   1.822  1.0426  1.2994  1.3937
 2175SOL    HW2 7051   2.100   6.835   1.756  0.6726 -1.7862 -0.4772
 2176SOL     OW 7052   0.306   5.647   5.549 -0.4401 -0.3675 -0.0227
 2176SOL    HW1 7053   0.233   5.693   5.506 -0.0194  0.6160  0.2777
 2176SOL    HW2 7054   0.385   5.686   5.511 -0.0659  0.1578  1.2497
 2177SOL     OW 7055   0.294   4.544   6.498  0.1403 -0.2130  0.8006
 2177SOL    HW1 7056   0.248   4.611   6.447  1.5281 -0.4190 -0.8027
 2177SOL    HW2 7057   0.226   4.480   6.520 -0.7801  0.6158  0.4732
 2178SOL     OW 7058   6.050   2.203   6.883  0.2730 -0.6012  0.1505
 2178SOL    HW1 7059   6.109   2.128   6.877  1.0399 -0.2416  2.5117
 2178SOL    HW2 7060   5.963   2.165   6.896  0.0399 -1.0941 -2.2561
 2179SOL     OW 7061   2.676   2.725   2.576  0.5857  0.0983 -0.2217
 2179SOL    HW1 7062   2.714   2.659   2.518 -0.2639  0.4751 -1.2340
 2179SOL    HW2 7063   2.604   2.762   2.526  0.3425  1.0105  0.7743
 2180SOL     OW 7064   6.897   5.969   6.305  0.0254  0.1781 -0.3425
 2180SOL    HW1 7065   6.978   6.005   6.270  1.0351 -3.2994 -1.9767
 2180SOL    HW2 7066   6.922   5.929   6.388 -0.7507  1.6615  0.6651
 2181SOL     OW 7067   3.177   1.101   1.420  0.1325 -0.4160  0.3127
 2181SOL    HW1 7068   3.087   1.132   1.428  0.5106  0.9415 -0.3466
 2181SOL    HW2 7069   3.177   1.014   1.460 -2.0126 -1.4800 -1.7829
 2182SOL     OW 7070   6.564   1.999   6.259 -0.5069 -0.5807 -0.4238
 2182SOL    HW1 7071   6.658   1.979   6.260 -0.6071 -1.3269  2.2911
 2182SOL    HW2 7072   6.560   2.094   6.243  0.8648 -0.2156  1.0648
 2183SOL     OW 7073   4.371   4.957   1.245  0.3680 -0.7044  0.0604
 2183SOL    HW1 7074   4.398   5.016   1.315  0.2562 -0.6636  0.0695
 2183SOL    HW2 7075   4.452   4.915   1.216  0.2403 -1.7608  1.1616
 2184SOL     OW 7076   6.008   6.717   1.192 -0.3558 -0.0545 -0.4047
 2184SOL    HW1 7077   6.035   6.744   1.279  0.6649 -1.2876 -0.3047
 2184SOL    HW2 7078   5.951   6.787   1.161  0.6655  1.2366  0.5500
 2185SOL     OW 7079   2.266   5.482   4.985  0.2007  0.2888 -0.2176
 2185SOL    HW1 7080   2.300   5.455   4.899 -1.9873 -0.1804 -0.9953
 2185SOL    HW2 7081   2.268   5.578   4.982  1.0384  0.2810 -0.3750
 2186SOL     OW 7082   5.846   2.434   2.110  0.2737 -0.2117  0.4773
 2186SOL    HW1 7083   5.896   2.363   2.069  1.4933  1.0828 -0.3235
 2186SOL    HW2 7084   5.895   2.455   2.189 -0.5127 -0.7348  1.1343
 2187SOL     OW 7085   4.998   1.265   0.664 -0.0278 -0.2890  0.1069
 2187SOL    HW1 7086   5.065   1.319   0.706  0.4708 -0.9555  0.1932
 2187SOL    HW2 7087   5.037   1.177   0.660 -0.6593 -0.5574 -0.3924
 2188SOL     OW 7088   6.278   2.551   3.515  0.6865 -0.0750  0.1427
 2188SOL    HW1 7089   6.316   2.615   3.456 -0.2230  0.1498 -0.2275
 2188SOL    HW2 7090   6.215   2.601   3.567  0.7834 -0.4564  0.6368
 2189SOL     OW 7091   6.141   1.894   3.226 -0.3156 -0.0595  0.1067
 2189SOL    HW1 7092   6.152   1.799   3.225 -0.3567 -0.0794 -1.3657
 2189SOL    HW2 7093   6.229   1.929   3.213 -0.0677  0.1803  2.0797
 2190SOL     OW 7094   3.040   4.562   4.691  0.1299 -0.2332 -0.2710
 2190SOL    HW1 7095   3.053   4.623   4.764 -1.1799 -1.9986  1.5623
 2190SOL    HW2 7096   3.103   4.492   4.707  0.5061 -0.1656 -1.4116
 2191SOL     OW 7097   1.347   4.678   5.676  0.1635 -0.3880 -0.1632
 2191SOL    HW1 7098   1.269   4.632   5.707  0.2362 -0.5915 -0.2792
 2191SOL    HW2 7099   1.386   4.714   5.755  0.1027 -0.5209 -0.0713
 2192SOL     OW 7100   0.207   1.407   7.141  0.5261 -0.2869 -0.1381
 2192SOL    HW1 7101   0.296   1.383   7.117  0.4130  0.5273 -1.5143
 2192SOL    HW2 7102   0.202   1.501   7.123 -0.4039 -0.1741  0.6184
 2193SOL     OW 7103   3.301   7.515   2.880  0.0386  0.1421 -0.8414
 2193SOL    HW1 7104   3.265   7.595   2.918 -0.1075  0.4816 -1.6913
 2193SOL    HW2 7105   3.262   7.444   2.931 -0.6081  0.5695 -0.7430
 2194SOL     OW 7106   2.463   3.520   6.529 -0.0496  0.5165  0.1419
 2194SOL    HW1 7107   2.517   3.476   6.595 -0.3992 -1.0264 -0.5392
 2194SOL    HW2 7108   2.490   3.611   6.532  0.5139  0.3184  1.8402
 2195SOL     OW 7109   0.215   6.295   4.436  0.6785 -0.4939 -0.3023
 2195SOL    HW1 7110   0.310   6.287   4.436  0.9761  2.0617 -1.9509
 2195SOL    HW2 7111   0.198   6.385   4.409 -2.2155 -0.4400  1.2895
 2196SOL     OW 7112   0.095   0.964   6.623 -0.0973 -0.0582 -0.4438
 2196SOL    HW1 7113   0.041   1.043   6.626 -0.9579 -0.6397  0.0034
 2196SOL    HW2 7114   0.075   0.918   6.705 -0.1413 -1.0649 -0.9924
 2197SOL     OW 7115   6.046   5.292   1.094  0.0560  0.0293  0.3479
 2197SOL    HW1 7116   6.139   5.276   1.112  0.2503 -1.2041 -1.4669
 2197SOL    HW2 7117   6.041   5.298   0.998 -1.4416  2.1906  0.4814
 2198SOL     OW 7118   1.951   5.773   4.705 -0.3065  0.3047  0.6866
 2198SOL    HW1 7119   1.881   5.709   4.702 -0.1475  0.1346  0.5782
 2198SOL    HW2 7120   1.984   5.769   4.795 -1.2831  1.3060  1.1082
 2199SOL     OW 7121   2.255   5.816   6.613  0.1273  0.2086  0.0398
 2199SOL    HW1 7122   2.165   5.830   6.643  0.4779  1.0126  0.7652
 2199SOL    HW2 7123   2.251   5.734   6.563 -1.0769  0.4392 -0.2807
 2200SOL     OW 7124   4.609   3.134   3.429  0.8413 -0.2140  0.0627
 2200SOL    HW1 7125   4.589   3.127   3.522  1.5043  0.2572  0.2523
 2200SOL    HW2 7126   4.557   3.065   3.388  0.0218  0.0190  0.6938
 2201SOL     OW 7127   6.542   5.043   1.251  0.0710  0.2930 -0.4212
 2201SOL    HW1 7128   6.618   5.014   1.301 -0.3232  0.6845  0.4181
 2201SOL    HW2 7129   6.472   4.982   1.274 -0.3842  1.0588  0.2991
 2202SOL     OW 7130   4.419   4.805   2.884  0.2047 -0.6878  0.4374
 2202SOL    HW1 7131   4.458   4.764   2.807 -0.1547 -0.0690 -0.0801
 2202SOL    HW2 7132   4.328   4.821   2.859  0.5553  1.3030  0.2474
 2203SOL     OW 7133   0.429   3.231   2.180 -0.2858 -0.6038 -0.3015
 2203SOL    HW1 7134   0.518   3.256   2.157 -0.6711  0.0946 -1.0956
 2203SOL    HW2 7135   0.402   3.172   2.110 -0.9346  0.3278 -0.8709
 2204SOL     OW 7136   3.220   6.806   0.732  0.5880 -1.1487 -0.3123
 2204SOL    HW1 7137   3.198   6.898   0.741  0.6320 -1.2756  1.4889
 2204SOL    HW2 7138   3.276   6.802   0.654 -0.0002  0.2131 -0.8411
 2205SOL     OW 7139   6.768   7.413   6.541  0.1608  0.5072 -0.5584
 2205SOL    HW1 7140   6.726   7.414   6.455 -0.7713 -0.1831 -0.1242
 2205SOL    HW2 7141   6.754   7.324   6.574  0.1929  0.8627  0.4585
 2206SOL     OW 7142   4.279   3.990   4.036  0.5156 -0.0976  0.0353
 2206SOL    HW1 7143   4.302   4.012   4.126 -1.4873 -1.2139  0.8889
 2206SOL    HW2 7144   4.332   3.913   4.015 -0.1609 -0.8098  0.8712
 2207SOL     OW 7145   3.596   4.846   4.035 -0.4499 -0.3472  0.3208
 2207SOL    HW1 7146   3.624   4.854   3.944  3.6946  1.6413  1.5220
 2207SOL    HW2 7147   3.608   4.754   4.056  2.1134 -0.2286 -0.3023
 2208SOL     OW 7148   6.315   3.989   0.342  0.4291  0.0132  0.2774
 2208SOL    HW1 7149   6.386   4.044   0.375  0.6072 -0.3571  0.5230
 2208SOL    HW2 7150   6.334   3.978   0.249  0.7899 -0.2307  0.3798
 2209SOL     OW 7151   7.182   6.197   5.837 -0.2132 -0.1339  0.3413
 2209SOL    HW1 7152   7.191   6.245   5.756  0.0096  0.4610  0.7115
 2209SOL    HW2 7153   7.124   6.251   5.891 -2.6539 -1.8321 -0.4002
 2210SOL     OW 7154   1.950   7.547   4.150  0.6064  0.1399  1.0838
 2210SOL    HW1 7155   2.015   7.614   4.170  1.9248 -0.5721 -0.5511
 2210SOL    HW2 7156   1.959   7.482   4.221  1.1117  0.4421  1.2981
 2211SOL     OW 7157   6.631   4.529   2.028  0.0113  0.5532  0.6199
 2211SOL    HW1 7158   6.570   4.566   1.964 -1.4837 -0.1883  1.5657
 2211SOL    HW2 7159   6.716   4.531   1.984 -1.0728 -0.6255 -1.7197
 2212SOL     OW 7160   4.537   1.103   3.266 -0.0464 -0.5531  0.3386
 2212SOL    HW1 7161   4.451   1.133   3.237  1.2835  1.3185 -2.0226
 2212SOL    HW2 7162   4.574   1.177   3.315  0.3608 -1.2545  1.1381
 2213SOL     OW 7163   3.898   1.624   0.063 -0.5467 -0.4826  0.0373
 2213SOL    HW1 7164   3.841   1.661  -0.005 -0.8099 -0.0880  0.4624
 2213SOL    HW2 7165   3.850   1.548   0.095 -1.7314  0.8405  1.6275
 2214SOL     OW 7166   4.819   5.093   2.032  0.0317 -0.6208 -0.1733
 2214SOL    HW1 7167   4.872   5.172   2.040 -0.4856 -0.2921 -0.0061
 2214SOL    HW2 7168   4.758   5.097   2.105  0.1647 -1.3037 -0.0136
 2215SOL     OW 7169   3.839   6.935   0.574 -0.2160  0.2532  0.0136
 2215SOL    HW1 7170   3.806   6.861   0.626 -0.3346  0.1385 -0.2205
 2215SOL    HW2 7171   3.760   6.977   0.539 -0.1268  0.1122 -0.3669
 2216SOL     OW 7172   0.812   4.357   0.226 -1.0993 -0.2683  0.3755
 2216SOL    HW1 7173   0.832   4.277   0.178 -1.4032 -0.3105  0.3180
 2216SOL    HW2 7174   0.893   4.378   0.272 -0.2718  0.6496 -1.3792
 2217SOL     OW 7175   4.965   2.056   2.388 -0.1541 -0.1192  0.0379
 2217SOL    HW1 7176   4.930   1.976   2.427 -0.0986 -0.8788 -1.3895
 2217SOL    HW2 7177   4.904   2.077   2.317 -0.4329  1.4001  0.6968
 2218SOL     OW 7178   0.598   2.961   0.860  0.2876  0.0801  0.4812
 2218SOL    HW1 7179   0.684   2.992   0.832 -0.2545  2.0502  0.8428
 2218SOL    HW2 7180   0.537   2.997   0.795 -0.3810 -0.1459  0.9699
 2219SOL     OW 7181   5.341   4.605   6.605  0.1920 -0.4228 -0.0995
 2219SOL    HW1 7182   5.398   4.671   6.645 -0.8500 -0.0523  0.8523
 2219SOL    HW2 7183   5.286   4.574   6.678 -1.0114 -0.5498 -1.0215
 2220SOL     OW 7184   4.773   5.279   4.409 -0.4681  0.0911 -0.1227
 2220SOL    HW1 7185   4.703   5.219   4.384  0.4495 -0.9775 -0.2052
 2220SOL    HW2 7186   4.853   5.227   4.401  0.3553  1.3349 -0.1888
 2221SOL     OW 7187   5.689   6.875   6.422 -0.3969 -0.0069 -0.4310
 2221SOL    HW1 7188   5.649   6.962   6.414  1.0058  0.6037 -1.0185
 2221SOL    HW2 7189   5.650   6.825   6.350  2.4230  1.6445 -3.3618
 2222SOL     OW 7190   0.534   0.244   6.667  0.5052  0.5610  0.0412
 2222SOL    HW1 7191   0.510   0.310   6.602 -0.1071  1.1102  0.8060
 2222SOL    HW2 7192   0.464   0.179   6.663  1.4750 -0.4496 -1.2220
 2223SOL     OW 7193   3.273   1.205   3.236  0.0676 -0.1307 -0.3179
 2223SOL    HW1 7194   3.238   1.212   3.324 -1.8093 -0.6840 -0.9601
 2223SOL    HW2 7195   3.245   1.118   3.205  2.7940 -0.9947 -0.6293
 2224SOL     OW 7196   5.118   3.876   4.897  0.2878  0.1945  0.0846
 2224SOL    HW1 7197   5.040   3.898   4.845  0.0401  1.1797  0.8350
 2224SOL    HW2 7198   5.184   3.852   4.832 -0.3101  0.4380 -0.6320
 2225SOL     OW 7199   0.581   7.056   6.574  0.2407 -0.1429 -0.2682
 2225SOL    HW1 7200   0.649   6.989   6.581 -0.4400 -0.6604  2.1517
 2225SOL    HW2 7201   0.510   7.013   6.526 -0.1677 -1.1956  1.2101
 2226SOL     OW 7202   4.348   3.194   5.639  0.1181 -0.1865  0.2727
 2226SOL    HW1 7203   4.420   3.230   5.691  0.1372  0.1521  0.0094
 2226SOL    HW2 7204   4.325   3.113   5.685 -1.3365  1.1724  2.1222
 2227SOL     OW 7205   4.051   6.690   2.740 -0.1840 -0.6763  0.7144
 2227SOL    HW1 7206   3.970   6.642   2.720 -0.7303  1.0129 -1.5359
 2227SOL    HW2 7207   4.078   6.726   2.656  1.8744  0.4168  1.7835
 2228SOL     OW 7208   6.775   0.329   3.502  0.1212  0.4965 -0.2232
 2228SOL    HW1 7209   6.732   0.269   3.563 -1.5318  0.7603 -1.0592
 2228SOL    HW2 7210   6.805   0.274   3.430  0.4590  0.4076 -0.0124
 2229SOL     OW 7211   1.505   1.912   5.706  0.6052  0.0604  0.1407
 2229SOL    HW1 7212   1.541   1.997   5.680  1.3425  0.2313  1.6024
 2229SOL    HW2 7213   1.573   1.873   5.760  0.5402 -1.7668 -1.0333
 2230SOL     OW 7214   0.552   5.478   4.099 -0.1091 -0.4455  0.1418
 2230SOL    HW1 7215   0.614   5.489   4.028  2.3347 -0.4427  2.1584
 2230SOL    HW2 7216   0.512   5.392   4.083  1.2796 -0.9906 -0.5803
 2231SOL     OW 7217   5.607   3.005   5.988  0.2673  0.2782 -0.3817
 2231SOL    HW1 7218   5.686   3.054   6.008  0.5626  0.0011 -0.8311
 2231SOL    HW2 7219   5.598   2.943   6.060  0.1654  0.6598 -0.0637
 2232SOL     OW 7220   1.970   5.751   2.916  0.4128 -0.4180 -0.1595
 2232SOL    HW1 7221   1.941   5.809   2.846  0.7066  1.5013  1.2265
 2232SOL    HW2 7222   2.050   5.792   2.949 -1.2931  0.5495  3.2792
 2233SOL     OW 7223   0.248   3.172   0.131  0.0924 -0.5827 -0.6480
 2233SOL    HW1 7224   0.229   3.264   0.111  0.0568 -0.7959 -1.6152
 2233SOL    HW2 7225   0.164   3.127   0.120 -0.0641 -0.6284  0.5567
 2234SOL     OW 7226   3.537   5.451   0.496 -0.2465  0.3508  0.0523
 2234SOL    HW1 7227   3.546   5.356   0.487 -0.1937  0.3245  0.3850
 2234SOL    HW2 7228   3.555   5.485   0.408  1.5424  0.1923  0.3155
 2235SOL     OW 7229   4.441   6.211   5.493 -0.0679  0.1930 -0.0055
 2235SOL    HW1 7230   4.530   6.214   5.457 -0.7678 -0.6485 -1.9757
 2235SOL    HW2 7231   4.404   6.296   5.470  0.3184  0.7048  1.1784
 2236SOL     OW 7232   4.588   7.025   1.473  0.7952  0.0200 -0.2758
 2236SOL    HW1 7233   4.556   7.104   1.431 -0.7250 -0.2530  0.3077
 2236SOL    HW2 7234   4.631   6.976   1.403 -1.7362 -0.4603 -1.6253
 2237SOL     OW 7235   5.221   0.566   1.944  0.1978  0.3014 -0.0980
 2237SOL    HW1 7236   5.186   0.478   1.958 -0.1143  0.3142 -0.7608
 2237SOL    HW2 7237   5.228   0.574   1.849 -0.3117  1.1960 -0.0723
 2238SOL     OW 7238   2.355   2.004   4.821 -0.4257  0.3177 -0.1290
 2238SOL    HW1 7239   2.302   1.934   4.858 -1.0715  0.7352 -0.2575
 2238SOL    HW2 7240   2.319   2.019   4.734  0.8581 -0.4183 -0.8280
 2239SOL     OW 7241   2.878   2.907   2.962  0.1359 -0.0118  0.2417
 2239SOL    HW1 7242   2.905   2.815   2.955  1.0005  0.2109  0.6670
 2239SOL    HW2 7243   2.846   2.916   3.052  2.3929  0.7083  1.0302
 2240SOL     OW 7244   2.954   2.935   1.178 -0.2601 -0.4010 -0.4821
 2240SOL    HW1 7245   2.947   2.885   1.097 -0.8930 -0.7388 -0.2269
 2240SOL    HW2 7246   2.866   2.933   1.215 -0.2922  0.9103 -0.4668
 2241SOL     OW 7247   0.503   4.976   2.263 -0.1088  0.1286 -0.3546
 2241SOL    HW1 7248   0.412   4.999   2.280 -0.4106 -0.5338 -0.9949
 2241SOL    HW2 7249   0.523   5.018   2.180  0.7094  1.6488  0.5671
 2242SOL     OW 7250   1.846   5.126   3.692 -0.1949 -0.2664 -0.4304
 2242SOL    HW1 7251   1.906   5.160   3.759  1.1691 -2.5352 -0.4034
 2242SOL    HW2 7252   1.767   5.179   3.703  1.1565  1.6599  0.7172
 2243SOL     OW 7253   2.511   5.088   6.681  0.8019 -0.0419  0.1128
 2243SOL    HW1 7254   2.468   5.008   6.654 -0.2698  0.6384 -0.2485
 2243SOL    HW2 7255   2.465   5.158   6.635  2.6875  0.6878 -0.7739
 2244SOL     OW 7256   3.240   5.870   7.237  0.0063 -0.2621  0.9281
 2244SOL    HW1 7257   3.319   5.902   7.281  0.7796  1.5234 -1.5017
 2244SOL    HW2 7258   3.194   5.950   7.210 -2.7402 -1.2493  2.3399
 2245SOL     OW 7259   6.681   7.161   3.831  0.0183 -0.0143  0.0400
 2245SOL    HW1 7260   6.639   7.244   3.809 -0.7757 -0.9644 -2.3481
 2245SOL    HW2 7261   6.773   7.184   3.846 -0.6667  1.6366  2.2004
 2246SOL     OW 7262   4.763   2.414   3.126 -0.1780  0.3736 -0.4304
 2246SOL    HW1 7263   4.703   2.376   3.062 -0.7565  0.7271 -0.0999
 2246SOL    HW2 7264   4.850   2.388   3.095 -0.4847  0.0387 -1.0285
 2247SOL     OW 7265   7.110   4.747   5.762 -0.2975 -0.7996 -0.5313
 2247SOL    HW1 7266   7.166   4.751   5.684  1.1009 -0.5567  0.4497
 2247SOL    HW2 7267   7.142   4.818   5.818 -2.3596  0.0864 -0.4049
 2248SOL     OW 7268   1.186   0.677   2.462  0.4057  0.1032  0.6784
 2248SOL    HW1 7269   1.226   0.742   2.520 -1.0300  1.3545  0.3239
 2248SOL    HW2 7270   1.186   0.718   2.376 -2.0581  0.4196  0.7509
 2249SOL     OW 7271   4.346   1.502   1.526 -0.4828 -0.5555  0.5332
 2249SOL    HW1 7272   4.306   1.587   1.542 -1.5569 -0.7521 -0.8748
 2249SOL    HW2 7273   4.428   1.522   1.482 -1.0855 -0.2483 -0.4798
 2250SOL     OW 7274   0.414   4.361   2.161 -0.0018  0.4702  0.1743
 2250SOL    HW1 7275   0.322   4.369   2.185 -0.0550  0.0509  0.1251
 2250SOL    HW2 7276   0.423   4.410   2.080 -0.6033 -1.0237 -0.8506
 2251SOL     OW 7277   0.104   5.453   1.016  0.4138  0.0870 -0.1008
 2251SOL    HW1 7278   0.191   5.425   0.989  0.6549  0.0328  0.6845
 2251SOL    HW2 7279   0.118   5.538   1.058 -0.1703  0.9019 -1.5296
 2252SOL     OW 7280   5.484   7.509   5.042  0.7171  0.0672 -0.4877
 2252SOL    HW1 7281   5.420   7.444   5.016 -0.7909  1.6901 -1.0159
 2252SOL    HW2 7282   5.457   7.537   5.130  1.9719 -0.7206  0.1874
 2253SOL     OW 7283   6.029   3.098   7.536 -0.7165 -0.1071 -0.0045
 2253SOL    HW1 7284   6.117   3.120   7.507 -0.9787 -1.2955 -1.8727
 2253SOL    HW2 7285   6.040   3.068   7.626  0.3773  2.2022  0.6964
 2254SOL     OW 7286   4.880   4.672   1.080 -0.0459  0.1908  0.3659
 2254SOL    HW1 7287   4.914   4.707   1.162  1.8546 -1.2582  0.2558
 2254SOL    HW2 7288   4.787   4.659   1.096 -0.1356  1.9913  1.5283
 2255SOL     OW 7289   3.615   5.542   4.018  0.2244 -0.9795  0.1722
 2255SOL    HW1 7290   3.537   5.597   4.026 -0.9790 -2.0505 -2.9557
 2255SOL    HW2 7291   3.582   5.453   4.031  1.3688 -1.3180  0.8836
 2256SOL     OW 7292   5.360   1.321   2.634 -0.0530  0.1431 -0.3910
 2256SOL    HW1 7293   5.396   1.251   2.579  2.1077  0.8791 -0.0158
 2256SOL    HW2 7294   5.353   1.282   2.721  1.3497  0.3988 -0.1360
 2257SOL     OW 7295   4.586   1.153   0.184 -0.1330  0.0512 -0.0324
 2257SOL    HW1 7296   4.646   1.080   0.180 -0.1689  0.0731 -2.0288
 2257SOL    HW2 7297   4.509   1.119   0.230  1.0524 -0.1850  1.8836
 2258SOL     OW 7298   1.574   3.173   3.113  0.3984  0.6312 -0.5460
 2258SOL    HW1 7299   1.601   3.095   3.064  0.3378  0.5016 -0.3714
 2258SOL    HW2 7300   1.626   3.244   3.074  1.1206  0.3580 -0.1021
 2259SOL     OW 7301   5.838   1.972   6.332  0.3834  0.5499 -0.2188
 2259SOL    HW1 7302   5.901   1.911   6.294  1.9101  1.0290  1.4144
 2259SOL    HW2 7303   5.765   1.918   6.360  1.9920 -0.7133  1.8210
 2260SOL     OW 7304   5.939   5.074   4.685 -0.1293 -0.3426  0.1349
 2260SOL    HW1 7305   5.918   5.150   4.740  1.5100 -0.4080  0.9233
 2260SOL    HW2 7306   5.941   5.000   4.746  0.3637 -0.6518 -0.2505
 2261SOL     OW 7307   6.677   6.115   2.113  0.0585  0.1502 -0.2068
 2261SOL    HW1 7308   6.588   6.091   2.088  0.4007 -0.6691 -0.6760
 2261SOL    HW2 7309   6.718   6.032   2.140  0.2904  0.7107  1.2757
 2262SOL     OW 7310   1.865   0.203   5.117  0.1929 -0.2093  0.5614
 2262SOL    HW1 7311   1.807   0.270   5.153 -1.4227 -0.8735 -0.6877
 2262SOL    HW2 7312   1.920   0.250   5.055 -1.1371 -0.0506 -0.5351
 2263SOL     OW 7313   6.279   3.564   2.220 -0.4111  0.2526 -0.2532
 2263SOL    HW1 7314   6.374   3.554   2.217 -0.3017  1.1663  0.0941
 2263SOL    HW2 7315   6.247   3.476   2.241  0.5046  0.4460  2.3015
 2264SOL     OW 7316   0.838   0.699   3.809  0.1699  0.0849 -0.6053
 2264SOL    HW1 7317   0.895   0.743   3.746  1.0335 -0.5006 -0.2605
 2264SOL    HW2 7318   0.798   0.770   3.859  0.3801  0.5203 -1.0440
 2265SOL     OW 7319   2.492   4.384   0.973  0.1112 -0.3209  0.2015
 2265SOL    HW1 7320   2.419   4.420   0.922 -0.2323 -0.9540  0.2391
 2265SOL    HW2 7321   2.570   4.404   0.922 -0.0889  0.3324  0.1418
 2266SOL     OW 7322   6.132   2.644   3.732  0.0805 -0.4318 -0.7853
 2266SOL    HW1 7323   6.111   2.679   3.819  0.6623 -1.8809 -0.0329
 2266SOL    HW2 7324   6.048   2.615   3.697 -0.7482  3.0787 -2.1603
 2267SOL     OW 7325   4.359   6.922   3.859  0.1131 -0.2721  0.1217
 2267SOL    HW1 7326   4.419   6.978   3.908 -0.8469  0.5239  0.4184
 2267SOL    HW2 7327   4.346   6.967   3.775  1.7643 -1.6385 -0.9260
 2268SOL     OW 7328   2.933   3.436   0.751 -0.4786  0.1773 -0.4053
 2268SOL    HW1 7329   2.971   3.495   0.816 -2.6162  1.5174 -0.2632
 2268SOL    HW2 7330   2.966   3.469   0.667 -1.3384  1.3924 -0.2972
 2269SOL     OW 7331   3.017   4.789   6.095  0.5136 -0.0717 -0.1250
 2269SOL    HW1 7332   3.031   4.860   6.159 -0.8289 -1.0310  1.3086
 2269SOL    HW2 7333   3.009   4.711   6.149  0.0748 -1.0367 -1.5561
 2270SOL     OW 7334   5.187   0.272   7.219 -0.1334 -0.0900  0.1074
 2270SOL    HW1 7335   5.259   0.329   7.245  0.0433 -0.4264  0.3593
 2270SOL    HW2 7336   5.230   0.192   7.190 -0.4384 -0.5977  1.0243
 2271SOL     OW 7337   3.226   2.127   5.512  0.5064  0.4629 -0.8557
 2271SOL    HW1 7338   3.244   2.055   5.452 -0.5864  0.2261 -0.9264
 2271SOL    HW2 7339   3.131   2.138   5.508  0.1810 -0.6025  2.0020
 2272SOL     OW 7340   2.157   3.907   5.663 -0.0066  0.2977 -0.2816
 2272SOL    HW1 7341   2.133   3.823   5.702  0.5569 -0.3690 -1.3156
 2272SOL    HW2 7342   2.253   3.908   5.668  0.0155  0.6219 -0.7846
 2273SOL     OW 7343   6.815   3.664   6.191 -0.4413 -0.2850 -0.1713
 2273SOL    HW1 7344   6.738   3.622   6.229  0.6175 -0.3291  2.0655
 2273SOL    HW2 7345   6.841   3.729   6.256  2.2623 -1.2785 -0.1311
 2274SOL     OW 7346   3.537   0.849   1.772  0.0881 -0.3038  0.6661
 2274SOL    HW1 7347   3.528   0.875   1.681  0.9138  0.0896  0.6897
 2274SOL    HW2 7348   3.585   0.766   1.769 -0.8171 -0.8437  0.6969
 2275SOL     OW 7349   2.527   1.429   5.533  0.4620  0.2879  0.1734
 2275SOL    HW1 7350   2.593   1.383   5.481 -0.1430 -0.4704  0.0484
 2275SOL    HW2 7351   2.456   1.365   5.542  1.4164 -0.4622  3.8378
 2276SOL     OW 7352   6.935   1.044   1.366 -0.6763  0.3659 -0.7573
 2276SOL    HW1 7353   6.991   1.073   1.294 -1.8566 -1.8029 -2.7113
 2276SOL    HW2 7354   6.949   0.949   1.369  0.8394  0.5431  3.3082
 2277SOL     OW 7355   4.948   5.044   0.452  0.1855  0.0448 -0.0818
 2277SOL    HW1 7356   5.042   5.063   0.457  0.1716 -0.0922  0.8757
 2277SOL    HW2 7357   4.910   5.120   0.408  0.6185  0.5504  0.4098
 2278SOL     OW 7358   2.523   1.413   6.696 -0.0743 -0.2281 -0.3147
 2278SOL    HW1 7359   2.466   1.343   6.725 -3.2538  1.9236 -0.8119
 2278SOL    HW2 7360   2.524   1.475   6.769  1.6285 -0.1490 -0.3659
 2279SOL     OW 7361   5.174   5.008   3.754  0.1914 -0.2411  0.2412
 2279SOL    HW1 7362   5.247   5.056   3.793 -0.0011 -0.1787  0.5283
 2279SOL    HW2 7363   5.181   5.026   3.660 -0.8419  1.7166  0.4875
 2280SOL     OW 7364   3.812   3.891   5.370  0.1091 -0.0262  0.7647
 2280SOL    HW1 7365   3.762   3.927   5.444 -0.0161 -0.6185  0.9716
 2280SOL    HW2 7366   3.903   3.912   5.390 -0.1525  2.8903 -0.6023
 2281SOL     OW 7367   6.972   2.667   5.095  0.6945 -0.3998  0.2442
 2281SOL    HW1 7368   6.990   2.698   5.006 -0.6948 -0.6224 -0.1367
 2281SOL    HW2 7369   6.995   2.574   5.093  0.3063 -0.4901  0.0123
 2282SOL     OW 7370   0.178   6.134   5.972 -0.0218  0.7382 -0.1482
 2282SOL    HW1 7371   0.094   6.156   5.932  0.2128  1.0207 -0.4945
 2282SOL    HW2 7372   0.232   6.104   5.898 -0.1054 -0.3085  0.2053
 2283SOL     OW 7373   6.326   2.886   0.667  0.2081  0.1161 -0.1017
 2283SOL    HW1 7374   6.378   2.873   0.587 -0.0358  0.0638 -0.2541
 2283SOL    HW2 7375   6.364   2.826   0.731 -1.8520 -2.6174 -1.2224
 2284SOL     OW 7376   1.840   2.389   7.528 -0.7748 -0.3097  0.2397
 2284SOL    HW1 7377   1.750   2.365   7.550 -0.2041 -1.6792  1.2667
 2284SOL    HW2 7378   1.866   2.450   7.598 -0.8851  0.0367 -0.0213
 2285SOL     OW 7379   4.925   5.864   3.148  0.6269  0.2212 -0.0777
 2285SOL    HW1 7380   4.898   5.937   3.092 -0.4037  1.3276  1.7650
 2285SOL    HW2 7381   5.012   5.889   3.180  0.8578 -0.0173 -0.5102
 2286SOL     OW 7382   5.767   6.364   5.365 -0.4897  0.3542 -0.0590
 2286SOL    HW1 7383   5.730   6.285   5.406 -0.9939  1.7325  2.3531
 2286SOL    HW2 7384   5.861   6.347   5.363 -0.4891  0.0445  1.3658
 2287SOL     OW 7385   4.169   5.736   2.798  0.2471 -0.2516 -0.2619
 2287SOL    HW1 7386   4.134   5.707   2.882  1.6142  0.5228  0.5987
 2287SOL    HW2 7387   4.260   5.760   2.816 -0.1977  2.6039 -1.3371
 2288SOL     OW 7388   0.158   3.348   3.552  0.0313  0.1581  0.2196
 2288SOL    HW1 7389   0.106   3.301   3.486 -1.2051  0.9143  0.6291
 2288SOL    HW2 7390   0.103   3.421   3.578  1.5183  1.2931  0.3120
 2289SOL     OW 7391   4.043   1.732   7.065 -0.5381 -0.2904 -0.1400
 2289SOL    HW1 7392   4.115   1.771   7.016 -0.3470  0.8368  0.9778
 2289SOL    HW2 7393   4.062   1.639   7.067  1.6088  0.1159  1.2255
 2290SOL     OW 7394   3.817   4.002   6.260  0.0743  0.0939  0.8041
 2290SOL    HW1 7395   3.891   4.062   6.248  0.8407 -0.9104  0.3618
 2290SOL    HW2 7396   3.814   3.951   6.179 -0.5691 -0.4583  1.1606
 2291SOL     OW 7397   5.942   6.707   6.394 -0.8418  0.2837 -0.2470
 2291SOL    HW1 7398   5.896   6.685   6.312 -1.5137  0.1098  0.1658
 2291SOL    HW2 7399   5.906   6.792   6.419 -3.1062 -1.0813  1.5575
 2292SOL     OW 7400   1.764   0.704   4.867 -0.4593  0.4124  0.6901
 2292SOL    HW1 7401   1.712   0.676   4.942 -0.8585 -0.4666  0.1063
 2292SOL    HW2 7402   1.700   0.716   4.797 -0.2301  2.2486  0.7360
 2293SOL     OW 7403   6.107   1.887   3.520 -0.3792 -0.4661  0.4532
 2293SOL    HW1 7404   6.062   1.804   3.506  2.4363 -1.9213 -0.7243
 2293SOL    HW2 7405   6.111   1.928   3.434 -1.9612  1.1167  1.0612
 2294SOL     OW 7406   3.020   0.197   3.266 -0.3584  0.0963 -0.4492
 2294SOL    HW1 7407   3.114   0.179   3.260  0.2072  2.4870  0.1056
 2294SOL    HW2 7408   2.998   0.180   3.358  0.2178  2.0540  0.1215
 2295SOL     OW 7409   4.692   2.880   7.061  0.1629  0.3660 -0.0854
 2295SOL    HW1 7410   4.754   2.949   7.081 -1.1312  1.1073  1.6552
 2295SOL    HW2 7411   4.608   2.926   7.050 -0.2622 -0.6843 -1.4345
 2296SOL     OW 7412   4.921   5.911   2.839  0.1435  0.0839 -0.2964
 2296SOL    HW1 7413   5.010   5.939   2.819 -0.1234  1.8444  0.7071
 2296SOL    HW2 7414   4.888   5.978   2.899 -1.4644 -1.1417  0.2799
 2297SOL     OW 7415   5.453   5.179   6.619  0.2831 -0.5733 -0.2726
 2297SOL    HW1 7416   5.536   5.138   6.598  0.0298 -1.1363 -0.2038
 2297SOL    HW2 7417   5.447   5.254   6.560  0.0878 -1.4721 -1.4273
 2298SOL     OW 7418   6.152   6.827   4.421  0.6269  0.3052  0.2767
 2298SOL    HW1 7419   6.242   6.794   4.430 -0.1419 -1.5688  1.9639
 2298SOL    HW2 7420   6.137   6.831   4.327  2.1279 -0.4095 -0.0342
 2299SOL     OW 7421   2.447   3.850   5.580  0.2151 -0.2324 -0.1169
 2299SOL    HW1 7422   2.434   3.762   5.544  1.4524 -1.0255  1.2754
 2299SOL    HW2 7423   2.452   3.838   5.674  1.0736  1.2427  0.0680
 2300SOL     OW 7424   7.125   3.504   3.951  0.2018 -0.0578  0.0816
 2300SOL    HW1 7425   7.075   3.468   3.878  0.7952 -2.1475  0.6256
 2300SOL    HW2 7426   7.060   3.528   4.017 -0.2700  0.9178 -0.7153
 2301SOL     OW 7427   4.697   5.894   5.346  0.2676 -0.0836 -0.7969
 2301SOL    HW1 7428   4.734   5.903   5.433 -0.4257 -0.1218 -0.4930
 2301SOL    HW2 7429   4.619   5.950   5.347 -1.3113 -2.1957 -0.4969
 2302SOL     OW 7430   3.390   2.037   2.632  0.0230  0.0998  1.0748
 2302SOL    HW1 7431   3.481   2.046   2.602 -0.7514  0.8471 -1.3116
 2302SOL    HW2 7432   3.388   1.952   2.676  1.6298 -0.4652  0.1725
 2303SOL     OW 7433   3.710   6.839   3.515 -0.0109 -0.3810  0.6771
 2303SOL    HW1 7434   3.708   6.765   3.576 -1.1678 -2.0788 -1.2630
 2303SOL    HW2 7435   3.624   6.880   3.524  0.6583  0.8723  1.8132
 2304SOL     OW 7436   0.012   5.880   2.664 -0.2785  0.5454 -0.2505
 2304SOL    HW1 7437   0.100   5.874   2.625 -0.5987 -0.6092 -0.8523
 2304SOL    HW2 7438  -0.044   5.831   2.603 -0.8128 -1.2279  1.5631
 2305SOL     OW 7439   5.729   4.621   6.786 -0.1845 -0.0102  0.1556
 2305SOL    HW1 7440   5.724   4.607   6.881  0.4402  1.6193  0.4620
 2305SOL    HW2 7441   5.650   4.669   6.764 -0.8922 -1.3753 -0.3731
 2306SOL     OW 7442   7.214   4.581   1.225  0.4266  0.3417  0.1429
 2306SOL    HW1 7443   7.200   4.610   1.315  0.0874 -0.0834  0.2294
 2306SOL    HW2 7444   7.190   4.656   1.171  2.3789  1.2616  0.4558
 2307SOL     OW 7445   6.746   6.489   5.373  0.3117  0.5543 -0.4212
 2307SOL    HW1 7446   6.708   6.576   5.369  2.0351  1.6064  2.7383
 2307SOL    HW2 7447   6.765   6.475   5.466  3.5572 -1.6002 -1.2388
 2308SOL     OW 7448   6.841   5.431   4.574  0.3217  0.3086 -0.3483
 2308SOL    HW1 7449   6.746   5.430   4.557  0.2662  0.5257 -0.0660
 2308SOL    HW2 7450   6.877   5.486   4.504  0.3786 -0.6747 -1.1089
 2309SOL     OW 7451   0.801   1.509   0.866 -0.2619  0.2520  0.1587
 2309SOL    HW1 7452   0.792   1.439   0.930 -0.4450  1.4727  1.5257
 2309SOL    HW2 7453   0.895   1.516   0.852 -0.2044  0.1136  0.4640
 2310SOL     OW 7454   3.555   3.993   1.601  0.0889 -0.0891  0.1743
 2310SOL    HW1 7455   3.624   3.937   1.564 -0.6512  0.2842 -1.9372
 2310SOL    HW2 7456   3.479   3.977   1.546 -0.8416  1.2201  1.0112
 2311SOL     OW 7457   3.924   4.431   6.262 -0.0158  0.2798 -0.0378
 2311SOL    HW1 7458   3.947   4.483   6.184 -0.6379 -0.0264 -0.4363
 2311SOL    HW2 7459   3.944   4.489   6.336  1.3326  0.2909 -0.3747
 2312SOL     OW 7460   0.517   7.061   3.634  0.2021  0.6428 -0.1008
 2312SOL    HW1 7461   0.570   7.133   3.667 -0.1878  0.8787  0.0140
 2312SOL    HW2 7462   0.563   7.031   3.556  0.9639  0.2836  0.4741
 2313SOL     OW 7463   0.999   0.082   5.026 -0.3179  0.0170 -0.0275
 2313SOL    HW1 7464   0.904   0.094   5.030 -0.0017  2.6847  1.6086
 2313SOL    HW2 7465   1.011  -0.013   5.016 -3.1090 -0.5876  1.5048
 2314SOL     OW 7466   0.296   1.266   3.283 -0.1515 -0.1960  0.9034
 2314SOL    HW1 7467   0.230   1.329   3.254 -3.2608 -3.3754  0.4143
 2314SOL    HW2 7468   0.248   1.205   3.339  2.4162 -2.6683  0.6307
 2315SOL     OW 7469   4.979   6.706   4.172  0.5787  0.1494  0.3737
 2315SOL    HW1 7470   4.896   6.719   4.127  0.3319  0.8485  1.0039
 2315SOL    HW2 7471   4.985   6.780   4.233  1.2888 -0.3169  0.8886
 2316SOL     OW 7472   5.593   6.452   2.857 -0.1313 -0.1763  0.0043
 2316SOL    HW1 7473   5.677   6.498   2.850 -1.5620  2.5887 -0.5308
 2316SOL    HW2 7474   5.548   6.474   2.776 -1.9807 -0.2780  0.9708
 2317SOL     OW 7475   6.972   6.949   1.177 -0.3402  0.9851 -0.0413
 2317SOL    HW1 7476   6.941   6.980   1.262  2.3776 -1.6787  2.1615
 2317SOL    HW2 7477   7.061   6.984   1.171  0.4277 -0.9379 -0.4989
 2318SOL     OW 7478   1.929   7.388   5.567  0.1218 -0.6465 -0.1523
 2318SOL    HW1 7479   2.001   7.405   5.627  0.0128  0.2922 -0.2819
 2318SOL    HW2 7480   1.953   7.434   5.487 -0.4339 -0.6648 -0.3342
 2319SOL     OW 7481   2.177   5.472   1.136  0.0097  0.2383  0.0889
 2319SOL    HW1 7482   2.232   5.477   1.214 -0.7904 -0.0382  0.6776
 2319SOL    HW2 7483   2.113   5.403   1.156 -1.4900  1.5557  0.0124
 2320SOL     OW 7484   2.121   0.549   0.994  0.3443 -0.0264  0.5178
 2320SOL    HW1 7485   2.096   0.641   0.998 -2.6346 -0.6262 -1.2318
 2320SOL    HW2 7486   2.201   0.548   0.942  1.6895  1.6677  2.4032
 2321SOL     OW 7487   1.251   2.705   1.127  0.3451 -0.8600  0.7460
 2321SOL    HW1 7488   1.169   2.674   1.164  0.4412 -0.9059  0.9228
 2321SOL    HW2 7489   1.251   2.799   1.145  0.0172 -0.7433  0.1391
 2322SOL     OW 7490   1.442   5.063   2.211 -0.3725 -0.4878 -0.2991
 2322SOL    HW1 7491   1.423   5.054   2.117 -1.8008  0.4887 -0.1263
 2322SOL    HW2 7492   1.531   5.096   2.214  0.1897 -1.7972 -1.2615
 2323SOL     OW 7493   1.134   0.318   2.137  0.2182  0.4239  0.5737
 2323SOL    HW1 7494   1.167   0.237   2.099 -1.3803 -0.2737  0.5967
 2323SOL    HW2 7495   1.092   0.292   2.219 -1.2303  1.0866  0.0821
 2324SOL     OW 7496   7.399   5.493   3.011  0.0385 -0.1416  0.3086
 2324SOL    HW1 7497   7.402   5.425   2.943  1.1542  0.0480  0.1487
 2324SOL    HW2 7498   7.306   5.504   3.030 -0.8988  2.8335 -4.2816
 2325SOL     OW 7499   3.994   5.608   4.396 -0.4731  0.0494 -0.6880
 2325SOL    HW1 7500   4.033   5.693   4.415 -0.3183 -0.0675 -0.4786
 2325SOL    HW2 7501   4.005   5.596   4.302 -1.2744  0.6491 -0.8659
 2326SOL     OW 7502   6.484   6.706   3.183 -0.1034  0.4373  0.5000
 2326SOL    HW1 7503   6.486   6.746   3.269  0.8927 -0.4180  0.9046
 2326SOL    HW2 7504   6.570   6.726   3.146  1.1140 -2.5617  1.3553
 2327SOL     OW 7505   7.296   3.920   3.668  0.2411 -0.0019 -0.0008
 2327SOL    HW1 7506   7.218   3.865   3.662 -0.7136  1.4278 -1.3110
 2327SOL    HW2 7507   7.282   3.971   3.748  0.9878 -1.3749  1.0527
 2328SOL     OW 7508   0.243   3.791   1.485 -0.2361  0.4089 -0.4769
 2328SOL    HW1 7509   0.268   3.698   1.482 -0.7742  0.2247  0.2372
 2328SOL    HW2 7510   0.147   3.789   1.482 -0.2512  0.9372 -0.3341
 2329SOL     OW 7511   7.437   5.594   4.632  0.9034 -0.2764 -0.8141
 2329SOL    HW1 7512   7.491   5.618   4.557  0.1026 -0.9319 -1.6241
 2329SOL    HW2 7513   7.466   5.506   4.655  0.7360 -0.3120 -0.7385
 2330SOL     OW 7514   4.245   1.322   4.482  0.2644  0.5537  0.1166
 2330SOL    HW1 7515   4.313   1.336   4.548  0.5143  0.5266 -0.1318
 2330SOL    HW2 7516   4.253   1.398   4.424 -1.8199  2.0749  1.6905
 2331SOL     OW 7517   2.839   6.390   3.110 -0.4196  0.0737  0.1354
 2331SOL    HW1 7518   2.745   6.373   3.121 -0.5100 -0.1814 -0.9229
 2331SOL    HW2 7519   2.842   6.459   3.043  0.1665 -0.3698 -0.2985
 2332SOL     OW 7520   4.046   1.990   5.141 -0.0333 -0.4852 -0.4279
 2332SOL    HW1 7521   3.977   1.994   5.074 -1.6068  0.9556  1.1672
 2332SOL    HW2 7522   4.112   2.053   5.110 -1.8001  1.9359  0.3557
 2333SOL     OW 7523   6.376   3.931   3.029 -0.4344 -0.9849 -0.1953
 2333SOL    HW1 7524   6.316   3.927   2.955 -0.2204  0.3731 -0.4700
 2333SOL    HW2 7525   6.341   4.001   3.085 -0.6153 -2.0092  1.0209
 2334SOL     OW 7526   1.346   2.046   1.104  0.5418  0.1481  0.2281
 2334SOL    HW1 7527   1.265   2.011   1.141  0.0716  1.9860  1.0534
 2334SOL    HW2 7528   1.333   2.043   1.009  0.7884 -2.4226  0.2254
 2335SOL     OW 7529   1.486   2.215   3.132  0.1421 -0.1114  0.7133
 2335SOL    HW1 7530   1.498   2.180   3.044 -0.6138  3.6399 -1.1126
 2335SOL    HW2 7531   1.407   2.172   3.165  0.6400 -1.8410 -0.2371
 2336SOL     OW 7532   1.291   0.958   6.529 -0.2060 -0.5382 -0.4466
 2336SOL    HW1 7533   1.239   0.931   6.605 -0.3253 -1.2441 -0.7781
 2336SOL    HW2 7534   1.228   1.001   6.471  0.1159  1.1614  0.4035
 2337SOL     OW 7535   2.197   4.627   4.400  0.2622 -0.4474 -0.0397
 2337SOL    HW1 7536   2.239   4.675   4.471  3.2615 -0.3647 -1.7079
 2337SOL    HW2 7537   2.232   4.668   4.320 -4.5742  0.9574 -1.7802
 2338SOL     OW 7538   1.727   6.942   2.718 -0.0294 -0.1317 -0.2508
 2338SOL    HW1 7539   1.733   6.973   2.627 -3.6081 -1.7228 -1.1898
 2338SOL    HW2 7540   1.633   6.934   2.734  0.5393 -1.4304  3.1002
 2339SOL     OW 7541   2.243   5.232   6.606  0.4840 -0.1729  0.1603
 2339SOL    HW1 7542   2.276   5.322   6.602 -2.4284  0.9692 -0.5050
 2339SOL    HW2 7543   2.194   5.227   6.688  2.1044 -1.7857  1.0941
 2340SOL     OW 7544   1.035   2.032   2.692  0.7177  0.4246 -0.4422
 2340SOL    HW1 7545   1.089   2.075   2.625  0.1239  0.0013 -1.2142
 2340SOL    HW2 7546   1.079   2.052   2.775  0.5948  2.3546 -0.7781
 2341SOL     OW 7547   5.701   3.495   0.924 -0.4840  0.2018  0.3053
 2341SOL    HW1 7548   5.625   3.467   0.976 -0.8272 -0.6851 -0.6598
 2341SOL    HW2 7549   5.733   3.416   0.882  1.0400  0.5533  0.7462
 2342SOL     OW 7550   2.514   5.145   7.473 -0.6351 -0.2294 -0.7401
 2342SOL    HW1 7551   2.600   5.139   7.513 -0.3942  0.6603 -1.0812
 2342SOL    HW2 7552   2.452   5.129   7.545 -0.2040  0.7571 -0.1258
 2343SOL     OW 7553   1.365   7.548   0.132  0.2784 -0.5735 -0.0851
 2343SOL    HW1 7554   1.425   7.501   0.075 -1.2417 -2.3020 -0.3747
 2343SOL    HW2 7555   1.278   7.512   0.110 -0.6663  0.6542  1.4175
 2344SOL     OW 7556   6.940   7.129   3.107 -0.4335 -0.0899  0.5250
 2344SOL    HW1 7557   7.034   7.112   3.114 -0.8078 -1.9005  1.6672
 2344SOL    HW2 7558   6.919   7.184   3.182 -0.4749 -0.6096  0.8958
 2345SOL     OW 7559   4.488   2.693   2.676  0.3722  0.8103 -0.3736
 2345SOL    HW1 7560   4.403   2.720   2.643  0.0428  0.0203 -0.2065
 2345SOL    HW2 7561   4.474   2.677   2.770  0.3519 -0.5955 -0.5873
 2346SOL     OW 7562   0.596   0.065   1.334 -1.0365  0.5761 -0.0805
 2346SOL    HW1 7563   0.522   0.122   1.312 -0.3893  1.3281 -0.3781
 2346SOL    HW2 7564   0.670   0.105   1.289 -0.4703 -0.2288  0.1265
 2347SOL     OW 7565   7.362   5.822   5.317 -0.1610  0.0399 -0.2634
 2347SOL    HW1 7566   7.291   5.814   5.253  0.0909 -1.8801 -0.3669
 2347SOL    HW2 7567   7.344   5.753   5.381  1.3847 -0.2102 -0.0672
 2348SOL     OW 7568   3.415   6.579   3.904  0.0259 -0.2058 -0.5676
 2348SOL    HW1 7569   3.328   6.576   3.864 -0.8315 -2.0648  1.2539
 2348SOL    HW2 7570   3.453   6.661   3.873 -0.7859 -1.1493 -4.5685
 2349SOL     OW 7571   1.566   0.338   1.359 -0.5478 -0.4465  0.4172
 2349SOL    HW1 7572   1.575   0.243   1.356 -1.2939 -0.5071 -0.9284
 2349SOL    HW2 7573   1.527   0.361   1.275  0.0567  1.1099  0.5215
 2350SOL     OW 7574   2.868   4.651   1.922 -0.1159 -0.4413  0.4546
 2350SOL    HW1 7575   2.816   4.622   1.847 -0.3344  0.5235  0.2151
 2350SOL    HW2 7576   2.957   4.656   1.888 -0.1852 -0.1835  0.3084
 2351SOL     OW 7577   4.605   7.256   0.589 -0.6243  0.7153  0.1205
 2351SOL    HW1 7578   4.640   7.281   0.503  0.6828  0.3224  0.5110
 2351SOL    HW2 7579   4.675   7.277   0.650 -0.7277 -0.9228  0.8400
 2352SOL     OW 7580   3.014   5.858   3.096  0.2831  0.9060 -0.3894
 2352SOL    HW1 7581   3.001   5.849   3.002  1.4862  1.0774 -0.5825
 2352SOL    HW2 7582   2.996   5.770   3.130 -3.7201  1.6086 -0.2732
 2353SOL     OW 7583   6.114   4.139   2.099  0.0826 -0.3152 -0.4198
 2353SOL    HW1 7584   6.035   4.160   2.048 -0.5234 -0.9449  0.2417
 2353SOL    HW2 7585   6.081   4.100   2.180  0.9615  1.7504  1.0377
 2354SOL     OW 7586   1.751   6.882   6.123  0.3535 -0.2605 -0.2781
 2354SOL    HW1 7587   1.678   6.854   6.068 -0.9173  0.2511  1.0751
 2354SOL    HW2 7588   1.828   6.869   6.069 -0.3690 -3.7950 -0.7001
 2355SOL     OW 7589   1.919   0.855   3.120  0.1435  0.0274 -0.4035
 2355SOL    HW1 7590   1.894   0.769   3.152 -1.2782  1.1003  1.6257
 2355SOL    HW2 7591   1.860   0.871   3.046  0.5883 -0.8269 -0.9464
 2356SOL     OW 7592   7.067   4.088   1.312 -0.0697 -0.3675  0.1232
 2356SOL    HW1 7593   7.014   4.015   1.280  1.3557 -1.2799 -0.2830
 2356SOL    HW2 7594   7.109   4.123   1.233  0.9546 -0.5312  0.5760
 2357SOL     OW 7595   1.089   5.004   2.848 -0.5406  0.3700  0.4271
 2357SOL    HW1 7596   1.028   5.077   2.858 -2.3793 -1.2103  1.7632
 2357SOL    HW2 7597   1.034   4.932   2.816  1.1179 -0.5358 -0.5098
 2358SOL     OW 7598   0.364   6.368   3.743 -0.4321  0.2184 -0.0677
 2358SOL    HW1 7599   0.388   6.283   3.780  1.9105  0.9261  0.1607
 2358SOL    HW2 7600   0.394   6.432   3.808 -1.5897  1.2768 -0.5303
 2359SOL     OW 7601   1.414   5.229   6.181 -0.1714  0.5758  0.5485
 2359SOL    HW1 7602   1.463   5.281   6.246  0.0004 -0.3775  1.2038
 2359SOL    HW2 7603   1.473   5.222   6.107  0.3763  0.1395  1.0118
 2360SOL     OW 7604   2.896   3.775   0.477 -0.1800  0.4426 -0.4084
 2360SOL    HW1 7605   2.960   3.742   0.541 -0.2769 -0.0249 -0.5446
 2360SOL    HW2 7606   2.931   3.746   0.392 -2.6003 -3.6154 -0.3112
 2361SOL     OW 7607   2.693   5.464   4.987 -0.2150  0.3589 -0.1564
 2361SOL    HW1 7608   2.771   5.508   4.956 -1.0679  1.9193 -0.1807
 2361SOL    HW2 7609   2.641   5.448   4.909 -1.4250  2.4204  0.1621
 2362SOL     OW 7610   2.001   1.759   3.356  0.2220  0.6448 -0.2306
 2362SOL    HW1 7611   2.063   1.686   3.350  0.1486  0.5046  0.5705
 2362SOL    HW2 7612   2.056   1.836   3.369  0.3289  0.8211 -1.6119
 2363SOL     OW 7613   5.658   1.698   5.239  0.7009  0.1827 -0.6360
 2363SOL    HW1 7614   5.639   1.660   5.325 -0.1423  0.1996 -0.8058
 2363SOL    HW2 7615   5.688   1.787   5.259  1.7244 -0.2243 -0.2970
 2364SOL     OW 7616   0.818   3.769   3.935 -0.4144  0.0315  0.0510
 2364SOL    HW1 7617   0.825   3.794   4.027  0.6989  0.9795 -0.2642
 2364SOL    HW2 7618   0.809   3.853   3.889 -1.6870 -0.4728 -0.6599
 2365SOL     OW 7619   3.839   5.879   6.018 -0.2702  0.1368 -0.0831
 2365SOL    HW1 7620   3.795   5.874   6.103 -1.0747  1.5567 -0.3963
 2365SOL    HW2 7621   3.931   5.860   6.038 -0.0383  2.5525  1.4913
 2366SOL     OW 7622   3.289   4.918   5.850 -0.2907  0.1754  0.3407
 2366SOL    HW1 7623   3.198   4.931   5.822 -0.1114 -0.0327 -0.3755
 2366SOL    HW2 7624   3.340   4.975   5.792 -0.0464  1.0892  1.4373
 2367SOL     OW 7625   1.973   0.497   5.466 -0.0139  0.2265 -0.7749
 2367SOL    HW1 7626   1.989   0.542   5.550 -1.2068 -0.9404  0.1223
 2367SOL    HW2 7627   1.998   0.407   5.482  1.3171  0.2982 -2.2284
 2368SOL     OW 7628   4.487   1.865   3.533  0.2047 -0.7122  0.5865
 2368SOL    HW1 7629   4.405   1.833   3.495  0.1179 -0.4215  0.5185
 2368SOL    HW2 7630   4.549   1.865   3.461 -0.3418  1.2151  0.0396
 2369SOL     OW 7631   4.249   3.129   1.514 -0.0365  0.0530  0.5964
 2369SOL    HW1 7632   4.309   3.154   1.444 -1.3997 -0.4175 -0.7908
 2369SOL    HW2 7633   4.276   3.182   1.589  1.0255  1.0761 -0.4678
 2370SOL     OW 7634   2.541   3.268   6.428  0.4214 -0.7342  0.2244
 2370SOL    HW1 7635   2.554   3.304   6.516 -0.5525 -1.0660  0.5082
 2370SOL    HW2 7636   2.533   3.174   6.441  1.3401 -0.9064 -0.3484
 2371SOL     OW 7637   0.560   7.138   1.528  1.0190  0.0048  0.0322
 2371SOL    HW1 7638   0.645   7.123   1.568  1.6531  0.3144 -1.1717
 2371SOL    HW2 7639   0.543   7.231   1.539  0.0079 -0.3289  1.8002
 2372SOL     OW 7640   1.663   0.730   5.238  0.6767  0.3120 -0.7263
 2372SOL    HW1 7641   1.748   0.732   5.281 -1.0263 -2.1776  3.3422
 2372SOL    HW2 7642   1.642   0.822   5.222  3.2898  1.0850 -0.1761
 2373SOL     OW 7643   1.044   3.620   0.656 -0.4536 -0.0408 -0.1706
 2373SOL    HW1 7644   1.084   3.540   0.622 -1.1707 -1.2985  1.7717
 2373SOL    HW2 7645   1.111   3.687   0.644  2.0872 -1.8828  2.2260
 2374SOL     OW 7646   6.920   7.562   5.227 -0.3780  0.6072 -0.0014
 2374SOL    HW1 7647   6.937   7.468   5.218 -0.9912  0.3990  0.8293
 2374SOL    HW2 7648   6.998   7.605   5.193  0.8447 -0.2610  1.5728
 2375SOL     OW 7649   1.285   6.526   2.933  0.2172  0.2028 -0.5947
 2375SOL    HW1 7650   1.294   6.436   2.963 -1.4633  0.4811  0.9098
 2375SOL    HW2 7651   1.190   6.540   2.926  0.4627  1.4222 -2.2456
 2376SOL     OW 7652   3.791   0.393   3.516  0.3836 -0.4211 -0.2030
 2376SOL    HW1 7653   3.841   0.475   3.512  1.9237 -1.3682 -1.3364
 2376SOL    HW2 7654   3.823   0.349   3.594 -1.0354  0.3465  0.8838
 2377SOL     OW 7655   4.016   2.185   5.561  0.4741 -0.6074  0.4093
 2377SOL    HW1 7656   4.067   2.186   5.480  1.0656 -0.3529  0.7820
 2377SOL    HW2 7657   4.010   2.276   5.588 -3.2569 -0.0649 -1.4938
 2378SOL     OW 7658   5.058   0.056   4.887  0.3047 -0.6559 -0.0494
 2378SOL    HW1 7659   4.986  -0.007   4.890 -0.3853  0.0128 -1.5909
 2378SOL    HW2 7660   5.023   0.134   4.931  0.2159 -0.4567 -0.4719
 2379SOL     OW 7661   6.103   2.408   7.089  0.3845  0.3484 -0.0061
 2379SOL    HW1 7662   6.082   2.499   7.111  1.4995  1.0559 -1.6452
 2379SOL    HW2 7663   6.155   2.377   7.164  2.6467  2.1078 -0.7280
 2380SOL     OW 7664   0.863   5.158   2.905  0.1436 -0.8184 -0.0895
 2380SOL    HW1 7665   0.829   5.134   2.992 -3.0410  1.0811 -0.6664
 2380SOL    HW2 7666   0.865   5.254   2.906  0.5658 -0.7824 -1.9495
 2381SOL     OW 7667   7.159   0.010   0.595 -0.2780 -0.1296 -0.0243
 2381SOL    HW1 7668   7.145  -0.023   0.506 -1.6305  0.4566 -0.0588
 2381SOL    HW2 7669   7.091  -0.033   0.648 -0.6693  0.9200  0.3509
 2382SOL     OW 7670   7.147   6.439   6.733  0.1245  0.1152 -0.3326
 2382SOL    HW1 7671   7.176   6.358   6.692  1.1213  0.0231  0.5279
 2382SOL    HW2 7672   7.217   6.502   6.716  0.3630  0.1955  0.8235
 2383SOL     OW 7673   1.345   5.503   3.985  0.1174  0.3177  0.4393
 2383SOL    HW1 7674   1.343   5.473   3.895 -2.6233  2.0923 -0.2091
 2383SOL    HW2 7675   1.260   5.479   4.021 -0.3488  2.9345  1.3233
 2384SOL     OW 7676   3.003   2.084   3.474  0.2564 -0.1010  0.1063
 2384SOL    HW1 7677   2.943   2.122   3.409 -0.9477 -3.4796 -0.9953
 2384SOL    HW2 7678   3.089   2.089   3.433  0.1084  1.1789 -0.0758
 2385SOL     OW 7679   6.308   2.046   5.045 -0.2823  0.0024 -0.2641
 2385SOL    HW1 7680   6.317   2.138   5.018  0.2712 -0.2589 -0.9954
 2385SOL    HW2 7681   6.318   2.049   5.140 -0.6391  0.7427 -0.2357
 2386SOL     OW 7682   1.811   0.916   7.542  0.1633  0.3069 -0.2424
 2386SOL    HW1 7683   1.851   0.894   7.458  3.8265  0.4241  1.3141
 2386SOL    HW2 7684   1.823   1.010   7.551  2.2466 -0.0520  1.4641
 2387SOL     OW 7685   6.958   0.670   6.212  0.4229 -0.1317  0.1849
 2387SOL    HW1 7686   6.953   0.576   6.194 -0.4430 -0.3114  1.3057
 2387SOL    HW2 7687   6.868   0.696   6.231  0.7873  0.7491  0.7522
 2388SOL     OW 7688   3.051   4.954   2.912  0.7284 -0.0401 -0.1106
 2388SOL    HW1 7689   3.081   5.027   2.858  0.0791  0.3110 -0.0164
 2388SOL    HW2 7690   3.034   4.883   2.850  2.6469 -0.5940 -0.0776
 2389SOL     OW 7691   4.449   3.961   4.611  0.3066  0.8389  0.0356
 2389SOL    HW1 7692   4.474   4.053   4.623 -0.2887  1.2976 -1.9340
 2389SOL    HW2 7693   4.381   3.963   4.544  1.0589 -1.1531 -0.8598
 2390SOL     OW 7694   5.281   6.573   3.512  0.5617  0.3014  0.3885
 2390SOL    HW1 7695   5.356   6.630   3.526  1.1799  0.1064 -1.7191
 2390SOL    HW2 7696   5.290   6.503   3.576  2.3104  0.1652  0.0348
 2391SOL     OW 7697   0.485   2.773   0.112  0.2262 -0.3322  0.4965
 2391SOL    HW1 7698   0.464   2.753   0.203 -0.7268 -0.5821  0.2268
 2391SOL    HW2 7699   0.419   2.727   0.061  3.2244 -3.9229 -0.6203
 2392SOL     OW 7700   4.111   1.786   4.405  0.2450 -0.5002  0.8867
 2392SOL    HW1 7701   4.074   1.796   4.493  0.9951  2.3656  0.9627
 2392SOL    HW2 7702   4.068   1.854   4.354  1.4311 -0.7109 -0.4281
 2393SOL     OW 7703   3.520   6.830   0.124 -0.1584  0.1107 -0.1659
 2393SOL    HW1 7704   3.470   6.780   0.189 -1.3747 -0.2062 -1.3306
 2393SOL    HW2 7705   3.459   6.895   0.090  0.5717  0.5112 -0.7490
 2394SOL     OW 7706   1.656   5.780   6.919  0.4770  0.2644 -0.1094
 2394SOL    HW1 7707   1.611   5.850   6.965 -1.6891 -2.0130  1.4675
 2394SOL    HW2 7708   1.739   5.769   6.966  0.6160  1.3957 -0.0687
 2395SOL     OW 7709   3.928   5.454   5.689  0.0368 -0.0441 -0.0351
 2395SOL    HW1 7710   4.017   5.472   5.718  0.7944 -1.1743 -1.5124
 2395SOL    HW2 7711   3.904   5.529   5.635  0.8434 -0.5746 -1.1734
 2396SOL     OW 7712   7.177   5.295   7.369  0.7597  0.4449  0.1634
 2396SOL    HW1 7713   7.153   5.270   7.280  0.5255  1.1746  0.0116
 2396SOL    HW2 7714   7.137   5.381   7.381  3.0417  1.5915  0.0105
 2397SOL     OW 7715   1.496   1.008   6.704  0.2817 -0.0537 -0.1815
 2397SOL    HW1 7716   1.414   1.019   6.655  0.9560 -0.6536 -1.4896
 2397SOL    HW2 7717   1.556   1.070   6.665  0.6246 -0.0236  0.3884
 2398SOL     OW 7718   6.734   2.633   3.004 -0.2295  0.1137 -0.3896
 2398SOL    HW1 7719   6.781   2.612   2.923  1.3931 -0.5476  0.6904
 2398SOL    HW2 7720   6.720   2.548   3.046  2.0135  0.6485  1.6481
 2399SOL     OW 7721   1.493   5.154   4.482  0.2233  0.7344  0.1308
 2399SOL    HW1 7722   1.551   5.106   4.541 -0.2959  1.0833  0.9415
 2399SOL    HW2 7723   1.549   5.222   4.444  1.1758 -0.9356 -1.6389
 2400SOL     OW 7724   0.657   0.031   7.479  0.0588 -0.0734  0.0487
 2400SOL    HW1 7725   0.585  -0.014   7.523  0.2632  0.2015  0.6802
 2400SOL    HW2 7726   0.727   0.034   7.545  1.0168 -1.2111 -0.8668
 2401SOL     OW 7727   5.850   0.867   1.018  0.0581  0.0534  0.1797
 2401SOL    HW1 7728   5.845   0.897   1.109  0.6470 -0.0203  0.2358
 2401SOL    HW2 7729   5.822   0.776   1.022 -1.0278  0.3648  0.1143
 2402SOL     OW 7730   1.353   4.517   5.428 -0.4303 -0.3794  0.2241
 2402SOL    HW1 7731   1.418   4.570   5.383 -0.3838 -2.0748 -1.8412
 2402SOL    HW2 7732   1.310   4.578   5.488  1.9862  1.1364  0.5504
 2403SOL     OW 7733   2.648   1.294   7.528  0.3373  0.3319  0.0275
 2403SOL    HW1 7734   2.678   1.384   7.523 -1.2749  0.8410 -1.5604
 2403SOL    HW2 7735   2.557   1.297   7.500  0.3722 -1.8394 -0.5125
 2404SOL     OW 7736   3.167   1.172   6.200  0.2660  0.6472 -0.4976
 2404SOL    HW1 7737   3.092   1.206   6.151  0.5782  2.2999  0.1036
 2404SOL    HW2 7738   3.234   1.239   6.190  0.3831  0.9809  2.0518
 2405SOL     OW 7739   2.745   1.667   6.609 -0.2323 -0.2237 -0.6868
 2405SOL    HW1 7740   2.783   1.755   6.610  1.2341 -0.8065  1.3156
 2405SOL    HW2 7741   2.651   1.681   6.625  0.0332  0.9676 -0.0317
 2406SOL     OW 7742   2.446   2.308   1.982  0.3668 -0.5803  0.2088
 2406SOL    HW1 7743   2.428   2.215   1.969  1.7623 -0.5871 -2.3904
 2406SOL    HW2 7744   2.389   2.352   1.918  0.9510  0.2002  0.2163
 2407SOL     OW 7745   7.050   4.500   2.933 -0.6389  0.2855 -0.2176
 2407SOL    HW1 7746   7.027   4.525   2.844  1.0219  1.7525 -0.2830
 2407SOL    HW2 7747   7.133   4.453   2.925 -1.9582 -2.3039  0.2961
 2408SOL     OW 7748   1.735   1.128   0.558  0.8199  0.4332  0.3287
 2408SOL    HW1 7749   1.800   1.172   0.503  1.8676 -1.2782  0.1081
 2408SOL    HW2 7750   1.772   1.131   0.646  0.6654  0.4362  0.3930
 2409SOL     OW 7751   5.045   5.622   2.105 -0.0446 -0.5499  0.0071
 2409SOL    HW1 7752   5.087   5.563   2.169  0.3626 -0.6620 -0.3599
 2409SOL    HW2 7753   5.047   5.708   2.147 -3.0059 -1.1716  1.7088
 2410SOL     OW 7754   1.488   7.414   0.660 -0.0699  0.5573  0.3818
 2410SOL    HW1 7755   1.581   7.409   0.680 -0.3408  0.2803  1.6520
 2410SOL    HW2 7756   1.484   7.438   0.567  1.2540  0.2073  0.2257
 2411SOL     OW 7757   5.059   5.658   4.249  0.1044 -0.2586 -0.2578
 2411SOL    HW1 7758   4.999   5.705   4.307  1.0141 -0.1476  0.6241
 2411SOL    HW2 7759   5.145   5.670   4.289  0.6952 -0.5674 -1.3943
 2412SOL     OW 7760   6.078   3.491   4.297  0.5898 -0.4354 -0.4553
 2412SOL    HW1 7761   5.986   3.510   4.276  0.6344  1.1887  0.6691
 2412SOL    HW2 7762   6.077   3.461   4.388  1.3242  1.3114  0.1688
 2413SOL     OW 7763   3.626   3.032   0.252 -0.2789  0.4295  0.1726
 2413SOL    HW1 7764   3.543   3.057   0.293 -1.1820  0.9534 -1.8341
 2413SOL    HW2 7765   3.627   2.936   0.257 -1.1611  0.3976 -0.0594
 2414SOL     OW 7766   5.938   4.323   2.438  1.0809  0.3231  0.3682
 2414SOL    HW1 7767   5.891   4.330   2.355  1.9654  0.2983 -0.1520
 2414SOL    HW2 7768   5.903   4.394   2.492 -0.1787 -0.2443  0.3339
 2415SOL     OW 7769   3.235   1.755   2.132  0.0529  0.6395  0.5653
 2415SOL    HW1 7770   3.192   1.669   2.136  2.2891 -0.5772 -0.0974
 2415SOL    HW2 7771   3.231   1.788   2.222 -0.9910 -0.0457  0.7918
 2416SOL     OW 7772   7.306   5.639   3.374  0.5035 -0.3860 -0.2532
 2416SOL    HW1 7773   7.331   5.630   3.466 -0.5243  1.0921  0.2185
 2416SOL    HW2 7774   7.388   5.659   3.328  0.7916  0.6235  0.6461
 2417SOL     OW 7775   6.861   5.944   0.285  0.1899 -0.3924  0.3653
 2417SOL    HW1 7776   6.932   5.998   0.250  1.2652 -1.7589  0.3553
 2417SOL    HW2 7777   6.871   5.950   0.380 -1.4359  1.6224  0.4834
 2418SOL     OW 7778   2.107   7.144   3.500  0.0574 -0.2814  0.1816
 2418SOL    HW1 7779   2.177   7.091   3.537  0.2692 -0.5818 -0.6248
 2418SOL    HW2 7780   2.045   7.156   3.572  0.0667 -1.5194  0.4236
 2419SOL     OW 7781   0.981   0.407   4.469 -0.6273  0.2868 -0.2377
 2419SOL    HW1 7782   0.970   0.414   4.374 -1.1515 -2.9581 -0.5461
 2419SOL    HW2 7783   1.069   0.369   4.480 -0.9571 -0.3044  0.4756
 2420SOL     OW 7784   1.286   4.188   0.092  0.5633 -0.2345 -0.0475
 2420SOL    HW1 7785   1.341   4.215   0.166  2.1378 -0.3327 -1.1250
 2420SOL    HW2 7786   1.256   4.270   0.054  0.6829 -0.1560  0.0258
 2421SOL     OW 7787   7.016   5.461   5.063  0.1139  0.1240  0.7194
 2421SOL    HW1 7788   7.085   5.527   5.057 -0.2141  0.3469 -1.6981
 2421SOL    HW2 7789   6.952   5.499   5.123 -0.0323  2.0292 -0.5368
 2422SOL     OW 7790   0.076   5.782   1.112  0.3157  0.0726  0.4270
 2422SOL    HW1 7791   0.090   5.794   1.018 -0.2080 -1.2615  0.1624
 2422SOL    HW2 7792   0.155   5.740   1.144  0.2536 -0.0084  0.4747
 2423SOL     OW 7793   2.442   3.116   3.933 -0.0715  0.2944  0.1609
 2423SOL    HW1 7794   2.364   3.081   3.975 -0.5202  0.6238 -0.3823
 2423SOL    HW2 7795   2.415   3.136   3.843  1.1188 -1.2634 -0.5835
 2424SOL     OW 7796   6.299   1.523   2.950  0.2084  0.6155  0.0239
 2424SOL    HW1 7797   6.256   1.517   3.035  1.2120 -2.1108  0.4212
 2424SOL    HW2 7798   6.362   1.595   2.960 -1.8183  2.4359  0.4815
 2425SOL     OW 7799   6.047   4.308   6.825  0.5808 -0.6295 -0.1175
 2425SOL    HW1 7800   6.095   4.327   6.906  1.1445  0.8286 -0.7382
 2425SOL    HW2 7801   5.991   4.234   6.846  1.4538 -0.9171  1.3094
 2426SOL     OW 7802   0.314   4.883   4.744 -0.2152 -0.2299 -0.5022
 2426SOL    HW1 7803   0.307   4.862   4.837  0.3140  2.6957  0.3011
 2426SOL    HW2 7804   0.226   4.912   4.719  0.4347  2.7334  0.2343
 2427SOL     OW 7805   2.156   2.574   3.676  0.6234  0.8092 -0.4565
 2427SOL    HW1 7806   2.135   2.600   3.766 -0.4395 -0.2268 -0.3842
 2427SOL    HW2 7807   2.121   2.486   3.667 -0.8100  1.5050 -2.3961
 2428SOL     OW 7808   3.662   6.942   6.137 -0.6962  0.3652 -0.3184
 2428SOL    HW1 7809   3.601   6.942   6.211  0.7286  0.6051  0.8976
 2428SOL    HW2 7810   3.684   7.034   6.124  0.0456  0.2147 -0.1852
 2429SOL     OW 7811   6.657   4.334   4.115 -0.3839  0.2314 -0.2194
 2429SOL    HW1 7812   6.729   4.281   4.081 -0.2033  0.6389 -0.4756
 2429SOL    HW2 7813   6.583   4.314   4.058 -0.0255  1.0719 -0.9840
 2430SOL     OW 7814   7.402   2.537   7.104  0.0632 -0.2657  0.5299
 2430SOL    HW1 7815   7.320   2.559   7.060  0.1725 -0.2749  0.3186
 2430SOL    HW2 7816   7.470   2.553   7.038  0.3955  1.3838  1.2220
 2431SOL     OW 7817   3.558   5.787   0.779  0.4889 -0.6197  0.2121
 2431SOL    HW1 7818   3.637   5.837   0.799 -0.4359  1.4993 -0.9639
 2431SOL    HW2 7819   3.539   5.738   0.858  1.5738  0.8212  1.4211
 2432SOL     OW 7820   3.277   4.611   7.503 -0.1536 -0.0715  0.4269
 2432SOL    HW1 7821   3.276   4.604   7.599 -1.0594 -1.9666  0.3157
 2432SOL    HW2 7822   3.196   4.569   7.475 -0.1451  0.8903 -1.1759
 2433SOL     OW 7823   5.991   5.531   0.762  0.4022  0.0373 -0.2994
 2433SOL    HW1 7824   5.917   5.520   0.701 -0.0489 -0.7670  0.3606
 2433SOL    HW2 7825   6.014   5.442   0.787  0.1109  0.3578  1.2384
 2434SOL     OW 7826   6.280   0.272   0.622  0.0240  0.3223 -0.0877
 2434SOL    HW1 7827   6.340   0.231   0.684 -1.1279 -1.2978  0.0181
 2434SOL    HW2 7828   6.251   0.352   0.666  1.4216  0.6854  0.2156
 2435SOL     OW 7829   1.102   0.386   3.009  0.0587  0.0622 -0.3130
 2435SOL    HW1 7830   1.196   0.385   2.990 -0.1120 -0.9618 -1.2576
 2435SOL    HW2 7831   1.062   0.418   2.928 -0.4977 -1.2215 -0.5724
 2436SOL     OW 7832   2.233   3.854   2.630  0.2011 -0.3563  0.3571
 2436SOL    HW1 7833   2.323   3.858   2.598  1.0010 -0.2682  2.4412
 2436SOL    HW2 7834   2.206   3.764   2.615  0.2660 -0.1487 -1.1469
 2437SOL     OW 7835   0.831   4.339   7.347  0.1176 -0.8915  0.1443
 2437SOL    HW1 7836   0.803   4.380   7.428 -0.0635 -1.6887  0.4920
 2437SOL    HW2 7837   0.834   4.411   7.284  1.7857  0.0207  1.2096
 2438SOL     OW 7838   5.346   4.658   0.539 -0.0022 -0.2066  0.1559
 2438SOL    HW1 7839   5.301   4.672   0.456 -2.1599  2.6789  1.6280
 2438SOL    HW2 7840   5.425   4.711   0.532 -0.3447  0.2979  0.0377
 2439SOL     OW 7841   5.244   5.573   3.051 -0.2034 -0.8528  1.2677
 2439SOL    HW1 7842   5.334   5.547   3.034 -0.1410 -1.2440  2.1498
 2439SOL    HW2 7843   5.195   5.544   2.973 -0.0603 -3.2013  1.9795
 2440SOL     OW 7844   6.901   0.899   3.279 -0.5677  0.3449  0.5938
 2440SOL    HW1 7845   6.908   0.978   3.333 -1.1789 -0.7721  2.3853
 2440SOL    HW2 7846   6.878   0.830   3.341 -0.9540 -1.0735 -1.0713
 2441SOL     OW 7847   3.901   0.018   2.344 -0.0410  0.2706  0.2598
 2441SOL    HW1 7848   3.995   0.001   2.334  0.0680  0.0890  1.3758
 2441SOL    HW2 7849   3.884   0.095   2.290  1.3598  2.0149  2.1372
 2442SOL     OW 7850   4.471   3.348   5.216 -0.3888 -0.2567  0.5015
 2442SOL    HW1 7851   4.431   3.325   5.133 -0.8849  1.2648  0.2922
 2442SOL    HW2 7852   4.402   3.336   5.281 -0.4401 -0.0029  0.4920
 2443SOL     OW 7853   5.387   2.085   0.438  0.5385 -0.1579  0.2812
 2443SOL    HW1 7854   5.297   2.074   0.468  0.5472  0.8706  0.7314
 2443SOL    HW2 7855   5.409   2.002   0.395 -0.4638 -0.5796  0.5654
 2444SOL     OW 7856   0.905   5.875   5.521  0.6338  0.2009  0.9783
 2444SOL    HW1 7857   0.823   5.907   5.484  0.7605  0.1702  0.6692
 2444SOL    HW2 7858   0.931   5.942   5.584  1.0483  0.8561  0.1290
 2445SOL     OW 7859   1.513   0.046   1.328  0.1070 -0.4743  0.3534
 2445SOL    HW1 7860   1.424   0.012   1.340 -0.0181 -0.4216 -0.3424
 2445SOL    HW2 7861   1.527   0.042   1.233  0.1858  1.1539  0.2645
 2446SOL     OW 7862   2.794   3.554   1.171  0.4583 -0.5593 -0.2236
 2446SOL    HW1 7863   2.784   3.531   1.263 -0.1356  1.8338  0.3959
 2446SOL    HW2 7864   2.856   3.627   1.172 -0.2977  0.1280 -1.6030
 2447SOL     OW 7865   2.497   0.160   1.891  0.0355 -0.0716  0.5454
 2447SOL    HW1 7866   2.429   0.093   1.882  1.2357 -1.4859  1.5762
 2447SOL    HW2 7867   2.449   0.240   1.911 -1.4289 -0.6260 -0.5157
 2448SOL     OW 7868   6.485   1.665   5.604  0.1901  0.0655  0.0226
 2448SOL    HW1 7869   6.472   1.712   5.521  0.8744 -0.6487 -0.5070
 2448SOL    HW2 7870   6.424   1.591   5.600  0.2548  0.0055  0.1404
 2449SOL     OW 7871   1.026   6.149   1.505 -0.2477 -0.8954  0.1084
 2449SOL    HW1 7872   1.071   6.066   1.520  0.4724 -0.5946 -0.3264
 2449SOL    HW2 7873   0.964   6.157   1.578 -0.9854 -2.2481 -0.3500
 2450SOL     OW 7874   4.785   1.894   2.746 -0.2287  0.1765 -0.3345
 2450SOL    HW1 7875   4.865   1.853   2.715 -0.3722  0.7701 -1.5374
 2450SOL    HW2 7876   4.766   1.963   2.682 -1.9438 -0.2323 -0.3219
 2451SOL     OW 7877   5.980   5.845   7.054 -0.0295  0.1248 -0.2745
 2451SOL    HW1 7878   5.885   5.843   7.055 -0.0576 -1.7209  1.8971
 2451SOL    HW2 7879   6.004   5.894   7.132  0.8012  0.3263 -0.6460
 2452SOL     OW 7880   2.302   5.154   5.169 -0.4606 -0.2381  0.5911
 2452SOL    HW1 7881   2.245   5.173   5.243 -0.4423  0.3169  0.4677
 2452SOL    HW2 7882   2.349   5.236   5.153 -1.2077 -0.0299 -0.6749
 2453SOL     OW 7883   5.861   3.291   1.946 -0.5575  0.1191 -0.2767
 2453SOL    HW1 7884   5.919   3.367   1.952 -0.6922  0.1391  0.8387
 2453SOL    HW2 7885   5.914   3.218   1.977 -0.4254 -0.2627 -1.3545
 2454SOL     OW 7886   4.747   5.648   4.044 -0.1663 -0.0375  0.7812
 2454SOL    HW1 7887   4.804   5.677   3.972 -0.0072 -0.9154  0.5358
 2454SOL    HW2 7888   4.664   5.692   4.027  0.2226  0.6940  0.7334
 2455SOL     OW 7889   3.023   5.099   1.709 -0.6410  0.1870  0.0290
 2455SOL    HW1 7890   3.024   5.081   1.802  0.0581  0.6639  0.1192
 2455SOL    HW2 7891   3.015   5.194   1.703  1.9198  0.4375 -0.3413
 2456SOL     OW 7892   1.689   6.910   3.320  0.0580  0.2490  0.2509
 2456SOL    HW1 7893   1.685   6.880   3.411  2.5526  0.1553  0.3988
 2456SOL    HW2 7894   1.741   6.990   3.323 -1.1803  1.1535 -0.9454
 2457SOL     OW 7895   7.233   4.540   2.445  0.3485 -0.1843 -0.2589
 2457SOL    HW1 7896   7.181   4.587   2.379 -0.1255  2.1718  1.6633
 2457SOL    HW2 7897   7.175   4.534   2.521  1.2308 -1.9623  0.3194
 2458SOL     OW 7898   6.040   1.665   5.967  0.6653  0.3413  0.2112
 2458SOL    HW1 7899   6.117   1.718   5.945  1.9661 -1.6269 -0.2438
 2458SOL    HW2 7900   6.054   1.582   5.922 -1.4197 -0.3365  0.6891
 2459SOL     OW 7901   4.329   7.181   2.936 -0.0706  0.0609  0.1440
 2459SOL    HW1 7902   4.301   7.171   2.845 -1.7069 -1.3286  0.7349
 2459SOL    HW2 7903   4.333   7.275   2.950 -1.5866  0.3114 -0.8922
 2460SOL     OW 7904   4.670   6.950   5.980  0.0440 -0.2292 -0.4123
 2460SOL    HW1 7905   4.576   6.969   5.973 -0.2342 -0.4930  1.8436
 2460SOL    HW2 7906   4.676   6.883   6.048  1.8611 -0.3587 -0.6569
 2461SOL     OW 7907   3.040   4.727   2.307  0.3670  0.2778  0.1048
 2461SOL    HW1 7908   2.958   4.772   2.286  0.1145 -1.1414 -2.3445
 2461SOL    HW2 7909   3.013   4.648   2.353  0.3801  0.0770 -0.2267
 2462SOL     OW 7910   4.774   4.116   0.163  0.5496  0.2452  0.5112
 2462SOL    HW1 7911   4.765   4.073   0.248 -2.0753  1.2680  0.8476
 2462SOL    HW2 7912   4.854   4.168   0.171  0.6245 -0.0548  2.1650
 2463SOL     OW 7913   2.320   2.549   5.938  0.1019  0.0848 -0.5901
 2463SOL    HW1 7914   2.363   2.612   5.880  1.6394  1.6824  2.0439
 2463SOL    HW2 7915   2.362   2.563   6.023 -2.0055 -2.0867  0.9440
 2464SOL     OW 7916   4.037   2.590   2.560  0.0307  0.3909 -0.3160
 2464SOL    HW1 7917   4.125   2.625   2.576  0.0422 -0.5988  2.0914
 2464SOL    HW2 7918   3.992   2.661   2.515  1.3809  1.8140  0.4589
 2465SOL     OW 7919   1.791   3.955   5.703  0.6552  0.9171  0.2232
 2465SOL    HW1 7920   1.804   3.860   5.712  0.8536  0.8355 -0.8010
 2465SOL    HW2 7921   1.845   3.979   5.627 -0.2030  1.6713 -0.1597
 2466SOL     OW 7922   5.971   2.514   0.746 -0.7161 -0.3742  0.1992
 2466SOL    HW1 7923   6.019   2.589   0.713 -0.7505 -1.0318 -1.4300
 2466SOL    HW2 7924   6.002   2.503   0.836 -0.4893  1.3708  0.3581
 2467SOL     OW 7925   4.690   4.897   0.045 -0.0175  0.0284  0.7660
 2467SOL    HW1 7926   4.607   4.849   0.054 -0.4871  0.5942 -0.3322
 2467SOL    HW2 7927   4.663   4.989   0.038  0.7082  0.2177  0.3727
 2468SOL     OW 7928   4.768   7.562   3.815  0.1043 -0.0076  0.2753
 2468SOL    HW1 7929   4.761   7.578   3.721 -0.8096  1.8437  0.6117
 2468SOL    HW2 7930   4.807   7.642   3.850  1.4275 -1.0760  1.3763
 2469SOL     OW 7931   6.424   1.272   4.504  0.3402  0.2598 -0.0063
 2469SOL    HW1 7932   6.378   1.353   4.524  1.5363  0.7483  0.8719
 2469SOL    HW2 7933   6.466   1.247   4.587  0.3904 -0.9945 -0.3821
 2470SOL     OW 7934   7.518   5.277   6.915 -0.4035  0.1878 -0.2099
 2470SOL    HW1 7935   7.450   5.218   6.881 -0.1679 -0.3901  0.3234
 2470SOL    HW2 7936   7.473   5.328   6.982 -0.6123  0.6441 -0.6849
 2471SOL     OW 7937   0.755   5.555   5.726 -0.6368 -0.2760 -0.2397
 2471SOL    HW1 7938   0.835   5.603   5.746 -1.4665  1.2937 -0.4834
 2471SOL    HW2 7939   0.707   5.553   5.809 -1.1298  0.3818 -0.4997
 2472SOL     OW 7940   3.326   0.928   3.386  0.1126  0.0907 -0.5717
 2472SOL    HW1 7941   3.339   0.933   3.291  1.1596 -1.2092 -0.5304
 2472SOL    HW2 7942   3.254   0.867   3.397  0.9220 -0.8868 -0.5187
 2473SOL     OW 7943   5.877   4.982   6.406 -0.3822 -0.1180  0.2757
 2473SOL    HW1 7944   5.967   4.976   6.439 -0.1367 -1.3302 -0.5529
 2473SOL    HW2 7945   5.868   5.072   6.377  0.4349  0.1231  0.7317
 2474SOL     OW 7946   6.163   7.008   0.921  0.1829 -0.7998 -0.1860
 2474SOL    HW1 7947   6.127   7.032   1.007  1.3105 -0.2640  0.1613
 2474SOL    HW2 7948   6.098   6.949   0.883 -0.4412 -0.8634  0.9378
 2475SOL     OW 7949   2.482   3.381   1.427 -0.0658  0.4545  0.7475
 2475SOL    HW1 7950   2.521   3.416   1.347  0.3736 -0.6997  0.4426
 2475SOL    HW2 7951   2.401   3.431   1.438 -1.3630 -0.9316 -1.7172
 2476SOL     OW 7952   6.755   0.826   4.149  0.2699  0.0722 -0.9626
 2476SOL    HW1 7953   6.752   0.901   4.089 -2.0435  1.6618  0.9431
 2476SOL    HW2 7954   6.733   0.751   4.094 -1.6037  1.4315 -2.1822
 2477SOL     OW 7955   4.101   6.139   1.913  0.3068 -0.0439  0.2092
 2477SOL    HW1 7956   4.006   6.154   1.910  0.5810  1.6638 -0.7052
 2477SOL    HW2 7957   4.140   6.223   1.889  2.0390 -1.1496 -1.0973
 2478SOL     OW 7958   0.212   0.335   1.240 -0.0264 -0.1289 -0.1185
 2478SOL    HW1 7959   0.300   0.351   1.206  0.3828  2.0806  1.7055
 2478SOL    HW2 7960   0.205   0.240   1.243  2.4047 -0.3823 -0.0956
 2479SOL     OW 7961   6.559   5.066   4.058 -0.1297 -0.3863  0.6027
 2479SOL    HW1 7962   6.466   5.056   4.077 -0.1355 -0.3448  0.5965
 2479SOL    HW2 7963   6.576   5.004   3.988 -0.7724  1.5928 -1.4331
 2480SOL     OW 7964   2.905   6.176   1.141  0.0423  0.0918 -0.2364
 2480SOL    HW1 7965   2.904   6.246   1.206  1.2537 -1.0148  1.0476
 2480SOL    HW2 7966   2.974   6.116   1.171  1.7418  0.2600 -3.3627
 2481SOL     OW 7967   4.866   4.220   2.372 -0.2549  0.1292 -0.1044
 2481SOL    HW1 7968   4.865   4.311   2.344 -0.8644 -0.0494 -0.6779
 2481SOL    HW2 7969   4.887   4.171   2.293 -0.2517 -0.2559  0.1334
 2482SOL     OW 7970   5.904   1.355   0.704  0.7195 -0.1378  0.3901
 2482SOL    HW1 7971   5.977   1.374   0.764  0.9500 -1.4080  0.5240
 2482SOL    HW2 7972   5.836   1.319   0.760  0.1010  0.7138  0.2060
 2483SOL     OW 7973   6.072   7.024   2.149 -0.0136  0.9117  0.0262
 2483SOL    HW1 7974   6.029   7.074   2.219 -1.7355  1.4407 -1.3135
 2483SOL    HW2 7975   6.085   7.089   2.079  0.1289  0.0468 -0.7624
 2484SOL     OW 7976   5.009   2.706   0.832  0.8523  0.0448  0.1484
 2484SOL    HW1 7977   5.048   2.792   0.817  1.2852 -0.0153  0.8787
 2484SOL    HW2 7978   5.074   2.659   0.884  0.6191 -0.7272 -0.2499
 2485SOL     OW 7979   0.691   0.227   1.573  0.2985 -0.0067  0.2058
 2485SOL    HW1 7980   0.701   0.319   1.547  1.3090 -0.2153 -0.1794
 2485SOL    HW2 7981   0.719   0.177   1.497  0.7833 -0.6266  0.7724
 2486SOL     OW 7982   0.024   5.462   3.624 -0.0987  0.0225  0.0894
 2486SOL    HW1 7983  -0.065   5.444   3.654 -0.1998  0.2730 -0.0531
 2486SOL    HW2 7984   0.049   5.541   3.673 -0.3371  0.5521 -0.6186
 2487SOL     OW 7985   4.032   0.183   5.398  0.6924 -1.0182 -0.8626
 2487SOL    HW1 7986   4.099   0.159   5.334  1.8987  0.6995 -0.3454
 2487SOL    HW2 7987   3.965   0.229   5.348  1.5657  0.2015 -0.9773
 2488SOL     OW 7988   5.218   3.186   0.186 -0.2020  0.2824  0.4038
 2488SOL    HW1 7989   5.133   3.224   0.164 -0.2645  0.0735  0.2848
 2488SOL    HW2 7990   5.281   3.233   0.131 -0.4540 -0.8660 -0.9409
 2489SOL     OW 7991   4.065   5.349   4.487  0.7154 -0.2008  0.3039
 2489SOL    HW1 7992   3.994   5.304   4.532  0.9464  0.4974  1.4296
 2489SOL    HW2 7993   4.046   5.442   4.499  0.1820  0.0511 -2.0791
 2490SOL     OW 7994   2.444   6.614   0.055 -0.0365 -0.1182 -0.5226
 2490SOL    HW1 7995   2.397   6.565   0.123  0.5020 -2.1851 -1.5613
 2490SOL    HW2 7996   2.533   6.580   0.059  0.4776  1.1184 -1.0131
 2491SOL     OW 7997   2.886   6.981   2.563  0.2458 -0.2344 -0.0624
 2491SOL    HW1 7998   2.901   7.006   2.654  0.0935 -1.9223  0.4556
 2491SOL    HW2 7999   2.809   7.032   2.537  0.0916  0.0248  0.8512
 2492SOL     OW 8000   1.946   4.694   5.750  0.0998  0.4274  0.2102
 2492SOL    HW1 8001   1.863   4.707   5.795 -0.1137 -2.3905  0.7597
 2492SOL    HW2 8002   1.954   4.600   5.738  4.8802  0.0854  3.3750
 2493SOL     OW 8003   3.344   1.976   6.343 -0.5569  0.3554  0.0375
 2493SOL    HW1 8004   3.432   1.982   6.306 -0.3326  0.2699  0.5467
 2493SOL    HW2 8005   3.322   1.883   6.339 -1.5735  0.6309 -2.2275
 2494SOL     OW 8006   0.449   0.785   6.588 -0.1237 -0.0552  0.0312
 2494SOL    HW1 8007   0.506   0.843   6.538 -0.0279 -0.0462  0.1514
 2494SOL    HW2 8008   0.506   0.745   6.653 -0.9252  2.7610  2.6463
 2495SOL     OW 8009   3.033   7.400   5.169  0.5129 -0.5804 -0.5538
 2495SOL    HW1 8010   2.993   7.465   5.228 -0.7120 -0.9540 -0.9289
 2495SOL    HW2 8011   2.983   7.320   5.185  2.0506 -1.4635 -0.0519
 2496SOL     OW 8012   4.370   7.234   4.099  0.0379 -0.2485 -0.1993
 2496SOL    HW1 8013   4.280   7.268   4.099 -0.1317 -0.6474  0.9490
 2496SOL    HW2 8014   4.371   7.171   4.171  0.9849 -0.9575 -0.8116
 2497SOL     OW 8015   1.782   3.411   2.306  0.2342 -0.2394 -0.6465
 2497SOL    HW1 8016   1.717   3.384   2.371  1.3109 -1.1575  0.0872
 2497SOL    HW2 8017   1.797   3.504   2.326  0.1267 -0.3627  0.0417
 2498SOL     OW 8018   3.776   6.665   5.736 -0.4093 -0.4296 -0.1839
 2498SOL    HW1 8019   3.808   6.585   5.779  0.2277 -1.7236 -2.8071
 2498SOL    HW2 8020   3.682   6.666   5.754 -0.2139 -1.0437  0.9599
 2499SOL     OW 8021   5.650   7.146   1.854  0.3567  0.2214  0.6530
 2499SOL    HW1 8022   5.676   7.179   1.940  0.2174  2.4324 -0.0987
 2499SOL    HW2 8023   5.722   7.089   1.828  2.3016  2.5051  0.6667
 2500SOL     OW 8024   2.452   5.812   2.734 -0.4278 -0.5130 -0.0017
 2500SOL    HW1 8025   2.473   5.805   2.827  0.5348  0.0803 -0.1502
 2500SOL    HW2 8026   2.378   5.873   2.730  1.6813  2.2751  0.2133
 2501SOL     OW 8027   3.962   2.898   5.787 -0.5552  0.5734 -0.4664
 2501SOL    HW1 8028   3.984   2.865   5.700  0.0608  1.1591 -0.5479
 2501SOL    HW2 8029   4.014   2.845   5.847 -1.2343 -0.0518 -0.4288
 2502SOL     OW 8030   2.387   5.771   0.259 -0.2119 -0.2779 -0.1684
 2502SOL    HW1 8031   2.473   5.802   0.286 -0.3588 -0.2235  0.2358
 2502SOL    HW2 8032   2.341   5.751   0.341 -0.9395  0.6280 -0.3425
 2503SOL     OW 8033   2.278   6.812   7.410 -0.0978  0.1260  0.0355
 2503SOL    HW1 8034   2.338   6.809   7.485 -0.4799  0.9398  0.3841
 2503SOL    HW2 8035   2.313   6.747   7.349  0.3168 -0.4373  0.8498
 2504SOL     OW 8036   0.552   4.317   4.124 -0.2218 -0.1052  0.2472
 2504SOL    HW1 8037   0.637   4.321   4.080 -1.1469 -1.3693 -1.7973
 2504SOL    HW2 8038   0.489   4.336   4.055 -1.6657  0.0563  1.5671
 2505SOL     OW 8039   1.558   0.706   2.243  0.1439  0.5570  0.6166
 2505SOL    HW1 8040   1.557   0.692   2.338 -3.6458 -0.0737  0.6644
 2505SOL    HW2 8041   1.525   0.624   2.207  0.0896  1.3051 -1.1298
 2506SOL     OW 8042   0.866   0.361   2.025  0.5956 -0.6337  0.2962
 2506SOL    HW1 8043   0.860   0.296   1.956 -1.6237 -0.6170  0.4056
 2506SOL    HW2 8044   0.915   0.433   1.986  0.0072 -0.9172 -1.0237
 2507SOL     OW 8045   0.808   1.594   4.697  0.1074  0.2660 -0.5500
 2507SOL    HW1 8046   0.824   1.686   4.721  0.0666  0.7503 -2.2459
 2507SOL    HW2 8047   0.889   1.549   4.721  0.4397  0.9040 -0.4398
 2508SOL     OW 8048   2.394   5.718   2.266 -0.0449  0.0314 -0.1007
 2508SOL    HW1 8049   2.306   5.720   2.304 -0.0216  1.3763 -0.0675
 2508SOL    HW2 8050   2.453   5.734   2.340  0.3841 -2.3590  0.1657
 2509SOL     OW 8051   0.663   0.995   7.112 -0.0453  0.2355  0.3840
 2509SOL    HW1 8052   0.570   0.979   7.096  0.3713 -0.7954 -1.3928
 2509SOL    HW2 8053   0.666   1.040   7.196 -2.1281  0.1366  0.5694
 2510SOL     OW 8054   1.229   7.176   4.207 -0.2587  0.3668  0.1862
 2510SOL    HW1 8055   1.274   7.230   4.143  0.6893 -0.5688  0.0325
 2510SOL    HW2 8056   1.267   7.088   4.196 -2.4619 -0.5967 -0.2696
 2511SOL     OW 8057   7.155   1.638   5.684  0.2339  0.4778 -0.1465
 2511SOL    HW1 8058   7.190   1.640   5.773 -0.4555  1.2293  0.1302
 2511SOL    HW2 8059   7.136   1.546   5.667  0.4741  0.3146  0.4415
 2512SOL     OW 8060   5.828   0.850   5.658 -0.1786  0.2568 -0.4968
 2512SOL    HW1 8061   5.854   0.858   5.566  0.2190 -2.6934 -0.7464
 2512SOL    HW2 8062   5.792   0.762   5.665  0.4686  0.1322  2.3478
 2513SOL     OW 8063   2.422   4.227   2.967  0.2914 -0.9161  0.2224
 2513SOL    HW1 8064   2.507   4.270   2.961 -0.5581  0.6620 -1.4141
 2513SOL    HW2 8065   2.428   4.154   2.905 -0.2870  0.6664 -1.8084
 2514SOL     OW 8066   5.323   5.756   0.800 -0.0652 -0.0605 -0.4202
 2514SOL    HW1 8067   5.288   5.729   0.884  1.7713 -1.0850  0.0698
 2514SOL    HW2 8068   5.247   5.761   0.742 -1.5327  1.7118  1.5132
 2515SOL     OW 8069   4.806   4.796   0.478 -0.3048 -0.5437  0.2909
 2515SOL    HW1 8070   4.853   4.735   0.421 -1.6349 -0.1951 -1.2268
 2515SOL    HW2 8071   4.858   4.877   0.475 -0.3014 -0.5666 -0.3427
 2516SOL     OW 8072   3.023   5.548   5.123 -0.0211 -0.3444  0.5485
 2516SOL    HW1 8073   2.995   5.637   5.141  0.1416 -0.4746  1.5121
 2516SOL    HW2 8074   3.119   5.552   5.125  0.1191  0.0655 -2.5416
 2517SOL     OW 8075   0.372   7.160   3.909 -0.4239  0.0087  0.7133
 2517SOL    HW1 8076   0.370   7.219   3.834 -0.3733  0.5661  1.1452
 2517SOL    HW2 8077   0.337   7.212   3.981 -0.1938 -0.4294  1.1431
 2518SOL     OW 8078   7.125   1.485   5.977 -0.2311 -0.5815 -0.4023
 2518SOL    HW1 8079   7.062   1.555   5.991  1.3522  0.5188  1.9033
 2518SOL    HW2 8080   7.088   1.410   6.023 -0.4041 -0.2622 -0.0081
 2519SOL     OW 8081   7.216   4.789   0.634  0.3071 -0.1735 -0.6654
 2519SOL    HW1 8082   7.152   4.859   0.622  2.0487  1.8109  0.8424
 2519SOL    HW2 8083   7.164   4.713   0.660 -1.5694  0.8455 -1.2873
 2520SOL     OW 8084   7.138   5.966   2.473 -0.0201  0.2298 -0.0689
 2520SOL    HW1 8085   7.189   6.045   2.492  0.5056 -0.6164  2.3441
 2520SOL    HW2 8086   7.072   5.963   2.543 -0.9104 -0.7512 -0.9243
 2521SOL     OW 8087   4.953   3.571   1.070 -0.0801  0.1977 -0.0471
 2521SOL    HW1 8088   4.953   3.616   1.154  0.4917 -0.0648  0.1005
 2521SOL    HW2 8089   5.045   3.574   1.042  0.0771 -1.3700  0.2311
 2522SOL     OW 8090   2.442   3.556   4.980 -0.4351  0.0581 -0.0295
 2522SOL    HW1 8091   2.372   3.620   4.994  0.5547  1.2622 -0.3174
 2522SOL    HW2 8092   2.523   3.608   4.987  0.4076 -1.1680 -0.3192
 2523SOL     OW 8093   0.528   6.619   5.380  0.0215 -0.0510 -0.8990
 2523SOL    HW1 8094   0.465   6.687   5.404 -0.2429  0.0331 -1.7949
 2523SOL    HW2 8095   0.484   6.569   5.311  1.1457  0.3742 -1.9683
 2524SOL     OW 8096   4.287   1.541   3.844 -0.4443  0.3126  0.0851
 2524SOL    HW1 8097   4.235   1.492   3.780  0.4262  1.1227 -1.2817
 2524SOL    HW2 8098   4.356   1.583   3.793  0.4875  0.7267  1.6090
 2525SOL     OW 8099   2.427   2.145   7.380 -0.1688  0.1302  0.3922
 2525SOL    HW1 8100   2.334   2.157   7.360 -0.3849  0.2981  1.4416
 2525SOL    HW2 8101   2.428   2.085   7.454  0.5518  0.2361  0.4722
 2526SOL     OW 8102   6.814   2.532   6.966 -0.2744  0.3562 -0.2749
 2526SOL    HW1 8103   6.731   2.563   6.928 -0.4466  0.5847  0.2737
 2526SOL    HW2 8104   6.850   2.609   7.011  0.1347  0.2023 -0.3374
 2527SOL     OW 8105   7.011   1.803   0.298 -0.0403  0.0249  0.4949
 2527SOL    HW1 8106   6.933   1.753   0.274  0.1096  1.1853 -2.8486
 2527SOL    HW2 8107   7.082   1.739   0.300 -0.3659 -0.3987 -0.7679
 2528SOL     OW 8108   5.278   6.266   4.774  0.5273 -0.6749 -0.2176
 2528SOL    HW1 8109   5.276   6.325   4.700 -2.8504  1.7601  1.5384
 2528SOL    HW2 8110   5.348   6.299   4.830 -0.5213  1.0039  0.1649
 2529SOL     OW 8111   4.400   4.878   0.049  0.0403  0.6679 -0.3829
 2529SOL    HW1 8112   4.399   4.958   0.102 -0.9477 -0.0463  0.7392
 2529SOL    HW2 8113   4.308   4.851   0.045  0.4083 -0.6561 -0.3505
 2530SOL     OW 8114   6.383   6.854   6.754 -0.2242 -0.2235 -0.0827
 2530SOL    HW1 8115   6.292   6.881   6.766 -0.7885 -1.0742 -2.0345
 2530SOL    HW2 8116   6.396   6.856   6.659  0.8916 -2.9073 -0.0694
 2531SOL     OW 8117   0.799   3.409   1.919 -0.2227 -0.1909 -0.4567
 2531SOL    HW1 8118   0.890   3.396   1.946 -0.5210 -0.7053  0.3183
 2531SOL    HW2 8119   0.759   3.457   1.991 -0.5152  0.2425 -0.8975
 2532SOL     OW 8120   4.313   6.452   4.373 -0.3493 -0.3502  0.0434
 2532SOL    HW1 8121   4.350   6.499   4.299 -1.7979  0.2127 -0.3646
 2532SOL    HW2 8122   4.241   6.508   4.403  1.3399  0.4116  3.1035
 2533SOL     OW 8123   6.272   4.454   0.176  0.2199  0.1410  0.3540
 2533SOL    HW1 8124   6.335   4.517   0.142  0.1931 -0.2859 -0.5172
 2533SOL    HW2 8125   6.284   4.456   0.271  1.6007  0.0022  0.2006
 2534SOL     OW 8126   3.453   1.555   3.392  0.3428  0.0489 -0.4691
 2534SOL    HW1 8127   3.402   1.543   3.472 -1.3784 -0.3591 -1.5804
 2534SOL    HW2 8128   3.389   1.580   3.326  1.7237  0.3500 -1.7496
 2535SOL     OW 8129   3.609   4.128   5.261 -0.0030 -0.2422 -0.0380
 2535SOL    HW1 8130   3.660   4.054   5.228  0.1155  0.3778 -1.2846
 2535SOL    HW2 8131   3.607   4.190   5.189 -0.7725  0.6421  0.7200
 2536SOL     OW 8132   4.765   0.826   1.884  0.5845 -0.0643  0.2293
 2536SOL    HW1 8133   4.782   0.734   1.906  0.7870  0.3149  1.7277
 2536SOL    HW2 8134   4.840   0.851   1.829  0.8303 -0.6199  0.2984
 2537SOL     OW 8135   1.001   6.263   0.484  0.2280 -0.1325  0.0170
 2537SOL    HW1 8136   0.937   6.213   0.433  2.2127 -2.4332 -0.3744
 2537SOL    HW2 8137   1.073   6.202   0.499  1.8614  1.9997  1.4211
 2538SOL     OW 8138   3.540   0.138   5.350  0.0735 -0.1091 -0.3924
 2538SOL    HW1 8139   3.501   0.077   5.412 -1.5994  2.0826  0.9043
 2538SOL    HW2 8140   3.467   0.168   5.296  0.9678  0.2044 -1.4721
 2539SOL     OW 8141   5.826   5.193   6.849 -0.1059 -0.2629 -0.2929
 2539SOL    HW1 8142   5.757   5.149   6.800  0.6034 -1.2490 -0.4310
 2539SOL    HW2 8143   5.878   5.122   6.888  0.8840  0.4448 -0.2651
 2540SOL     OW 8144   2.036   2.982   0.628  0.3160 -0.0086  0.2185
 2540SOL    HW1 8145   1.993   2.947   0.706 -1.9973  0.8809 -0.5796
 2540SOL    HW2 8146   2.050   2.905   0.572  0.6222 -0.4384  0.8741
 2541SOL     OW 8147   2.382   0.723   2.001  0.6508  0.0309 -0.0310
 2541SOL    HW1 8148   2.375   0.693   2.091 -0.3848 -0.7315 -0.3475
 2541SOL    HW2 8149   2.372   0.818   2.006  1.9506  0.1481  0.7733
 2542SOL     OW 8150   5.390   5.072   2.435  0.7954  1.0583  0.0833
 2542SOL    HW1 8151   5.294   5.077   2.434  0.6041 -1.0214  1.4316
 2542SOL    HW2 8152   5.419   5.151   2.389 -1.5371  2.4464  0.8371
 2543SOL     OW 8153   1.308   7.163   0.964 -0.1727  0.6474 -0.0446
 2543SOL    HW1 8154   1.404   7.162   0.960  0.0887 -0.0634  3.1301
 2543SOL    HW2 8155   1.284   7.253   0.945  1.0083  0.6241 -1.9007
 2544SOL     OW 8156   4.699   1.889   0.073 -0.3221  0.2120 -0.4920
 2544SOL    HW1 8157   4.651   1.855   0.149 -0.9799  0.0825 -0.9534
 2544SOL    HW2 8158   4.643   1.867  -0.002 -1.1130  2.8947 -0.7692
 2545SOL     OW 8159   3.618   2.230   5.367  0.1362 -0.4400 -0.5715
 2545SOL    HW1 8160   3.699   2.224   5.316 -0.5219 -0.1302 -1.6788
 2545SOL    HW2 8161   3.630   2.308   5.421  0.6172 -0.4582 -0.6431
 2546SOL     OW 8162   4.074   0.418   2.225  0.0860 -0.0643 -0.3217
 2546SOL    HW1 8163   4.167   0.393   2.233  0.4146  1.1556 -0.1587
 2546SOL    HW2 8164   4.074   0.513   2.230 -1.4721 -0.0913  3.0505
 2547SOL     OW 8165   2.758   1.643   0.666  0.0661  0.3362  0.9503
 2547SOL    HW1 8166   2.795   1.683   0.745 -0.0007  2.0230  0.1694
 2547SOL    HW2 8167   2.809   1.681   0.594 -0.3404 -0.6341  0.1291
 2548SOL     OW 8168   6.410   1.602   4.128  0.6409  0.3470 -0.3806
 2548SOL    HW1 8169   6.316   1.623   4.124  0.0938 -1.9140 -1.5195
 2548SOL    HW2 8170   6.434   1.615   4.219 -0.2138  2.9732 -0.4482
 2549SOL     OW 8171   2.429   1.701   1.880  0.4777 -0.0637  0.0917
 2549SOL    HW1 8172   2.452   1.608   1.879 -0.9861 -0.4401 -0.0001
 2549SOL    HW2 8173   2.359   1.709   1.816 -0.1964  0.8947  0.9288
 2550SOL     OW 8174   0.581   3.516   6.180  0.3439  0.5601 -0.2412
 2550SOL    HW1 8175   0.486   3.505   6.183  0.4779 -0.6314  1.8316
 2550SOL    HW2 8176   0.596   3.603   6.217  0.1281 -0.4385  2.4189
 2551SOL     OW 8177   0.981   3.342   3.485 -0.4646 -0.0095 -0.2160
 2551SOL    HW1 8178   0.955   3.413   3.544 -1.0451 -0.0950 -0.3639
 2551SOL    HW2 8179   1.060   3.375   3.441  0.1912 -0.0797  0.8546
 2552SOL     OW 8180   3.624   6.263   0.151 -0.2108 -0.0843 -0.5239
 2552SOL    HW1 8181   3.713   6.269   0.117 -0.0859 -0.0520 -0.1918
 2552SOL    HW2 8182   3.622   6.323   0.225  0.0051 -1.4027  0.5744
 2553SOL     OW 8183   3.123   5.190   0.643  0.2745 -0.0730 -0.7038
 2553SOL    HW1 8184   3.096   5.116   0.696  0.7215 -0.0600 -0.4468
 2553SOL    HW2 8185   3.167   5.151   0.568  1.0863 -0.0643 -0.2457
 2554SOL     OW 8186   6.539   4.467   3.199  0.2260  0.4890 -0.0653
 2554SOL    HW1 8187   6.535   4.371   3.196  0.4216  0.5018 -1.1326
 2554SOL    HW2 8188   6.631   4.487   3.215 -0.0309  0.4951  1.5430
 2555SOL     OW 8189   4.069   2.563   5.049 -0.6212 -0.2749  0.1796
 2555SOL    HW1 8190   4.087   2.549   4.956  0.1841  0.8478  0.1487
 2555SOL    HW2 8191   4.018   2.644   5.053 -0.8204 -0.4150  0.7116
 2556SOL     OW 8192   6.383   2.865   5.814 -0.4810  0.3639 -0.6642
 2556SOL    HW1 8193   6.440   2.867   5.738 -0.7299  0.3618 -0.8529
 2556SOL    HW2 8194   6.326   2.789   5.800 -0.3161  0.1778 -0.3223
 2557SOL     OW 8195   6.983   7.303   5.195  0.3403 -0.4628 -0.3009
 2557SOL    HW1 8196   7.050   7.236   5.179  0.3603 -0.1715 -1.5577
 2557SOL    HW2 8197   6.906   7.271   5.148 -0.1035 -0.3064  0.3073
 2558SOL     OW 8198   2.575   0.671   7.091 -0.0186 -0.4331 -0.3607
 2558SOL    HW1 8199   2.622   0.606   7.143 -0.2381 -0.2713  0.0477
 2558SOL    HW2 8200   2.536   0.621   7.019  0.4520 -0.6271 -0.4805
 2559SOL     OW 8201   3.489   6.406   5.146 -0.0349  0.3420  0.2538
 2559SOL    HW1 8202   3.397   6.395   5.172  0.2882 -1.7358  0.7016
 2559SOL    HW2 8203   3.490   6.382   5.054  0.1331 -0.1729  0.3862
 2560SOL     OW 8204   0.106   3.095   1.800  0.0551 -0.7135  0.0208
 2560SOL    HW1 8205   0.117   3.033   1.729 -0.9089 -1.7199  0.7278
 2560SOL    HW2 8206   0.085   3.178   1.757 -0.3046 -1.2576 -0.8623
 2561SOL     OW 8207   2.767   5.364   5.269 -0.2655 -0.2373  0.3388
 2561SOL    HW1 8208   2.764   5.392   5.178 -2.0954  0.2329  0.5134
 2561SOL    HW2 8209   2.829   5.291   5.269 -2.1874 -2.0505 -1.8374
 2562SOL     OW 8210   5.436   5.955   1.674  0.1375  0.5112 -0.4254
 2562SOL    HW1 8211   5.411   5.879   1.622 -0.5345  1.3378 -1.3329
 2562SOL    HW2 8212   5.443   6.027   1.611  1.9364  0.9672  0.2330
 2563SOL     OW 8213   1.624   2.893   0.724  0.4121 -0.3463  0.2851
 2563SOL    HW1 8214   1.585   2.893   0.811 -0.0533  2.9671  0.2187
 2563SOL    HW2 8215   1.716   2.917   0.738  0.8515 -1.7635 -0.0281
 2564SOL     OW 8216   7.255   7.541   3.186  0.5247 -0.4389  0.0045
 2564SOL    HW1 8217   7.179   7.536   3.129 -0.4360  0.7242  1.1213
 2564SOL    HW2 8218   7.277   7.450   3.205  0.5773 -0.8269 -1.8019
 2565SOL     OW 8219   7.274   0.702   5.712 -0.7680 -0.2789  0.0200
 2565SOL    HW1 8220   7.260   0.776   5.652  4.0658  0.0495 -1.1151
 2565SOL    HW2 8221   7.286   0.743   5.798  0.4478  0.1792 -0.3470
 2566SOL     OW 8222   1.155   7.540   6.988  0.2620 -1.0962 -0.3934
 2566SOL    HW1 8223   1.061   7.552   6.992  0.6115  1.8847  1.9324
 2566SOL    HW2 8224   1.176   7.487   7.065  0.6745  0.6663  0.7700
 2567SOL     OW 8225   0.013   2.032   3.271 -0.1373  0.1965 -0.1205
 2567SOL    HW1 8226   0.068   1.954   3.283  2.8360  1.6590 -2.6639
 2567SOL    HW2 8227   0.016   2.076   3.356 -1.2548 -2.0063  1.1347
 2568SOL     OW 8228   1.154   4.320   5.865  0.4219  0.1119 -0.1025
 2568SOL    HW1 8229   1.240   4.278   5.856 -0.7086 -1.9093 -2.6243
 2568SOL    HW2 8230   1.092   4.254   5.833 -2.0469  1.7722  0.9656
 2569SOL     OW 8231   2.005   2.395   7.257  0.0167 -0.8532 -0.0894
 2569SOL    HW1 8232   2.084   2.342   7.265  2.1006  2.1370  0.8570
 2569SOL    HW2 8233   1.966   2.395   7.345  0.1237 -0.6500 -0.0422
 2570SOL     OW 8234   3.795   6.550   0.838  0.6998 -0.3656 -0.1010
 2570SOL    HW1 8235   3.884   6.516   0.849 -0.2178 -2.4168  1.4236
 2570SOL    HW2 8236   3.758   6.498   0.767  0.3788 -0.1719 -0.0759
 2571SOL     OW 8237   4.984   1.600   1.567  0.0438 -0.1165  0.2864
 2571SOL    HW1 8238   5.067   1.594   1.520  0.9509  0.9933  1.6604
 2571SOL    HW2 8239   5.007   1.582   1.658 -1.4493 -0.9943  0.5282
 2572SOL     OW 8240   0.424   3.673   0.861 -0.2128 -0.0839 -0.3339
 2572SOL    HW1 8241   0.516   3.655   0.881 -0.6304 -0.5435  1.2976
 2572SOL    HW2 8242   0.424   3.764   0.830  1.0977 -0.8617 -2.8288
 2573SOL     OW 8243   0.954   3.261   1.309  0.0213 -0.2081  0.1203
 2573SOL    HW1 8244   0.929   3.192   1.248 -0.3374 -1.6165  1.7725
 2573SOL    HW2 8245   0.916   3.341   1.272  1.2122 -0.6655 -2.3207
 2574SOL     OW 8246   2.654   4.213   6.011 -0.2514  0.8042  0.2459
 2574SOL    HW1 8247   2.711   4.139   6.034 -0.5496  0.9404  1.4979
 2574SOL    HW2 8248   2.571   4.172   5.987 -0.6797  0.7272  1.7356
 2575SOL     OW 8249   4.738   1.915   6.089  0.2068 -0.4404 -0.3384
 2575SOL    HW1 8250   4.662   1.924   6.032  0.4431  1.3791 -0.4193
 2575SOL    HW2 8251   4.787   1.997   6.077  1.7166 -1.2007  0.3708
 2576SOL     OW 8252   6.552   3.580   1.106 -0.3263 -0.3772 -0.0955
 2576SOL    HW1 8253   6.492   3.517   1.146 -0.8349 -0.4479 -0.9330
 2576SOL    HW2 8254   6.516   3.594   1.018  2.0250 -2.0582 -1.4540
 2577SOL     OW 8255   0.850   2.902   1.230 -0.4387  0.3027 -0.2170
 2577SOL    HW1 8256   0.759   2.909   1.261 -0.1069  0.9820  0.6598
 2577SOL    HW2 8257   0.861   2.977   1.172 -0.6058 -0.1093 -0.7859
 2578SOL     OW 8258   7.263   1.909   3.433  0.0475 -0.1098 -0.0298
 2578SOL    HW1 8259   7.356   1.902   3.455  0.1845 -0.2010 -0.5987
 2578SOL    HW2 8260   7.248   2.004   3.424  0.3180 -0.1277 -0.8254
 2579SOL     OW 8261   3.369   4.276   4.656  0.0959 -0.1835  0.7722
 2579SOL    HW1 8262   3.410   4.350   4.701 -1.4501  1.1096  0.1540
 2579SOL    HW2 8263   3.393   4.287   4.564 -0.7691  0.0183  0.5601
 2580SOL     OW 8264   5.517   7.434   4.546  0.3054  0.8730  0.2844
 2580SOL    HW1 8265   5.430   7.458   4.578 -0.4526  0.0287 -1.0601
 2580SOL    HW2 8266   5.501   7.377   4.471  2.0128 -1.6083  1.6709
 2581SOL     OW 8267   5.302   7.345   4.965  0.4620  0.1261  0.0941
 2581SOL    HW1 8268   5.236   7.341   4.896  0.3799  0.9643  0.1099
 2581SOL    HW2 8269   5.272   7.283   5.032 -1.1911  1.6517  0.8553
 2582SOL     OW 8270   0.155   0.449   3.379  0.3322  0.0822 -0.2202
 2582SOL    HW1 8271   0.204   0.441   3.297  0.8961  0.0599  0.1102
 2582SOL    HW2 8272   0.073   0.402   3.364 -0.1636  1.2149 -1.2278
 2583SOL     OW 8273   4.576   7.212   5.616  0.5542  0.1024  0.1170
 2583SOL    HW1 8274   4.656   7.193   5.565  1.0081  1.3090  0.3460
 2583SOL    HW2 8275   4.539   7.289   5.574  0.1949  0.3071  0.8032
 2584SOL     OW 8276   3.111   0.726   6.751 -0.3973 -0.1517 -0.6503
 2584SOL    HW1 8277   3.047   0.663   6.786  0.2569  0.0018  0.9096
 2584SOL    HW2 8278   3.081   0.810   6.784  0.5485 -0.0694  0.0367
 2585SOL     OW 8279   3.726   1.614   3.395 -0.2385  0.3282 -0.1162
 2585SOL    HW1 8280   3.633   1.591   3.400 -0.4030  1.0594  0.2468
 2585SOL    HW2 8281   3.751   1.592   3.305 -0.5745 -0.5410 -0.0081
 2586SOL     OW 8282   5.906   1.117   3.868 -0.0857 -0.4241 -0.2477
 2586SOL    HW1 8283   5.951   1.196   3.840 -1.9622  0.9778  0.5042
 2586SOL    HW2 8284   5.949   1.092   3.950  0.8111 -0.4759 -0.7205
 2587SOL     OW 8285   4.077   4.559   0.283  0.2601  0.2205 -0.0839
 2587SOL    HW1 8286   4.014   4.536   0.215 -0.1025  0.9495  0.0074
 2587SOL    HW2 8287   4.033   4.538   0.365 -0.2729  1.6848  0.0255
 2588SOL     OW 8288   2.701   0.153   4.577  0.3765  0.2610 -0.0345
 2588SOL    HW1 8289   2.697   0.082   4.642 -1.8816 -0.7636 -1.1951
 2588SOL    HW2 8290   2.637   0.217   4.608 -0.1465  0.1334 -0.8539
 2589SOL     OW 8291   4.268   2.625   4.272 -0.6706  0.6045  0.6404
 2589SOL    HW1 8292   4.222   2.545   4.247 -1.5469  1.0971  0.6250
 2589SOL    HW2 8293   4.314   2.652   4.193 -1.7080  0.9955  0.1409
 2590SOL     OW 8294   5.741   1.247   0.876  0.4100  0.3899 -0.3558
 2590SOL    HW1 8295   5.767   1.283   0.960  2.5496 -0.1494 -0.7316
 2590SOL    HW2 8296   5.669   1.189   0.896 -1.3352  2.7177  0.6259
 2591SOL     OW 8297   7.012   1.631   7.335 -0.2527 -0.5290 -0.1332
 2591SOL    HW1 8298   6.969   1.576   7.270 -0.6112  0.4853 -0.7828
 2591SOL    HW2 8299   6.945   1.647   7.401 -0.1935 -0.7396 -0.0207
 2592SOL     OW 8300   0.772   2.120   6.747  0.3268 -0.4762 -0.5304
 2592SOL    HW1 8301   0.716   2.071   6.807 -0.8483  0.7218 -0.6085
 2592SOL    HW2 8302   0.816   2.185   6.802 -0.0050 -0.0171 -0.8016
 2593SOL     OW 8303   2.916   4.989   3.144 -0.2100 -0.3537  0.9617
 2593SOL    HW1 8304   2.946   4.975   3.055  0.7475  1.2924  0.9775
 2593SOL    HW2 8305   2.909   4.902   3.182 -1.0978 -1.1113 -0.8441
 2594SOL     OW 8306   3.167   4.810   6.851 -0.7422 -0.1795  0.1807
 2594SOL    HW1 8307   3.173   4.736   6.912  0.2278 -0.2307  0.0511
 2594SOL    HW2 8308   3.084   4.798   6.806 -0.7884 -0.9622  0.4621
 2595SOL     OW 8309   5.137   2.464   3.239  0.0499 -0.8406 -0.3293
 2595SOL    HW1 8310   5.116   2.550   3.203  0.6733 -0.0741  1.0673
 2595SOL    HW2 8311   5.071   2.449   3.307  0.3046 -1.1919 -0.1509
 2596SOL     OW 8312   7.114   6.986   3.918 -0.2237  0.0743 -0.2878
 2596SOL    HW1 8313   7.087   6.953   4.004  1.7067  1.0293  0.7690
 2596SOL    HW2 8314   7.187   7.045   3.938  0.3313  0.2491 -2.6114
 2597SOL     OW 8315   6.763   6.099   2.810 -0.0380  0.1708  0.2505
 2597SOL    HW1 8316   6.713   6.140   2.880  2.1390  0.5850  1.6628
 2597SOL    HW2 8317   6.700   6.089   2.738 -1.9359  1.2196  1.6703
 2598SOL     OW 8318   0.781   2.472   5.793  0.5689 -0.2753  0.3007
 2598SOL    HW1 8319   0.867   2.489   5.755  1.1248 -2.3122  0.5123
 2598SOL    HW2 8320   0.789   2.386   5.834 -1.5795 -0.5532  0.2911
 2599SOL     OW 8321   4.911   1.816   2.997  0.1846 -0.5225 -0.3297
 2599SOL    HW1 8322   4.833   1.764   3.015 -1.6067  2.1549  0.2591
 2599SOL    HW2 8323   4.887   1.871   2.922  0.7552  1.6293  0.9673
 2600SOL     OW 8324   3.130   6.794   5.303 -0.2979  0.2244 -0.2868
 2600SOL    HW1 8325   3.068   6.753   5.243 -0.0545  0.7098 -0.8780
 2600SOL    HW2 8326   3.120   6.888   5.289  0.9756  0.3053 -0.8263
 2601SOL     OW 8327   5.182   4.755   4.160  0.4986  0.2330  0.1650
 2601SOL    HW1 8328   5.128   4.706   4.222 -1.1261 -0.2300 -1.5409
 2601SOL    HW2 8329   5.246   4.692   4.127  0.7382  0.2347  0.6107
 2602SOL     OW 8330   5.042   4.589   2.039 -0.3506  0.0356  0.4923
 2602SOL    HW1 8331   5.064   4.671   2.083  0.7117 -0.4586  0.9228
 2602SOL    HW2 8332   5.115   4.573   1.980 -1.5082  0.4115 -1.1031
 2603SOL     OW 8333   3.781   7.182   4.733  0.0154 -0.0695  0.3483
 2603SOL    HW1 8334   3.848   7.235   4.689 -1.6476  0.0897 -2.1575
 2603SOL    HW2 8335   3.824   7.099   4.750  1.3084  0.5423  0.2089
 2604SOL     OW 8336   1.231   0.653   4.502 -0.5085 -0.6015 -0.2587
 2604SOL    HW1 8337   1.152   0.660   4.557 -0.2385  1.4047 -0.0462
 2604SOL    HW2 8338   1.246   0.743   4.472  1.9233 -0.8707  0.0224
 2605SOL     OW 8339   1.054   1.438   6.908  0.3922  0.0709 -0.7962
 2605SOL    HW1 8340   0.997   1.402   6.975 -0.6295 -0.9224 -2.1383
 2605SOL    HW2 8341   1.030   1.530   6.902  0.4773  0.1579  0.1721
 2606SOL     OW 8342   1.819   5.005   1.974  0.4491  0.1403 -0.2801
 2606SOL    HW1 8343   1.909   5.035   1.976  1.1471 -1.6395 -2.1086
 2606SOL    HW2 8344   1.766   5.085   1.982  2.0546  1.0359  3.4878
 2607SOL     OW 8345   0.473   1.787   7.125 -0.1445 -0.0392 -0.5126
 2607SOL    HW1 8346   0.506   1.730   7.194  1.7467 -0.0285 -1.3411
 2607SOL    HW2 8347   0.380   1.797   7.145  0.3060 -0.0874  1.9710
 2608SOL     OW 8348   3.673   6.754   2.727 -0.4650  0.2674 -0.4124
 2608SOL    HW1 8349   3.744   6.692   2.710 -0.8366 -0.4059  0.4020
 2608SOL    HW2 8350   3.712   6.840   2.713  0.4634 -0.0976 -0.1765
 2609SOL     OW 8351   2.789   4.080   3.451 -0.0417 -0.5255 -0.1710
 2609SOL    HW1 8352   2.761   4.076   3.542  0.6689 -0.0219  0.0798
 2609SOL    HW2 8353   2.875   4.038   3.450  1.4110  2.1957  0.0238
 2610SOL     OW 8354   1.163   7.496   1.639  0.2845 -0.0258  0.2107
 2610SOL    HW1 8355   1.164   7.488   1.734  0.1622  2.5841  0.5109
 2610SOL    HW2 8356   1.211   7.577   1.621 -0.5062  0.0444 -1.8709
 2611SOL     OW 8357   3.666   2.003   2.089 -0.4003 -0.0912 -0.1161
 2611SOL    HW1 8358   3.608   2.076   2.107 -0.0377  0.6303 -1.6825
 2611SOL    HW2 8359   3.609   1.927   2.080 -1.1363  0.5910 -1.5544
 2612SOL     OW 8360   3.176   2.649   0.169 -0.0162  0.3682 -0.7715
 2612SOL    HW1 8361   3.157   2.643   0.076  1.7673 -0.7840 -1.0982
 2612SOL    HW2 8362   3.103   2.603   0.211  1.2169 -2.9053 -1.8997
 2613SOL     OW 8363   1.707   4.699   2.430  0.1491  0.0555  0.1812
 2613SOL    HW1 8364   1.751   4.720   2.512  0.4839  2.2812 -0.5139
 2613SOL    HW2 8365   1.631   4.647   2.456  0.8449 -0.2282  1.7682
 2614SOL     OW 8366   2.130   6.067   6.069  0.3214 -0.0616  0.0074
 2614SOL    HW1 8367   2.182   6.145   6.088  0.6945  0.1501 -1.7368
 2614SOL    HW2 8368   2.190   6.010   6.021 -0.6318 -0.3943 -0.8362
 2615SOL     OW 8369   0.388   4.980   5.693  0.0174 -0.1154 -0.2812
 2615SOL    HW1 8370   0.437   4.898   5.689 -0.9389 -0.7291  0.2205
 2615SOL    HW2 8371   0.365   4.991   5.785  1.4077  1.5054 -0.0810
 2616SOL     OW 8372   3.760   1.638   4.001 -0.2877 -0.3550  0.8107
 2616SOL    HW1 8373   3.709   1.667   4.076 -0.5098 -1.3879  1.0735
 2616SOL    HW2 8374   3.834   1.589   4.039  0.4188  0.3696  0.4035
 2617SOL     OW 8375   0.204   4.865   2.346  0.4321  0.0223  0.5432
 2617SOL    HW1 8376   0.187   4.958   2.332  1.1554  0.2965  1.4082
 2617SOL    HW2 8377   0.155   4.844   2.425  1.0811 -0.0816  0.9238
 2618SOL     OW 8378   4.068   6.253   5.294  0.4481 -0.0142  0.3199
 2618SOL    HW1 8379   4.116   6.223   5.371  0.4816 -0.2597  0.2069
 2618SOL    HW2 8380   4.000   6.309   5.328 -1.3283 -2.3077  0.8171
 2619SOL     OW 8381   3.457   5.246   6.435  0.0023 -0.4194 -0.4636
 2619SOL    HW1 8382   3.441   5.236   6.528  0.3122  0.3539 -0.3135
 2619SOL    HW2 8383   3.536   5.194   6.418  0.5077  0.2128 -0.0919
 2620SOL     OW 8384   3.521   4.552   4.074 -0.1719  0.1746  0.0506
 2620SOL    HW1 8385   3.457   4.481   4.079  1.3541 -1.2976 -0.1904
 2620SOL    HW2 8386   3.604   4.507   4.054  0.7007  2.1195 -0.9313
 2621SOL     OW 8387   1.525   1.347   3.149 -0.0177  0.0751  0.7953
 2621SOL    HW1 8388   1.591   1.299   3.098 -0.4037 -1.4152  1.6501
 2621SOL    HW2 8389   1.472   1.392   3.083  1.2212  0.4941  0.0423
 2622SOL     OW 8390   5.938   4.930   2.838 -0.3216  0.4149 -0.4153
 2622SOL    HW1 8391   5.875   4.998   2.817  1.1769  1.5544 -1.4310
 2622SOL    HW2 8392   5.893   4.873   2.901 -1.3732  2.7682  1.0768
 2623SOL     OW 8393   3.021   3.987   4.973 -0.9554  0.1574 -0.3192
 2623SOL    HW1 8394   3.027   4.076   5.008  0.9050 -0.2008  0.3750
 2623SOL    HW2 8395   3.082   3.936   5.026  1.1375 -0.6956 -3.2756
 2624SOL     OW 8396   7.372   2.385   1.779  0.0332  0.1168 -0.3620
 2624SOL    HW1 8397   7.288   2.346   1.754 -0.4002  0.3388  0.6859
 2624SOL    HW2 8398   7.357   2.479   1.773  0.0394  0.1646  0.3255
 2625SOL     OW 8399   2.959   2.237   6.135 -0.2464 -0.2456  0.4444
 2625SOL    HW1 8400   2.942   2.143   6.139  0.5690 -0.3644  1.9816
 2625SOL    HW2 8401   3.046   2.248   6.175 -0.2625  1.1429  0.1617
 2626SOL     OW 8402   7.451   1.551   5.249 -0.0659  0.0141 -0.4341
 2626SOL    HW1 8403   7.420   1.566   5.338  0.5150  0.3910 -0.2904
 2626SOL    HW2 8404   7.537   1.593   5.246 -0.4863  0.8629 -1.4472
 2627SOL     OW 8405   4.992   1.188   2.976 -0.4651 -1.1055  0.8474
 2627SOL    HW1 8406   5.047   1.213   3.051  0.9657 -0.3390 -0.3820
 2627SOL    HW2 8407   5.000   1.093   2.971 -1.2975 -1.2739  2.1601
 2628SOL     OW 8408   6.793   6.731   4.021  0.2181 -0.0736 -0.2538
 2628SOL    HW1 8409   6.817   6.821   4.040  0.4919  0.1854 -1.6997
 2628SOL    HW2 8410   6.866   6.697   3.969 -0.7363 -0.4990 -1.3732
 2629SOL     OW 8411   6.974   6.930   5.122 -0.2858 -0.1912 -0.3235
 2629SOL    HW1 8412   6.991   7.009   5.070  1.5187  0.4292  1.0722
 2629SOL    HW2 8413   6.940   6.963   5.205  0.5837 -0.8581  0.3128
 2630SOL     OW 8414   3.448   3.073   4.568  0.3288  0.8319  0.1871
 2630SOL    HW1 8415   3.453   3.003   4.504  1.2408  1.0719 -0.0234
 2630SOL    HW2 8416   3.363   3.114   4.552  1.1577  1.8852 -1.9639
 2631SOL     OW 8417   5.263   4.579   1.859 -0.3550  0.4704  0.3525
 2631SOL    HW1 8418   5.323   4.654   1.850 -1.7496  1.6016  0.1282
 2631SOL    HW2 8419   5.320   4.505   1.879  1.1337  1.4671 -0.0326
 2632SOL     OW 8420   5.974   0.907   4.445  0.6205  0.0861 -0.4726
 2632SOL    HW1 8421   6.064   0.937   4.457  0.8848 -0.9691  0.3576
 2632SOL    HW2 8422   5.974   0.866   4.359  1.2093 -0.8177 -0.0579
 2633SOL     OW 8423   5.145   7.560   1.890  0.2893  0.3750  0.6095
 2633SOL    HW1 8424   5.239   7.550   1.872 -0.1322 -1.9730 -0.7189
 2633SOL    HW2 8425   5.117   7.630   1.830  0.8815 -0.1292 -0.2846
 2634SOL     OW 8426   1.953   3.492   1.476  0.4853  0.2833  0.3217
 2634SOL    HW1 8427   2.002   3.441   1.540 -1.6952 -1.7852  0.5059
 2634SOL    HW2 8428   1.974   3.452   1.392  0.3891  0.4828  0.2014
 2635SOL     OW 8429   0.502   2.923   6.304  0.2401 -0.1832  0.4504
 2635SOL    HW1 8430   0.469   2.980   6.373 -0.7038 -0.8662  0.5851
 2635SOL    HW2 8431   0.480   2.835   6.333  2.7884 -0.7604  0.8692
 2636SOL     OW 8432   1.804   0.647   5.746  0.1970 -0.3030  0.6447
 2636SOL    HW1 8433   1.874   0.596   5.786  0.9674  0.9361  0.9602
 2636SOL    HW2 8434   1.845   0.731   5.725 -0.6634 -0.2701 -1.0991
 2637SOL     OW 8435   6.918   0.692   2.252  0.0069 -0.7093 -0.5981
 2637SOL    HW1 8436   6.920   0.685   2.348  1.1728 -0.4843 -0.5915
 2637SOL    HW2 8437   6.827   0.673   2.229 -0.2057 -1.1632  0.5231
 2638SOL     OW 8438   3.317   3.902   2.590  0.1257  0.3827 -0.3120
 2638SOL    HW1 8439   3.388   3.838   2.590 -1.1584 -1.1037 -0.6626
 2638SOL    HW2 8440   3.308   3.929   2.681 -0.3976 -1.2120  0.1315
 2639SOL     OW 8441   3.751   2.540   4.325 -0.5062  0.1143 -0.6358
 2639SOL    HW1 8442   3.742   2.625   4.282 -2.5410  0.7308  0.8613
 2639SOL    HW2 8443   3.680   2.488   4.289  0.4408 -0.8325 -1.1902
 2640SOL     OW 8444   0.312   1.735   6.224  0.5705  0.1510 -0.3969
 2640SOL    HW1 8445   0.267   1.670   6.170 -0.9166  1.5277 -0.8868
 2640SOL    HW2 8446   0.405   1.723   6.203  0.2044 -0.7984 -1.6121
 2641SOL     OW 8447   3.661   0.832   2.880  0.2285 -0.5273  0.9558
 2641SOL    HW1 8448   3.692   0.920   2.900 -0.4152  0.2427 -1.1311
 2641SOL    HW2 8449   3.740   0.779   2.878  1.0803  0.6819 -0.8253
 2642SOL     OW 8450   5.927   1.268   4.515  0.1542 -0.1250 -0.4254
 2642SOL    HW1 8451   5.965   1.292   4.599  0.2295 -3.3250  0.5777
 2642SOL    HW2 8452   5.866   1.197   4.535  0.4932 -1.2933 -3.0981
 2643SOL     OW 8453   7.273   0.579   0.454 -0.1364 -0.0401  0.5622
 2643SOL    HW1 8454   7.257   0.513   0.386 -0.2200 -1.6965  2.1290
 2643SOL    HW2 8455   7.240   0.539   0.534  0.5195  1.6195  1.7019
 2644SOL     OW 8456   6.014   6.070   5.199  0.3783  0.1572 -0.0764
 2644SOL    HW1 8457   5.975   6.103   5.117 -1.1204 -0.1576  0.4690
 2644SOL    HW2 8458   6.047   6.148   5.243 -3.1858  1.1075  1.2448
 2645SOL     OW 8459   2.596   6.780   2.562  0.7644  0.1373  0.3476
 2645SOL    HW1 8460   2.685   6.813   2.549  0.9231 -0.2699  0.3923
 2645SOL    HW2 8461   2.572   6.744   2.476  0.9432 -0.4638  0.5436
 2646SOL     OW 8462   5.260   2.425   3.494 -0.1605 -0.4614 -0.1724
 2646SOL    HW1 8463   5.313   2.505   3.505  0.8046 -1.2716  1.4381
 2646SOL    HW2 8464   5.170   2.456   3.496  0.1575  0.8781 -2.2461
 2647SOL     OW 8465   2.500   3.757   6.661  0.4218  0.1976 -0.3527
 2647SOL    HW1 8466   2.525   3.757   6.754  1.8935 -2.3824 -0.6661
 2647SOL    HW2 8467   2.406   3.740   6.662  0.5877 -0.8182  0.6932
 2648SOL     OW 8468   5.802   3.151   3.073  0.3477 -0.3586  0.0578
 2648SOL    HW1 8469   5.750   3.086   3.025 -1.7918  0.0292  1.6664
 2648SOL    HW2 8470   5.861   3.100   3.127 -0.1998 -0.9379  0.1223
 2649SOL     OW 8471   6.837   1.112   0.096  0.1130  0.0221 -0.2353
 2649SOL    HW1 8472   6.864   1.048   0.162  0.0918 -0.7288 -0.9412
 2649SOL    HW2 8473   6.819   1.060   0.017 -1.3992  0.7253 -0.3880
 2650SOL     OW 8474   1.164   4.741   6.804  0.2766 -0.1048  0.0176
 2650SOL    HW1 8475   1.229   4.743   6.734  0.5318 -0.8002  0.2219
 2650SOL    HW2 8476   1.209   4.698   6.877  0.1593  0.9852  0.7554
 2651SOL     OW 8477   6.780   6.988   0.124 -0.2694  0.1018 -0.6235
 2651SOL    HW1 8478   6.806   7.063   0.178 -2.1565 -0.4152  1.1350
 2651SOL    HW2 8479   6.863   6.946   0.101  0.7142 -0.6720  3.4720
 2652SOL     OW 8480   6.571   7.246   4.659  0.3500 -0.8883  0.2729
 2652SOL    HW1 8481   6.561   7.341   4.652 -0.5867 -1.0545 -0.9467
 2652SOL    HW2 8482   6.630   7.233   4.733  1.3453  0.6810 -0.2239
 2653SOL     OW 8483   1.390   2.846   7.421 -0.2988 -0.0924 -0.6196
 2653SOL    HW1 8484   1.416   2.812   7.507 -0.8688 -0.6018 -0.6465
 2653SOL    HW2 8485   1.430   2.786   7.359 -1.1612 -0.6288 -0.6708
 2654SOL     OW 8486   6.914   2.082   5.831  0.2006 -0.0499  0.1227
 2654SOL    HW1 8487   6.911   2.056   5.923  2.3038  1.4045  0.6759
 2654SOL    HW2 8488   6.869   2.167   5.829  0.8661  0.3006 -0.0352
 2655SOL     OW 8489   2.617   5.451   1.022  0.4958  0.0552  0.4082
 2655SOL    HW1 8490   2.619   5.475   1.114  3.3646  1.5601  0.0626
 2655SOL    HW2 8491   2.649   5.528   0.976 -1.0299 -0.5795 -1.9034
 2656SOL     OW 8492   1.181   0.786   2.215  0.0413  0.2008  0.2395
 2656SOL    HW1 8493   1.241   0.852   2.178  1.0922 -1.1711 -0.5991
 2656SOL    HW2 8494   1.182   0.715   2.151 -0.8652 -0.7450  1.2523
 2657SOL     OW 8495   6.718   6.519   4.899 -0.3195  0.1256 -0.3600
 2657SOL    HW1 8496   6.704   6.424   4.905 -0.1498  0.1873  1.7789
 2657SOL    HW2 8497   6.647   6.556   4.951  0.9044  1.0302  0.7304
 2658SOL     OW 8498   4.808   5.370   3.380 -0.3516 -0.4881 -0.3764
 2658SOL    HW1 8499   4.835   5.457   3.351 -0.3969 -0.2176  0.3844
 2658SOL    HW2 8500   4.714   5.368   3.364 -1.1236  1.0615  3.1216
 2659SOL     OW 8501   1.971   6.030   4.508 -0.6302  0.4042  0.1743
 2659SOL    HW1 8502   2.051   6.073   4.538 -0.6500  0.5154  0.0668
 2659SOL    HW2 8503   1.958   5.959   4.571 -0.0859 -0.0281 -0.1906
 2660SOL     OW 8504   4.012   5.473   6.558  0.0473 -0.3923 -0.3475
 2660SOL    HW1 8505   4.060   5.462   6.476  1.2312 -0.1727  0.2953
 2660SOL    HW2 8506   4.002   5.568   6.567  1.9592 -0.2530  0.8620
 2661SOL     OW 8507   1.958   5.617   7.073 -0.5857 -0.0440  0.0752
 2661SOL    HW1 8508   2.034   5.613   7.016 -0.6088  2.0238 -0.1830
 2661SOL    HW2 8509   1.986   5.576   7.154  0.8872  0.8351  0.0433
 2662SOL     OW 8510   5.275   5.652   2.441 -0.1308  0.1509 -0.0206
 2662SOL    HW1 8511   5.261   5.582   2.378 -0.3038 -0.9995  1.2385
 2662SOL    HW2 8512   5.340   5.617   2.502 -0.5974  0.8961  0.9322
 2663SOL     OW 8513   0.161   6.315   0.594 -0.2242  0.4407  0.1093
 2663SOL    HW1 8514   0.125   6.249   0.653 -0.6459  0.1344 -0.4807
 2663SOL    HW2 8515   0.218   6.368   0.649  1.6362 -1.5518  0.2339
 2664SOL     OW 8516   6.738   2.025   1.493  0.3814  0.3345 -0.0262
 2664SOL    HW1 8517   6.749   1.931   1.509 -0.3407 -0.0882 -1.8013
 2664SOL    HW2 8518   6.827   2.057   1.477  0.7808  0.2259  1.7854
 2665SOL     OW 8519   4.902   5.787   3.513  0.7145  0.0720 -0.0682
 2665SOL    HW1 8520   4.813   5.778   3.549  1.2335 -0.4775  1.1170
 2665SOL    HW2 8521   4.912   5.712   3.455  0.3170  0.2808 -0.4163
 2666SOL     OW 8522   6.118   7.134   3.129 -0.0493 -0.2662  0.4319
 2666SOL    HW1 8523   6.199   7.166   3.089  1.1351 -1.4485  1.7760
 2666SOL    HW2 8524   6.138   7.128   3.223 -1.1441 -2.1273  0.5955
 2667SOL     OW 8525   5.351   5.291   5.484 -0.0588 -0.3413 -0.5274
 2667SOL    HW1 8526   5.269   5.265   5.527 -0.5809  0.0866 -1.2303
 2667SOL    HW2 8527   5.359   5.385   5.502 -0.9905  0.1507 -2.4328
 2668SOL     OW 8528   5.514   3.118   0.688 -0.4347  0.2716 -0.0315
 2668SOL    HW1 8529   5.604   3.151   0.689 -0.6218  0.8370 -0.8286
 2668SOL    HW2 8530   5.477   3.147   0.771 -0.1289  0.7816 -0.0641
 2669SOL     OW 8531   3.043   2.697   2.003 -0.0812  0.5792  0.5999
 2669SOL    HW1 8532   2.960   2.676   1.960 -0.0688 -1.3825  1.4276
 2669SOL    HW2 8533   3.108   2.693   1.932 -0.3423 -0.5984  0.4025
 2670SOL     OW 8534   2.724   0.529   7.280 -0.3693 -0.0099  0.9610
 2670SOL    HW1 8535   2.786   0.490   7.220 -0.9256 -0.9707  0.9903
 2670SOL    HW2 8536   2.775   0.549   7.358 -0.3660 -2.2694  1.6136
 2671SOL     OW 8537   2.029   1.601   1.924  0.1200 -0.2098 -0.3537
 2671SOL    HW1 8538   1.959   1.630   1.865 -0.3057  0.1688  0.3183
 2671SOL    HW2 8539   2.002   1.514   1.952  0.4142 -0.4649 -0.8533
 2672SOL     OW 8540   7.439   6.662   0.811  1.3792 -0.2639 -0.8533
 2672SOL    HW1 8541   7.436   6.612   0.729  1.1812 -0.3981 -0.7671
 2672SOL    HW2 8542   7.483   6.604   0.873  0.5441 -0.6109 -0.5714
 2673SOL     OW 8543   5.433   4.809   1.718 -0.5238  0.6842  0.1582
 2673SOL    HW1 8544   5.524   4.787   1.698  0.0094  1.9758  0.9947
 2673SOL    HW2 8545   5.439   4.892   1.765 -2.0940  0.4658  0.7968
 2674SOL     OW 8546   5.906   3.847   1.444  0.0267  0.6449  0.0390
 2674SOL    HW1 8547   5.901   3.844   1.348 -0.0495  0.5609  0.0453
 2674SOL    HW2 8548   5.997   3.868   1.463 -0.2294  1.9568 -0.0765
 2675SOL     OW 8549   6.307   0.949   2.950  0.0881  0.1118  0.7974
 2675SOL    HW1 8550   6.318   0.856   2.972 -2.0675 -0.1261  1.1206
 2675SOL    HW2 8551   6.386   0.991   2.985  1.0134 -1.5518  0.8375
 2676SOL     OW 8552   7.202   1.577   5.098  0.5759  0.1165  0.3496
 2676SOL    HW1 8553   7.156   1.560   5.180  1.2806 -1.2065  0.5054
 2676SOL    HW2 8554   7.295   1.564   5.120  0.7413 -0.6793 -0.7428
 2677SOL     OW 8555   2.407   6.838   5.102 -0.1169  0.3706 -0.2146
 2677SOL    HW1 8556   2.397   6.870   5.013  0.6193  0.7155 -0.1783
 2677SOL    HW2 8557   2.476   6.892   5.140  1.8427 -1.7993 -0.4483
 2678SOL     OW 8558   7.560   1.365   3.165  0.1154 -0.0083 -0.2121
 2678SOL    HW1 8559   7.591   1.327   3.083  0.3711 -1.5878  0.5829
 2678SOL    HW2 8560   7.499   1.301   3.200 -0.5691  0.9875  0.4868
 2679SOL     OW 8561   4.801   2.303   3.640  0.0968  0.2754 -0.1958
 2679SOL    HW1 8562   4.853   2.339   3.712  1.8409  0.4370 -1.4778
 2679SOL    HW2 8563   4.847   2.223   3.615 -1.2627 -0.5166 -0.2612
 2680SOL     OW 8564   7.558   6.845   6.945 -0.4751  0.2518 -0.4541
 2680SOL    HW1 8565   7.541   6.932   6.908 -1.9753 -0.4197 -1.4362
 2680SOL    HW2 8566   7.650   6.849   6.972  1.0732  0.6632 -4.8628
 2681SOL     OW 8567   1.935   2.844   2.736  0.9301  0.0445 -0.2986
 2681SOL    HW1 8568   1.991   2.860   2.660  0.7964  1.6278 -0.0948
 2681SOL    HW2 8569   1.846   2.842   2.700  0.8739  0.7053 -0.2029
 2682SOL     OW 8570   1.855   0.067   4.789  0.1150 -0.0748  0.6620
 2682SOL    HW1 8571   1.784   0.115   4.831  1.0022  1.8776  0.0512
 2682SOL    HW2 8572   1.933   0.122   4.803  0.8675 -0.4922 -1.5169
 2683SOL     OW 8573   2.512   0.269   6.025 -0.3092 -0.1498 -0.4321
 2683SOL    HW1 8574   2.443   0.212   6.059  0.1595 -0.1612  0.5525
 2683SOL    HW2 8575   2.543   0.318   6.102  0.1112  0.5676 -1.0362
 2684SOL     OW 8576   7.090   2.329   5.990  0.2996  0.4000  0.9389
 2684SOL    HW1 8577   7.152   2.374   5.932 -0.7843  0.5086 -0.1801
 2684SOL    HW2 8578   7.070   2.247   5.945 -1.9707  1.2882  0.1659
 2685SOL     OW 8579   1.769   6.759   6.716 -0.3695  0.1756  0.0212
 2685SOL    HW1 8580   1.787   6.738   6.624  0.1270 -2.7834  0.7009
 2685SOL    HW2 8581   1.855   6.769   6.756 -0.5862  1.5094  0.2079
 2686SOL     OW 8582   7.163   3.459   4.456  0.0249 -0.4813 -0.0428
 2686SOL    HW1 8583   7.129   3.532   4.507 -2.2693 -0.5796 -1.3357
 2686SOL    HW2 8584   7.224   3.499   4.394 -0.7100  0.2488 -0.3029
 2687SOL     OW 8585   3.922   0.372   6.715 -0.1840 -0.1177  0.0640
 2687SOL    HW1 8586   4.013   0.343   6.708  0.3604  1.2358  1.0841
 2687SOL    HW2 8587   3.913   0.400   6.806 -1.5398  0.0890 -0.1088
 2688SOL     OW 8588   1.673   1.579   7.191  0.0016  0.1254 -0.0248
 2688SOL    HW1 8589   1.735   1.552   7.259 -0.9228  0.4916  0.9905
 2688SOL    HW2 8590   1.587   1.558   7.228 -0.5129  0.3239 -1.0906
 2689SOL     OW 8591   6.032   5.754   1.735  0.5976 -0.2124 -0.4931
 2689SOL    HW1 8592   6.021   5.821   1.667  0.1265  0.7374  0.5044
 2689SOL    HW2 8593   6.121   5.721   1.721  0.8179  0.5789 -1.0377
 2690SOL     OW 8594   1.151   5.896   1.072  0.1679 -0.0887  0.4071
 2690SOL    HW1 8595   1.152   5.931   0.982  0.8930 -1.1774 -0.0272
 2690SOL    HW2 8596   1.178   5.970   1.126 -0.6588  0.7010 -0.2144
 2691SOL     OW 8597   4.384   6.303   5.905  0.2349 -0.3289  0.6198
 2691SOL    HW1 8598   4.387   6.386   5.858  2.2403  0.5951  2.2419
 2691SOL    HW2 8599   4.451   6.249   5.865 -1.0146 -1.2002 -0.3813
 2692SOL     OW 8600   0.819   3.123   1.065  0.1558  0.3748  0.8912
 2692SOL    HW1 8601   0.737   3.143   1.022 -0.0455 -1.5456  0.2499
 2692SOL    HW2 8602   0.884   3.122   0.994  0.4559  0.5102  1.1619
 2693SOL     OW 8603   0.324   3.418   0.277  0.2664 -0.1964  0.3134
 2693SOL    HW1 8604   0.391   3.472   0.235  0.0129  0.9592  1.3378
 2693SOL    HW2 8605   0.242   3.449   0.239  0.2462 -1.3561 -0.6633
 2694SOL     OW 8606   0.836   4.847   5.253  0.1202  0.0842  0.0869
 2694SOL    HW1 8607   0.771   4.826   5.186  0.6219 -1.1076 -0.0468
 2694SOL    HW2 8608   0.849   4.766   5.301  0.5412  0.6567  0.9613
 2695SOL     OW 8609   4.025   0.059   6.359 -0.2436  0.3994  0.3778
 2695SOL    HW1 8610   3.968   0.022   6.292  0.1755  0.3245  0.0561
 2695SOL    HW2 8611   4.025   0.153   6.341  1.1861  0.2117 -0.7911
 2696SOL     OW 8612   3.620   7.109   6.706 -0.0631 -0.5625 -0.0058
 2696SOL    HW1 8613   3.546   7.168   6.721 -0.1180 -0.5292 -0.3960
 2696SOL    HW2 8614   3.581   7.031   6.666  0.0933 -0.6081 -0.0712
 2697SOL     OW 8615   1.482   3.843   7.251  0.3401 -0.3544 -0.0531
 2697SOL    HW1 8616   1.526   3.824   7.168  0.8832 -1.4134  0.4590
 2697SOL    HW2 8617   1.448   3.758   7.280 -0.7549  0.1881  0.3037
 2698SOL     OW 8618   5.136   0.870   0.772 -0.2969 -0.4211  0.2363
 2698SOL    HW1 8619   5.098   0.913   0.695  1.0054  0.5154  0.0893
 2698SOL    HW2 8620   5.225   0.849   0.746 -0.2799 -1.3667  1.0238
 2699SOL     OW 8621   0.630   2.153   6.159  0.1758 -0.4263  0.2310
 2699SOL    HW1 8622   0.614   2.131   6.251  1.8482 -0.7473  0.4778
 2699SOL    HW2 8623   0.712   2.202   6.161 -0.5608  0.9132 -0.9465
 2700SOL     OW 8624   2.512   4.283   2.118 -0.0051  0.3383  0.3749
 2700SOL    HW1 8625   2.529   4.351   2.053 -2.2795 -0.4172 -1.1143
 2700SOL    HW2 8626   2.452   4.324   2.180 -1.0345 -0.1355 -0.2845
 2701SOL     OW 8627   3.069   6.857   7.246 -0.5536 -0.4300  0.1934
 2701SOL    HW1 8628   3.127   6.866   7.171  0.4612  1.6853  1.1531
 2701SOL    HW2 8629   2.987   6.899   7.220 -0.2597  0.1509  0.1976
 2702SOL     OW 8630   0.754   4.030   0.513 -0.5495  0.8543 -0.1102
 2702SOL    HW1 8631   0.732   4.094   0.581 -3.5341  0.8390 -0.9321
 2702SOL    HW2 8632   0.814   4.076   0.454  0.7819  1.3897  1.5824
 2703SOL     OW 8633   4.048   7.149   3.023  0.0897 -0.1373 -0.7178
 2703SOL    HW1 8634   4.019   7.236   2.997 -0.9502 -0.5328 -0.9106
 2703SOL    HW2 8635   4.144   7.153   3.017  0.0340  0.8854 -1.0484
 2704SOL     OW 8636   3.944   1.560   0.949  0.2795 -0.6767 -0.0236
 2704SOL    HW1 8637   3.934   1.521   1.036  0.6882 -0.5296  0.0910
 2704SOL    HW2 8638   4.017   1.621   0.958  0.5286 -0.8877 -0.5470
 2705SOL     OW 8639   7.187   6.752   0.825 -0.0925  0.0759 -0.3851
 2705SOL    HW1 8640   7.161   6.799   0.746  0.2601 -0.5717 -0.9006
 2705SOL    HW2 8641   7.278   6.727   0.809  0.5596  1.4239  0.9593
 2706SOL     OW 8642   0.516   6.313   6.742  0.0674 -0.0645 -0.3367
 2706SOL    HW1 8643   0.574   6.291   6.669  2.2376  1.2722  0.8524
 2706SOL    HW2 8644   0.498   6.229   6.784  1.6108 -0.4873 -0.4528
 2707SOL     OW 8645   2.316   1.598   0.551 -0.3470  0.6614 -0.2169
 2707SOL    HW1 8646   2.291   1.508   0.568  0.8496  0.3914  0.1865
 2707SOL    HW2 8647   2.261   1.625   0.477  0.3857 -0.9177 -1.3898
 2708SOL     OW 8648   6.846   1.449   2.420  0.0755 -0.0086  0.4298
 2708SOL    HW1 8649   6.776   1.393   2.387 -0.1966  0.2163  0.6229
 2708SOL    HW2 8650   6.822   1.467   2.511 -0.2083  0.9768  0.1770
 2709SOL     OW 8651   2.759   3.324   2.198  0.9272 -0.4633 -0.3328
 2709SOL    HW1 8652   2.831   3.288   2.145  0.3522 -2.1003 -0.0755
 2709SOL    HW2 8653   2.690   3.259   2.190 -0.7099  1.2519 -0.8841
 2710SOL     OW 8654   0.614   2.171   5.321  0.2599 -0.1994 -0.0186
 2710SOL    HW1 8655   0.682   2.193   5.385 -0.7541  2.7078  0.2124
 2710SOL    HW2 8656   0.662   2.157   5.239  1.2861 -0.3167  0.5796
 2711SOL     OW 8657   5.916   3.976   4.747  0.0808  0.2124  0.1418
 2711SOL    HW1 8658   5.922   3.988   4.652 -1.5868 -0.5500 -0.0962
 2711SOL    HW2 8659   5.973   3.901   4.765  1.1588  0.9414 -0.0796
 2712SOL     OW 8660   7.015   5.229   2.792 -0.3267 -0.6868  0.5598
 2712SOL    HW1 8661   7.055   5.209   2.876  0.6043  0.9432  0.5452
 2712SOL    HW2 8662   6.937   5.279   2.813 -1.5295 -2.4286  0.5102
 2713SOL     OW 8663   0.673   2.121   4.762 -0.1177 -0.0316  0.2436
 2713SOL    HW1 8664   0.660   2.210   4.795 -0.9219  0.0332 -0.2221
 2713SOL    HW2 8665   0.637   2.123   4.673 -0.0336 -0.7883  0.1861
 2714SOL     OW 8666   2.318   7.398   0.813  0.5579  0.2193 -0.2492
 2714SOL    HW1 8667   2.292   7.360   0.729 -2.2867 -0.9651  1.0532
 2714SOL    HW2 8668   2.288   7.489   0.808  0.9324  0.3239 -0.7059
 2715SOL     OW 8669   5.287   2.551   5.450 -0.1099 -0.1047  0.3523
 2715SOL    HW1 8670   5.359   2.495   5.479  1.9333  0.9882 -2.2092
 2715SOL    HW2 8671   5.229   2.492   5.402  1.2782 -0.3637 -1.1005
 2716SOL     OW 8672   5.491   6.609   0.324 -0.7592  0.4026 -0.1851
 2716SOL    HW1 8673   5.574   6.645   0.293 -0.4748  0.5169  0.6843
 2716SOL    HW2 8674   5.436   6.686   0.341 -0.9301  0.3397 -0.4433
 2717SOL     OW 8675   6.229   1.534   5.308 -0.2743 -0.0390  0.1413
 2717SOL    HW1 8676   6.300   1.488   5.354 -1.7974 -0.3324  2.3736
 2717SOL    HW2 8677   6.272   1.611   5.269  1.7851 -1.7408 -1.2048
 2718SOL     OW 8678   2.744   6.027   2.487  0.1078 -0.3252  0.0666
 2718SOL    HW1 8679   2.681   6.097   2.502  0.6389  0.1720  0.0057
 2718SOL    HW2 8680   2.826   6.060   2.523  0.5942 -0.5075 -0.8542
 2719SOL     OW 8681   6.840   4.495   4.450 -0.2175  0.7121  0.4473
 2719SOL    HW1 8682   6.858   4.404   4.427  2.7644  1.5361 -0.9517
 2719SOL    HW2 8683   6.909   4.518   4.513 -1.2202  1.9056  1.1573
 2720SOL     OW 8684   1.894   3.445   6.043 -0.2354 -0.5395 -0.5677
 2720SOL    HW1 8685   1.942   3.410   6.118  0.0708 -0.5579 -0.7691
 2720SOL    HW2 8686   1.803   3.418   6.058 -0.3659  0.3505  0.3208
 2721SOL     OW 8687   1.575   7.439   2.383 -0.0109 -0.0463 -0.3003
 2721SOL    HW1 8688   1.654   7.491   2.363  0.5913 -0.7035  0.3227
 2721SOL    HW2 8689   1.514   7.461   2.312  0.7089  0.5226 -0.7635
 2722SOL     OW 8690   4.710   4.689   2.464 -0.1081 -0.4100 -0.2794
 2722SOL    HW1 8691   4.787   4.741   2.444  0.5222 -0.8756  0.8254
 2722SOL    HW2 8692   4.736   4.599   2.444  0.1427 -0.7399  1.4088
 2723SOL     OW 8693   2.080   2.532   2.785  0.8022  0.0693  0.4711
 2723SOL    HW1 8694   2.127   2.511   2.866  0.7998  0.6163  0.6166
 2723SOL    HW2 8695   2.015   2.597   2.811 -0.3169 -0.9705  0.3481
 2724SOL     OW 8696   0.814   7.560   5.892 -0.1325 -0.2748 -0.8202
 2724SOL    HW1 8697   0.904   7.536   5.910 -0.2203 -0.2979 -0.3828
 2724SOL    HW2 8698   0.772   7.480   5.861  0.2296 -0.0343 -1.9519
 2725SOL     OW 8699   7.070   2.447   4.964  0.3643 -0.3362  0.2235
 2725SOL    HW1 8700   7.091   2.412   4.878 -1.4872 -1.2050  0.0825
 2725SOL    HW2 8701   7.139   2.512   4.981  0.7343 -0.1032 -1.9194
 2726SOL     OW 8702   3.457   3.229   5.118 -0.1438 -0.0078 -0.2907
 2726SOL    HW1 8703   3.389   3.191   5.174  1.1117 -1.3182  0.4009
 2726SOL    HW2 8704   3.449   3.181   5.036  0.9214 -1.2958  0.3168
 2727SOL     OW 8705   2.169   1.791   1.196 -0.4093 -0.1607 -0.3334
 2727SOL    HW1 8706   2.186   1.834   1.112 -0.6964  0.0257 -0.2959
 2727SOL    HW2 8707   2.147   1.862   1.256 -0.3491 -0.3082 -0.1352
 2728SOL     OW 8708   3.291   3.417   6.217 -0.1359 -0.2553 -0.4101
 2728SOL    HW1 8709   3.342   3.467   6.154  0.9285 -1.3361 -0.4418
 2728SOL    HW2 8710   3.260   3.341   6.167 -1.3475  0.1051 -0.2492
 2729SOL     OW 8711   4.306   0.893   4.955  0.1245  0.1330 -0.1153
 2729SOL    HW1 8712   4.306   0.987   4.937 -1.3583  0.3185  0.7568
 2729SOL    HW2 8713   4.240   0.856   4.897 -0.2222 -0.1741  0.4621
 2730SOL     OW 8714   1.823   0.864   6.824 -0.1505  0.1902  0.1450
 2730SOL    HW1 8715   1.896   0.810   6.853  0.9537  1.8943  0.6559
 2730SOL    HW2 8716   1.862   0.947   6.799 -1.5796  0.2422 -2.3118
 2731SOL     OW 8717   0.842   6.590   3.245 -0.0194 -0.0463 -1.3588
 2731SOL    HW1 8718   0.820   6.525   3.178 -1.6384  0.1639 -1.0847
 2731SOL    HW2 8719   0.798   6.557   3.324  2.1065 -0.4558 -0.2809
 2732SOL     OW 8720   5.934   6.043   0.381  0.3524 -0.7885  0.5765
 2732SOL    HW1 8721   5.877   6.107   0.424 -1.1812 -1.0950 -0.9196
 2732SOL    HW2 8722   6.022   6.067   0.409 -0.0862  2.4064 -0.4704
 2733SOL     OW 8723   4.457   0.043   5.241  0.2364  0.0350 -0.3113
 2733SOL    HW1 8724   4.365   0.070   5.236 -0.2611 -1.2495  1.0135
 2733SOL    HW2 8725   4.492   0.089   5.318  0.0570 -1.1020  0.4897
 2734SOL     OW 8726   3.283   2.363   3.554  0.3886 -0.0132  0.2484
 2734SOL    HW1 8727   3.303   2.398   3.467  0.2811  0.3202  0.3583
 2734SOL    HW2 8728   3.349   2.295   3.568  1.7464  1.3768  0.8034
 2735SOL     OW 8729   2.421   1.627   0.193 -0.4758 -0.1053  0.1189
 2735SOL    HW1 8730   2.337   1.582   0.196 -1.1220  0.8264 -1.9128
 2735SOL    HW2 8731   2.482   1.568   0.237 -1.9113 -1.4634  0.3605
 2736SOL     OW 8732   5.557   4.259   3.056  0.6006 -0.0651  0.6785
 2736SOL    HW1 8733   5.632   4.231   3.003 -0.3364  0.1877 -0.8570
 2736SOL    HW2 8734   5.564   4.210   3.137  0.9490 -2.0827 -0.5181
 2737SOL     OW 8735   1.009   3.866   3.480  0.2674 -0.6326 -0.2294
 2737SOL    HW1 8736   1.082   3.817   3.518  0.8519  0.5438  0.1949
 2737SOL    HW2 8737   1.017   3.851   3.385  1.7729  0.4196 -0.2989
 2738SOL     OW 8738   7.116   4.095   2.735 -0.3147 -0.1562 -0.1854
 2738SOL    HW1 8739   7.077   4.126   2.654 -1.4841 -1.2794 -0.1030
 2738SOL    HW2 8740   7.064   4.136   2.804  0.7299  0.8642  0.0228
 2739SOL     OW 8741   4.112   6.075   6.465 -0.1834  0.4079 -0.2534
 2739SOL    HW1 8742   4.144   5.986   6.479 -2.4930 -0.2897  1.2383
 2739SOL    HW2 8743   4.080   6.076   6.375 -0.4456 -0.3965 -0.1710
 2740SOL     OW 8744   6.909   5.950   5.006 -0.0932  0.4675  0.1842
 2740SOL    HW1 8745   6.908   5.887   4.934  1.3984  1.2273 -0.5422
 2740SOL    HW2 8746   6.820   5.985   5.008 -0.6881 -0.9665 -0.0077
 2741SOL     OW 8747   7.174   6.353   5.558  0.2863  0.2311  0.3846
 2741SOL    HW1 8748   7.239   6.342   5.488  1.2850  2.7772  0.7910
 2741SOL    HW2 8749   7.093   6.320   5.520  0.8240  1.3665 -1.9920
 2742SOL     OW 8750   4.713   4.777   5.563 -0.4418  0.1563 -0.2472
 2742SOL    HW1 8751   4.625   4.801   5.532 -0.4244  2.5938  1.4115
 2742SOL    HW2 8752   4.697   4.705   5.625 -0.8881 -1.5626 -2.2145
 2743SOL     OW 8753   6.166   3.034   3.855  0.1677 -0.0023  0.2533
 2743SOL    HW1 8754   6.104   2.969   3.887  0.4290 -0.2572  0.2366
 2743SOL    HW2 8755   6.210   3.066   3.934 -1.1743  1.4285  0.4901
 2744SOL     OW 8756   4.734   3.444   1.178  0.4286  0.1949  0.1092
 2744SOL    HW1 8757   4.809   3.491   1.143  0.3207  0.0255 -0.3632
 2744SOL    HW2 8758   4.686   3.415   1.100  0.5995 -0.8557  0.3838
 2745SOL     OW 8759   4.753   2.723   2.791  0.2082  0.1289 -0.3968
 2745SOL    HW1 8760   4.814   2.700   2.720  0.4675  0.4374 -0.2797
 2745SOL    HW2 8761   4.668   2.730   2.748  0.2402 -0.3897 -0.5480
 2746SOL     OW 8762   0.981   4.380   1.636 -0.5348 -0.1813  0.1159
 2746SOL    HW1 8763   0.902   4.425   1.666 -0.5642 -0.0138 -0.2096
 2746SOL    HW2 8764   1.043   4.392   1.708 -1.2821 -1.6400  1.0458
 2747SOL     OW 8765   2.898   3.448   6.656 -0.1809 -0.4108  0.0885
 2747SOL    HW1 8766   2.945   3.478   6.734 -2.6003 -0.6964  1.7682
 2747SOL    HW2 8767   2.967   3.418   6.597  1.8088  0.5576  1.7717
 2748SOL     OW 8768   6.310   0.308   2.952 -0.2371  0.2697  0.5072
 2748SOL    HW1 8769   6.247   0.238   2.936 -0.4394  0.5997 -0.1671
 2748SOL    HW2 8770   6.286   0.342   3.039 -1.3001  0.7023  0.0596
 2749SOL     OW 8771   1.659   3.666   1.810  0.3844 -0.2595 -0.7469
 2749SOL    HW1 8772   1.671   3.680   1.716 -0.3448  0.3861 -0.7596
 2749SOL    HW2 8773   1.696   3.745   1.850  2.0922 -1.1989 -0.3708
 2750SOL     OW 8774   2.364   7.030   6.055  0.0194  0.5820 -0.2302
 2750SOL    HW1 8775   2.297   7.031   6.123 -1.1720 -0.6944 -1.3266
 2750SOL    HW2 8776   2.346   6.951   6.004  2.1827  0.3678 -0.7629
 2751SOL     OW 8777   1.832   6.108   6.032  0.2754 -0.1494  0.1867
 2751SOL    HW1 8778   1.834   6.016   6.007 -0.8092 -0.6072  1.6470
 2751SOL    HW2 8779   1.854   6.155   5.952 -0.4115 -1.6253 -0.9152
 2752SOL     OW 8780   3.286   4.545   0.695  0.1685 -0.1590 -0.2945
 2752SOL    HW1 8781   3.315   4.630   0.662  2.6040 -1.2315 -1.1487
 2752SOL    HW2 8782   3.344   4.482   0.653 -0.6473 -2.1459  1.3872
 2753SOL     OW 8783   0.203   5.506   3.429 -0.4600  0.4331  0.1191
 2753SOL    HW1 8784   0.270   5.549   3.482 -0.0434 -0.9442  0.7371
 2753SOL    HW2 8785   0.135   5.482   3.491 -0.3998 -0.3418 -0.1071
 2754SOL     OW 8786   3.426   5.801   3.229 -0.1727  0.5426  0.6258
 2754SOL    HW1 8787   3.398   5.884   3.268 -1.0470 -0.0886  1.3643
 2754SOL    HW2 8788   3.406   5.735   3.295 -0.3767 -0.3745 -0.3315
 2755SOL     OW 8789   3.947   3.517   5.651 -0.4869 -0.3732  0.6629
 2755SOL    HW1 8790   3.886   3.591   5.647 -0.3814 -0.3155  0.0216
 2755SOL    HW2 8791   4.024   3.547   5.603 -0.6378 -1.0827 -0.0330
 2756SOL     OW 8792   6.544   7.458   0.436  0.2751 -0.2584 -0.0355
 2756SOL    HW1 8793   6.480   7.481   0.368  0.9546 -0.8830 -0.9125
 2756SOL    HW2 8794   6.492   7.423   0.508 -0.3570 -1.0451 -0.8577
 2757SOL     OW 8795   4.408   5.309   5.551  0.3863 -0.2905  0.0812
 2757SOL    HW1 8796   4.436   5.396   5.579  1.5862  0.1986 -2.3796
 2757SOL    HW2 8797   4.438   5.251   5.620  0.0314  1.1667  1.5193
 2758SOL     OW 8798   2.889   2.554   4.506 -0.0799 -0.1092 -0.5217
 2758SOL    HW1 8799   2.900   2.495   4.431  4.0700  1.2060 -1.2215
 2758SOL    HW2 8800   2.883   2.641   4.467 -0.5860  0.3771  0.6261
 2759SOL     OW 8801   2.727   6.547   6.962  0.6365 -0.6182 -0.2829
 2759SOL    HW1 8802   2.713   6.465   6.914 -0.2800 -1.4547  1.3294
 2759SOL    HW2 8803   2.822   6.552   6.974  0.7163 -1.3663 -0.5399
 2760SOL     OW 8804   0.676   5.353   3.666  0.5914 -0.1578  0.3972
 2760SOL    HW1 8805   0.713   5.358   3.754 -0.0968 -2.5865  0.9034
 2760SOL    HW2 8806   0.741   5.304   3.615 -0.0608 -0.8474  0.2097
 2761SOL     OW 8807   0.787   4.436   4.914 -0.1985 -0.2370  0.6264
 2761SOL    HW1 8808   0.831   4.419   4.831  0.8533 -1.4433  1.3825
 2761SOL    HW2 8809   0.857   4.464   4.973 -1.0056  1.0848  0.9943
 2762SOL     OW 8810   3.826   2.835   5.325  0.1674  0.3005  0.1582
 2762SOL    HW1 8811   3.749   2.891   5.317  0.4595  0.5594 -0.9946
 2762SOL    HW2 8812   3.851   2.815   5.235  1.5860  0.4129  0.4949
 2763SOL     OW 8813   5.146   6.867   6.048 -0.2002 -0.0130  0.6362
 2763SOL    HW1 8814   5.201   6.835   5.977  0.6317 -0.7900  1.6174
 2763SOL    HW2 8815   5.172   6.959   6.060  1.2145 -0.4916  1.3801
 2764SOL     OW 8816   5.597   7.042   4.788  0.3730 -0.4582  0.2821
 2764SOL    HW1 8817   5.641   6.977   4.733  1.0911 -1.0281  1.4954
 2764SOL    HW2 8818   5.571   6.993   4.866 -0.7726  0.3020  0.3893
 2765SOL     OW 8819   3.467   4.242   2.072 -0.0311 -0.3306 -0.8277
 2765SOL    HW1 8820   3.497   4.332   2.071 -0.2394 -0.2482 -2.5721
 2765SOL    HW2 8821   3.385   4.243   2.023 -0.4902 -1.3381 -0.1330
 2766SOL     OW 8822   3.395   0.424   6.734  0.3966 -0.2653  0.5219
 2766SOL    HW1 8823   3.319   0.367   6.723  0.5610 -0.5255  0.7230
 2766SOL    HW2 8824   3.362   0.498   6.785  0.2747 -0.3638  0.5864
 2767SOL     OW 8825   2.035   6.016   0.342 -0.0181  0.2215  0.3913
 2767SOL    HW1 8826   2.104   6.077   0.316  0.8022 -0.9547 -0.3130
 2767SOL    HW2 8827   2.058   5.934   0.298 -0.3838 -0.9516  2.2988
 2768SOL     OW 8828   2.222   4.906   4.428  0.5002  0.5514  0.6911
 2768SOL    HW1 8829   2.190   4.995   4.413  0.3021  0.6636  1.7038
 2768SOL    HW2 8830   2.201   4.888   4.520  0.3800 -0.6069  0.4516
 2769SOL     OW 8831   5.513   4.145   4.287  0.5000 -0.2773 -0.1986
 2769SOL    HW1 8832   5.550   4.198   4.358 -0.4640 -0.5618  0.5244
 2769SOL    HW2 8833   5.522   4.201   4.209 -1.8246  1.6230  0.7782
 2770SOL     OW 8834   7.490   0.681   1.482  0.2049  0.6781  0.3239
 2770SOL    HW1 8835   7.495   0.594   1.521 -0.5319  0.6006  0.2637
 2770SOL    HW2 8836   7.552   0.678   1.409 -1.8104 -0.7606 -1.4672
 2771SOL     OW 8837   4.832   5.738   2.654 -0.4431 -0.1003  0.1966
 2771SOL    HW1 8838   4.884   5.705   2.581 -1.0429 -0.1192 -0.2299
 2771SOL    HW2 8839   4.891   5.797   2.701  0.2054 -0.6983  0.1648
 2772SOL     OW 8840   6.879   4.627   0.099  0.4832  0.5499  0.4026
 2772SOL    HW1 8841   6.869   4.548   0.152 -0.5814  1.2951  1.3436
 2772SOL    HW2 8842   6.792   4.665   0.095  0.9987  1.7418  0.0551
 2773SOL     OW 8843   5.369   3.992   1.535 -0.3678  0.2605  1.0859
 2773SOL    HW1 8844   5.334   4.080   1.519 -1.2480 -0.2649 -0.0088
 2773SOL    HW2 8845   5.430   3.977   1.463  0.4821  0.3236  1.7863
 2774SOL     OW 8846   4.880   7.129   3.241  0.1616 -0.3784 -0.0074
 2774SOL    HW1 8847   4.909   7.156   3.154 -1.7428  1.7819 -0.0945
 2774SOL    HW2 8848   4.907   7.200   3.299  0.6664 -1.3886  1.0412
 2775SOL     OW 8849   7.199   0.308   5.536  0.5737 -0.3087 -0.3058
 2775SOL    HW1 8850   7.107   0.293   5.556  0.9513 -0.6986  1.2554
 2775SOL    HW2 8851   7.205   0.402   5.519  0.2454  0.1318  1.7928
 2776SOL     OW 8852   5.311   5.543   4.658 -0.0319  0.4673  0.2895
 2776SOL    HW1 8853   5.339   5.504   4.741 -0.3088  1.6603  0.9779
 2776SOL    HW2 8854   5.261   5.475   4.614  0.4038 -0.2923  0.9583
 2777SOL     OW 8855   4.255   0.927   0.947  0.2863  0.3004 -0.0286
 2777SOL    HW1 8856   4.193   0.859   0.920  0.7239 -0.7905  1.5764
 2777SOL    HW2 8857   4.205   1.008   0.940 -0.6129 -0.2901 -0.8857
 2778SOL     OW 8858   1.889   4.492   1.316 -0.3727  0.3783 -0.4211
 2778SOL    HW1 8859   1.955   4.553   1.283  1.6039 -0.9016  0.9267
 2778SOL    HW2 8860   1.896   4.416   1.258 -0.6433  0.2279 -0.2566
 2779SOL     OW 8861   2.630   1.886   4.773 -0.0515 -0.1313 -0.1950
 2779SOL    HW1 8862   2.669   1.884   4.686  0.8974  0.0754  0.2106
 2779SOL    HW2 8863   2.538   1.905   4.758  0.6521  3.3180 -1.0161
 2780SOL     OW 8864   0.022   4.047   3.350 -0.2521  0.2357 -0.0180
 2780SOL    HW1 8865  -0.042   4.078   3.286  0.6341  1.5797 -0.2892
 2780SOL    HW2 8866   0.105   4.047   3.302  0.1525 -0.3500  0.6635
 2781SOL     OW 8867   1.319   5.172   0.424  0.0951  0.2342  0.1224
 2781SOL    HW1 8868   1.244   5.229   0.442  0.2415 -0.0168  1.6179
 2781SOL    HW2 8869   1.296   5.128   0.342 -0.2695  1.9981 -0.7833
 2782SOL     OW 8870   6.135   6.740   7.216 -0.2513 -0.3427 -0.5189
 2782SOL    HW1 8871   6.180   6.803   7.273  1.2622 -1.7643 -0.0474
 2782SOL    HW2 8872   6.078   6.794   7.161 -0.0205  1.2941  0.7574
 2783SOL     OW 8873   7.025   2.002   2.787  0.1905 -0.0347  0.3877
 2783SOL    HW1 8874   7.046   1.957   2.869 -0.5714 -0.4563  0.3514
 2783SOL    HW2 8875   6.956   2.064   2.810  0.0254 -0.1005  0.0842
 2784SOL     OW 8876   3.490   2.416   4.419 -0.0575 -0.2252 -0.5116
 2784SOL    HW1 8877   3.470   2.505   4.448  1.3785 -0.4836  1.4785
 2784SOL    HW2 8878   3.411   2.366   4.436  0.0899  0.0715  1.2339
 2785SOL     OW 8879   3.156   5.680   7.071 -0.4839  0.0136 -0.1001
 2785SOL    HW1 8880   3.204   5.749   7.117 -0.4929 -0.2395  0.2915
 2785SOL    HW2 8881   3.125   5.622   7.141  0.8625 -1.2608 -0.5086
 2786SOL     OW 8882   5.868   3.404   3.973 -0.6376 -0.3232  0.0712
 2786SOL    HW1 8883   5.958   3.435   3.966 -1.6683  3.1494  0.1557
 2786SOL    HW2 8884   5.849   3.407   4.066 -1.0577 -0.2610 -0.0148
 2787SOL     OW 8885   5.665   5.176   0.984 -0.4791  0.5613 -0.1504
 2787SOL    HW1 8886   5.704   5.236   0.920  0.5948  0.3482  0.2735
 2787SOL    HW2 8887   5.684   5.089   0.951  1.2011  0.4269  1.0497
 2788SOL     OW 8888   1.205   5.076   7.401  0.0415  0.0019  0.3605
 2788SOL    HW1 8889   1.154   5.134   7.344  0.3067  0.9594  1.0781
 2788SOL    HW2 8890   1.149   4.999   7.412 -0.0669 -0.1589 -1.0841
 2789SOL     OW 8891   0.683   3.001   5.357  0.7334 -0.3561  0.5044
 2789SOL    HW1 8892   0.605   3.040   5.317  1.4021  0.7232  0.2135
 2789SOL    HW2 8893   0.720   2.945   5.288 -0.1483 -1.4266  0.8743
 2790SOL     OW 8894   0.126   5.300   6.581 -0.2465  0.5269 -0.7405
 2790SOL    HW1 8895   0.039   5.339   6.583 -0.9882 -0.9945 -1.2170
 2790SOL    HW2 8896   0.112   5.209   6.607  1.3534  0.4735  0.0824
 2791SOL     OW 8897   1.564   3.133   5.572 -0.3467  0.4501 -0.5657
 2791SOL    HW1 8898   1.609   3.214   5.549  0.1223 -0.0276 -1.4052
 2791SOL    HW2 8899   1.621   3.091   5.636  0.7469 -0.4225 -2.0435
 2792SOL     OW 8900   0.468   5.142   2.038  0.1275  0.0554 -0.1029
 2792SOL    HW1 8901   0.541   5.111   1.984  1.9852 -0.3158  2.4671
 2792SOL    HW2 8902   0.499   5.224   2.076 -1.7372  1.1023 -0.7038
 2793SOL     OW 8903   1.636   0.646   3.511  0.2338  0.1089  0.4524
 2793SOL    HW1 8904   1.695   0.614   3.443  0.8239 -0.8821  1.3938
 2793SOL    HW2 8905   1.695   0.674   3.582 -0.3103  2.1794  0.1613
 2794SOL     OW 8906   1.504   6.397   4.499  0.4787  0.0177 -0.3628
 2794SOL    HW1 8907   1.431   6.404   4.560  0.4864 -0.6434 -0.2728
 2794SOL    HW2 8908   1.550   6.480   4.507 -1.1137  1.0666 -1.5247
 2795SOL     OW 8909   5.400   0.062   7.111 -0.1325 -0.4056 -0.1784
 2795SOL    HW1 8910   5.443   0.055   7.026  0.8600 -2.0371  0.4133
 2795SOL    HW2 8911   5.442   0.137   7.153 -1.4132  1.1329 -1.5010
 2796SOL     OW 8912   6.930   6.363   7.384 -0.0877  0.1194  0.2252
 2796SOL    HW1 8913   6.837   6.341   7.380 -0.5918  2.1987 -0.4784
 2796SOL    HW2 8914   6.971   6.307   7.318 -0.4003 -2.4598  2.0411
 2797SOL     OW 8915   5.582   6.648   1.840  0.0017  0.3528 -0.5726
 2797SOL    HW1 8916   5.506   6.601   1.874  0.6492  0.3238  0.9173
 2797SOL    HW2 8917   5.608   6.599   1.762 -0.3661 -0.7577 -0.0137
 2798SOL     OW 8918   5.880   2.900   0.508 -0.4254 -0.1502  0.1810
 2798SOL    HW1 8919   5.904   2.833   0.572  1.6159 -0.0539 -0.3912
 2798SOL    HW2 8920   5.849   2.850   0.432 -0.1302 -0.4060  0.2232
 2799SOL     OW 8921   2.171   4.244   1.321  0.1254 -0.9108  0.0501
 2799SOL    HW1 8922   2.256   4.201   1.335  0.3027 -1.3192 -2.0125
 2799SOL    HW2 8923   2.184   4.332   1.357  1.0565 -1.3066  0.7511
 2800SOL     OW 8924   4.865   3.959   6.839  0.0225  0.1687 -0.1412
 2800SOL    HW1 8925   4.850   3.933   6.748 -0.2239  1.6456 -0.5419
 2800SOL    HW2 8926   4.923   3.891   6.873  0.0706 -0.4493 -1.3785
 2801SOL     OW 8927   0.064   0.822   2.460  0.3388 -0.0755  0.2267
 2801SOL    HW1 8928   0.110   0.905   2.447 -0.3679  0.0706 -1.6064
 2801SOL    HW2 8929   0.071   0.806   2.554 -1.3406  3.1805  1.0818
 2802SOL     OW 8930   2.665   1.489   4.871  0.0035  0.0318  0.6130
 2802SOL    HW1 8931   2.589   1.487   4.814  1.0717  1.2595 -0.9554
 2802SOL    HW2 8932   2.687   1.397   4.887 -0.4182 -0.3352 -0.8482
 2803SOL     OW 8933   1.691   7.183   6.772  0.4184  0.4244 -0.1575
 2803SOL    HW1 8934   1.630   7.110   6.763 -2.2012  2.5005 -0.8145
 2803SOL    HW2 8935   1.767   7.146   6.816 -0.9433 -2.5574 -0.0583
 2804SOL     OW 8936   6.880   6.512   2.536  0.8794  0.5390  0.4447
 2804SOL    HW1 8937   6.797   6.465   2.545  0.7848  0.6490  0.1488
 2804SOL    HW2 8938   6.858   6.604   2.552  0.3132  1.0718 -2.6585
 2805SOL     OW 8939   3.932   7.112   3.284  0.4851  0.4533 -0.6271
 2805SOL    HW1 8940   3.939   7.134   3.191 -1.5132  1.1692 -0.6559
 2805SOL    HW2 8941   3.917   7.017   3.285 -1.5481  0.7262 -1.2054
 2806SOL     OW 8942   1.203   2.098   5.254  0.3346  0.3943  0.1451
 2806SOL    HW1 8943   1.195   2.165   5.322 -1.7336 -0.2439  0.6050
 2806SOL    HW2 8944   1.271   2.039   5.285  1.4073  1.6471  0.2585
 2807SOL     OW 8945   2.605   4.402   7.217  0.3066 -0.0362 -0.2730
 2807SOL    HW1 8946   2.626   4.485   7.261 -0.5000 -0.0657  0.1790
 2807SOL    HW2 8947   2.636   4.414   7.127  0.2238  0.7433 -0.2003
 2808SOL     OW 8948   2.518   7.428   6.591  0.2174  0.1126 -0.5200
 2808SOL    HW1 8949   2.568   7.386   6.660  0.1985  0.8808 -0.0313
 2808SOL    HW2 8950   2.444   7.469   6.636 -1.2298 -1.5182 -1.2883
 2809SOL     OW 8951   6.666   4.815   0.133  0.2457 -0.3203 -0.0773
 2809SOL    HW1 8952   6.718   4.813   0.213  0.9398 -1.4834 -0.5262
 2809SOL    HW2 8953   6.604   4.887   0.146  1.7911  0.9350  0.5700
 2810SOL     OW 8954   2.618   4.753   5.864 -0.1021 -0.0099 -0.2703
 2810SOL    HW1 8955   2.684   4.822   5.874  0.9728 -1.0920  0.3610
 2810SOL    HW2 8956   2.565   4.759   5.944 -0.7224  0.7809 -0.7226
 2811SOL     OW 8957   6.808   2.477   3.999  0.2437  0.3077 -0.1510
 2811SOL    HW1 8958   6.821   2.385   3.976  1.6110  0.9720 -2.3490
 2811SOL    HW2 8959   6.826   2.481   4.093  1.0551 -1.5166 -0.1839
 2812SOL     OW 8960   4.682   4.681   6.868  0.2272 -0.5596  0.6723
 2812SOL    HW1 8961   4.758   4.734   6.892 -0.2001  0.0440  0.7138
 2812SOL    HW2 8962   4.611   4.715   6.922 -0.3012 -0.4589 -0.0627
 2813SOL     OW 8963   0.108   4.288   3.505  0.0205 -0.3228  0.3384
 2813SOL    HW1 8964   0.067   4.210   3.466 -1.8217 -0.0042  1.5225
 2813SOL    HW2 8965   0.168   4.253   3.570 -1.6284 -0.7972  1.6658
 2814SOL     OW 8966   6.015   3.071   2.737 -0.3872 -0.8990 -0.1267
 2814SOL    HW1 8967   6.090   3.020   2.768 -0.7046 -1.2580  0.0668
 2814SOL    HW2 8968   5.953   3.005   2.705 -0.7359 -0.6232 -0.0271
 2815SOL     OW 8969   6.877   0.887   6.643 -0.2772 -0.2400  0.7084
 2815SOL    HW1 8970   6.902   0.944   6.716 -0.6125  0.8245  0.0186
 2815SOL    HW2 8971   6.959   0.860   6.604 -0.1156 -0.0534  0.9153
 2816SOL     OW 8972   1.512   5.088   0.631 -0.0962  0.1780 -0.5254
 2816SOL    HW1 8973   1.434   5.109   0.683  0.5334  0.7266  0.2132
 2816SOL    HW2 8974   1.491   5.117   0.543 -0.2202  1.5806 -0.0490
 2817SOL     OW 8975   2.356   2.621   7.345  0.0840  0.1393  0.0951
 2817SOL    HW1 8976   2.416   2.554   7.376 -1.1321 -0.5659  0.9811
 2817SOL    HW2 8977   2.380   2.634   7.253  0.2990 -1.5448 -0.1028
 2818SOL     OW 8978   1.719   7.513   7.340 -0.4694 -0.4400 -0.1576
 2818SOL    HW1 8979   1.807   7.495   7.372 -0.6974 -1.2582  0.0345
 2818SOL    HW2 8980   1.704   7.605   7.361  0.4476 -0.2180 -0.4668
 2819SOL     OW 8981   0.497   6.564   6.875  0.0937  0.5928  0.6752
 2819SOL    HW1 8982   0.491   6.520   6.790 -2.2960  0.0724  1.0480
 2819SOL    HW2 8983   0.451   6.647   6.862 -0.2091  0.5494  1.4293
 2820SOL     OW 8984   5.068   5.851   4.039 -0.1463 -0.0022 -0.1535
 2820SOL    HW1 8985   5.081   5.774   4.093 -0.3825  0.1306  0.0963
 2820SOL    HW2 8986   5.011   5.822   3.968 -1.0872  0.1764  0.5016
 2821SOL     OW 8987   3.774   2.544   6.468 -0.1365  0.0604  0.8192
 2821SOL    HW1 8988   3.868   2.532   6.479  0.0240  0.9756  0.5684
 2821SOL    HW2 8989   3.762   2.560   6.375 -0.4799  0.4258  0.9210
 2822SOL     OW 8990   3.816   4.141   1.557 -0.2763  0.5522 -0.0213
 2822SOL    HW1 8991   3.722   4.133   1.540 -0.1925  0.5574 -0.4881
 2822SOL    HW2 8992   3.847   4.050   1.559 -0.4914  0.4898  1.3018
 2823SOL     OW 8993   3.258   4.054   4.238  0.0848 -0.0298 -0.0745
 2823SOL    HW1 8994   3.271   3.960   4.249  1.9827 -0.1357 -2.2058
 2823SOL    HW2 8995   3.246   4.065   4.143 -0.9924  1.8095  0.2257
 2824SOL     OW 8996   6.837   3.068   7.088  0.5011  0.3359  0.1404
 2824SOL    HW1 8997   6.827   2.974   7.079  0.4051  0.4228 -0.7916
 2824SOL    HW2 8998   6.874   3.081   7.176  1.6895 -0.6620 -0.1827
 2825SOL     OW 8999   4.821   3.004   2.538  0.5702  1.1068  0.1494
 2825SOL    HW1 9000   4.784   3.028   2.453 -0.8722  2.6081  1.1499
 2825SOL    HW2 9001   4.911   2.977   2.518  0.2407  1.3576 -1.8470
 2826SOL     OW 9002   2.927   4.273   0.990 -0.7535 -0.4355 -0.4545
 2826SOL    HW1 9003   2.868   4.330   0.940 -1.7702 -1.5799 -0.6109
 2826SOL    HW2 9004   2.921   4.305   1.080  0.1058  0.8376 -0.8173
 2827SOL     OW 9005   2.296   1.776   7.020 -0.5462  0.2989  0.2150
 2827SOL    HW1 9006   2.330   1.852   7.067 -0.4482  1.3842 -1.5149
 2827SOL    HW2 9007   2.231   1.738   7.079  1.4167 -0.0058  2.3027
 2828SOL     OW 9008   7.317   7.229   7.111  0.3966 -0.0721  0.0624
 2828SOL    HW1 9009   7.260   7.268   7.045 -1.4308  0.6371  1.9576
 2828SOL    HW2 9010   7.386   7.294   7.125  0.7120 -0.1607 -0.9877
 2829SOL     OW 9011   1.942   0.498   3.512 -0.0770  0.0178  0.2792
 2829SOL    HW1 9012   1.998   0.576   3.515  0.1344 -0.1113 -0.1506
 2829SOL    HW2 9013   2.000   0.427   3.539  0.5084 -0.4012 -1.8515
 2830SOL     OW 9014   2.097   7.540   2.558 -0.2697 -0.1637 -0.3944
 2830SOL    HW1 9015   2.037   7.577   2.493 -0.9312  0.7852  0.7265
 2830SOL    HW2 9016   2.086   7.445   2.548 -1.5797 -0.0215 -0.5680
 2831SOL     OW 9017   4.917   6.975   0.142 -0.1484  0.2608 -0.7110
 2831SOL    HW1 9018   4.883   6.898   0.096  0.7199  0.5943 -1.9733
 2831SOL    HW2 9019   5.003   6.990   0.102  0.5255  0.7366  0.8630
 2832SOL     OW 9020   6.583   6.620   2.696  0.1747  0.4214 -0.2422
 2832SOL    HW1 9021   6.529   6.672   2.756 -1.7385 -1.2918 -0.3975
 2832SOL    HW2 9022   6.665   6.670   2.689 -0.9607  2.5821  0.8231
 2833SOL     OW 9023   2.451   6.863   3.356  0.3759  0.5714  0.1833
 2833SOL    HW1 9024   2.464   6.773   3.387  0.6205  0.0769 -1.2888
 2833SOL    HW2 9025   2.410   6.853   3.270  0.5809  1.8739 -0.0845
 2834SOL     OW 9026   7.029   5.089   5.136 -0.1083  0.0909  0.1170
 2834SOL    HW1 9027   7.012   4.998   5.111 -0.9104  0.5318 -1.0183
 2834SOL    HW2 9028   6.972   5.105   5.211  0.6780 -0.5803  0.8915
 2835SOL     OW 9029   0.526   0.281   5.071  0.1292 -0.5682 -0.2511
 2835SOL    HW1 9030   0.556   0.371   5.084 -1.3491  0.1958 -1.8008
 2835SOL    HW2 9031   0.546   0.262   4.980 -0.6205 -1.3847 -0.2583
 2836SOL     OW 9032   0.673   1.744   5.620  0.3577  0.2745 -0.5039
 2836SOL    HW1 9033   0.620   1.819   5.593  1.0891  1.8872  2.0849
 2836SOL    HW2 9034   0.627   1.668   5.586 -2.2820  1.7183 -0.4540
 2837SOL     OW 9035   4.541   5.043   3.757 -0.7246 -0.2917  0.2911
 2837SOL    HW1 9036   4.495   5.031   3.840 -1.2093 -0.2677  0.0289
 2837SOL    HW2 9037   4.634   5.036   3.780 -0.8415  0.0754  0.8940
 2838SOL     OW 9038   7.510   1.835   5.497 -0.4994  0.6893 -0.3959
 2838SOL    HW1 9039   7.533   1.836   5.404  1.5402  1.9123  0.0462
 2838SOL    HW2 9040   7.418   1.809   5.499 -0.4298  0.0251 -2.7005
 2839SOL     OW 9041   2.302   4.441   1.849  0.2169 -0.1620 -0.3479
 2839SOL    HW1 9042   2.232   4.378   1.830  0.4893 -0.7308  0.4953
 2839SOL    HW2 9043   2.289   4.465   1.941  0.6221  0.3826 -0.4239
 2840SOL     OW 9044   6.904   2.652   5.831 -0.5893  0.3204  0.3699
 2840SOL    HW1 9045   6.988   2.670   5.873  0.2157 -0.8305 -0.6698
 2840SOL    HW2 9046   6.844   2.718   5.866  0.9421  1.6596  0.5367
 2841SOL     OW 9047   5.062   4.232   5.390  0.3344 -0.3171  0.1227
 2841SOL    HW1 9048   5.004   4.169   5.346 -1.4979  0.9636  0.6298
 2841SOL    HW2 9049   5.091   4.290   5.319 -1.4282  0.8376  0.2881
 2842SOL     OW 9050   4.904   1.435   6.864  0.3475 -0.0350  0.2744
 2842SOL    HW1 9051   4.841   1.413   6.933  0.0753 -1.1788 -0.3178
 2842SOL    HW2 9052   4.857   1.421   6.782  1.0444  0.1434 -0.1638
 2843SOL     OW 9053   6.188   3.758   3.514  0.5118 -0.3019  0.3165
 2843SOL    HW1 9054   6.191   3.685   3.453  0.0859 -1.7322  1.9187
 2843SOL    HW2 9055   6.143   3.827   3.467  0.1167 -1.3810 -0.9475
 2844SOL     OW 9056   1.887   7.227   0.083  0.1441 -0.5152  0.1298
 2844SOL    HW1 9057   1.856   7.317   0.093  1.4684 -0.2523  2.4472
 2844SOL    HW2 9058   1.813   7.173   0.112 -0.4684 -0.1829 -0.7716
 2845SOL     OW 9059   1.181   5.166   3.760  0.2330 -0.2415 -0.1123
 2845SOL    HW1 9060   1.092   5.201   3.762  0.3728  0.1169 -0.0157
 2845SOL    HW2 9061   1.201   5.145   3.851 -0.4598 -2.1699 -0.3642
 2846SOL     OW 9062   1.373   6.746   3.099  0.9281 -0.1110  0.3225
 2846SOL    HW1 9063   1.325   6.690   3.038 -0.0121  0.0791  0.8738
 2846SOL    HW2 9064   1.445   6.691   3.130  0.2250 -0.9170  0.5899
 2847SOL     OW 9065   1.639   2.456   3.924  0.0180 -0.2700  0.2349
 2847SOL    HW1 9066   1.725   2.499   3.926 -0.7665  1.4285 -0.1395
 2847SOL    HW2 9067   1.577   2.527   3.945 -1.4719 -0.8964 -1.7271
 2848SOL     OW 9068   4.915   1.880   4.853  0.3387  0.5878 -0.3079
 2848SOL    HW1 9069   4.895   1.811   4.789 -0.1124  0.4734 -0.0428
 2848SOL    HW2 9070   4.980   1.841   4.911  0.1999  0.4410 -0.2521
 2849SOL     OW 9071   2.908   2.084   1.047  0.4343  0.1293 -0.5376
 2849SOL    HW1 9072   2.988   2.109   1.093  0.3850  0.0903 -0.4306
 2849SOL    HW2 9073   2.882   2.001   1.087  0.0758  0.3816 -0.2416
 2850SOL     OW 9074   7.184   2.568   5.517 -0.7529 -0.2204 -0.0366
 2850SOL    HW1 9075   7.243   2.630   5.558 -1.9021  0.9930 -0.1401
 2850SOL    HW2 9076   7.128   2.537   5.589  2.0265 -3.9869  0.8056
 2851SOL     OW 9077   0.710   0.781   4.297 -0.4455  0.3652 -0.0591
 2851SOL    HW1 9078   0.625   0.738   4.295 -0.6795  0.7764  0.8482
 2851SOL    HW2 9079   0.725   0.808   4.206 -0.8325 -0.5621 -0.4115
 2852SOL     OW 9080   4.124   6.183   3.035  0.4166 -0.3689 -0.1502
 2852SOL    HW1 9081   4.117   6.255   3.097  0.0193 -0.0769 -0.5216
 2852SOL    HW2 9082   4.034   6.151   3.025  0.4133 -0.1678 -0.8523
 2853SOL     OW 9083   0.224   3.416   4.351 -0.0482  0.4702  0.1421
 2853SOL    HW1 9084   0.273   3.465   4.417 -0.0447  1.0997 -0.3155
 2853SOL    HW2 9085   0.244   3.324   4.370  1.4507  0.7099 -0.1163
 2854SOL     OW 9086   3.398   5.965   4.777  0.0952 -0.2125 -0.4314
 2854SOL    HW1 9087   3.344   5.959   4.698 -0.2445  2.6287 -0.5318
 2854SOL    HW2 9088   3.337   5.951   4.849 -0.4161  1.0091 -0.6033
 2855SOL     OW 9089   5.259   4.554   4.963  0.3574  0.4768 -0.2823
 2855SOL    HW1 9090   5.318   4.528   4.892 -1.9834  0.9564 -2.5381
 2855SOL    HW2 9091   5.287   4.643   4.987 -0.1934  1.2104 -2.2232
 2856SOL     OW 9092   4.156   0.999   0.006 -0.2600 -0.1099 -0.5825
 2856SOL    HW1 9093   4.250   1.015   0.011 -0.5132  1.8313 -1.1382
 2856SOL    HW2 9094   4.146   0.942  -0.070  0.4153  0.2271 -0.9373
 2857SOL     OW 9095   4.874   2.934   5.899  0.2164  0.5455 -0.1874
 2857SOL    HW1 9096   4.843   2.954   5.810  0.0018 -2.9415 -1.0730
 2857SOL    HW2 9097   4.969   2.944   5.894  0.1754  0.7027 -0.7254
 2858SOL     OW 9098   0.290   3.495   7.487  0.0737 -0.1589 -0.1172
 2858SOL    HW1 9099   0.372   3.538   7.462 -0.3574  0.1457 -1.0103
 2858SOL    HW2 9100   0.247   3.556   7.546 -0.0909  0.2248 -0.6316
 2859SOL     OW 9101   2.204   0.802   1.701 -0.6491 -0.1577  0.0878
 2859SOL    HW1 9102   2.179   0.732   1.761 -1.7822  0.8804  0.8637
 2859SOL    HW2 9103   2.183   0.883   1.748  0.2454  0.7093 -0.9474
 2860SOL     OW 9104   2.786   0.624   1.564 -0.3751 -0.4194  0.5112
 2860SOL    HW1 9105   2.742   0.708   1.575 -0.1739  0.1785 -2.3552
 2860SOL    HW2 9106   2.725   0.570   1.514  0.8738 -0.6565 -0.8383
 2861SOL     OW 9107   3.778   0.813   3.319  0.3380  0.2877 -0.0932
 2861SOL    HW1 9108   3.703   0.754   3.314 -0.7119  1.6918 -1.5389
 2861SOL    HW2 9109   3.849   0.764   3.278  0.1136 -0.8388  0.7998
 2862SOL     OW 9110   2.043   0.638   2.033  0.0054 -0.6809 -0.3048
 2862SOL    HW1 9111   1.973   0.574   2.018  1.0625 -1.8390 -0.4887
 2862SOL    HW2 9112   2.111   0.615   1.969  0.8733 -0.0706  0.3724
 2863SOL     OW 9113   4.326   6.706   1.823 -0.1592 -0.1665  0.3729
 2863SOL    HW1 9114   4.296   6.760   1.897 -0.9321  1.0731 -0.7894
 2863SOL    HW2 9115   4.361   6.769   1.760 -0.7884 -1.0474 -0.8945
 2864SOL     OW 9116   2.202   7.039   2.342  0.6021 -0.5498 -0.0604
 2864SOL    HW1 9117   2.213   7.022   2.248  0.1693 -0.4034 -0.1403
 2864SOL    HW2 9118   2.194   6.952   2.381 -0.0011 -0.5953 -0.2651
 2865SOL     OW 9119   7.206   3.342   6.402 -0.2182  0.2075  0.2869
 2865SOL    HW1 9120   7.121   3.382   6.386  0.2457  1.4007  0.6709
 2865SOL    HW2 9121   7.188   3.248   6.407 -1.3431  0.3568 -0.6349
 2866SOL     OW 9122   6.338   3.476   7.422  0.5527  0.3373  0.4955
 2866SOL    HW1 9123   6.263   3.535   7.428 -0.6256 -1.1330  1.0736
 2866SOL    HW2 9124   6.341   3.449   7.330  1.4584  1.6922  0.1007
 2867SOL     OW 9125   4.975   5.947   7.095  0.0602 -0.1741 -0.7875
 2867SOL    HW1 9126   4.994   5.864   7.052  1.6768  0.1483 -0.7518
 2867SOL    HW2 9127   5.059   5.992   7.101 -0.2177  0.1999  1.8550
 2868SOL     OW 9128   4.272   3.118   7.283  0.2181 -0.3175  0.2093
 2868SOL    HW1 9129   4.232   3.044   7.329 -1.6873  0.7655  0.3700
 2868SOL    HW2 9130   4.332   3.156   7.347  0.2459 -0.9356  0.5652
 2869SOL     OW 9131   7.537   3.900   5.497  0.8874  0.2407 -1.0220
 2869SOL    HW1 9132   7.591   3.836   5.541  0.3646 -0.4073 -1.3049
 2869SOL    HW2 9133   7.567   3.985   5.531  1.4152 -0.1618 -0.4690
 2870SOL     OW 9134   1.686   0.695   1.907  0.2310  0.6366  0.3682
 2870SOL    HW1 9135   1.767   0.735   1.938 -0.1094  1.8185 -0.2418
 2870SOL    HW2 9136   1.684   0.609   1.950  2.1872  0.2680 -0.2125
 2871SOL     OW 9137   5.169   6.290   1.047  0.2130 -0.0270 -0.1303
 2871SOL    HW1 9138   5.131   6.310   0.962  0.4385  0.6182 -0.0889
 2871SOL    HW2 9139   5.151   6.368   1.100  1.0812  0.0627  0.0605
 2872SOL     OW 9140   0.421   7.312   5.441 -0.2383  0.2725 -0.0804
 2872SOL    HW1 9141   0.384   7.314   5.353 -0.5564 -1.5334 -0.0303
 2872SOL    HW2 9142   0.364   7.251   5.489  0.6904  0.2397  1.0184
 2873SOL     OW 9143   0.212   1.695   5.189  0.5810 -0.1408  0.4349
 2873SOL    HW1 9144   0.257   1.654   5.115 -0.5993 -0.7107  0.0145
 2873SOL    HW2 9145   0.282   1.716   5.250  1.4294 -0.9734 -0.2161
 2874SOL     OW 9146   3.467   0.441   4.529 -0.0660 -0.0267 -0.5177
 2874SOL    HW1 9147   3.497   0.511   4.587 -1.9504  0.0792  0.4046
 2874SOL    HW2 9148   3.451   0.367   4.588 -2.4322  0.2102 -0.7801
 2875SOL     OW 9149   3.888   0.478   6.955  0.3502 -0.1085 -0.6194
 2875SOL    HW1 9150   3.804   0.451   6.993 -0.2909  0.4381 -1.6254
 2875SOL    HW2 9151   3.953   0.423   7.000 -0.5555 -0.6743  0.0318
 2876SOL     OW 9152   1.454   4.811   2.571  0.0719  0.2045  0.0420
 2876SOL    HW1 9153   1.447   4.742   2.505 -0.2463 -0.5573  0.8414
 2876SOL    HW2 9154   1.364   4.835   2.590  0.1618  0.4412  0.1664
 2877SOL     OW 9155   3.369   4.932   3.672  0.5493  0.5805  0.2873
 2877SOL    HW1 9156   3.361   4.841   3.701  0.2703  1.2046  2.3295
 2877SOL    HW2 9157   3.281   4.957   3.646 -0.0351  1.0998  2.5512
 2878SOL     OW 9158   6.175   6.602   1.963 -0.9749 -0.3888 -0.2292
 2878SOL    HW1 9159   6.260   6.559   1.957 -1.0693 -1.0802  2.4043
 2878SOL    HW2 9160   6.126   6.569   1.887  0.8588 -0.4050 -1.4745
 2879SOL     OW 9161   0.704   1.346   1.808 -0.6515  0.4673 -0.1042
 2879SOL    HW1 9162   0.793   1.371   1.833  0.3111 -1.3511 -1.5528
 2879SOL    HW2 9163   0.686   1.269   1.861 -1.0552  0.3545 -0.4073
 2880SOL     OW 9164   1.123   6.066   4.192 -0.6177  0.1553  0.1326
 2880SOL    HW1 9165   1.177   6.006   4.140 -0.3834  0.2901  0.2155
 2880SOL    HW2 9166   1.130   6.150   4.148  1.0184  0.7010  1.3267
 2881SOL     OW 9167   1.526   6.815   0.141 -0.5317 -0.4110 -0.5552
 2881SOL    HW1 9168   1.579   6.894   0.135 -1.1703 -0.0265 -1.2501
 2881SOL    HW2 9169   1.561   6.757   0.073 -0.0292 -0.7659 -0.0122
 2882SOL     OW 9170   1.544   5.561   0.165 -0.0145 -0.3356 -0.1683
 2882SOL    HW1 9171   1.596   5.522   0.095  0.0725  0.2730 -0.4454
 2882SOL    HW2 9172   1.530   5.489   0.227  3.1502  0.0065  1.1160
 2883SOL     OW 9173   2.114   4.736   2.055  0.6179 -0.3446 -0.1592
 2883SOL    HW1 9174   2.167   4.684   2.114 -0.7264 -0.8791  0.6293
 2883SOL    HW2 9175   2.024   4.716   2.080  0.0394  1.7438 -0.3566
 2884SOL     OW 9176   1.845   1.843   6.929 -0.2115 -0.5385  0.2098
 2884SOL    HW1 9177   1.884   1.872   6.846  1.1783 -1.7716  0.3940
 2884SOL    HW2 9178   1.760   1.888   6.933  0.4073  0.8190 -1.0858
 2885SOL     OW 9179   4.373   0.574   2.964 -0.1656  0.5869  0.5200
 2885SOL    HW1 9180   4.280   0.594   2.973  0.0246  0.9037  1.9191
 2885SOL    HW2 9181   4.383   0.546   2.872 -1.8325 -0.4993  0.6308
 2886SOL     OW 9182   7.121   0.773   3.097 -0.3622  0.0232  0.0605
 2886SOL    HW1 9183   7.047   0.788   3.156 -0.1983 -0.8321  0.4909
 2886SOL    HW2 9184   7.178   0.849   3.111 -1.0719  0.6166 -0.1673
 2887SOL     OW 9185   6.410   0.719   1.681  0.3491 -0.4108 -0.0899
 2887SOL    HW1 9186   6.382   0.641   1.634 -1.0662  0.3842 -0.6113
 2887SOL    HW2 9187   6.436   0.781   1.613  1.1776 -0.3104  0.3035
 2888SOL     OW 9188   6.432   4.016   0.848  0.1955  0.2425  0.1505
 2888SOL    HW1 9189   6.509   4.036   0.794  0.1984  1.2386  0.4953
 2888SOL    HW2 9190   6.386   3.948   0.800  1.0015  0.0225 -0.3412
 2889SOL     OW 9191   4.342   5.274   7.023  0.2509 -0.2110 -0.2109
 2889SOL    HW1 9192   4.320   5.183   7.044 -0.0455 -0.0622  0.1365
 2889SOL    HW2 9193   4.355   5.274   6.929 -1.1800 -0.3312 -0.4367
 2890SOL     OW 9194   4.299   6.641   6.383  0.2764  0.2072  0.7506
 2890SOL    HW1 9195   4.217   6.609   6.345  1.3597 -1.0880 -0.6137
 2890SOL    HW2 9196   4.303   6.599   6.469  0.3509 -1.1954  0.0956
 2891SOL     OW 9197   7.142   0.750   5.972  0.4500  0.0600 -0.6541
 2891SOL    HW1 9198   7.149   0.655   5.969  1.7282 -0.0268  1.7971
 2891SOL    HW2 9199   7.051   0.769   5.952 -0.7657 -2.0264  2.2637
 2892SOL     OW 9200   5.207   0.407   5.274 -0.3470 -0.2989  0.3057
 2892SOL    HW1 9201   5.218   0.491   5.230 -1.4624  0.4506  1.3709
 2892SOL    HW2 9202   5.197   0.343   5.204 -1.7799  0.8076 -0.5499
 2893SOL     OW 9203   3.464   0.335   1.331 -0.2788  0.7382 -0.2560
 2893SOL    HW1 9204   3.456   0.264   1.395 -0.7027  1.2311  0.2512
 2893SOL    HW2 9205   3.394   0.319   1.268 -0.1750  0.5318 -0.3210
 2894SOL     OW 9206   0.504   2.436   0.276  0.2126 -0.0499 -0.4850
 2894SOL    HW1 9207   0.522   2.529   0.260  0.3325  0.1298  0.6528
 2894SOL    HW2 9208   0.553   2.415   0.354  0.9240 -1.3316 -1.2486
 2895SOL     OW 9209   2.734   2.587   0.894 -0.3486  0.1147 -0.1995
 2895SOL    HW1 9210   2.672   2.577   0.822  1.2318 -1.4555 -1.4335
 2895SOL    HW2 9211   2.759   2.498   0.917  1.0014  0.6726  0.6465
 2896SOL     OW 9212   7.217   7.553   3.515 -0.0618  0.1625 -0.3169
 2896SOL    HW1 9213   7.259   7.549   3.429  2.6148 -0.3097  0.8771
 2896SOL    HW2 9214   7.207   7.461   3.540 -0.7442  0.2991 -0.0736
 2897SOL     OW 9215   6.658   2.105   5.950 -0.2700  0.1512 -0.3293
 2897SOL    HW1 9216   6.708   2.041   6.000 -3.2882 -1.7724  0.5469
 2897SOL    HW2 9217   6.588   2.054   5.909 -0.8907  2.4479 -2.3767
 2898SOL     OW 9218   5.743   1.563   0.603  0.0698 -0.1590  0.0018
 2898SOL    HW1 9219   5.802   1.489   0.618  0.2397  0.2119  1.2339
 2898SOL    HW2 9220   5.744   1.611   0.685 -0.8892  0.6178 -0.4316
 2899SOL     OW 9221   2.617   3.163   7.364 -0.3216 -0.0053 -0.0987
 2899SOL    HW1 9222   2.643   3.249   7.331 -2.2759  0.9148  0.6087
 2899SOL    HW2 9223   2.531   3.177   7.403 -0.3754 -2.1443  0.6996
 2900SOL     OW 9224   4.944   5.078   4.757  0.0114 -0.4639  0.0461
 2900SOL    HW1 9225   4.866   5.133   4.746  0.5560  0.2612 -0.2435
 2900SOL    HW2 9226   4.909   4.989   4.762 -0.7218 -0.3623 -2.0502
 2901SOL     OW 9227   2.100   5.974   1.318 -0.1204  0.1000 -0.2428
 2901SOL    HW1 9228   2.187   5.958   1.356  0.5571  0.8130 -1.4414
 2901SOL    HW2 9229   2.076   6.061   1.350  0.6203  0.8664 -1.7014
 2902SOL     OW 9230   2.002   5.007   5.555  0.6516 -0.1805 -0.1610
 2902SOL    HW1 9231   2.097   5.009   5.542  0.6035 -2.0711 -1.2234
 2902SOL    HW2 9232   1.975   4.923   5.517 -1.1293 -0.8457  2.3406
 2903SOL     OW 9233   5.861   5.260   4.851  0.5930 -0.5921  0.0730
 2903SOL    HW1 9234   5.768   5.255   4.872  0.3714 -1.2239 -0.9854
 2903SOL    HW2 9235   5.885   5.350   4.873 -0.4602 -0.1737 -0.3930
 2904SOL     OW 9236   5.632   5.867   3.009  0.0761 -0.1827  0.1232
 2904SOL    HW1 9237   5.578   5.824   3.076  0.4473 -0.2834  0.3569
 2904SOL    HW2 9238   5.586   5.849   2.927 -0.4777  0.0917  0.3661
 2905SOL     OW 9239   6.931   4.669   5.978  0.5624  0.4734  0.1662
 2905SOL    HW1 9240   7.005   4.716   5.939  1.1207  0.2653  0.9511
 2905SOL    HW2 9241   6.860   4.733   5.979  0.8977  0.8554 -0.0875
 2906SOL     OW 9242   3.988   2.377   4.294 -0.0497  0.3926  0.3162
 2906SOL    HW1 9243   3.965   2.446   4.356 -0.5540  1.2756 -0.8049
 2906SOL    HW2 9244   3.938   2.399   4.215  2.1512  0.5166 -1.1366
 2907SOL     OW 9245   0.996   4.544   5.349  0.3813 -0.2730  0.3127
 2907SOL    HW1 9246   1.046   4.626   5.353 -2.3050  1.5371 -0.0408
 2907SOL    HW2 9247   0.975   4.524   5.440  1.2064 -0.7351  0.4168
 2908SOL     OW 9248   4.903   0.996   4.744 -0.1963  1.1511  0.0733
 2908SOL    HW1 9249   4.879   0.907   4.718  0.2030  1.1678 -0.3891
 2908SOL    HW2 9250   4.991   1.008   4.707 -1.4662  2.8944 -2.7883
 2909SOL     OW 9251   5.133   6.631   7.049 -0.1754 -0.2260  0.5691
 2909SOL    HW1 9252   5.207   6.689   7.068 -0.4146  0.8198 -1.4604
 2909SOL    HW2 9253   5.173   6.552   7.014  0.0460 -0.5250  1.4543
 2910SOL     OW 9254   4.808   2.754   6.824  0.2174 -0.0442 -0.0094
 2910SOL    HW1 9255   4.737   2.695   6.800 -1.6739  1.5160  1.3931
 2910SOL    HW2 9256   4.786   2.784   6.913  2.7352  0.3838  0.5520
 2911SOL     OW 9257   2.199   0.177   6.614 -0.1800  0.1601 -0.3260
 2911SOL    HW1 9258   2.278   0.201   6.565 -0.0944 -1.0257 -0.8139
 2911SOL    HW2 9259   2.228   0.109   6.674 -0.3464  1.4297  1.2477
 2912SOL     OW 9260   0.928   0.820   4.668  0.0978 -0.4610  0.2776
 2912SOL    HW1 9261   0.980   0.900   4.665 -1.1916  0.4207  0.6414
 2912SOL    HW2 9262   0.973   0.764   4.731  0.4564  0.3928  0.7997
 2913SOL     OW 9263   5.488   2.026   5.030  0.5757  0.2241 -0.2067
 2913SOL    HW1 9264   5.566   1.983   5.065 -0.4618  1.2842  4.0498
 2913SOL    HW2 9265   5.522   2.099   4.979  2.2852 -1.2054 -1.2514
 2914SOL     OW 9266   2.860   1.445   1.583 -0.0284 -1.1439  0.3619
 2914SOL    HW1 9267   2.774   1.465   1.545  0.8760 -1.9919 -2.3341
 2914SOL    HW2 9268   2.869   1.507   1.656 -3.3789 -1.7969  1.5118
 2915SOL     OW 9269   0.102   6.204   1.096  0.2229 -0.3045 -0.3878
 2915SOL    HW1 9270   0.008   6.192   1.085 -0.0199  0.9269  0.1786
 2915SOL    HW2 9271   0.141   6.125   1.059 -1.0246 -0.7844 -0.7166
 2916SOL     OW 9272   2.308   6.739   6.103  0.1924 -0.6287 -0.5437
 2916SOL    HW1 9273   2.357   6.689   6.168 -0.5537 -2.0546 -1.0308
 2916SOL    HW2 9274   2.220   6.700   6.103 -0.6000  1.0608 -0.5604
 2917SOL     OW 9275   4.936   4.582   5.135  1.0273 -0.2933  0.0477
 2917SOL    HW1 9276   4.992   4.511   5.166 -0.5535 -1.8924 -0.5861
 2917SOL    HW2 9277   4.994   4.658   5.131  2.5322 -1.2608  1.7750
 2918SOL     OW 9278   5.150   4.022   7.451  0.5660 -0.4287  0.0044
 2918SOL    HW1 9279   5.073   4.048   7.400  0.5273 -0.3393  0.1088
 2918SOL    HW2 9280   5.128   3.935   7.484  1.1914 -1.1237 -1.3575
 2919SOL     OW 9281   6.427   0.394   2.235 -0.0174  0.5350  0.9572
 2919SOL    HW1 9282   6.385   0.461   2.181  0.9657  0.1806 -0.3001
 2919SOL    HW2 9283   6.498   0.440   2.280 -1.1422  0.9410  2.3987
 2920SOL     OW 9284   2.857   7.043   1.083  0.1422 -0.5420  0.0290
 2920SOL    HW1 9285   2.879   7.110   1.147  0.9842  0.8589 -1.6269
 2920SOL    HW2 9286   2.762   7.050   1.073  0.3945  2.2156 -1.8335
 2921SOL     OW 9287   6.849   2.336   7.195  0.6459  0.1179  0.3235
 2921SOL    HW1 9288   6.805   2.397   7.136  0.7509 -0.5469 -0.4696
 2921SOL    HW2 9289   6.779   2.300   7.250 -0.0122 -1.5123 -1.4355
 2922SOL     OW 9290   1.786   2.415   4.680 -0.2136 -0.0739  0.0248
 2922SOL    HW1 9291   1.791   2.410   4.584 -1.2266  0.3775 -0.0675
 2922SOL    HW2 9292   1.714   2.476   4.697 -1.2002 -1.4734  1.0821
 2923SOL     OW 9293   1.525   4.206   3.837 -0.3021  0.4365  0.3477
 2923SOL    HW1 9294   1.571   4.139   3.786 -1.6288 -0.5150  0.3678
 2923SOL    HW2 9295   1.588   4.232   3.904  0.3326 -0.5917  0.1687
 2924SOL     OW 9296   7.380   2.234   4.815 -0.9730  0.6369 -0.4397
 2924SOL    HW1 9297   7.379   2.194   4.727 -3.7321  0.4572 -0.3982
 2924SOL    HW2 9298   7.325   2.312   4.806  1.0762  2.2696  0.4881
 2925SOL     OW 9299   1.789   4.692   6.521 -0.1226 -0.1694 -0.0477
 2925SOL    HW1 9300   1.876   4.713   6.485 -0.5119 -0.7695 -1.4010
 2925SOL    HW2 9301   1.732   4.688   6.445 -1.0514 -1.2363  0.6726
 2926SOL     OW 9302   1.414   0.453   0.262 -0.0483  0.8810  0.4510
 2926SOL    HW1 9303   1.417   0.360   0.240 -1.7594  0.0243  3.2438
 2926SOL    HW2 9304   1.505   0.481   0.260  0.6406 -1.1631  0.6081
 2927SOL     OW 9305   1.849   7.480   6.600 -0.2229  0.4031 -0.3691
 2927SOL    HW1 9306   1.792   7.408   6.573  0.4768  0.1147 -1.1540
 2927SOL    HW2 9307   1.898   7.502   6.520 -0.5988  1.9245 -0.2179
 2928SOL     OW 9308   5.997   0.304   2.526  0.4326  0.4109 -0.2914
 2928SOL    HW1 9309   5.903   0.295   2.513  0.2888 -0.7005  1.2889
 2928SOL    HW2 9310   6.008   0.320   2.620  1.7947  1.1389 -0.5368
 2929SOL     OW 9311   4.758   5.271   4.705  0.2518  0.0553 -0.2225
 2929SOL    HW1 9312   4.740   5.258   4.612 -0.9921  0.6726 -0.0820
 2929SOL    HW2 9313   4.736   5.362   4.722 -0.2494 -0.2401  0.8331
 2930SOL     OW 9314   3.073   1.015   6.444  0.0550 -0.0929  0.4581
 2930SOL    HW1 9315   3.073   0.929   6.402  1.7479 -0.7194  1.6225
 2930SOL    HW2 9316   3.163   1.027   6.474  0.4658  3.0586 -1.5511
 2931SOL     OW 9317   5.236   2.376   5.102 -0.2024 -0.2738 -0.0824
 2931SOL    HW1 9318   5.186   2.306   5.060  2.8066 -2.9911  0.4690
 2931SOL    HW2 9319   5.189   2.392   5.184 -0.2270 -2.7689  0.4666
 2932SOL     OW 9320   4.847   0.673   6.831 -0.0199  0.0143 -0.1788
 2932SOL    HW1 9321   4.755   0.696   6.847 -0.6380 -0.1491 -2.9922
 2932SOL    HW2 9322   4.886   0.754   6.797  1.0340  0.1704  1.2694
 2933SOL     OW 9323   4.174   3.160   2.246 -0.2832 -0.0725  0.2689
 2933SOL    HW1 9324   4.230   3.148   2.323  1.0641 -1.2077 -0.8350
 2933SOL    HW2 9325   4.202   3.091   2.185 -2.1939 -0.0147 -0.7459
 2934SOL     OW 9326   3.196   2.294   6.746 -0.0054 -0.3864  0.6026
 2934SOL    HW1 9327   3.263   2.342   6.795 -0.6452 -0.0459  1.1580
 2934SOL    HW2 9328   3.243   2.258   6.670  1.4064 -2.4162  2.3199
 2935SOL     OW 9329   5.748   7.159   2.100  0.1471 -0.3071  0.1030
 2935SOL    HW1 9330   5.770   7.219   2.171  1.1594 -0.0149 -0.4322
 2935SOL    HW2 9331   5.786   7.075   2.127 -1.0657 -0.6764  0.7424
 2936SOL     OW 9332   5.628   3.508   6.099  0.0519 -0.1213 -0.5188
 2936SOL    HW1 9333   5.539   3.488   6.131 -1.0495  1.2631 -2.5341
 2936SOL    HW2 9334   5.634   3.603   6.103  0.6677 -0.0549 -2.2941
 2937SOL     OW 9335   3.443   3.548   1.972 -0.1175 -0.6328  0.2408
 2937SOL    HW1 9336   3.469   3.625   1.922 -0.7118  0.0052  0.8838
 2937SOL    HW2 9337   3.523   3.520   2.016  0.6507 -1.7575 -1.7151
 2938SOL     OW 9338   5.392   6.067   3.120  0.5204  0.1670  0.1877
 2938SOL    HW1 9339   5.364   6.022   3.040  1.4053 -0.4288  0.2090
 2938SOL    HW2 9340   5.440   6.001   3.170 -0.5184  0.3564  1.4981
 2939SOL     OW 9341   5.412   6.316   3.372 -0.1956 -0.3013  0.5340
 2939SOL    HW1 9342   5.414   6.334   3.278  1.7628 -0.8607  0.4202
 2939SOL    HW2 9343   5.321   6.296   3.391 -0.6214 -0.1942 -1.2604
 2940SOL     OW 9344   5.179   6.944   2.038 -0.1323  0.0250 -0.4415
 2940SOL    HW1 9345   5.271   6.962   2.019 -0.2565  0.8086 -0.3148
 2940SOL    HW2 9346   5.179   6.910   2.127 -0.1197  1.5011  0.1463
 2941SOL     OW 9347   7.452   7.418   0.886  0.1870  0.1882  0.3273
 2941SOL    HW1 9348   7.439   7.486   0.820  0.8148 -0.5639 -0.5944
 2941SOL    HW2 9349   7.385   7.353   0.867  1.6618 -1.0479 -0.9571
 2942SOL     OW 9350   1.051   5.887   3.514  0.0149  0.2874  0.4639
 2942SOL    HW1 9351   1.139   5.921   3.494 -0.7535  1.5837 -0.9353
 2942SOL    HW2 9352   1.020   5.941   3.587 -0.1077  0.7127  0.1023
 2943SOL     OW 9353   4.672   5.375   3.096  0.5411 -0.3082 -0.1692
 2943SOL    HW1 9354   4.698   5.449   3.042 -2.0060  1.0748  0.3313
 2943SOL    HW2 9355   4.706   5.298   3.050  1.0228  0.9928 -2.1082
 2944SOL     OW 9356   2.451   7.329   5.981 -0.0492  0.4942 -0.1277
 2944SOL    HW1 9357   2.514   7.352   6.051 -0.3464 -0.6015  0.5300
 2944SOL    HW2 9358   2.447   7.234   5.984 -1.2066  0.5169 -0.6575
 2945SOL     OW 9359   0.480   6.894   5.891 -0.0074  0.1942 -0.7646
 2945SOL    HW1 9360   0.562   6.922   5.932  0.3558 -1.6347 -0.1784
 2945SOL    HW2 9361   0.492   6.801   5.874 -1.4839  0.1739 -1.8700
 2946SOL     OW 9362   5.244   6.282   6.303 -0.0674 -0.1410 -0.1828
 2946SOL    HW1 9363   5.273   6.258   6.391  1.3466  0.3682 -0.4855
 2946SOL    HW2 9364   5.228   6.377   6.308 -0.8336 -0.2632 -0.2534
 2947SOL     OW 9365   2.554   1.742   7.295 -0.6591 -0.0855  0.2305
 2947SOL    HW1 9366   2.474   1.718   7.342 -0.5437  0.2255  0.5963
 2947SOL    HW2 9367   2.528   1.816   7.239 -0.4094  0.6669  1.0865
 2948SOL     OW 9368   4.202   4.633   0.647 -0.0736  0.0866 -0.2107
 2948SOL    HW1 9369   4.162   4.687   0.715  0.7256  1.1048 -0.5248
 2948SOL    HW2 9370   4.131   4.616   0.585 -0.0058  2.1643 -0.9491
 2949SOL     OW 9371   1.171   7.408   0.023  0.9102  0.0992  0.1379
 2949SOL    HW1 9372   1.214   7.357  -0.046 -0.4367  0.9608 -1.4217
 2949SOL    HW2 9373   1.091   7.361   0.041  1.4154 -0.3025  1.4003
 2950SOL     OW 9374   1.863   3.126   6.218  0.0862  0.1346  0.6681
 2950SOL    HW1 9375   1.949   3.105   6.182  0.4399  0.4134  1.3170
 2950SOL    HW2 9376   1.801   3.091   6.155  0.6704 -0.7423  0.5527
 2951SOL     OW 9377   1.589   5.217   6.973  0.3013 -0.0724  0.1863
 2951SOL    HW1 9378   1.559   5.223   7.063 -0.1779  2.9155 -0.0608
 2951SOL    HW2 9379   1.663   5.278   6.968 -1.8670  2.6633 -2.1059
 2952SOL     OW 9380   6.724   1.403   5.329 -0.6379  0.2648 -0.0125
 2952SOL    HW1 9381   6.669   1.470   5.370 -1.1517  0.7704 -1.4984
 2952SOL    HW2 9382   6.761   1.355   5.403 -0.3436  2.1011  1.1100
 2953SOL     OW 9383   2.277   3.262   5.817  0.1611  0.1238 -0.0102
 2953SOL    HW1 9384   2.268   3.230   5.727 -1.1923  2.1999 -0.6838
 2953SOL    HW2 9385   2.219   3.338   5.821  1.2644  0.9240  2.2268
 2954SOL     OW 9386   0.032   0.809   3.661  0.0091 -0.0505  0.1720
 2954SOL    HW1 9387  -0.059   0.782   3.673  0.3169 -1.0224  0.3994
 2954SOL    HW2 9388   0.045   0.877   3.727 -0.4731 -0.1054  0.3333
 2955SOL     OW 9389   1.886   2.070   4.058  0.2860  0.2033  0.5324
 2955SOL    HW1 9390   1.961   2.018   4.084  0.7674  1.0918  0.9558
 2955SOL    HW2 9391   1.829   2.008   4.012  1.5414 -0.3435 -0.3347
 2956SOL     OW 9392   4.532   1.074   7.300  0.0661  0.6847  0.3139
 2956SOL    HW1 9393   4.513   1.109   7.213 -0.9469  2.0146  1.0398
 2956SOL    HW2 9394   4.618   1.033   7.291 -0.9003 -1.0826 -1.8337
 2957SOL     OW 9395   1.550   3.108   5.033 -0.2667  0.8033  0.1192
 2957SOL    HW1 9396   1.539   3.143   4.944 -0.3034  1.0275  0.2093
 2957SOL    HW2 9397   1.468   3.062   5.051  0.8844 -1.9167 -1.1184
 2958SOL     OW 9398   7.418   6.407   3.439 -0.0625 -0.1840 -0.0451
 2958SOL    HW1 9399   7.503   6.378   3.471 -0.0178 -0.9833 -0.8295
 2958SOL    HW2 9400   7.354   6.364   3.497  0.0576  0.3321  0.4776
 2959SOL     OW 9401   1.859   6.009   2.056  0.3756  0.1034  0.1684
 2959SOL    HW1 9402   1.832   6.022   1.965 -0.5611 -0.5100  0.3379
 2959SOL    HW2 9403   1.880   6.096   2.088  1.8793  0.2009 -0.9770
 2960SOL     OW 9404   1.839   4.970   0.400 -0.4247  0.1237  0.5493
 2960SOL    HW1 9405   1.890   4.892   0.423 -1.1034 -0.9220 -1.2887
 2960SOL    HW2 9406   1.894   5.016   0.336 -0.6453  0.4012  0.5577
 2961SOL     OW 9407   2.349   1.526   5.194  0.4347  0.5173 -0.3072
 2961SOL    HW1 9408   2.344   1.512   5.099  1.5171 -1.4676 -0.1278
 2961SOL    HW2 9409   2.441   1.514   5.215  0.1440  0.5390  1.0542
 2962SOL     OW 9410   5.128   6.301   5.989 -0.0490  0.4348 -0.0919
 2962SOL    HW1 9411   5.112   6.207   6.000  0.0970  0.5176  0.8768
 2962SOL    HW2 9412   5.223   6.309   5.986 -0.0285  0.6644  0.9387
 2963SOL     OW 9413   2.433   1.458   4.754  0.2728  0.3130 -0.0677
 2963SOL    HW1 9414   2.359   1.403   4.779  0.3981  0.0476 -0.2822
 2963SOL    HW2 9415   2.398   1.517   4.688  0.1005  0.5963  0.2699
 2964SOL     OW 9416   6.940   6.495   4.728 -0.5288  0.6711 -0.4352
 2964SOL    HW1 9417   6.870   6.460   4.784 -0.2637 -1.6905 -1.4916
 2964SOL    HW2 9418   7.018   6.494   4.783 -0.4338 -0.9035 -0.5586
 2965SOL     OW 9419   5.793   3.650   3.869  0.0744  0.2669  0.0649
 2965SOL    HW1 9420   5.840   3.667   3.788 -0.4575 -1.0355 -0.5371
 2965SOL    HW2 9421   5.811   3.559   3.889 -1.3246  0.0277  0.3809
 2966SOL     OW 9422   5.594   7.320   6.919 -0.2519 -0.6726  0.3262
 2966SOL    HW1 9423   5.685   7.350   6.910 -0.0993 -1.1785  0.1367
 2966SOL    HW2 9424   5.541   7.395   6.892  0.0800  0.0039  1.4631
 2967SOL     OW 9425   6.803   5.017   1.940 -0.1354  0.0668  0.0888
 2967SOL    HW1 9426   6.819   5.085   2.005 -3.6739  1.7455 -0.5371
 2967SOL    HW2 9427   6.762   4.946   1.988  1.7009 -0.8308  0.4019
 2968SOL     OW 9428   1.076   3.660   3.877  0.8064  0.2356  0.0489
 2968SOL    HW1 9429   1.117   3.740   3.909  1.6757 -0.5824  1.0704
 2968SOL    HW2 9430   0.988   3.687   3.851  0.9212  1.4322  0.8228
 2969SOL     OW 9431   3.705   7.228   2.878  0.4325 -0.0794  0.5217
 2969SOL    HW1 9432   3.716   7.238   2.973  0.5725  0.2850  0.4699
 2969SOL    HW2 9433   3.620   7.268   2.860  0.4805 -0.0019  0.4698
 2970SOL     OW 9434   7.352   0.162   2.444 -0.3690 -0.4061  0.2830
 2970SOL    HW1 9435   7.369   0.069   2.462 -1.0289 -0.3923  1.0762
 2970SOL    HW2 9436   7.382   0.175   2.355 -0.9392 -1.5759 -0.1032
 2971SOL     OW 9437   1.195   2.960   2.025 -0.3771 -0.5522  0.6113
 2971SOL    HW1 9438   1.145   2.884   1.997 -1.4853 -0.1101  1.3101
 2971SOL    HW2 9439   1.286   2.931   2.026 -0.7346 -1.7079  0.3862
 2972SOL     OW 9440   1.278   1.522   6.761 -0.3238  0.3976  0.3723
 2972SOL    HW1 9441   1.219   1.469   6.816  0.8129  0.0156  1.2570
 2972SOL    HW2 9442   1.365   1.488   6.779  0.2272  1.2512 -0.5878
 2973SOL     OW 9443   6.939   3.770   2.210 -0.4191 -0.2464  0.5394
 2973SOL    HW1 9444   6.984   3.843   2.252  1.9228  0.1574 -2.2683
 2973SOL    HW2 9445   6.917   3.803   2.122 -2.7908 -1.7502  0.4901
 2974SOL     OW 9446   5.352   5.015   1.525 -0.4531  0.1761  0.1773
 2974SOL    HW1 9447   5.334   4.952   1.595 -0.3047  1.2259  1.1904
 2974SOL    HW2 9448   5.371   5.097   1.570  0.4481  0.6982 -1.0791
 2975SOL     OW 9449   5.088   6.518   2.756  0.5817 -0.1713 -0.3041
 2975SOL    HW1 9450   5.060   6.535   2.846  1.0885  2.0127 -0.5005
 2975SOL    HW2 9451   5.124   6.429   2.758 -1.6279 -1.1139  1.0619
 2976SOL     OW 9452   0.883   7.440   6.297  0.3992 -0.0679  0.1335
 2976SOL    HW1 9453   0.973   7.437   6.328  0.4969 -1.0506 -0.2028
 2976SOL    HW2 9454   0.865   7.351   6.267  0.1775  0.6939 -2.2094
 2977SOL     OW 9455   5.358   6.995   6.477 -0.3434 -0.1651  0.2563
 2977SOL    HW1 9456   5.368   6.919   6.419 -0.1995 -0.7059  0.9616
 2977SOL    HW2 9457   5.278   7.037   6.448  0.3296  0.2566 -1.0763
 2978SOL     OW 9458   2.136   4.132   1.032  0.5601 -0.0978  0.6641
 2978SOL    HW1 9459   2.162   4.182   1.109  4.3390  0.6578 -0.9141
 2978SOL    HW2 9460   2.198   4.059   1.028 -0.0570 -0.5783 -1.2527
 2979SOL     OW 9461   2.488   0.670   4.520 -0.6422  0.1450 -0.5011
 2979SOL    HW1 9462   2.410   0.630   4.482 -0.6292  0.5894 -1.0094
 2979SOL    HW2 9463   2.544   0.596   4.544 -0.3334 -0.1534 -2.0284
 2980SOL     OW 9464   5.074   3.087   3.743 -0.0727  0.2512  0.1216
 2980SOL    HW1 9465   5.116   3.172   3.736  0.7438 -0.2182 -0.8988
 2980SOL    HW2 9466   5.127   3.040   3.808 -0.6295  0.5679  0.8184
 2981SOL     OW 9467   1.658   4.137   3.243 -0.4957  0.2476 -0.3772
 2981SOL    HW1 9468   1.723   4.073   3.216  0.4829  0.5176  1.1998
 2981SOL    HW2 9469   1.644   4.192   3.166  2.0610  0.9191 -0.4635
 2982SOL     OW 9470   4.175   4.103   0.462  0.3899 -0.4061  0.6881
 2982SOL    HW1 9471   4.183   4.169   0.393 -0.1236 -0.6024  0.4420
 2982SOL    HW2 9472   4.084   4.075   0.459  0.5734 -1.0386  0.8762
 2983SOL     OW 9473   6.818   6.342   4.515 -0.4749 -0.4079 -0.1235
 2983SOL    HW1 9474   6.800   6.262   4.564 -0.9629  0.3356  0.9542
 2983SOL    HW2 9475   6.886   6.386   4.565  0.6181 -0.6802 -1.3391
 2984SOL     OW 9476   5.910   7.186   5.016  0.2581  0.3087  0.3157
 2984SOL    HW1 9477   5.837   7.247   5.008  0.6417  0.9327  1.3775
 2984SOL    HW2 9478   5.930   7.184   5.110  1.0802 -0.4719  0.1428
 2985SOL     OW 9479   4.270   5.272   1.471  0.1230  0.2894  0.1105
 2985SOL    HW1 9480   4.294   5.362   1.492 -0.8377  0.4884  0.4586
 2985SOL    HW2 9481   4.259   5.271   1.376  1.4542  0.1873 -0.0522
 2986SOL     OW 9482   6.605   5.522   6.871 -0.0390  0.4092 -0.1361
 2986SOL    HW1 9483   6.511   5.532   6.857  0.0285  0.6145 -0.4441
 2986SOL    HW2 9484   6.633   5.459   6.805 -0.3353 -1.3280  1.3448
 2987SOL     OW 9485   2.975   0.571   1.743 -0.6282 -0.2225  0.2169
 2987SOL    HW1 9486   2.990   0.479   1.762  1.4089  0.0406  0.0248
 2987SOL    HW2 9487   2.892   0.572   1.695 -0.9681 -1.8716  0.7111
 2988SOL     OW 9488   4.392   3.592   1.022 -0.3003 -0.3740  0.1722
 2988SOL    HW1 9489   4.377   3.663   0.959 -0.8297 -0.9015 -0.3095
 2988SOL    HW2 9490   4.353   3.624   1.103 -0.4647 -0.0849 -0.0163
 2989SOL     OW 9491   7.091   2.784   6.319 -0.0704 -0.3513  0.1041
 2989SOL    HW1 9492   7.184   2.760   6.322 -0.1694 -0.8897 -0.7560
 2989SOL    HW2 9493   7.088   2.858   6.258 -0.1639 -0.0810  0.4324
 2990SOL     OW 9494   1.897   7.212   3.028 -0.2698 -0.7026  0.1683
 2990SOL    HW1 9495   1.971   7.270   3.008 -0.7797 -0.2046 -0.3199
 2990SOL    HW2 9496   1.925   7.164   3.105  0.5611 -0.5084  0.0038
 2991SOL     OW 9497   5.361   0.769   7.199 -0.6268 -0.2451 -0.3844
 2991SOL    HW1 9498   5.450   0.762   7.163  0.0273  0.8157  0.9772
 2991SOL    HW2 9499   5.308   0.717   7.138  0.9022 -0.8939 -1.2455
 2992SOL     OW 9500   3.575   0.349   1.018  0.1066  0.1883  0.1594
 2992SOL    HW1 9501   3.588   0.377   1.109  1.4232 -0.1906  0.1014
 2992SOL    HW2 9502   3.654   0.299   0.997  0.6779  1.7869 -1.7674
 2993SOL     OW 9503   6.882   5.552   5.765  0.0782  0.6140 -0.3793
 2993SOL    HW1 9504   6.948   5.620   5.768  1.2711 -0.5133 -0.3193
 2993SOL    HW2 9505   6.859   5.536   5.857  2.4870 -1.5378 -0.0311
 2994SOL     OW 9506   7.359   3.770   5.367 -0.1024  0.0310  0.0452
 2994SOL    HW1 9507   7.384   3.683   5.398  1.6760  0.8160  0.9583
 2994SOL    HW2 9508   7.419   3.829   5.411 -1.5013  1.7829 -0.2824
 2995SOL     OW 9509   5.874   6.317   1.300 -0.3901  0.6019 -0.4161
 2995SOL    HW1 9510   5.863   6.274   1.215 -1.0899 -0.0282 -0.0272
 2995SOL    HW2 9511   5.786   6.349   1.322 -0.3569  0.1858  0.3545
 2996SOL     OW 9512   7.454   1.870   5.990  0.1678  0.4748  0.4257
 2996SOL    HW1 9513   7.434   1.778   5.973  0.6249  0.6279 -1.0701
 2996SOL    HW2 9514   7.408   1.918   5.922  3.3530  1.0191 -1.5480
 2997SOL     OW 9515   0.890   5.591   1.200  0.1291  0.0410 -0.2520
 2997SOL    HW1 9516   0.972   5.554   1.233 -0.3402 -1.1554 -0.3643
 2997SOL    HW2 9517   0.899   5.685   1.212  0.8561 -0.1940  1.2776
 2998SOL     OW 9518   2.374   3.239   1.667  0.3697  0.4976  0.3577
 2998SOL    HW1 9519   2.413   3.298   1.603  0.1328  0.9989  0.6693
 2998SOL    HW2 9520   2.443   3.223   1.732  0.0661  1.3994  0.9198
 2999SOL     OW 9521   2.169   5.210   5.812 -0.4991 -0.5954  0.4637
 2999SOL    HW1 9522   2.256   5.236   5.844  0.5824 -1.3056 -1.7489
 2999SOL    HW2 9523   2.156   5.123   5.848  0.3872 -1.0966 -0.3936
 3000SOL     OW 9524   3.179   3.707   1.614  0.8513 -0.2244  0.1508
 3000SOL    HW1 9525   3.265   3.716   1.574  0.4685 -2.2920 -1.2805
 3000SOL    HW2 9526   3.173   3.781   1.674  3.7895 -0.2794  0.6579
 3001SOL     OW 9527   7.476   6.814   0.521 -0.3245 -0.0999  0.4403
 3001SOL    HW1 9528   7.526   6.785   0.445 -0.7566 -1.4019  0.6206
 3001SOL    HW2 9529   7.451   6.733   0.565  0.2506  0.6295  2.1936
 3002SOL     OW 9530   2.594   2.221   3.336 -0.0339  0.3116 -0.4563
 3002SOL    HW1 9531   2.507   2.233   3.297 -0.5262  0.4421  0.6389
 3002SOL    HW2 9532   2.576   2.187   3.423  0.9835  1.1605  0.1047
 3003SOL     OW 9533   6.732   4.002   4.189 -0.0903 -0.5862  0.6359
 3003SOL    HW1 9534   6.779   4.078   4.225  0.2890 -0.9563  0.9307
 3003SOL    HW2 9535   6.761   3.929   4.243 -0.4871 -0.9360  0.3743
 3004SOL     OW 9536   0.422   7.091   7.010  0.1644  0.0324  0.0527
 3004SOL    HW1 9537   0.378   7.176   7.003  1.7843  0.7678 -2.4098
 3004SOL    HW2 9538   0.503   7.110   7.056 -0.3935 -0.6486  1.3856
 3005SOL     OW 9539   6.685   1.522   4.366  0.2465 -0.4727  0.0954
 3005SOL    HW1 9540   6.737   1.550   4.441 -0.8662  0.4778  0.5367
 3005SOL    HW2 9541   6.624   1.594   4.350  0.1232 -0.8658 -1.4204
 3006SOL     OW 9542   4.039   4.656   1.168 -0.4746 -0.5497 -0.1923
 3006SOL    HW1 9543   4.011   4.746   1.151  0.3087  0.0268  1.3103
 3006SOL    HW2 9544   3.967   4.617   1.218  0.4191  0.2603  1.8303
 3007SOL     OW 9545   4.634   0.430   1.544 -0.1649 -0.6539  0.0772
 3007SOL    HW1 9546   4.619   0.496   1.476 -0.8845 -0.3477  0.5155
 3007SOL    HW2 9547   4.575   0.358   1.520 -0.1078 -0.7247  0.1490
 3008SOL     OW 9548   0.496   4.189   2.640  0.2352 -0.5069 -0.2451
 3008SOL    HW1 9549   0.424   4.234   2.596  1.0488  0.4990 -0.5828
 3008SOL    HW2 9550   0.463   4.173   2.729  0.2388  1.6228  0.1897
 3009SOL     OW 9551   7.526   1.177   6.554  0.7182 -0.3340 -0.0271
 3009SOL    HW1 9552   7.563   1.261   6.579 -0.6136  0.2340  0.0866
 3009SOL    HW2 9553   7.553   1.165   6.462 -1.3286  1.5335 -0.9540
 3010SOL     OW 9554   2.995   2.420   7.088  0.1722  0.2254 -0.3232
 3010SOL    HW1 9555   3.020   2.343   7.139 -0.6875  1.5235  2.1709
 3010SOL    HW2 9556   2.915   2.394   7.043  0.1901 -0.5198  0.0622
 3011SOL     OW 9557   3.745   0.728   4.460 -0.0275 -0.2501 -0.1234
 3011SOL    HW1 9558   3.712   0.761   4.544  0.4844  0.7672 -0.3114
 3011SOL    HW2 9559   3.724   0.797   4.397 -1.7734 -1.6464 -1.1525
 3012SOL     OW 9560   4.034   2.667   3.181  0.1867 -0.3992  0.2989
 3012SOL    HW1 9561   4.086   2.587   3.180 -0.0615 -0.5800 -1.3572
 3012SOL    HW2 9562   3.957   2.646   3.127  0.3678  1.0949 -0.5994
 3013SOL     OW 9563   3.227   3.513   0.214 -0.1556 -0.1715  0.2063
 3013SOL    HW1 9564   3.277   3.497   0.134  0.3002  2.3785 -0.0973
 3013SOL    HW2 9565   3.273   3.462   0.282  0.7593 -0.6126 -0.7250
 3014SOL     OW 9566   0.217   1.466   1.864 -0.1132  0.2651  0.3461
 3014SOL    HW1 9567   0.268   1.542   1.891  0.5897 -0.7813  2.1523
 3014SOL    HW2 9568   0.281   1.397   1.848 -0.8146 -0.4158  0.3669
 3015SOL     OW 9569   5.566   4.280   4.056  0.0611 -1.1355 -0.1828
 3015SOL    HW1 9570   5.622   4.354   4.034 -1.3584  0.2601  0.6665
 3015SOL    HW2 9571   5.516   4.264   3.976 -2.6799  1.7219  0.7659
 3016SOL     OW 9572   2.459   4.806   6.588  0.4010  0.6384  0.2198
 3016SOL    HW1 9573   2.473   4.723   6.634 -0.3323  1.7261  2.5655
 3016SOL    HW2 9574   2.374   4.796   6.545 -1.3737  1.2420  3.3092
 3017SOL     OW 9575   0.288   0.872   1.616  0.6022 -0.1534 -0.0096
 3017SOL    HW1 9576   0.223   0.938   1.594 -1.1488 -1.7577  0.0530
 3017SOL    HW2 9577   0.334   0.854   1.534  0.3246  0.3225 -0.2706
 3018SOL     OW 9578   6.820   5.410   3.580 -0.3672 -0.0333  0.6346
 3018SOL    HW1 9579   6.790   5.385   3.493 -0.4953  0.1709  0.6184
 3018SOL    HW2 9580   6.913   5.428   3.569 -0.1188 -1.1926  0.7987
 3019SOL     OW 9581   6.863   5.133   1.245 -0.0264  0.9033  0.4755
 3019SOL    HW1 9582   6.923   5.126   1.320 -0.6552  0.2909  0.9299
 3019SOL    HW2 9583   6.863   5.046   1.206 -0.4676  0.9593  0.3509
 3020SOL     OW 9584   4.969   6.570   2.511 -0.1829 -0.0083 -0.8545
 3020SOL    HW1 9585   5.022   6.543   2.586  0.0362 -0.0854 -1.0351
 3020SOL    HW2 9586   4.948   6.662   2.528 -0.9320 -0.2786 -0.2345
 3021SOL     OW 9587   2.236   3.135   2.660  0.0637  0.7883  0.0180
 3021SOL    HW1 9588   2.328   3.161   2.656  0.6269 -0.3471  3.1749
 3021SOL    HW2 9589   2.220   3.116   2.752 -3.3355  0.7852 -0.4432
 3022SOL     OW 9590   2.084   6.534   2.915  0.8470  0.2041 -0.5519
 3022SOL    HW1 9591   2.122   6.591   2.848 -1.1835  0.0975 -1.8803
 3022SOL    HW2 9592   2.077   6.449   2.871  0.7363 -0.2114  0.2674
 3023SOL     OW 9593   2.357   4.712   4.633  0.1125  0.5559  0.9904
 3023SOL    HW1 9594   2.428   4.649   4.643  0.0475  0.5070  1.1534
 3023SOL    HW2 9595   2.397   4.796   4.653  0.2004  0.5672  0.7681
 3024SOL     OW 9596   4.531   5.803   3.986  0.1970 -0.4827 -0.5361
 3024SOL    HW1 9597   4.514   5.858   4.062 -1.6879  0.1512 -1.3423
 3024SOL    HW2 9598   4.488   5.850   3.913  0.7741 -1.7393 -1.7209
 3025SOL     OW 9599   2.697   6.404   0.751  0.1802  0.1662 -0.5266
 3025SOL    HW1 9600   2.768   6.363   0.799  0.2808 -0.3996 -1.1458
 3025SOL    HW2 9601   2.626   6.412   0.814  0.1296 -1.0384 -0.4200
 3026SOL     OW 9602   2.935   7.415   2.547 -0.2348 -1.1969 -0.4024
 3026SOL    HW1 9603   2.867   7.350   2.561 -1.0308 -0.5117 -0.9870
 3026SOL    HW2 9604   2.985   7.382   2.472  0.5924 -2.0948  0.5174
 3027SOL     OW 9605   6.444   6.003   0.831 -0.1238  0.1021  0.0404
 3027SOL    HW1 9606   6.445   5.966   0.743  0.8829  0.3039 -0.0465
 3027SOL    HW2 9607   6.412   6.093   0.818  0.7874  0.3985 -0.2473
 3028SOL     OW 9608   2.985   3.664   6.073  0.9173 -0.1897 -0.1624
 3028SOL    HW1 9609   3.022   3.668   6.161 -0.3858  1.0846  0.3495
 3028SOL    HW2 9610   2.953   3.574   6.065  0.2259 -0.0627  1.0132
 3029SOL     OW 9611   1.510   5.341   7.236  0.2846 -0.4092  0.3043
 3029SOL    HW1 9612   1.585   5.392   7.269 -0.1468 -0.1915  0.9626
 3029SOL    HW2 9613   1.457   5.404   7.188 -0.3156 -0.1933  1.2267
 3030SOL     OW 9614   3.122   4.758   1.591 -0.4678 -0.6913  0.1533
 3030SOL    HW1 9615   3.119   4.681   1.534 -4.3531 -0.8681  0.3325
 3030SOL    HW2 9616   3.046   4.810   1.565 -1.5451  0.0034  4.0445
 3031SOL     OW 9617   6.023   7.490   4.323  1.0778 -0.3025  0.4160
 3031SOL    HW1 9618   5.997   7.415   4.270  0.3220  0.9779 -1.1198
 3031SOL    HW2 9619   5.940   7.532   4.348  1.4587 -0.3764  1.8958
 3032SOL     OW 9620   0.056   5.245   2.855 -0.1671 -0.5054 -0.2421
 3032SOL    HW1 9621   0.143   5.279   2.877  0.6884 -1.7808 -1.4972
 3032SOL    HW2 9622   0.066   5.150   2.860 -1.6681 -0.6558  0.1900
 3033SOL     OW 9623   7.206   4.550   6.310 -0.1604  1.0648  0.3922
 3033SOL    HW1 9624   7.292   4.509   6.311  0.5524  2.3949 -1.2293
 3033SOL    HW2 9625   7.165   4.519   6.230 -0.6289  1.5314  0.4429
 3034SOL     OW 9626   1.879   5.441   2.103 -0.2329 -0.3145 -0.2898
 3034SOL    HW1 9627   1.864   5.465   2.195  0.1125 -1.9344  0.2239
 3034SOL    HW2 9628   1.971   5.417   2.100  0.6387  2.6800 -1.8131
 3035SOL     OW 9629   0.506   3.302   4.759  0.3756  0.6640  0.4999
 3035SOL    HW1 9630   0.440   3.328   4.695  0.1103  0.3155  0.6324
 3035SOL    HW2 9631   0.587   3.293   4.708  0.1926  0.5119  0.2350
 3036SOL     OW 9632   4.825   2.068   1.397  0.3244  0.3923 -0.1665
 3036SOL    HW1 9633   4.892   2.009   1.431  0.7942 -0.2619 -2.0685
 3036SOL    HW2 9634   4.742   2.024   1.417  0.6525 -0.7835 -1.2092
 3037SOL     OW 9635   0.953   6.547   3.710 -1.0387  0.2430 -0.5525
 3037SOL    HW1 9636   0.953   6.453   3.729  1.0674  0.5604  1.5000
 3037SOL    HW2 9637   0.873   6.580   3.752 -0.0164 -0.1734  1.8785
 3038SOL     OW 9638   6.500   0.333   3.308  0.1454  0.1251  0.5891
 3038SOL    HW1 9639   6.494   0.238   3.310 -0.1672  0.1462  0.8027
 3038SOL    HW2 9640   6.554   0.355   3.384  0.8741  0.0781  0.0968
 3039SOL     OW 9641   0.296   7.163   1.447 -0.4695 -0.2212 -0.4096
 3039SOL    HW1 9642   0.287   7.238   1.506  0.3464 -1.3304  1.1846
 3039SOL    HW2 9643   0.389   7.141   1.450 -0.4596 -0.5193 -1.8974
 3040SOL     OW 9644   6.381   5.244   0.660 -0.3350  0.3225 -0.3828
 3040SOL    HW1 9645   6.369   5.202   0.745 -1.4071 -1.0346 -1.1423
 3040SOL    HW2 9646   6.339   5.183   0.598 -3.2350  3.1257 -1.4486
 3041SOL     OW 9647   1.728   0.321   0.486  0.3999 -0.4922 -0.1904
 3041SOL    HW1 9648   1.677   0.257   0.537  0.5940  0.4776  1.2995
 3041SOL    HW2 9649   1.673   0.399   0.485  0.4848 -0.4374 -1.3656
 3042SOL     OW 9650   5.046   4.180   3.164 -0.1196 -0.9231 -0.3759
 3042SOL    HW1 9651   5.008   4.264   3.137  1.5108  0.5191  1.4935
 3042SOL    HW2 9652   5.128   4.174   3.115 -0.0613 -1.2525 -0.2372
 3043SOL     OW 9653   6.237   5.508   2.065  0.3512  0.2646  0.6943
 3043SOL    HW1 9654   6.194   5.533   2.147  1.5579 -1.0219  1.7822
 3043SOL    HW2 9655   6.165   5.486   2.006 -0.5650  1.7826  1.1888
 3044SOL     OW 9656   3.325   0.602   3.455 -0.1307 -0.4484  0.1028
 3044SOL    HW1 9657   3.304   0.553   3.534 -0.7489  0.1737  0.3381
 3044SOL    HW2 9658   3.240   0.635   3.424  0.4252  2.2852  1.1734
 3045SOL     OW 9659   5.973   4.579   3.621  0.5470 -0.4140  0.5492
 3045SOL    HW1 9660   6.049   4.605   3.568  1.9925 -3.1525  1.1016
 3045SOL    HW2 9661   5.906   4.556   3.557  0.4366  1.2290  0.0388
 3046SOL     OW 9662   3.381   5.326   6.767  0.0858  0.3855 -0.1651
 3046SOL    HW1 9663   3.322   5.284   6.706 -0.2110  2.6974 -1.5728
 3046SOL    HW2 9664   3.326   5.351   6.841 -0.1071  0.0386 -0.1902
 3047SOL     OW 9665   3.009   6.140   7.151 -0.2069  0.1293  0.2021
 3047SOL    HW1 9666   2.957   6.070   7.189  0.5791 -0.8820 -0.5446
 3047SOL    HW2 9667   3.079   6.155   7.215 -0.1752 -0.0111  0.2012
 3048SOL     OW 9668   3.541   5.306   0.044 -0.1309  0.1241 -0.0884
 3048SOL    HW1 9669   3.609   5.348  -0.009 -0.5561  0.6613 -0.2159
 3048SOL    HW2 9670   3.469   5.290  -0.017 -0.2280 -0.1883  0.1066
 3049SOL     OW 9671   2.811   5.173   6.091 -0.0306 -0.3611  0.2578
 3049SOL    HW1 9672   2.778   5.161   6.180  0.7594 -1.8060  0.3885
 3049SOL    HW2 9673   2.732   5.181   6.037 -0.5692 -1.5849  0.8273
 3050SOL     OW 9674   1.108   0.686   0.769  0.1816  0.3833  0.8390
 3050SOL    HW1 9675   1.179   0.707   0.708 -0.9879 -0.7834 -1.0518
 3050SOL    HW2 9676   1.112   0.590   0.778 -2.1125  0.0582 -0.6835
 3051SOL     OW 9677   0.155   3.763   6.676 -0.5761 -0.5881  0.0787
 3051SOL    HW1 9678   0.128   3.678   6.642  1.1290 -1.4174  0.6809
 3051SOL    HW2 9679   0.235   3.745   6.726  0.6922  1.5769 -0.9965
 3052SOL     OW 9680   6.128   2.124   0.776 -0.1424 -0.7059 -0.8922
 3052SOL    HW1 9681   6.133   2.168   0.861 -0.1644 -0.5834 -0.9551
 3052SOL    HW2 9682   6.203   2.065   0.775 -0.1762 -0.7518 -0.7626
 3053SOL     OW 9683   5.879   6.410   3.403  0.0909 -0.5083  0.7569
 3053SOL    HW1 9684   5.954   6.360   3.435  1.4588 -0.5269 -2.1515
 3053SOL    HW2 9685   5.900   6.430   3.312 -3.3465 -0.2716 -0.1343
 3054SOL     OW 9686   3.180   2.012   7.527  0.4474 -0.1080 -0.3533
 3054SOL    HW1 9687   3.270   1.989   7.551  0.4999 -0.6231 -1.0114
 3054SOL    HW2 9688   3.139   1.929   7.504  0.0902  0.2389 -0.9991
 3055SOL     OW 9689   0.429   0.214   3.928  0.7611  1.0565  0.3251
 3055SOL    HW1 9690   0.362   0.225   3.995 -0.9240 -0.2318 -1.0608
 3055SOL    HW2 9691   0.508   0.253   3.966 -0.0432  0.1660  3.1276
 3056SOL     OW 9692   1.334   0.047   1.038 -0.0326 -0.0851  0.5358
 3056SOL    HW1 9693   1.301  -0.033   0.997 -0.2664  0.1301  0.3086
 3056SOL    HW2 9694   1.428   0.045   1.020  0.3490 -1.4013  2.3481
 3057SOL     OW 9695   6.879   6.623   7.467  0.0665 -0.0855 -0.2516
 3057SOL    HW1 9696   6.930   6.675   7.406  2.0448 -1.2036  0.3149
 3057SOL    HW2 9697   6.878   6.535   7.429 -0.9439 -0.2133  0.0477
 3058SOL     OW 9698   6.534   1.273   0.051 -0.0548  0.0147  0.0868
 3058SOL    HW1 9699   6.567   1.184   0.057 -0.7738 -0.2471  0.2267
 3058SOL    HW2 9700   6.541   1.307   0.141  0.8543  0.3392 -0.0954
 3059SOL     OW 9701   4.842   4.610   6.273 -0.4811  0.0839  0.0831
 3059SOL    HW1 9702   4.778   4.665   6.319 -0.2536 -0.0289  0.5424
 3059SOL    HW2 9703   4.912   4.670   6.248 -1.4443  0.4911 -1.7403
 3060SOL     OW 9704   0.973   0.718   4.389 -0.1978  0.4810 -0.4417
 3060SOL    HW1 9705   1.004   0.787   4.330 -2.3286  2.2983  0.4330
 3060SOL    HW2 9706   0.943   0.648   4.330 -1.1719  1.7645 -1.5284
 3061SOL     OW 9707   1.811   1.996   5.211 -0.0896  0.6783  0.0949
 3061SOL    HW1 9708   1.849   1.933   5.272 -0.6027  0.6421  0.3817
 3061SOL    HW2 9709   1.726   2.018   5.249 -0.9502 -0.2375 -1.1865
 3062SOL     OW 9710   6.690   6.701   5.800  0.1391  0.2728 -0.3841
 3062SOL    HW1 9711   6.611   6.749   5.775 -1.6382 -3.0883 -1.8344
 3062SOL    HW2 9712   6.747   6.705   5.723 -0.3285 -0.4885 -0.7806
 3063SOL     OW 9713   2.864   5.754   0.324 -0.5482  0.3137  0.3780
 3063SOL    HW1 9714   2.790   5.720   0.373 -0.4598 -0.4096  0.0177
 3063SOL    HW2 9715   2.911   5.677   0.292  0.5979  0.7462  0.9395
 3064SOL     OW 9716   4.872   6.118   3.021  0.7311 -0.1245  0.2155
 3064SOL    HW1 9717   4.845   6.200   2.979  1.7762  0.4453  0.5911
 3064SOL    HW2 9718   4.864   6.137   3.115 -0.2480 -0.9074  0.3052
 3065SOL     OW 9719   2.022   6.389   7.045 -0.0345  0.4633  0.0022
 3065SOL    HW1 9720   1.968   6.331   6.991  1.1434 -1.2202  0.5603
 3065SOL    HW2 9721   1.963   6.460   7.069 -1.3598 -0.1635 -1.2151
 3066SOL     OW 9722   6.229   5.343   2.872  0.1170  0.0881  0.1332
 3066SOL    HW1 9723   6.307   5.339   2.817  0.7060  0.5691  0.9098
 3066SOL    HW2 9724   6.238   5.270   2.933  0.1288  0.3313  0.4290
 3067SOL     OW 9725   1.934   5.814   1.218  0.2901  0.4186  0.1795
 3067SOL    HW1 9726   2.005   5.866   1.255  0.0711  1.7316 -1.1600
 3067SOL    HW2 9727   1.875   5.878   1.180 -0.4134 -0.7832 -0.8086
 3068SOL     OW 9728   0.430   6.136   3.905  0.2581  0.6232  0.5202
 3068SOL    HW1 9729   0.388   6.194   3.968 -2.1449 -0.9621  0.5093
 3068SOL    HW2 9730   0.473   6.070   3.958 -0.4079  0.1882  0.5274
 3069SOL     OW 9731   1.380   2.851   3.106  0.4942 -0.0891 -0.0845
 3069SOL    HW1 9732   1.434   2.776   3.128 -0.0914 -0.3453  0.5055
 3069SOL    HW2 9733   1.434   2.903   3.046  0.7751 -1.1583 -0.7963
 3070SOL     OW 9734   2.787   0.079   0.961  1.2266 -0.3215 -0.0644
 3070SOL    HW1 9735   2.786   0.071   0.866  1.2940 -0.2984 -0.0671
 3070SOL    HW2 9736   2.774  -0.010   0.993 -0.4311 -0.1248 -0.0976
 3071SOL     OW 9737   5.246   2.606   4.960  0.4703 -0.0848  0.0362
 3071SOL    HW1 9738   5.261   2.529   5.015 -1.6920 -0.1236  0.6541
 3071SOL    HW2 9739   5.250   2.680   5.021 -1.7045 -0.1080  0.2604
 3072SOL     OW 9740   7.157   6.876   0.267 -0.0169  0.1628  0.2244
 3072SOL    HW1 9741   7.171   6.843   0.355  1.4316 -1.8990 -0.6984
 3072SOL    HW2 9742   7.230   6.935   0.251 -0.9167  1.4814  0.7608
 3073SOL     OW 9743   4.109   1.187   2.838 -0.0242 -0.0298  0.4557
 3073SOL    HW1 9744   4.072   1.180   2.750  0.9983  0.5694 -0.0417
 3073SOL    HW2 9745   4.050   1.246   2.884  0.5936  1.4044 -0.5106
 3074SOL     OW 9746   6.143   1.066   7.501 -0.2424  0.2167  0.1393
 3074SOL    HW1 9747   6.179   1.138   7.552 -0.7726 -0.9868  2.3142
 3074SOL    HW2 9748   6.103   1.108   7.425  1.2570  2.0029  0.2861
 3075SOL     OW 9749   2.234   0.491   7.465  0.1731  0.3144  0.0975
 3075SOL    HW1 9750   2.171   0.420   7.481  1.3977 -0.1694  3.5857
 3075SOL    HW2 9751   2.314   0.445   7.439 -0.2486  0.8080 -2.2795
 3076SOL     OW 9752   0.278   4.265   4.904 -0.7877 -0.4201  0.2142
 3076SOL    HW1 9753   0.365   4.234   4.928 -0.6366  0.0930  0.3479
 3076SOL    HW2 9754   0.264   4.342   4.959 -0.1651  1.1949 -1.7337
 3077SOL     OW 9755   4.965   0.264   5.038  0.0186  0.5050  0.2890
 3077SOL    HW1 9756   4.976   0.287   5.130 -0.3880 -0.7216  0.6613
 3077SOL    HW2 9757   4.870   0.270   5.023 -0.1706 -1.3381  0.5414
 3078SOL     OW 9758   5.476   4.638   3.449  0.1483 -0.0702  0.6093
 3078SOL    HW1 9759   5.438   4.550   3.448  0.2948 -0.1743  1.7919
 3078SOL    HW2 9760   5.405   4.696   3.423 -0.4591 -0.3910  1.4880
 3079SOL     OW 9761   2.715   2.832   1.041 -0.2581  0.2083 -0.1655
 3079SOL    HW1 9762   2.712   2.896   0.970 -2.6956  0.5396  0.1570
 3079SOL    HW2 9763   2.729   2.748   0.997  1.0184  0.7003 -0.7539
 3080SOL     OW 9764   3.331   0.731   6.529 -0.1551 -0.0397  0.2734
 3080SOL    HW1 9765   3.316   0.802   6.592  1.0707  0.1375  0.3980
 3080SOL    HW2 9766   3.414   0.754   6.487  0.0588 -1.2076  0.0282
 3081SOL     OW 9767   6.877   2.802   3.869  0.2022  0.3511 -0.1406
 3081SOL    HW1 9768   6.800   2.748   3.854 -1.0921  2.5774 -2.0923
 3081SOL    HW2 9769   6.871   2.829   3.961  1.5512 -3.5708  1.3214
 3082SOL     OW 9770   7.343   6.016   1.188 -0.4050 -1.2777 -0.0867
 3082SOL    HW1 9771   7.275   5.978   1.243  0.5461 -1.9845  0.6514
 3082SOL    HW2 9772   7.364   6.100   1.230 -1.2880 -0.7236 -0.7185
 3083SOL     OW 9773   5.028   6.287   3.606 -0.5559  0.4335  0.0318
 3083SOL    HW1 9774   5.118   6.269   3.580  0.0874  1.3352  1.5183
 3083SOL    HW2 9775   5.002   6.363   3.553 -0.0254  0.8905  0.4172
 3084SOL     OW 9776   3.528   7.264   4.691 -0.1673  0.3194  0.2956
 3084SOL    HW1 9777   3.521   7.300   4.779  0.1175 -1.8943  1.2677
 3084SOL    HW2 9778   3.620   7.239   4.682 -0.5300 -0.9702  0.0097
 3085SOL     OW 9779   5.116   0.623   1.655 -0.3441 -0.4070 -0.2275
 3085SOL    HW1 9780   5.045   0.560   1.640 -0.5907 -1.5732  4.3518
 3085SOL    HW2 9781   5.071   0.704   1.681 -0.0040 -0.2554 -0.1061
 3086SOL     OW 9782   4.508   5.848   4.534 -0.1121 -0.0116 -0.0393
 3086SOL    HW1 9783   4.461   5.766   4.517  0.8491 -0.2988 -1.4297
 3086SOL    HW2 9784   4.504   5.896   4.452 -1.0100  1.5693  0.8648
 3087SOL     OW 9785   5.321   2.302   1.028 -0.6529  0.6059 -0.1995
 3087SOL    HW1 9786   5.406   2.299   0.984 -0.1066 -1.4466  0.8954
 3087SOL    HW2 9787   5.341   2.322   1.119 -1.2169 -0.7934  0.2627
 3088SOL     OW 9788   1.005   5.619   0.799  0.6698  0.0945  1.1945
 3088SOL    HW1 9789   0.940   5.567   0.751  1.4442  1.6157 -1.7584
 3088SOL    HW2 9790   0.953   5.670   0.862 -0.7859 -0.0710  0.1713
 3089SOL     OW 9791   6.992   5.241   0.025  0.0276  0.1133 -0.0550
 3089SOL    HW1 9792   6.946   5.318   0.060  1.0468 -0.0562  1.7906
 3089SOL    HW2 9793   7.068   5.277  -0.021 -0.2763  0.2615 -0.4462
 3090SOL     OW 9794   3.004   5.683   6.231  0.3289  0.2375 -0.2956
 3090SOL    HW1 9795   3.047   5.640   6.304  0.4261 -0.2378 -0.6246
 3090SOL    HW2 9796   2.982   5.612   6.171  1.1564  0.7113 -1.1947
 3091SOL     OW 9797   4.414   3.919   6.925  0.0870 -0.3831  0.3878
 3091SOL    HW1 9798   4.342   3.978   6.946  0.7200  0.5725 -0.0477
 3091SOL    HW2 9799   4.490   3.957   6.969  0.0578 -2.2394  2.1627
 3092SOL     OW 9800   7.523   5.147   3.258  0.1430  0.0741 -0.2843
 3092SOL    HW1 9801   7.496   5.103   3.339 -1.0978 -0.8051 -1.1407
 3092SOL    HW2 9802   7.493   5.238   3.269  2.3813  0.6983  1.3306
 3093SOL     OW 9803   7.320   2.119   6.576 -0.2545  0.2990  0.2505
 3093SOL    HW1 9804   7.299   2.028   6.558  0.2254  0.2382 -0.0324
 3093SOL    HW2 9805   7.294   2.133   6.667 -1.3584  0.1949 -0.0443
 3094SOL     OW 9806   4.528   4.165   5.726 -0.4152 -0.2188  0.0104
 3094SOL    HW1 9807   4.580   4.212   5.791  0.3080 -1.0130  0.0225
 3094SOL    HW2 9808   4.455   4.129   5.776 -0.6892  0.4416  0.0946
 3095SOL     OW 9809   1.671   2.909   4.474  0.1304  0.6049  0.0510
 3095SOL    HW1 9810   1.605   2.911   4.543 -2.1493 -0.5542 -1.9708
 3095SOL    HW2 9811   1.750   2.875   4.517 -0.7259  1.3844  2.3852
 3096SOL     OW 9812   5.576   2.035   6.304 -0.3135 -0.0873  0.4055
 3096SOL    HW1 9813   5.658   2.037   6.254 -0.8000  1.2836 -0.4051
 3096SOL    HW2 9814   5.520   2.099   6.260 -1.5731 -0.4820  1.3761
 3097SOL     OW 9815   6.672   1.987   2.313 -0.1493 -0.3686  0.2242
 3097SOL    HW1 9816   6.731   2.040   2.259  0.7532 -1.3759  0.1877
 3097SOL    HW2 9817   6.730   1.937   2.371 -1.1105  1.0704  2.5522
 3098SOL     OW 9818   1.330   1.729   5.836 -0.0205 -0.2715  0.0519
 3098SOL    HW1 9819   1.387   1.704   5.909  0.3500 -1.5197 -0.6283
 3098SOL    HW2 9820   1.378   1.798   5.791  1.2280 -1.5990 -0.7640
 3099SOL     OW 9821   0.373   5.614   3.633 -0.3760  0.3504  0.1266
 3099SOL    HW1 9822   0.457   5.609   3.587 -0.1574 -0.4371  0.6081
 3099SOL    HW2 9823   0.357   5.708   3.641 -0.1951  0.5180 -1.1422
 3100SOL     OW 9824   4.445   3.407   2.063  0.6545  0.3819 -0.0534
 3100SOL    HW1 9825   4.474   3.316   2.070  0.4919  0.2734 -0.7078
 3100SOL    HW2 9826   4.522   3.454   2.032  0.3782  0.2217 -1.0510
 3101SOL     OW 9827   0.496   0.107   3.626  0.0829 -0.3991 -0.1167
 3101SOL    HW1 9828   0.572   0.087   3.572  0.4634 -0.3861  0.4142
 3101SOL    HW2 9829   0.521   0.184   3.676 -0.1215 -0.6530  0.3834
 3102SOL     OW 9830   6.960   0.080   5.493  0.0305 -0.4344  0.0630
 3102SOL    HW1 9831   6.955   0.036   5.408  2.5060 -1.5903  0.4148
 3102SOL    HW2 9832   6.959   0.009   5.557 -0.6154  0.3533  0.9497
 3103SOL     OW 9833   5.835   1.809   0.771  0.2367  0.4045 -0.3765
 3103SOL    HW1 9834   5.745   1.831   0.795 -1.1205 -2.6153 -2.1462
 3103SOL    HW2 9835   5.847   1.848   0.684  0.6044  0.6570 -0.2178
 3104SOL     OW 9836   6.293   3.536   1.904 -0.0927 -0.1594  0.3373
 3104SOL    HW1 9837   6.228   3.588   1.856  0.4982  1.9090  1.6444
 3104SOL    HW2 9838   6.374   3.586   1.895  0.9720 -1.8545  0.1127
 3105SOL     OW 9839   5.200   7.119   7.006 -0.3090 -0.6640  0.0666
 3105SOL    HW1 9840   5.282   7.076   6.983 -0.1146  0.4120 -1.4056
 3105SOL    HW2 9841   5.149   7.118   6.925 -1.9145 -1.6096  1.0345
 3106SOL     OW 9842   7.448   6.622   1.591  0.2986 -0.1605 -0.2620
 3106SOL    HW1 9843   7.487   6.610   1.677 -0.3867  0.1509  0.1021
 3106SOL    HW2 9844   7.472   6.543   1.542  0.6549 -0.3558  0.2271
 3107SOL     OW 9845   4.082   6.565   2.014 -0.0998 -0.2264  0.0305
 3107SOL    HW1 9846   4.123   6.541   2.097  1.5870 -0.5829 -0.8688
 3107SOL    HW2 9847   4.113   6.654   1.997 -0.3404 -0.1995 -0.2694
 3108SOL     OW 9848   7.119   2.982   7.506  0.0429  0.0500 -0.2358
 3108SOL    HW1 9849   7.122   3.006   7.599 -0.0819  0.1582 -0.2583
 3108SOL    HW2 9850   7.137   2.888   7.505  0.0706  0.0529 -0.1037
 3109SOL     OW 9851   3.162   0.489   4.320  0.2397  0.0613  0.0641
 3109SOL    HW1 9852   3.139   0.469   4.410 -1.5712  0.0491 -0.3722
 3109SOL    HW2 9853   3.225   0.561   4.327  0.7504 -0.4860  1.3486
 3110SOL     OW 9854   6.577   5.925   0.588 -0.3991  0.6020 -0.0280
 3110SOL    HW1 9855   6.664   5.886   0.583 -0.7514 -0.1163 -0.6232
 3110SOL    HW2 9856   6.539   5.912   0.502 -1.0095  1.1375  0.1490
 3111SOL     OW 9857   6.429   3.435   2.531  0.6298 -0.2530 -0.1587
 3111SOL    HW1 9858   6.471   3.465   2.450 -0.8283  0.4557 -0.6871
 3111SOL    HW2 9859   6.382   3.356   2.506 -0.2891  0.2784 -0.1629
 3112SOL     OW 9860   1.716   7.540   1.582 -0.3750  0.0713  0.1763
 3112SOL    HW1 9861   1.729   7.514   1.491  1.7951  1.0351  0.1381
 3112SOL    HW2 9862   1.678   7.463   1.624  2.1463 -1.8223 -0.7531
 3113SOL     OW 9863   2.503   0.033   0.134 -0.2049 -0.3345  0.3341
 3113SOL    HW1 9864   2.432   0.095   0.119  0.5840  0.1886 -1.5263
 3113SOL    HW2 9865   2.485  -0.040   0.075 -0.4027 -1.2878  1.5347
 3114SOL     OW 9866   6.787   5.384   0.917  0.1497 -0.5414  0.5492
 3114SOL    HW1 9867   6.830   5.464   0.886 -1.4391 -0.3543 -1.3604
 3114SOL    HW2 9868   6.782   5.394   1.012  0.3306  1.4476  0.3755
 3115SOL     OW 9869   0.105   4.391   5.290 -0.5296 -0.2578 -0.2398
 3115SOL    HW1 9870   0.119   4.417   5.199  0.1145 -0.6895 -0.2697
 3115SOL    HW2 9871   0.035   4.449   5.321  0.4278  1.0728 -0.4913
 3116SOL     OW 9872   0.545   4.477   7.216  0.3753  0.0550 -0.8389
 3116SOL    HW1 9873   0.538   4.570   7.233  0.8186  0.3242 -1.9922
 3116SOL    HW2 9874   0.509   4.435   7.294  0.1511  1.1802 -0.3155
 3117SOL     OW 9875   4.009   3.688   3.585 -0.2379 -0.1123  0.7122
 3117SOL    HW1 9876   4.042   3.744   3.655  1.5147  0.2721 -0.3474
 3117SOL    HW2 9877   3.926   3.729   3.560  1.0035  2.1363 -0.0599
 3118SOL     OW 9878   3.411   2.264   1.184 -0.1045 -0.3042 -0.4583
 3118SOL    HW1 9879   3.465   2.241   1.259 -2.5964 -0.6727  1.3443
 3118SOL    HW2 9880   3.439   2.352   1.160 -0.5871  0.6800  2.2599
 3119SOL     OW 9881   7.394   4.988   5.205  0.2478  0.1273  0.6453
 3119SOL    HW1 9882   7.318   4.990   5.263  0.0321  1.0074  0.3486
 3119SOL    HW2 9883   7.436   5.073   5.218  0.2236  0.3152 -0.4581
 3120SOL     OW 9884   5.603   6.456   0.501 -0.1728 -0.2156 -0.0236
 3120SOL    HW1 9885   5.556   6.505   0.433 -0.8790  0.6381  1.0555
 3120SOL    HW2 9886   5.663   6.400   0.452 -0.7582  0.2786 -1.3613
 3121SOL     OW 9887   6.780   2.860   1.455 -0.1272 -0.1952  0.0200
 3121SOL    HW1 9888   6.862   2.830   1.416 -0.9357 -1.5535 -0.7373
 3121SOL    HW2 9889   6.798   2.949   1.485  1.4542 -0.2700 -0.6213
 3122SOL     OW 9890   1.158   2.987   0.653 -0.1594  0.3622 -0.2515
 3122SOL    HW1 9891   1.194   3.043   0.584 -0.3378  0.2273 -0.4538
 3122SOL    HW2 9892   1.075   3.029   0.676 -0.6445 -0.2099 -0.9077
 3123SOL     OW 9893   5.645   6.649   1.038  0.5329 -0.1474  0.5104
 3123SOL    HW1 9894   5.578   6.581   1.036 -0.6666  0.9802 -1.4294
 3123SOL    HW2 9895   5.724   6.606   1.006 -0.0050 -0.8077  0.0446
 3124SOL     OW 9896   5.380   0.998   6.056 -0.2499 -0.0619 -0.5077
 3124SOL    HW1 9897   5.385   1.062   6.126 -2.6880  0.0740 -0.3631
 3124SOL    HW2 9898   5.417   0.918   6.093  1.2098  0.7582 -0.1098
 3125SOL     OW 9899   4.135   5.284   5.442  0.0193 -0.9719  0.0982
 3125SOL    HW1 9900   4.122   5.190   5.454 -0.4143 -0.6286  3.1210
 3125SOL    HW2 9901   4.205   5.306   5.504  1.2171  0.4872 -1.6814
 3126SOL     OW 9902   7.560   5.965   3.269 -0.7568 -0.0063  0.0328
 3126SOL    HW1 9903   7.553   5.869   3.267 -1.2495  0.0422 -0.6955
 3126SOL    HW2 9904   7.510   5.994   3.194 -0.7847  0.8451  0.3778
 3127SOL     OW 9905   5.101   1.946   7.128 -0.3740  0.2830 -0.2412
 3127SOL    HW1 9906   5.157   1.968   7.202  2.8994 -1.8480 -1.8252
 3127SOL    HW2 9907   5.058   2.028   7.104  0.3807  1.5451  2.4205
 3128SOL     OW 9908   7.153   4.814   4.339  0.5423 -0.5571 -0.0860
 3128SOL    HW1 9909   7.069   4.809   4.386 -0.4666 -2.2109 -1.9032
 3128SOL    HW2 9910   7.183   4.723   4.336  1.2892 -0.2835 -1.3721
 3129SOL     OW 9911   3.136   5.229   2.776  0.0687 -0.0216  0.4670
 3129SOL    HW1 9912   3.204   5.290   2.747  0.4681 -0.4412  0.5134
 3129SOL    HW2 9913   3.134   5.162   2.709  0.7469 -0.8088  1.2094
 3130SOL     OW 9914   4.674   3.146   1.640 -0.3738  0.2022  0.8637
 3130SOL    HW1 9915   4.742   3.134   1.706  0.7960  2.1807  0.1199
 3130SOL    HW2 9916   4.711   3.109   1.559 -0.8562 -0.1499  0.7968
 3131SOL     OW 9917   6.009   2.033   0.393  0.2645 -0.1640  0.9100
 3131SOL    HW1 9918   6.027   2.035   0.300  0.5419  2.6687  0.9325
 3131SOL    HW2 9919   5.921   1.996   0.400  0.7449 -1.6405 -0.3040
 3132SOL     OW 9920   3.110   1.512   2.132 -0.3631  0.7994  0.2507
 3132SOL    HW1 9921   3.047   1.532   2.201 -0.7064 -0.1151  0.2165
 3132SOL    HW2 9922   3.080   1.429   2.096  1.2673 -0.0486  0.7250
 3133SOL     OW 9923   3.140   0.325   0.168  0.4772  0.1320  1.3112
 3133SOL    HW1 9924   3.211   0.325   0.233  0.4511 -1.0025  1.3765
 3133SOL    HW2 9925   3.139   0.235   0.135 -2.5027 -0.6418  3.0975
 3134SOL     OW 9926   5.085   4.525   6.763 -0.0990 -0.1454 -0.4420
 3134SOL    HW1 9927   5.114   4.451   6.710 -1.5826 -1.1499  0.0855
 3134SOL    HW2 9928   5.015   4.566   6.712 -1.5775 -1.1523  0.6767
 3135SOL     OW 9929   2.588   7.210   1.555  0.5326 -0.3747  0.0486
 3135SOL    HW1 9930   2.636   7.127   1.561 -0.1196 -0.6951  1.3970
 3135SOL    HW2 9931   2.502   7.190   1.592  0.1808  0.7729 -0.1141
 3136SOL     OW 9932   6.770   0.572   0.863  0.1373 -0.4062 -0.3180
 3136SOL    HW1 9933   6.847   0.519   0.885 -0.7047 -0.3442  3.2558
 3136SOL    HW2 9934   6.733   0.528   0.786  3.7077 -0.3469 -2.3117
 3137SOL     OW 9935   5.700   6.927   1.321 -0.0839 -0.2447 -0.3517
 3137SOL    HW1 9936   5.719   6.920   1.227 -0.4040  0.9278 -0.5093
 3137SOL    HW2 9937   5.782   6.956   1.360 -0.4578  1.1248 -0.5358
 3138SOL     OW 9938   3.316   6.622   5.444  0.2757 -0.7425  0.4416
 3138SOL    HW1 9939   3.259   6.694   5.416  1.0977 -0.4548 -0.5835
 3138SOL    HW2 9940   3.283   6.545   5.397  0.5843 -0.6161  0.0050
 3139SOL     OW 9941   5.015   6.867   4.731 -0.2672 -0.3622 -0.7842
 3139SOL    HW1 9942   4.930   6.824   4.727 -1.0112  0.9093  0.6341
 3139SOL    HW2 9943   5.067   6.823   4.663 -1.2217 -2.8944 -0.0138
 3140SOL     OW 9944   0.624   3.784   6.229 -0.2305 -0.3654  0.0345
 3140SOL    HW1 9945   0.541   3.817   6.262  0.2070  0.3237  0.4682
 3140SOL    HW2 9946   0.645   3.841   6.155  0.5428  0.3797  0.8062
 3141SOL     OW 9947   6.622   0.817   0.416 -0.1498  0.1722 -0.3575
 3141SOL    HW1 9948   6.678   0.740   0.415 -1.2320 -0.6965  1.3082
 3141SOL    HW2 9949   6.665   0.879   0.357  2.3134 -0.5926  0.5193
 3142SOL     OW 9950   1.975   4.350   6.061  0.8166 -0.1852  0.3699
 3142SOL    HW1 9951   1.963   4.299   5.981  0.3201  0.3826  0.0702
 3142SOL    HW2 9952   2.019   4.430   6.032 -1.5711  1.1573  0.2140
 3143SOL     OW 9953   3.988   5.250   2.959  0.0785  0.1202 -0.1583
 3143SOL    HW1 9954   3.948   5.328   2.920 -0.3089 -0.3810 -0.7767
 3143SOL    HW2 9955   4.044   5.284   3.029  1.3091  1.1112 -1.5528
 3144SOL     OW 9956   4.961   0.202   1.758 -0.4248 -0.3974  0.0575
 3144SOL    HW1 9957   4.946   0.272   1.695  1.1794  1.2380  1.3730
 3144SOL    HW2 9958   4.877   0.195   1.805 -0.7840  0.2557 -0.4599
 3145SOL     OW 9959   2.026   2.449   6.244  0.3362  0.0541 -0.0211
 3145SOL    HW1 9960   2.037   2.541   6.270  1.4458  0.6282 -2.2278
 3145SOL    HW2 9961   1.933   2.441   6.222 -0.0269  0.2834  1.3335
 3146SOL     OW 9962   1.021   0.669   1.856  0.0129 -0.3651  0.9331
 3146SOL    HW1 9963   0.959   0.724   1.903  0.4500  1.8199 -0.8734
 3146SOL    HW2 9964   0.966   0.609   1.805 -0.8102  2.0799 -1.2957
 3147SOL     OW 9965   4.531   2.432   0.813  0.1962 -0.2174 -0.0157
 3147SOL    HW1 9966   4.448   2.386   0.826 -1.0421  1.9477  0.2782
 3147SOL    HW2 9967   4.593   2.363   0.790 -1.9086 -1.8092 -1.3566
 3148SOL     OW 9968   2.012   5.047   6.081 -0.0167  0.1560  0.2535
 3148SOL    HW1 9969   1.972   4.959   6.081 -0.2488  0.1786 -2.3315
 3148SOL    HW2 9970   2.077   5.043   6.011  0.1250  1.9994  0.2521
 3149SOL     OW 9971   2.476   1.162   1.475  0.2285  0.0276 -0.7552
 3149SOL    HW1 9972   2.398   1.154   1.531 -0.5294  0.0645 -1.7733
 3149SOL    HW2 9973   2.450   1.223   1.407  0.5719 -1.2398 -2.0655
 3150SOL     OW 9974   5.884   4.521   2.618  0.4415 -0.0687 -0.1229
 3150SOL    HW1 9975   5.967   4.521   2.666  0.8576 -0.1300 -0.8427
 3150SOL    HW2 9976   5.889   4.596   2.560  0.7355 -1.0505 -1.4162
 3151SOL     OW 9977   0.337   2.396   5.764  0.0299  0.0070  0.6018
 3151SOL    HW1 9978   0.389   2.389   5.844 -1.4658 -0.7995  1.5445
 3151SOL    HW2 9979   0.361   2.318   5.714 -0.5249 -0.5790  1.2182
 3152SOL     OW 9980   1.864   0.411   4.628  0.3099  0.4283 -0.7037
 3152SOL    HW1 9981   1.771   0.402   4.606 -1.5505 -1.0819  5.5954
 3152SOL    HW2 9982   1.901   0.324   4.613  0.6942  0.8842 -2.6801
 3153SOL     OW 9983   6.165   6.701   0.407  0.2848  0.2157 -0.4581
 3153SOL    HW1 9984   6.217   6.776   0.378  0.4576  0.4606  0.4556
 3153SOL    HW2 9985   6.206   6.673   0.489 -0.3230 -0.3106 -0.3259
 3154SOL     OW 9986   2.476   1.500   6.271 -0.0142 -0.0816  0.2916
 3154SOL    HW1 9987   2.502   1.441   6.200 -1.2403 -1.7624  1.1769
 3154SOL    HW2 9988   2.551   1.560   6.280  0.9323 -0.9543 -1.1914
 3155SOL     OW 9989   6.012   3.088   2.342 -0.0388 -0.4575 -0.0600
 3155SOL    HW1 9990   5.983   2.999   2.325 -0.8979 -0.0000 -1.0978
 3155SOL    HW2 9991   5.941   3.143   2.310  0.8985  0.6280 -0.3461
 3156SOL     OW 9992   1.127   0.674   2.824 -0.4195 -0.0397 -0.5118
 3156SOL    HW1 9993   1.137   0.742   2.757 -0.6864 -0.6328 -1.1612
 3156SOL    HW2 9994   1.117   0.593   2.775 -1.6821 -0.3540  0.2235
 3157SOL     OW 9995   5.344   2.546   0.681  0.5096 -0.2305  0.5894
 3157SOL    HW1 9996   5.373   2.492   0.608  0.3582 -0.2242  0.5250
 3157SOL    HW2 9997   5.250   2.531   0.687  0.0579  1.6320 -0.7739
 3158SOL     OW 9998   6.754   1.406   4.752 -0.1865  0.2558 -0.0409
 3158SOL    HW1 9999   6.774   1.494   4.721 -0.1356  0.0157 -0.6901
 3158SOL    HW210000   6.826   1.385   4.812 -1.1516  1.3760  1.6059
 3159SOL     OW10001   3.698   4.111   5.709 -0.4341  0.5913 -0.1141
 3159SOL    HW110002   3.659   4.196   5.728  1.6806  1.7156 -0.5724
 3159SOL    HW210003   3.725   4.116   5.618 -0.6659 -0.7514 -0.2856
 3160SOL     OW10004   3.030   1.654   0.467 -0.1704 -0.0466  0.1126
 3160SOL    HW110005   3.100   1.683   0.525 -1.2103  1.2228  0.7893
 3160SOL    HW210006   2.980   1.734   0.447  0.6976 -0.2284 -3.3677
 3161SOL     OW10007   5.979   5.023   0.736 -0.0671  0.1456  0.0972
 3161SOL    HW110008   6.041   4.950   0.737  0.1626  0.3260 -0.6338
 3161SOL    HW210009   5.917   5.002   0.667 -0.9468 -0.1198  0.9404
 3162SOL     OW10010   3.957   7.318   0.191  0.1011 -0.1640  0.3000
 3162SOL    HW110011   4.037   7.295   0.239  0.2750 -0.3675 -0.0816
 3162SOL    HW210012   3.988   7.338   0.103 -0.3791 -1.1211 -0.0946
 3163SOL     OW10013   1.239   6.424   6.869  0.1915 -0.3304  0.3004
 3163SOL    HW110014   1.144   6.427   6.874  0.2113  0.2066  0.3418
 3163SOL    HW210015   1.267   6.514   6.883  0.7439 -0.6163  1.0915
 3164SOL     OW10016   5.130   2.253   6.167 -0.2395  0.3659  0.6484
 3164SOL    HW110017   5.079   2.310   6.109  0.1238 -0.8167 -0.9242
 3164SOL    HW210018   5.146   2.306   6.245 -3.8111  0.8083  1.2636
 3165SOL     OW10019   3.214   5.882   4.969 -0.3570 -0.1323  0.0115
 3165SOL    HW110020   3.198   5.917   5.057  3.1097  2.7601 -0.2464
 3165SOL    HW210021   3.127   5.868   4.932 -1.9440 -1.1417  3.7024
 3166SOL     OW10022   0.439   0.930   2.793  0.3641 -0.2810  0.1386
 3166SOL    HW110023   0.509   0.928   2.728  2.4052 -1.3836  2.2173
 3166SOL    HW210024   0.391   0.849   2.780  1.6100 -1.1552  0.8186
 3167SOL     OW10025   0.290   7.553   2.966 -0.0311 -0.0627  0.5671
 3167SOL    HW110026   0.328   7.635   2.996  0.5696 -0.2849  0.4282
 3167SOL    HW210027   0.197   7.560   2.988 -0.0449  0.7854  0.2562
 3168SOL     OW10028   6.046   0.835   2.008  0.4037 -0.3569 -0.7068
 3168SOL    HW110029   6.105   0.850   2.081  1.1677 -0.3715 -1.3062
 3168SOL    HW210030   6.084   0.760   1.962 -0.3566 -0.6804 -0.8222
 3169SOL     OW10031   2.993   1.285   1.047  0.4700  0.1638 -0.3249
 3169SOL    HW110032   3.009   1.190   1.043 -1.4637 -0.3048  1.2743
 3169SOL    HW210033   2.979   1.311   0.956 -1.6659 -1.6602 -0.5997
 3170SOL     OW10034   7.386   3.531   7.061 -0.1122  0.0413 -0.0388
 3170SOL    HW110035   7.392   3.504   6.969  1.4435  0.0550  0.0227
 3170SOL    HW210036   7.293   3.527   7.082 -1.0312  3.4910 -2.6094
 3171SOL     OW10037   5.345   1.625   3.303  0.5162  0.1461  0.6743
 3171SOL    HW110038   5.360   1.708   3.258 -1.7375  0.3991  0.2614
 3171SOL    HW210039   5.277   1.582   3.251  1.2735 -1.7559  1.1661
 3172SOL     OW10040   4.782   1.240   2.821  0.1222  0.0257  0.1869
 3172SOL    HW110041   4.854   1.237   2.884  0.0833  1.1648  0.3009
 3172SOL    HW210042   4.714   1.185   2.860  0.4048  0.0602  0.7351
 3173SOL     OW10043   3.364   0.831   5.248 -0.0853  0.1869 -0.5296
 3173SOL    HW110044   3.378   0.835   5.153  2.8828  0.1076 -0.1853
 3173SOL    HW210045   3.392   0.743   5.273 -2.7845 -0.5546  0.2478
 3174SOL     OW10046   4.112   3.561   0.367 -0.2036  0.1197  0.0343
 3174SOL    HW110047   4.030   3.526   0.333 -0.5134  0.5483  0.3398
 3174SOL    HW210048   4.132   3.507   0.443 -1.4936  1.5519  1.4587
 3175SOL     OW10049   6.005   1.257   1.317 -0.5642  0.3070 -0.2747
 3175SOL    HW110050   6.059   1.194   1.269  0.4833 -1.5503  3.0300
 3175SOL    HW210051   6.063   1.330   1.334  0.1368 -0.4882  0.9051
 3176SOL     OW10052   1.586   3.764   7.012 -0.5978 -0.2864 -0.2740
 3176SOL    HW110053   1.557   3.853   6.992 -0.0997 -0.1126 -0.2219
 3176SOL    HW210054   1.667   3.753   6.963 -1.0041 -0.9542 -0.8241
 3177SOL     OW10055   6.543   6.405   6.686 -0.4444  0.2006 -0.8310
 3177SOL    HW110056   6.482   6.452   6.742 -1.2136 -1.0367 -0.5763
 3177SOL    HW210057   6.608   6.368   6.746 -1.5164 -1.4952 -0.6348
 3178SOL     OW10058   7.414   0.137   6.737  0.1062 -0.2836 -0.3196
 3178SOL    HW110059   7.319   0.132   6.741  0.1833 -1.4722  0.3869
 3178SOL    HW210060   7.443   0.046   6.736  1.3052  0.0086  1.8178
 3179SOL     OW10061   0.912   0.488   3.957 -0.1817 -0.0933  0.2302
 3179SOL    HW110062   0.858   0.556   3.915 -0.5261 -1.8279 -2.3889
 3179SOL    HW210063   1.001   0.507   3.927 -0.2611 -0.6888 -0.4056
 3180SOL     OW10064   3.232   6.207   1.435 -0.7813  0.2125 -0.8382
 3180SOL    HW110065   3.307   6.200   1.495  0.5254  0.1830 -2.4004
 3180SOL    HW210066   3.185   6.286   1.464  0.7609  1.1535 -0.7920
 3181SOL     OW10067   1.958   5.230   3.024  0.5007  0.3078  0.1440
 3181SOL    HW110068   1.975   5.324   3.029  2.8025 -0.1134  3.0093
 3181SOL    HW210069   1.877   5.218   3.075  0.0870  0.7399 -0.4023
 3182SOL     OW10070   2.140   3.046   3.218  0.1960  0.2282 -0.2894
 3182SOL    HW110071   2.187   3.115   3.172  0.6250  1.0958  1.3700
 3182SOL    HW210072   2.187   2.966   3.197  0.1921  0.5476 -1.5689
 3183SOL     OW10073   1.431   5.003   1.247  0.1287  0.5391  0.6152
 3183SOL    HW110074   1.410   5.095   1.234  1.9961  0.7602 -1.5377
 3183SOL    HW210075   1.519   5.004   1.284  0.8849 -0.3105 -1.0185
 3184SOL     OW10076   1.870   3.633   2.432 -0.2551 -0.2488 -0.0108
 3184SOL    HW110077   1.852   3.721   2.465  1.1026  0.0927 -0.1444
 3184SOL    HW210078   1.938   3.599   2.490 -1.2618 -1.5052  0.4910
 3185SOL     OW10079   1.492   7.206   1.647 -0.2727 -0.1901 -0.3555
 3185SOL    HW110080   1.484   7.286   1.699 -1.5109 -0.8200  0.4762
 3185SOL    HW210081   1.406   7.195   1.607 -0.0036 -0.9150 -0.7496
 3186SOL     OW10082   1.508   0.333   5.447  0.9055  0.0640 -0.3239
 3186SOL    HW110083   1.552   0.252   5.475 -0.9320 -1.1152 -0.7055
 3186SOL    HW210084   1.453   0.357   5.522  0.6575  0.3904 -0.6091
 3187SOL     OW10085   6.064   6.770   3.189  0.0362  0.4492  0.1222
 3187SOL    HW110086   6.089   6.746   3.278  0.5916  0.1022 -0.1195
 3187SOL    HW210087   6.129   6.725   3.134 -1.6867 -1.3132 -0.5852
 3188SOL     OW10088   4.462   7.101   2.284  0.0132  0.2140 -0.3215
 3188SOL    HW110089   4.429   7.034   2.344 -0.8384  0.2415 -0.7458
 3188SOL    HW210090   4.455   7.183   2.333 -2.2367  0.4884 -0.9639
 3189SOL     OW10091   3.191   4.413   1.741  0.3303 -0.3237  0.6095
 3189SOL    HW110092   3.216   4.329   1.779 -0.1480 -0.7629 -0.0471
 3189SOL    HW210093   3.167   4.393   1.651  0.1496  0.5085  0.4655
 3190SOL     OW10094   0.887   2.319   2.773 -0.0299 -0.0462  0.4805
 3190SOL    HW110095   0.958   2.271   2.817  0.6278 -0.1545 -0.6665
 3190SOL    HW210096   0.853   2.378   2.841 -0.3446 -1.5662  1.6967
 3191SOL     OW10097   2.105   6.013   0.890 -0.3889 -0.2744  0.3272
 3191SOL    HW110098   2.183   5.989   0.940  0.4303 -1.6045 -1.4948
 3191SOL    HW210099   2.094   5.943   0.826 -0.8825  1.7223 -1.9225
 3192SOL     OW10100   3.352   5.671   1.729 -0.0040 -0.2103  0.9517
 3192SOL    HW110101   3.377   5.739   1.667 -0.0128 -0.2299  0.9266
 3192SOL    HW210102   3.292   5.715   1.789 -0.1903 -0.2553  0.7978
 3193SOL     OW10103   3.173   0.686   6.107 -0.0266  0.6248  0.3215
 3193SOL    HW110104   3.113   0.688   6.033  1.1132  0.5409 -0.6279
 3193SOL    HW210105   3.208   0.775   6.113 -1.6096  1.2162  2.0789
 3194SOL     OW10106   6.244   1.732   7.519 -0.4502 -0.6098  0.3786
 3194SOL    HW110107   6.294   1.662   7.479 -1.4455 -0.5493 -1.0980
 3194SOL    HW210108   6.191   1.690   7.586 -0.7770 -1.2281 -0.2567
 3195SOL     OW10109   4.099   0.543   4.308 -0.1621  0.3767  0.0525
 3195SOL    HW110110   4.020   0.512   4.353 -1.2364  0.5871 -1.5806
 3195SOL    HW210111   4.120   0.626   4.350 -0.8410  0.3344  0.4932
 3196SOL     OW10112   2.614   2.540   4.515 -0.0424  0.1518  0.4013
 3196SOL    HW110113   2.590   2.621   4.562  0.0648 -0.0383  0.7885
 3196SOL    HW210114   2.708   2.532   4.529 -0.3553 -1.1295  2.1285
 3197SOL     OW10115   2.375   6.379   1.200  0.8611  0.0093  0.4954
 3197SOL    HW110116   2.469   6.392   1.185  0.8146  0.3741  0.4962
 3197SOL    HW210117   2.357   6.292   1.167  1.1007  0.1397  0.0115
 3198SOL     OW10118   0.262   4.412   6.041  0.3086  0.6547  0.1759
 3198SOL    HW110119   0.322   4.428   5.968 -0.1057 -1.1932 -0.6406
 3198SOL    HW210120   0.318   4.409   6.118  1.5839 -2.4026 -0.7240
 3199SOL     OW10121   7.492   7.333   6.212 -0.4179  0.8083  0.5059
 3199SOL    HW110122   7.568   7.391   6.213 -0.6838  1.1612  0.5959
 3199SOL    HW210123   7.476   7.317   6.119  0.7957 -0.6505  0.5194
 3200SOL     OW10124   1.356   3.793   2.665 -0.7340 -0.0486 -0.2528
 3200SOL    HW110125   1.422   3.734   2.701 -1.3981 -1.2592 -0.9417
 3200SOL    HW210126   1.324   3.749   2.587 -2.0656  0.6943 -0.1725
 3201SOL     OW10127   6.446   4.978   2.619 -0.5044 -0.2135 -0.3911
 3201SOL    HW110128   6.368   4.966   2.673 -0.5868 -0.0240 -0.4661
 3201SOL    HW210129   6.496   4.897   2.629  0.1621  0.3348  1.0661
 3202SOL     OW10130   3.773   0.146   6.683  0.3391  0.3204 -0.5388
 3202SOL    HW110131   3.737   0.155   6.771  0.7752  0.9007 -0.4156
 3202SOL    HW210132   3.822   0.227   6.668  2.0210 -0.6270 -0.4899
 3203SOL     OW10133   3.810   4.223   5.915 -0.4582  0.1479 -0.3490
 3203SOL    HW110134   3.780   4.158   5.851 -0.8248 -0.0303  0.0040
 3203SOL    HW210135   3.882   4.180   5.962  0.1728  0.4684 -0.9904
 3204SOL     OW10136   2.310   3.682   3.396  0.2757  0.5659 -0.2700
 3204SOL    HW110137   2.265   3.646   3.321 -3.2092 -0.4967  2.0872
 3204SOL    HW210138   2.263   3.763   3.416  1.2993  0.9754  0.6088
 3205SOL     OW10139   7.406   2.740   4.130  0.0263  0.5243  0.5045
 3205SOL    HW110140   7.490   2.735   4.085 -0.5963  0.2639 -0.6566
 3205SOL    HW210141   7.412   2.819   4.184  0.8117  0.8113  0.0040
 3206SOL     OW10142   1.225   0.948   3.133 -0.3233  0.2782  0.2909
 3206SOL    HW110143   1.312   0.923   3.164 -0.4968  0.2635  0.7625
 3206SOL    HW210144   1.197   0.874   3.078 -0.1856  0.1311  0.4186
 3207SOL     OW10145   4.688   1.755   4.158 -0.2971 -0.0083  0.3614
 3207SOL    HW110146   4.596   1.728   4.154 -0.8638  1.8783 -0.2383
 3207SOL    HW210147   4.723   1.708   4.234 -1.7560 -0.7629  0.6037
 3208SOL     OW10148   5.281   6.023   1.030 -0.1947  0.3889 -0.3010
 3208SOL    HW110149   5.224   6.097   1.006  1.5026  0.9028 -3.2359
 3208SOL    HW210150   5.343   6.060   1.092 -0.7476  0.7871  0.0288
 3209SOL     OW10151   3.124   2.826   1.385  0.2990 -0.2050  0.0318
 3209SOL    HW110152   3.068   2.867   1.318  0.4094  0.5167  0.3720
 3209SOL    HW210153   3.153   2.744   1.345 -0.9014 -0.5330 -0.2042
 3210SOL     OW10154   5.217   0.269   3.830  0.4050 -0.1226 -0.3747
 3210SOL    HW110155   5.211   0.204   3.900  0.5832 -0.9867 -1.1381
 3210SOL    HW210156   5.302   0.310   3.844  0.5094 -0.3995 -0.1731
 3211SOL     OW10157   1.401   3.620   7.346  0.2980  0.4177  0.6298
 3211SOL    HW110158   1.457   3.600   7.421 -1.0078 -0.7354  1.3212
 3211SOL    HW210159   1.446   3.579   7.272  0.8491  0.3398  0.9981
 3212SOL     OW10160   4.644   4.062   2.343  0.6214 -0.0543  0.7201
 3212SOL    HW110161   4.713   4.117   2.381  0.7471  0.9137 -0.8349
 3212SOL    HW210162   4.562   4.106   2.367  0.7421  1.2558 -1.0636
 3213SOL     OW10163   0.037   1.717   3.750  0.5171 -0.4138 -0.1586
 3213SOL    HW110164  -0.031   1.678   3.804  0.2010  0.9321  0.4577
 3213SOL    HW210165   0.105   1.650   3.745  0.2051 -0.8609  1.2418
 3214SOL     OW10166   0.221   1.930   5.850  0.0975 -0.0960 -0.7781
 3214SOL    HW110167   0.186   1.904   5.935 -0.7886  2.4058 -0.3158
 3214SOL    HW210168   0.316   1.931   5.862  0.2711 -3.2470 -0.9495
 3215SOL     OW10169   5.880   5.703   6.733 -0.2303 -0.1295  0.5937
 3215SOL    HW110170   5.880   5.630   6.794  0.2954 -0.7700 -0.1537
 3215SOL    HW210171   5.950   5.761   6.765 -0.7958  0.1739  1.3142
 3216SOL     OW10172   0.724   3.814   0.324  0.5766  0.7984  0.6138
 3216SOL    HW110173   0.802   3.815   0.268  0.2101 -0.1649  0.0481
 3216SOL    HW210174   0.750   3.862   0.403  1.9864 -0.1183  0.7472
 3217SOL     OW10175   3.192   5.288   1.933  0.5181  0.6234 -0.3248
 3217SOL    HW110176   3.105   5.305   1.898  0.2905  0.6910  0.2604
 3217SOL    HW210177   3.206   5.358   1.998  1.3365  1.0893 -0.9902
 3218SOL     OW10178   1.084   4.907   4.655  0.3523  0.1353 -0.0550
 3218SOL    HW110179   1.070   4.820   4.692 -0.0023  0.2611  0.1102
 3218SOL    HW210180   0.996   4.938   4.635  0.4894  0.4007 -0.2433
 3219SOL     OW10181   0.079   3.723   6.148 -0.3821  0.5948 -0.4435
 3219SOL    HW110182   0.073   3.818   6.158  0.1701  0.4648  1.3508
 3219SOL    HW210183   0.137   3.694   6.219 -2.2170 -1.2978  0.3963
 3220SOL     OW10184   5.562   3.831   1.027 -0.2377  0.5807 -0.5381
 3220SOL    HW110185   5.547   3.736   1.020  0.0918  0.5585 -0.9673
 3220SOL    HW210186   5.644   3.838   1.076 -0.7637  0.6713  0.3617
 3221SOL     OW10187   7.456   6.989   3.331 -0.5557 -0.5722  0.3519
 3221SOL    HW110188   7.372   6.943   3.324 -0.2813 -0.8388 -4.0290
 3221SOL    HW210189   7.434   7.081   3.322 -0.4908 -0.4217  1.5365
 3222SOL     OW10190   7.003   4.267   6.038 -0.2158 -0.3147  0.4954
 3222SOL    HW110191   7.047   4.352   6.036  1.6259 -1.2220 -1.6136
 3222SOL    HW210192   6.962   4.264   6.124  1.2213  1.9174  1.3733
 3223SOL     OW10193   2.288   2.148   4.577  0.6464 -0.2775  0.0653
 3223SOL    HW110194   2.210   2.201   4.562 -0.2170 -0.5291  3.0405
 3223SOL    HW210195   2.359   2.212   4.585  1.1779 -0.0891 -3.8332
 3224SOL     OW10196   6.786   1.073   0.431  0.2707  0.1990  0.1448
 3224SOL    HW110197   6.821   1.022   0.358 -1.0738  0.0143 -0.4082
 3224SOL    HW210198   6.844   1.148   0.438  0.0606  0.5530 -1.5490
 3225SOL     OW10199   1.484   4.702   4.708  0.5176 -0.5253 -0.1689
 3225SOL    HW110200   1.442   4.788   4.713  1.4277 -0.1188  0.9640
 3225SOL    HW210201   1.479   4.678   4.616 -1.4941 -0.1665 -0.2129
 3226SOL     OW10202   1.535   7.309   3.825 -0.0011  0.0873 -0.4998
 3226SOL    HW110203   1.607   7.366   3.852 -0.4577  1.1341 -1.4362
 3226SOL    HW210204   1.578   7.227   3.801  0.8823  0.6392 -0.8731
 3227SOL     OW10205   4.737   5.914   6.800  0.0596  0.3605 -0.7565
 3227SOL    HW110206   4.707   5.825   6.784 -0.5680  0.4772 -0.2692
 3227SOL    HW210207   4.824   5.918   6.759 -0.5290 -0.0233 -2.0914
 3228SOL     OW10208   5.071   2.867   1.352  0.3424 -0.2253 -0.4734
 3228SOL    HW110209   5.010   2.884   1.280 -0.4817  1.0218  0.4767
 3228SOL    HW210210   5.155   2.853   1.309 -0.5823 -2.1988 -1.8400
 3229SOL     OW10211   3.719   4.822   0.998  0.0269 -0.4883 -0.4182
 3229SOL    HW110212   3.797   4.850   1.044  0.8516  1.0786 -2.5821
 3229SOL    HW210213   3.718   4.875   0.918 -0.4517 -4.0001 -2.9836
 3230SOL     OW10214   4.717   5.139   6.483 -0.1098 -0.2792 -0.1659
 3230SOL    HW110215   4.723   5.115   6.575  0.5011 -1.9774 -0.6058
 3230SOL    HW210216   4.805   5.165   6.458 -0.5179  1.3550 -0.0066
 3231SOL     OW10217   3.977   2.783   7.370  0.2674  0.0058  0.3875
 3231SOL    HW110218   3.952   2.855   7.312 -1.6574 -0.7833  0.1505
 3231SOL    HW210219   3.900   2.770   7.426  1.0167 -1.1203  1.2018
 3232SOL     OW10220   3.734   3.515   2.644  0.4945  0.1508  0.0797
 3232SOL    HW110221   3.729   3.447   2.711  0.5403 -0.5923 -0.6430
 3232SOL    HW210222   3.823   3.510   2.611  0.5601  0.7137  0.1604
 3233SOL     OW10223   0.769   2.159   5.535 -0.3215 -0.1407  0.4633
 3233SOL    HW110224   0.830   2.086   5.532 -0.7275 -0.6370  2.7580
 3233SOL    HW210225   0.703   2.133   5.599 -1.2727  1.6583  0.2854
 3234SOL     OW10226   6.555   5.210   3.808 -0.9075 -0.1983 -0.1227
 3234SOL    HW110227   6.550   5.197   3.903 -1.5837  0.9541  0.0138
 3234SOL    HW210228   6.489   5.276   3.789 -0.0025  0.4216 -1.2408
 3235SOL     OW10229   1.633   5.685   2.288  0.3717 -0.4271  0.1437
 3235SOL    HW110230   1.553   5.637   2.309 -0.1849  0.3768 -0.0967
 3235SOL    HW210231   1.602   5.770   2.255  1.3096 -0.2913 -0.4126
 3236SOL     OW10232   4.459   0.526   1.104 -0.4418 -0.0251  0.1254
 3236SOL    HW110233   4.506   0.442   1.099 -0.0162 -0.0125  2.5237
 3236SOL    HW210234   4.487   0.574   1.026 -1.6433 -2.5134 -1.9944
 3237SOL     OW10235   7.116   1.000   5.789  0.0129  0.4273 -0.4476
 3237SOL    HW110236   7.056   0.979   5.718 -0.4412  2.3291 -0.6821
 3237SOL    HW210237   7.068   0.974   5.869 -1.5000  2.5211 -0.5811
 3238SOL     OW10238   2.603   5.146   3.690  0.1189  0.6510  0.0150
 3238SOL    HW110239   2.663   5.218   3.673  2.2917 -1.6614 -3.2799
 3238SOL    HW210240   2.654   5.084   3.743 -1.1274  0.7213  1.3630
 3239SOL     OW10241   4.910   2.743   3.771  0.7209  0.4212 -0.2664
 3239SOL    HW110242   4.934   2.777   3.858  0.8212 -1.6592  0.5768
 3239SOL    HW210243   4.815   2.756   3.766  0.6452  0.1668  0.3623
 3240SOL     OW10244   4.525   7.484   6.090  0.6165  0.5842  0.3116
 3240SOL    HW110245   4.434   7.515   6.082  0.2096 -0.3661  1.0705
 3240SOL    HW210246   4.561   7.494   6.002  0.0805  1.8773  0.2123
 3241SOL     OW10247   2.897   1.153   7.355 -0.5979  0.4006  0.0738
 3241SOL    HW110248   2.886   1.073   7.303  1.2253 -0.1864  0.5048
 3241SOL    HW210249   2.888   1.224   7.291 -0.1243 -0.2458 -0.7466
 3242SOL     OW10250   7.307   4.390   6.586  0.2053  0.7044 -0.4248
 3242SOL    HW110251   7.361   4.468   6.598 -0.7403  1.3158 -0.0328
 3242SOL    HW210252   7.220   4.423   6.565 -0.1262 -0.2512 -0.6377
 3243SOL     OW10253   1.906   5.661   3.540 -0.6313 -0.5070  0.0136
 3243SOL    HW110254   1.847   5.602   3.494  0.5421 -0.9754 -0.9432
 3243SOL    HW210255   1.961   5.604   3.594 -0.3458 -0.1818  0.0726
 3244SOL     OW10256   1.557   2.127   5.274  0.0282 -0.1080 -0.0502
 3244SOL    HW110257   1.512   2.053   5.314  1.7742 -1.2335 -0.0568
 3244SOL    HW210258   1.540   2.200   5.334  0.8599 -1.2737  1.6877
 3245SOL     OW10259   4.636   6.667   7.029  0.1928  0.1718 -0.9223
 3245SOL    HW110260   4.634   6.759   7.057  0.6278  0.0232 -0.3839
 3245SOL    HW210261   4.545   6.646   7.010 -0.2792  0.0410  1.2322
 3246SOL     OW10262   3.282   1.168   0.847  0.4760 -0.1298  0.2030
 3246SOL    HW110263   3.215   1.221   0.804  0.8703  0.2348  0.0356
 3246SOL    HW210264   3.247   1.153   0.935 -0.0909 -0.4324 -0.0693
 3247SOL     OW10265   4.899   5.162   6.139 -0.0542  0.2649 -0.3812
 3247SOL    HW110266   4.817   5.202   6.168 -0.3494 -1.5578  1.5192
 3247SOL    HW210267   4.955   5.164   6.217  0.9728 -0.3846 -1.0765
 3248SOL     OW10268   2.275   3.225   5.543  0.6599 -0.2773 -0.2694
 3248SOL    HW110269   2.334   3.245   5.470  0.5817 -2.6939 -1.0572
 3248SOL    HW210270   2.256   3.132   5.534  0.9920 -0.7844  3.1115
 3249SOL     OW10271   1.916   2.266   3.395  0.2681 -0.3346 -0.3169
 3249SOL    HW110272   1.962   2.335   3.346  0.2003  0.6582  0.9797
 3249SOL    HW210273   1.828   2.267   3.359  0.3115  0.1573 -0.4291
 3250SOL     OW10274   5.630   4.100   7.248  0.6265 -0.1992  0.4331
 3250SOL    HW110275   5.649   4.144   7.165 -0.2589  1.0088  0.8362
 3250SOL    HW210276   5.600   4.013   7.222  0.4899  0.1145 -0.5123
 3251SOL     OW10277   0.153   0.770   4.609 -0.6275  0.1605  0.1269
 3251SOL    HW110278   0.161   0.858   4.572 -2.7852  0.1838 -0.4557
 3251SOL    HW210279   0.200   0.714   4.548  0.0591  0.8076  0.0506
 3252SOL     OW10280   5.824   4.190   2.033  0.2398  0.0832  0.1112
 3252SOL    HW110281   5.786   4.230   1.955  2.1281  0.9559 -0.4154
 3252SOL    HW210282   5.755   4.197   2.099 -0.9275  0.5083 -1.0896
 3253SOL     OW10283   1.966   6.824   5.928  0.0268  0.1055 -0.4168
 3253SOL    HW110284   2.007   6.740   5.945  1.2378  0.5167 -1.1869
 3253SOL    HW210285   2.031   6.873   5.877 -0.1328  1.9716  1.0448
 3254SOL     OW10286   6.469   5.645   2.279  0.3728  0.7620  0.3019
 3254SOL    HW110287   6.502   5.586   2.346 -0.6928 -0.0914  0.1178
 3254SOL    HW210288   6.395   5.690   2.320  0.4802  1.1433  0.0858
 3255SOL     OW10289   6.685   4.445   1.586 -0.6432 -0.5920  0.0600
 3255SOL    HW110290   6.762   4.474   1.636 -1.3267 -0.0719  0.8284
 3255SOL    HW210291   6.721   4.386   1.520  0.2510 -1.7745  1.5220
 3256SOL     OW10292   5.416   0.825   2.416  0.3529  0.0723  0.2681
 3256SOL    HW110293   5.353   0.868   2.358  1.5756  2.6919  0.7537
 3256SOL    HW210294   5.415   0.733   2.388 -1.7324  0.5393 -1.4507
 3257SOL     OW10295   3.767   5.411   0.675 -0.0159  0.5893  0.1648
 3257SOL    HW110296   3.843   5.451   0.633 -0.7801  1.8115 -0.1030
 3257SOL    HW210297   3.692   5.436   0.620 -0.6924 -0.1192  0.7268
 3258SOL     OW10298   0.294   5.641   1.176  0.7344  0.4338  0.2717
 3258SOL    HW110299   0.229   5.596   1.229 -0.7723 -0.7130 -2.3305
 3258SOL    HW210300   0.364   5.577   1.163  0.5227  0.2702 -0.0875
 3259SOL     OW10301   7.420   7.416   2.254  0.0772 -0.2978  0.2981
 3259SOL    HW110302   7.376   7.355   2.196 -0.2890 -0.9250  1.2105
 3259SOL    HW210303   7.470   7.473   2.195 -0.2216 -0.9505 -0.6171
 3260SOL     OW10304   6.426   6.491   5.996  0.2857  0.1606  0.3559
 3260SOL    HW110305   6.447   6.414   5.944  0.3790  0.8794 -0.7032
 3260SOL    HW210306   6.509   6.516   6.037  0.4516  0.2356 -0.0290
 3261SOL     OW10307   3.601   2.354   4.063  0.2331  0.3823 -0.5465
 3261SOL    HW110308   3.524   2.378   4.011 -1.7306  0.4737  2.1480
 3261SOL    HW210309   3.565   2.303   4.135  2.8752 -0.4120  0.3024
 3262SOL     OW10310   1.437   5.093   7.233  0.1278  0.2334 -0.3916
 3262SOL    HW110311   1.460   5.185   7.248  0.5318  0.2739 -1.2031
 3262SOL    HW210312   1.347   5.085   7.264  0.4210  0.6545  0.6212
 3263SOL     OW10313   0.113   0.355   7.459  0.0150  0.2023 -0.0782
 3263SOL    HW110314   0.184   0.369   7.521  0.6751  1.3882 -1.0602
 3263SOL    HW210315   0.138   0.405   7.382 -0.5617 -1.6109 -1.5038
 3264SOL     OW10316   0.353   0.100   7.507  0.2903  0.1254  0.8694
 3264SOL    HW110317   0.373   0.089   7.600  1.2414  0.9808  0.7903
 3264SOL    HW210318   0.369   0.193   7.491 -2.2028  0.5337  0.3783
 3265SOL     OW10319   4.972   6.473   3.426 -0.5070 -0.4882 -0.1384
 3265SOL    HW110320   4.892   6.524   3.433 -0.9835 -1.0838 -0.9542
 3265SOL    HW210321   4.993   6.474   3.333  1.6057  1.3580  0.2752
 3266SOL     OW10322   3.399   0.525   6.113  0.2641  0.4189 -0.5112
 3266SOL    HW110323   3.441   0.505   6.197  0.8279  0.1143 -0.8582
 3266SOL    HW210324   3.356   0.609   6.127 -0.2683  0.0254  0.3042
 3267SOL     OW10325   4.207   0.418   5.866  0.0269 -0.1003  0.2502
 3267SOL    HW110326   4.271   0.354   5.834  0.8569  0.6480  0.3815
 3267SOL    HW210327   4.122   0.377   5.850  0.5130 -0.8220 -0.5533
 3268SOL     OW10328   7.239   7.105   5.699 -0.3331 -0.1712  0.0919
 3268SOL    HW110329   7.293   7.027   5.710  0.7372  0.4634 -0.4549
 3268SOL    HW210330   7.255   7.156   5.779 -0.8478 -0.4047  0.3440
 3269SOL     OW10331   5.571   1.736   2.409 -0.2791 -0.0171 -0.3208
 3269SOL    HW110332   5.628   1.780   2.472 -0.5198 -0.2369  0.0565
 3269SOL    HW210333   5.524   1.807   2.365 -1.1140  0.0935  0.7075
 3270SOL     OW10334   3.412   4.219   1.651 -0.2911 -0.4415  0.1427
 3270SOL    HW110335   3.466   4.275   1.706  0.4559 -1.4019  0.4185
 3270SOL    HW210336   3.472   4.150   1.621 -0.8946 -0.4239 -1.1682
 3271SOL     OW10337   3.726   3.550   3.142  0.5516 -0.1543  0.0154
 3271SOL    HW110338   3.757   3.605   3.070  0.8299 -2.8753 -2.1023
 3271SOL    HW210339   3.799   3.491   3.161  0.0060 -0.3644  1.6784
 3272SOL     OW10340   4.452   3.488   1.364  0.0938  0.2125 -0.0730
 3272SOL    HW110341   4.444   3.444   1.449 -0.1916 -0.6170 -0.5212
 3272SOL    HW210342   4.546   3.502   1.353  0.1282  0.3779  0.4004
 3273SOL     OW10343   5.347   6.926   3.526 -0.0920 -0.0801 -0.3858
 3273SOL    HW110344   5.339   7.008   3.575 -1.3987 -0.0130 -0.6800
 3273SOL    HW210345   5.331   6.858   3.592 -2.0539  0.0148 -0.6829
 3274SOL     OW10346   3.498   0.804   6.325 -0.4583 -0.0155 -0.6049
 3274SOL    HW110347   3.462   0.836   6.242  1.2469 -2.1386 -2.2612
 3274SOL    HW210348   3.569   0.865   6.346 -0.3405  0.0408 -1.1593
 3275SOL     OW10349   6.922   4.145   2.911 -0.2252  0.2115  0.1892
 3275SOL    HW110350   6.852   4.082   2.893 -0.5951  0.4365  0.8265
 3275SOL    HW210351   6.877   4.228   2.928  0.3085  0.9971 -1.9310
 3276SOL     OW10352   0.865   7.286   4.428 -0.3236  0.1407  0.0218
 3276SOL    HW110353   0.939   7.273   4.488  0.1371  3.5822  0.4090
 3276SOL    HW210354   0.899   7.346   4.361 -2.3878  0.7569 -0.5505
 3277SOL     OW10355   3.232   0.133   4.477 -0.8454 -0.6229 -0.2982
 3277SOL    HW110356   3.161   0.157   4.537  0.2574 -0.9059  1.1615
 3277SOL    HW210357   3.305   0.189   4.502 -0.6023 -0.1099 -1.9954
 3278SOL     OW10358   5.101   1.881   3.782 -0.7305 -0.4753  0.1509
 3278SOL    HW110359   5.164   1.893   3.711 -0.4693 -0.0403  0.4518
 3278SOL    HW210360   5.019   1.916   3.747 -0.3346  0.8223  0.4646
 3279SOL     OW10361   3.609   3.080   2.812 -0.4006  0.7214  0.3677
 3279SOL    HW110362   3.612   3.094   2.717 -1.2377  0.4113  0.2798
 3279SOL    HW210363   3.554   3.151   2.845 -1.1718  0.1082  0.4477
 3280SOL     OW10364   2.728   4.350   0.818  0.5487  0.1776  0.3714
 3280SOL    HW110365   2.704   4.441   0.801 -0.8540 -0.3847 -0.7754
 3280SOL    HW210366   2.791   4.328   0.750 -0.9369 -0.4003 -0.8850
 3281SOL     OW10367   0.637   6.615   6.042 -0.3191 -0.1394 -0.2049
 3281SOL    HW110368   0.600   6.588   5.958  0.5153 -0.3199 -0.5262
 3281SOL    HW210369   0.681   6.537   6.075  0.0295  0.1509  0.0259
 3282SOL     OW10370   0.270   4.062   5.816 -0.0223  0.3444 -0.2675
 3282SOL    HW110371   0.258   4.007   5.894  1.6231  0.3579  0.0440
 3282SOL    HW210372   0.337   4.126   5.842  0.8373  0.1209 -1.7893
 3283SOL     OW10373   1.652   5.364   4.409 -0.0306  0.6012 -0.1430
 3283SOL    HW110374   1.578   5.417   4.380 -0.7951 -0.7887 -0.8345
 3283SOL    HW210375   1.723   5.427   4.423 -1.0282  1.8402 -0.4807
 3284SOL     OW10376   0.453   1.324   6.576  0.1083  0.5844  0.0474
 3284SOL    HW110377   0.405   1.323   6.659 -0.4528 -1.7253 -0.2470
 3284SOL    HW210378   0.384   1.325   6.509  0.5101  0.0806 -0.3817
 3285SOL     OW10379   4.032   6.738   6.990 -0.1660 -0.0784 -0.4185
 3285SOL    HW110380   4.042   6.817   6.936 -2.0031 -0.0047 -0.6937
 3285SOL    HW210381   4.030   6.666   6.927 -3.0257  0.0606 -0.6195
 3286SOL     OW10382   5.074   6.326   4.951  0.1516 -0.4183 -0.1167
 3286SOL    HW110383   5.076   6.233   4.973  1.8098 -0.3176  0.3053
 3286SOL    HW210384   5.161   6.345   4.917 -0.4333  0.8032 -1.0309
 3287SOL     OW10385   6.854   4.933   2.222  0.1672  0.2328 -0.0452
 3287SOL    HW110386   6.771   4.977   2.241  0.8211  0.7779  1.7726
 3287SOL    HW210387   6.832   4.840   2.217 -0.8595  0.5323 -1.6606
 3288SOL     OW10388   1.470   4.914   0.954 -0.1930  0.1679  0.8099
 3288SOL    HW110389   1.387   4.937   0.913 -0.8226 -1.9603  0.8048
 3288SOL    HW210390   1.455   4.926   1.048 -0.2224  0.5725  0.7579
 3289SOL     OW10391   1.792   5.217   7.328 -0.1601  0.0236 -0.0751
 3289SOL    HW110392   1.821   5.154   7.394 -2.1554 -0.3973  0.4844
 3289SOL    HW210393   1.709   5.181   7.296 -0.4180  1.4408 -1.0894
 3290SOL     OW10394   1.830   1.946   0.429  0.3434 -0.4543  0.0836
 3290SOL    HW110395   1.757   2.006   0.450  0.6091 -0.4531  1.0828
 3290SOL    HW210396   1.872   1.931   0.514  2.7796  1.1681 -0.7481
 3291SOL     OW10397   5.545   1.280   4.290 -0.2732  0.0301 -0.0923
 3291SOL    HW110398   5.559   1.375   4.290  2.1430 -0.2426 -1.2894
 3291SOL    HW210399   5.595   1.249   4.214  0.6563 -2.4114  1.3986
 3292SOL     OW10400   1.253   3.363   4.936  0.3169 -0.3983  0.2257
 3292SOL    HW110401   1.318   3.370   5.006  2.1813  3.9404 -1.5175
 3292SOL    HW210402   1.174   3.403   4.972  1.2651  1.8158  0.0473
 3293SOL     OW10403   7.487   4.723   4.063 -0.3012 -0.2979 -0.4333
 3293SOL    HW110404   7.509   4.645   4.114  1.1680 -0.0969 -0.7045
 3293SOL    HW210405   7.513   4.701   3.973 -0.1906  0.3696 -0.5705
 3294SOL     OW10406   7.236   5.613   0.976 -0.2712  0.2215  0.1537
 3294SOL    HW110407   7.252   5.585   1.066 -0.6077 -0.9956 -0.1480
 3294SOL    HW210408   7.295   5.687   0.963 -0.0504  0.2646  1.2960
 3295SOL     OW10409   6.463   2.467   0.065 -0.0062  0.1398 -0.1818
 3295SOL    HW110410   6.416   2.412   0.003 -1.9330  1.0193  0.4411
 3295SOL    HW210411   6.463   2.416   0.147  1.7252 -0.6125 -0.5914
 3296SOL     OW10412   1.409   0.846   0.003  0.1335 -0.1043 -0.7672
 3296SOL    HW110413   1.457   0.847   0.085 -1.5483  1.0490  0.2761
 3296SOL    HW210414   1.438   0.766  -0.042  0.8358 -0.9307  1.0881
 3297SOL     OW10415   1.229   1.940   7.417 -0.1343  0.4374  0.3875
 3297SOL    HW110416   1.213   1.871   7.353  0.9535 -1.4114  1.9938
 3297SOL    HW210417   1.324   1.941   7.428 -0.3496 -0.4870  3.0974
 3298SOL     OW10418   1.092   1.571   6.236  0.3342  0.0712 -0.0700
 3298SOL    HW110419   1.053   1.603   6.317  0.5879  0.9302 -0.2781
 3298SOL    HW210420   1.177   1.616   6.231  0.5496 -0.3788 -0.5442
 3299SOL     OW10421   3.716   5.624   6.202  0.3431  0.4384  0.0823
 3299SOL    HW110422   3.671   5.642   6.284 -4.6952 -1.5939 -1.8412
 3299SOL    HW210423   3.742   5.532   6.208  2.1628  0.9166  0.1792
 3300SOL     OW10424   6.120   6.849   4.090  0.2579 -0.5597 -0.0613
 3300SOL    HW110425   6.094   6.759   4.070  0.7510 -0.6395 -0.3801
 3300SOL    HW210426   6.207   6.857   4.050  0.8588 -0.4195  1.2399
 3301SOL     OW10427   7.191   0.037   4.030  0.0334  0.0029  0.1017
 3301SOL    HW110428   7.106   0.045   4.073 -0.5789 -2.5370 -0.4822
 3301SOL    HW210429   7.198   0.115   3.976 -0.1819  2.1767  2.9526
 3302SOL     OW10430   3.344   2.453   2.098  0.0332  0.2554 -0.0057
 3302SOL    HW110431   3.328   2.547   2.103 -1.9394 -0.0059 -0.3664
 3302SOL    HW210432   3.298   2.425   2.018  0.7357 -0.9802 -0.0019
 3303SOL     OW10433   5.586   3.980   1.753 -0.3161 -0.3536  0.1049
 3303SOL    HW110434   5.517   3.957   1.691 -0.7992  3.0166 -0.7961
 3303SOL    HW210435   5.667   3.953   1.710 -0.7491  0.5942 -1.3696
 3304SOL     OW10436   1.709   7.172   1.496 -0.4454  0.1000 -0.4473
 3304SOL    HW110437   1.769   7.099   1.480  0.9574  1.3891 -1.2733
 3304SOL    HW210438   1.665   7.149   1.578  1.2928 -0.8252  0.2750
 3305SOL     OW10439   5.098   7.019   4.091  0.3784 -0.1410 -0.2849
 3305SOL    HW110440   5.121   7.110   4.074  2.4017 -0.6804 -0.8610
 3305SOL    HW210441   5.162   6.990   4.156  0.4783 -1.4138 -0.9107
 3306SOL     OW10442   6.313   0.039   5.227 -0.0170  0.4385 -0.5409
 3306SOL    HW110443   6.328  -0.047   5.188 -1.8212 -1.2410  2.1784
 3306SOL    HW210444   6.221   0.039   5.253  0.5395  2.2122  1.7543
 3307SOL     OW10445   5.333   4.719   1.045 -0.3668 -0.3115 -0.3908
 3307SOL    HW110446   5.421   4.713   1.006 -0.5988  1.4541 -1.2839
 3307SOL    HW210447   5.276   4.745   0.972 -1.3922 -0.1478  0.4499
 3308SOL     OW10448   5.049   5.727   5.112  0.0388  0.0053 -0.4900
 3308SOL    HW110449   5.057   5.819   5.134 -0.5388  0.2017 -1.0855
 3308SOL    HW210450   4.974   5.722   5.054  0.8177 -0.6597 -1.4830
 3309SOL     OW10451   6.419   1.759   5.308  0.9118 -0.3489  0.2625
 3309SOL    HW110452   6.403   1.854   5.310 -0.0484 -0.4607 -0.8888
 3309SOL    HW210453   6.511   1.751   5.285  0.6229  0.3144 -1.2223
 3310SOL     OW10454   6.080   1.431   6.458  0.1648  0.2398  0.0946
 3310SOL    HW110455   6.016   1.487   6.414  1.5201  1.1598 -0.7633
 3310SOL    HW210456   6.165   1.467   6.434  1.1728  2.6673  5.7124
 3311SOL     OW10457   0.203   6.720   6.300 -0.2768 -0.2176  0.1227
 3311SOL    HW110458   0.166   6.765   6.375 -0.4339 -1.1134  0.5981
 3311SOL    HW210459   0.138   6.732   6.230 -0.1609  0.5536  0.1472
 3312SOL     OW10460   0.421   5.646   7.471  0.2818  0.5030  0.2357
 3312SOL    HW110461   0.447   5.555   7.479  0.3403  0.4101 -0.8616
 3312SOL    HW210462   0.346   5.655   7.529  0.1687 -0.2862  0.2176
 3313SOL     OW10463   4.757   5.284   2.256 -0.0128 -0.0655  0.0547
 3313SOL    HW110464   4.755   5.229   2.334 -2.3443  1.6794  1.3374
 3313SOL    HW210465   4.792   5.368   2.287  0.8871  0.0627 -1.2434
 3314SOL     OW10466   4.026   5.985   4.321 -0.3253 -0.7087  0.2165
 3314SOL    HW110467   4.048   5.955   4.409 -1.3819  0.8625  1.0668
 3314SOL    HW210468   4.070   6.069   4.312 -2.1680  0.3172  0.2340
 3315SOL     OW10469   0.102   1.739   2.535  0.8511 -0.0781  0.3497
 3315SOL    HW110470   0.041   1.813   2.534  0.1519 -0.6447 -0.0752
 3315SOL    HW210471   0.175   1.767   2.479 -0.5381 -0.6002 -1.8636
 3316SOL     OW10472   2.780   3.124   6.332 -0.3054 -0.3246 -0.4444
 3316SOL    HW110473   2.777   3.040   6.288 -1.2108  0.7838 -2.6458
 3316SOL    HW210474   2.848   3.173   6.286  3.0095 -0.9728  3.2158
 3317SOL     OW10475   4.504   5.421   0.582  0.8393 -0.5237 -0.0674
 3317SOL    HW110476   4.429   5.362   0.571  0.8369 -0.5090 -0.1291
 3317SOL    HW210477   4.573   5.365   0.617  0.2916 -0.1932  1.6204
 3318SOL     OW10478   1.025   4.887   7.480 -0.0560 -0.4894 -0.2090
 3318SOL    HW110479   0.971   4.930   7.546  0.1173 -0.3015 -0.1910
 3318SOL    HW210480   0.962   4.846   7.421 -0.2397  0.3535 -0.6078
 3319SOL     OW10481   2.667   3.950   7.291 -0.1779  0.0937  0.1527
 3319SOL    HW110482   2.659   3.874   7.349  2.2012 -0.6144 -0.3367
 3319SOL    HW210483   2.591   3.944   7.234 -0.7024 -1.2066  0.9325
 3320SOL     OW10484   0.311   3.493   6.102 -0.1953 -0.3365 -0.3423
 3320SOL    HW110485   0.314   3.572   6.047  0.5184 -0.7323 -0.8931
 3320SOL    HW210486   0.278   3.523   6.186 -0.9202  0.3636 -0.8675
 3321SOL     OW10487   0.302   5.570   3.906 -0.2316  0.1753  1.0337
 3321SOL    HW110488   0.377   5.560   3.965  0.1518 -0.2374  0.4831
 3321SOL    HW210489   0.341   5.578   3.819 -0.8168  0.2319  0.7746
 3322SOL     OW10490   5.705   6.165   5.539  0.1113 -0.2449 -0.1465
 3322SOL    HW110491   5.675   6.074   5.549 -0.9776 -0.1074 -1.8128
 3322SOL    HW210492   5.650   6.215   5.598 -0.1829 -0.5117 -0.1891
 3323SOL     OW10493   4.016   4.757   4.539  0.0595 -0.0682 -0.0940
 3323SOL    HW110494   4.029   4.824   4.471  0.1193 -1.2101 -1.2443
 3323SOL    HW210495   4.084   4.775   4.603  0.3339  0.7229 -0.5892
 3324SOL     OW10496   2.160   6.729   1.059 -0.2169 -0.1589  0.1353
 3324SOL    HW110497   2.254   6.750   1.064 -0.5355  1.3504  0.4232
 3324SOL    HW210498   2.157   6.634   1.053  1.3142 -0.2977  0.9577
 3325SOL     OW10499   0.155   6.563   2.292 -0.4849 -0.1662 -0.8225
 3325SOL    HW110500   0.134   6.519   2.209 -0.8611  0.0682 -0.8512
 3325SOL    HW210501   0.109   6.647   2.287 -0.9231 -0.3629 -0.1590
 3326SOL     OW10502   3.179   5.270   2.223 -0.1973 -0.1082 -0.7848
 3326SOL    HW110503   3.192   5.346   2.280  0.0910  0.4337 -1.5732
 3326SOL    HW210504   3.084   5.257   2.221 -0.2582  0.3434 -0.8015
 3327SOL     OW10505   1.836   0.453   1.085  0.0282  0.0743 -0.1850
 3327SOL    HW110506   1.773   0.398   1.039  0.5283 -0.5902 -0.0930
 3327SOL    HW210507   1.840   0.417   1.173  1.0972 -0.3850 -0.3983
 3328SOL     OW10508   3.158   6.445   4.991 -0.6332 -0.8340  0.3708
 3328SOL    HW110509   3.117   6.523   4.955 -1.2515 -1.0681  0.5542
 3328SOL    HW210510   3.246   6.444   4.953 -0.8230 -0.3693 -0.0886
 3329SOL     OW10511   0.844   4.087   3.541  0.4077 -0.0515 -0.5373
 3329SOL    HW110512   0.917   4.025   3.543  0.8853  0.5308  0.6991
 3329SOL    HW210513   0.788   4.055   3.470  0.9678 -1.5103 -0.3521
 3330SOL     OW10514   0.773   1.611   7.500  0.5551  0.1162 -0.0136
 3330SOL    HW110515   0.813   1.560   7.430  1.1383 -0.7064  0.8930
 3330SOL    HW210516   0.845   1.630   7.560 -0.3791 -1.5131  1.7255
 3331SOL     OW10517   0.341   2.429   1.349 -0.1944  0.0063 -0.2954
 3331SOL    HW110518   0.309   2.435   1.259  0.0118 -2.5270 -0.6053
 3331SOL    HW210519   0.431   2.397   1.340 -0.1435 -0.1869  0.8019
 3332SOL     OW10520   2.718   3.248   4.590 -0.0842 -0.1273 -0.8158
 3332SOL    HW110521   2.644   3.304   4.615 -0.2766 -0.5939 -0.2982
 3332SOL    HW210522   2.796   3.298   4.615 -0.1543  0.9633 -2.6127
 3333SOL     OW10523   2.872   5.310   2.732  0.1835  0.1968 -0.6781
 3333SOL    HW110524   2.962   5.282   2.748  0.3619  1.2154  0.2062
 3333SOL    HW210525   2.836   5.328   2.819 -0.1425  1.9512 -1.1427
 3334SOL     OW10526   2.029   0.092   2.844  0.5093  0.5418 -0.1091
 3334SOL    HW110527   1.935   0.086   2.829  0.5056  0.1644  0.0526
 3334SOL    HW210528   2.068   0.049   2.767  0.5063 -0.7229  0.5602
 3335SOL     OW10529   1.625   5.318   4.965 -0.3234  0.0565  0.4844
 3335SOL    HW110530   1.631   5.379   5.039  0.1375 -0.3524  0.7877
 3335SOL    HW210531   1.571   5.364   4.900 -0.1826  0.6859  0.8088
 3336SOL     OW10532   0.440   2.231   4.130  0.5022  0.5268 -0.2987
 3336SOL    HW110533   0.414   2.170   4.061  0.4854  1.1289 -0.8358
 3336SOL    HW210534   0.533   2.214   4.145  0.2077 -0.5098  0.4693
 3337SOL     OW10535   0.566   0.642   5.971 -0.1530  0.0164 -0.0518
 3337SOL    HW110536   0.546   0.558   5.931  0.6606 -0.0236 -0.3887
 3337SOL    HW210537   0.588   0.620   6.062 -1.3556  0.0346  0.2506
 3338SOL     OW10538   3.323   7.379   3.191 -0.0861 -0.3500 -0.2569
 3338SOL    HW110539   3.264   7.324   3.138  0.0625 -2.0443  1.2249
 3338SOL    HW210540   3.282   7.381   3.278  0.2312  1.4646 -0.1110
 3339SOL     OW10541   6.954   4.637   3.974 -0.5473  0.6034  0.0276
 3339SOL    HW110542   7.043   4.674   3.970  0.1422 -1.0357 -1.3075
 3339SOL    HW210543   6.920   4.665   4.059  0.8323  2.1738  0.1170
 3340SOL     OW10544   3.564   3.926   2.944  0.4164 -0.3602  0.2865
 3340SOL    HW110545   3.653   3.897   2.963  0.7689 -0.4901 -1.4062
 3340SOL    HW210546   3.575   4.008   2.896 -0.4010 -0.1594  0.4235
 3341SOL     OW10547   4.457   1.968   6.380  0.6377  0.0329 -0.2323
 3341SOL    HW110548   4.435   2.029   6.309  1.8721 -1.1177 -1.6848
 3341SOL    HW210549   4.386   1.978   6.443  0.0157  1.8451 -1.1399
 3342SOL     OW10550   3.179   6.409   1.032  0.1407 -0.3953 -0.1655
 3342SOL    HW110551   3.148   6.319   1.026  1.1857 -0.8549  0.7900
 3342SOL    HW210552   3.150   6.451   0.951 -1.9322 -1.0686  0.1874
 3343SOL     OW10553   4.700   5.183   5.269 -0.1471  0.4713 -0.3730
 3343SOL    HW110554   4.606   5.166   5.278 -0.0351 -0.4171 -0.7333
 3343SOL    HW210555   4.712   5.198   5.175  0.0155  0.9793 -0.2729
 3344SOL     OW10556   4.229   7.170   5.335 -0.0887  0.2418  0.6703
 3344SOL    HW110557   4.197   7.108   5.400  1.3742 -0.9704  0.2953
 3344SOL    HW210558   4.151   7.217   5.306 -1.1717 -1.0702  1.3559
 3345SOL     OW10559   1.564   1.778   3.495 -0.2526  0.3567  0.1629
 3345SOL    HW110560   1.585   1.705   3.437 -0.3928 -0.0176  0.5839
 3345SOL    HW210561   1.641   1.836   3.490 -0.6567  0.8248 -1.1574
 3346SOL     OW10562   3.601   4.989   3.546 -0.2098  0.0228 -0.0011
 3346SOL    HW110563   3.616   5.082   3.530 -0.4000 -0.0632 -0.6935
 3346SOL    HW210564   3.508   4.983   3.571 -0.1378  0.0493  0.2704
 3347SOL     OW10565   1.271   1.736   7.217 -0.5657  0.0272 -0.1878
 3347SOL    HW110566   1.188   1.735   7.169 -1.6299  0.0061  1.5718
 3347SOL    HW210567   1.330   1.787   7.162 -1.8632  0.3701 -1.3031
 3348SOL     OW10568   2.256   5.282   2.644 -0.0600  0.2410  0.1516
 3348SOL    HW110569   2.243   5.346   2.574  0.7604  0.0556 -0.1815
 3348SOL    HW210570   2.177   5.228   2.642 -0.3328  0.6440 -0.1926
 3349SOL     OW10571   4.250   5.263   4.333 -0.4741 -0.0164 -0.0613
 3349SOL    HW110572   4.179   5.291   4.390 -0.2068  0.2729  0.1302
 3349SOL    HW210573   4.258   5.169   4.349 -0.2732  0.0962  0.5243
 3350SOL     OW10574   7.359   4.386   1.708 -0.0442  0.4546  0.5297
 3350SOL    HW110575   7.438   4.439   1.724  0.5299  0.1259 -1.0411
 3350SOL    HW210576   7.377   4.304   1.754  0.6421  0.3022  0.0144
 3351SOL     OW10577   2.891   5.671   1.428  0.1908 -0.2929  0.0293
 3351SOL    HW110578   2.920   5.600   1.372 -0.4188  0.4165 -1.2408
 3351SOL    HW210579   2.967   5.728   1.437 -0.3742  0.9814 -2.3686
 3352SOL     OW10580   5.342   6.478   6.911 -0.0421 -0.3956 -0.3727
 3352SOL    HW110581   5.424   6.493   6.959  0.6973  0.6590 -1.8722
 3352SOL    HW210582   5.363   6.407   6.850 -0.4610 -0.6016 -0.2774
 3353SOL     OW10583   2.013   5.338   1.282 -0.9513  0.3239  0.0330
 3353SOL    HW110584   1.969   5.413   1.322  0.5395  0.1864  2.0665
 3353SOL    HW210585   2.082   5.314   1.343 -0.0541 -1.4457 -1.5388
 3354SOL     OW10586   0.052   1.076   0.212  0.1267  0.3022 -0.2403
 3354SOL    HW110587   0.092   1.150   0.166  1.5290  0.7648  1.6095
 3354SOL    HW210588   0.105   1.000   0.187  1.0055  0.5852  0.7240
 3355SOL     OW10589   6.699   5.040   4.861  0.4987 -0.0945 -0.0148
 3355SOL    HW110590   6.733   5.094   4.932  0.2544  0.2598 -0.1665
 3355SOL    HW210591   6.636   5.096   4.816  0.6115 -0.3311 -0.4778
 3356SOL     OW10592   1.310   4.097   7.150 -0.5831  0.2808 -0.1595
 3356SOL    HW110593   1.356   4.031   7.098 -2.6987 -0.3573 -1.3723
 3356SOL    HW210594   1.334   4.078   7.240 -0.7696 -1.9039 -0.5143
 3357SOL     OW10595   2.815   7.225   2.182 -0.1875 -0.0459 -0.3221
 3357SOL    HW110596   2.769   7.232   2.098 -2.4584  1.9494  0.9350
 3357SOL    HW210597   2.797   7.136   2.212 -0.1814 -0.4529 -1.4770
 3358SOL     OW10598   7.183   7.186   4.261 -0.5374  0.1659 -0.2778
 3358SOL    HW110599   7.211   7.141   4.340  2.6799  0.6301 -1.0259
 3358SOL    HW210600   7.232   7.144   4.191 -2.1899  0.7520 -1.8781
 3359SOL     OW10601   4.309   4.995   5.882 -0.2400 -0.5049 -0.0636
 3359SOL    HW110602   4.400   4.971   5.860 -0.3755  0.7178 -2.3659
 3359SOL    HW210603   4.261   4.982   5.800 -1.9105 -0.0120  0.7961
 3360SOL     OW10604   0.657   4.868   6.283 -0.5516  0.4078  0.0792
 3360SOL    HW110605   0.689   4.830   6.365 -0.2167 -2.5157 -1.2612
 3360SOL    HW210606   0.736   4.888   6.233 -0.7556  2.1650  0.3891
 3361SOL     OW10607   4.166   5.262   3.748  0.1427  0.3271 -0.3841
 3361SOL    HW110608   4.107   5.194   3.715  0.3743  0.6529 -1.5001
 3361SOL    HW210609   4.135   5.280   3.837 -1.7783  0.8738 -1.1337
 3362SOL     OW10610   1.212   3.856   5.259  0.9208  1.0421 -0.0688
 3362SOL    HW110611   1.256   3.799   5.196  1.7976  1.0239  0.5495
 3362SOL    HW210612   1.135   3.888   5.212 -1.2283 -2.7790  0.3930
 3363SOL     OW10613   1.698   0.690   7.210 -0.0238 -0.0526 -0.1927
 3363SOL    HW110614   1.728   0.612   7.163  0.6966 -0.3740  0.7547
 3363SOL    HW210615   1.609   0.704   7.179  0.2012 -0.6254 -1.1636
 3364SOL     OW10616   4.653   5.803   3.315 -0.1788 -0.0433  0.3339
 3364SOL    HW110617   4.740   5.806   3.275 -0.7208  0.7834 -0.8333
 3364SOL    HW210618   4.639   5.711   3.336  0.8864 -0.2143  0.3540
 3365SOL     OW10619   5.382   1.373   4.691  0.1992 -0.7010  0.5724
 3365SOL    HW110620   5.296   1.391   4.652 -0.0753 -0.4972  1.2655
 3365SOL    HW210621   5.364   1.354   4.783  0.7520 -2.0611  0.4240
 3366SOL     OW10622   6.940   4.360   7.168  0.0926 -0.0705  0.1150
 3366SOL    HW110623   6.912   4.276   7.203 -0.5870  0.1551  0.1383
 3366SOL    HW210624   6.894   4.368   7.084 -1.2061  1.0082  0.8782
 3367SOL     OW10625   2.147   2.632   5.540 -0.1524 -0.0661  0.0167
 3367SOL    HW110626   2.151   2.638   5.445 -0.4715  0.6063  0.0426
 3367SOL    HW210627   2.189   2.712   5.572 -0.8604  0.1502  0.4286
 3368SOL     OW10628   3.641   7.044   5.475  0.1843 -0.3868 -0.2186
 3368SOL    HW110629   3.592   7.082   5.402  0.5541 -1.1815 -0.9048
 3368SOL    HW210630   3.691   7.117   5.510  0.1690 -0.0319 -0.9021
 3369SOL     OW10631   4.794   3.757   7.151  0.7437  0.1123 -0.2095
 3369SOL    HW110632   4.785   3.746   7.245 -1.3898 -1.5563 -0.5107
 3369SOL    HW210633   4.705   3.744   7.117  1.4043  0.9198 -2.4293
 3370SOL     OW10634   0.842   0.171   1.797 -0.2725 -0.4816 -0.0721
 3370SOL    HW110635   0.804   0.153   1.711 -1.5592 -1.8442  0.7349
 3370SOL    HW210636   0.902   0.097   1.812 -0.0697 -0.2588  0.2288
 3371SOL     OW10637   0.117   5.708   3.762 -0.0623 -0.5701 -0.6594
 3371SOL    HW110638   0.184   5.685   3.826  0.3597  0.5013 -0.7007
 3371SOL    HW210639   0.158   5.773   3.705 -1.4160  0.8665 -0.0842
 3372SOL     OW10640   5.814   0.945   0.201 -0.0774  0.2115 -0.4791
 3372SOL    HW110641   5.792   1.033   0.229 -1.0831 -0.1625 -0.0646
 3372SOL    HW210642   5.754   0.926   0.129 -0.1417 -0.2779 -0.3004
 3373SOL     OW10643   3.929   0.300   3.294 -0.1682  0.4031 -0.0512
 3373SOL    HW110644   3.892   0.301   3.382  0.9645 -1.1256  0.4740
 3373SOL    HW210645   3.894   0.221   3.254 -1.9044  1.8392 -1.5896
 3374SOL     OW10646   3.645   6.619   4.817 -0.1812 -0.1746 -0.0312
 3374SOL    HW110647   3.675   6.674   4.744 -0.5508 -0.4809 -0.4150
 3374SOL    HW210648   3.672   6.530   4.793 -0.4880 -0.3064  0.1051
 3375SOL     OW10649   2.780   6.679   3.156  0.3297  0.0135 -0.4035
 3375SOL    HW110650   2.792   6.769   3.128  0.4519 -0.2261 -1.1272
 3375SOL    HW210651   2.701   6.649   3.111  0.9598 -0.6156 -1.1303
 3376SOL     OW10652   1.502   3.026   1.882  0.0108  0.1310 -0.4257
 3376SOL    HW110653   1.502   2.939   1.922 -0.4877 -0.2210 -1.1740
 3376SOL    HW210654   1.551   3.080   1.944  0.1043 -0.6183  0.1778
 3377SOL     OW10655   7.465   5.009   5.895  0.2308 -0.0929 -0.4986
 3377SOL    HW110656   7.500   4.947   5.959 -1.1797 -0.0425  0.3745
 3377SOL    HW210657   7.510   5.091   5.914 -0.4771  0.0300  0.7503
 3378SOL     OW10658   2.792   0.002   0.692 -0.0223 -0.5440  0.5982
 3378SOL    HW110659   2.885  -0.006   0.670  0.6084  1.8049  1.9987
 3378SOL    HW210660   2.755  -0.083   0.671  2.3886 -1.4949 -0.2133
 3379SOL     OW10661   3.488   5.288   7.274  0.3341  0.2299 -0.1286
 3379SOL    HW110662   3.448   5.371   7.300 -0.0767 -0.4769  1.7100
 3379SOL    HW210663   3.581   5.308   7.264  0.4496  0.7027  1.5306
 3380SOL     OW10664   1.554   6.740   1.056  0.7012 -0.2613  0.0062
 3380SOL    HW110665   1.498   6.790   0.997  0.9773 -0.5683 -0.5175
 3380SOL    HW210666   1.612   6.805   1.096  0.0015  0.0557  0.5321
 3381SOL     OW10667   3.934   1.445   1.188 -0.2186  0.6589 -0.0213
 3381SOL    HW110668   3.999   1.375   1.192  0.4836  1.3458  0.8549
 3381SOL    HW210669   3.850   1.401   1.201  0.0362 -0.2464 -1.2083
 3382SOL     OW10670   3.314   1.284   0.387  0.2431  0.4023  0.1216
 3382SOL    HW110671   3.336   1.376   0.374  0.1050  0.6142  1.3162
 3382SOL    HW210672   3.394   1.244   0.420  0.2731  0.1010 -0.2997
 3383SOL     OW10673   4.373   4.180   5.429  0.2010 -0.3563  0.2148
 3383SOL    HW110674   4.467   4.191   5.445  0.6144 -0.7306 -1.6804
 3383SOL    HW210675   4.331   4.222   5.504  1.8735 -0.7066  1.4150
 3384SOL     OW10676   2.561   0.604   3.175 -0.3364 -0.5204 -0.0047
 3384SOL    HW110677   2.540   0.679   3.230 -2.1628 -1.5857  0.8589
 3384SOL    HW210678   2.544   0.634   3.085 -0.8054  0.1742  0.3071
 3385SOL     OW10679   2.876   5.873   0.979 -0.2037 -0.0320  0.2094
 3385SOL    HW110680   2.811   5.942   0.960 -2.1259 -1.6262  0.6490
 3385SOL    HW210681   2.897   5.885   1.071 -1.7900 -0.9834  0.7254
 3386SOL     OW10682   6.896   0.273   5.005  0.1488 -0.1808 -0.4010
 3386SOL    HW110683   6.828   0.271   5.072 -1.4656  2.6028 -1.7771
 3386SOL    HW210684   6.974   0.242   5.049 -1.7794 -2.8523  1.4671
 3387SOL     OW10685   3.101   0.529   7.562 -0.1594  0.0052 -0.4238
 3387SOL    HW110686   3.179   0.509   7.510  0.8757  0.3983  0.9282
 3387SOL    HW210687   3.105   0.470   7.636 -0.5518  0.7780  0.2312
 3388SOL     OW10688   0.439   6.095   0.780 -0.4961  0.2406 -0.6259
 3388SOL    HW110689   0.400   6.120   0.863  1.0448 -0.7935  0.4861
 3388SOL    HW210690   0.450   6.000   0.787  0.8737  0.3130 -1.4408
 3389SOL     OW10691   2.241   0.532   6.941 -0.1177  0.1811  0.8856
 3389SOL    HW110692   2.186   0.460   6.974  0.4335 -1.6277 -1.7650
 3389SOL    HW210693   2.330   0.497   6.941 -0.1190 -0.2936 -2.8125
 3390SOL     OW10694   0.471   6.374   7.491  0.1242 -0.1546 -0.5924
 3390SOL    HW110695   0.395   6.394   7.436  1.0081 -0.0311 -1.8197
 3390SOL    HW210696   0.545   6.412   7.444  0.7930  0.9954  1.2955
 3391SOL     OW10697   6.124   3.365   3.963 -0.5206 -0.0783 -0.1408
 3391SOL    HW110698   6.198   3.304   3.953 -1.4399 -1.2116 -0.2230
 3391SOL    HW210699   6.165   3.451   3.975  0.8069 -0.6734 -0.2689
 3392SOL     OW10700   3.694   4.261   7.030 -0.1309 -0.8289  0.2375
 3392SOL    HW110701   3.743   4.277   7.111  1.3053 -1.5538 -0.4486
 3392SOL    HW210702   3.646   4.342   7.014  1.4111  0.1928  0.5665
 3393SOL     OW10703   3.102   1.480   7.350  0.2429  0.0579  0.0745
 3393SOL    HW110704   3.181   1.442   7.387 -0.5570 -0.5402  1.2476
 3393SOL    HW210705   3.120   1.488   7.257  1.6268 -0.1726  0.3057
 3394SOL     OW10706   1.542   1.475   0.235 -0.6280 -0.1879 -0.0066
 3394SOL    HW110707   1.501   1.402   0.282 -2.6810  0.5180 -0.6053
 3394SOL    HW210708   1.543   1.547   0.298  1.3922 -0.6762  0.5823
 3395SOL     OW10709   5.229   3.638   2.183 -0.6944  0.3136  0.2000
 3395SOL    HW110710   5.229   3.663   2.091  1.2921  1.6044  0.4876
 3395SOL    HW210711   5.309   3.587   2.194 -2.1464 -1.9641  0.7346
 3396SOL     OW10712   0.086   4.414   6.712 -0.4471 -0.1417  0.4460
 3396SOL    HW110713   0.046   4.340   6.666 -1.8427  0.0615  1.2664
 3396SOL    HW210714   0.166   4.378   6.750  1.3994 -0.0246 -2.9987
 3397SOL     OW10715   5.157   0.071   1.389  0.2195 -0.3084 -0.3296
 3397SOL    HW110716   5.138  -0.022   1.379  1.7525 -0.7386  0.4820
 3397SOL    HW210717   5.101   0.114   1.324 -1.6375 -1.6419  0.3201
 3398SOL     OW10718   6.381   1.527   4.592  0.4390 -0.0727 -0.0210
 3398SOL    HW110719   6.371   1.616   4.557 -2.2387 -0.1740  0.2735
 3398SOL    HW210720   6.433   1.539   4.671  0.7604  1.1294 -0.3914
 3399SOL     OW10721   4.647   0.917   2.113 -0.1591 -0.5443  0.4135
 3399SOL    HW110722   4.688   0.893   2.030  0.7593 -0.8993  0.9479
 3399SOL    HW210723   4.557   0.888   2.105  0.4446 -2.5800  0.3395
 3400SOL     OW10724   0.494   4.952   4.267 -0.0410 -0.4515 -0.7357
 3400SOL    HW110725   0.400   4.970   4.265 -0.0840 -0.7109 -0.9927
 3400SOL    HW210726   0.535   5.039   4.261 -0.2550 -0.4010 -1.5588
 3401SOL     OW10727   1.141   3.891   2.994  0.3150 -0.3536  0.1244
 3401SOL    HW110728   1.112   3.939   2.916  0.6428  0.2908  0.3862
 3401SOL    HW210729   1.225   3.853   2.968 -1.0048 -2.8068 -0.8666
 3402SOL     OW10730   4.205   1.210   1.799 -0.0125  0.1217  0.1157
 3402SOL    HW110731   4.123   1.253   1.773  0.7800  2.0898  0.7093
 3402SOL    HW210732   4.251   1.275   1.851  2.4587 -0.4855 -1.1426
 3403SOL     OW10733   0.515   5.461   6.186 -0.0166 -0.1167 -0.2374
 3403SOL    HW110734   0.589   5.434   6.240 -0.0604 -0.6934 -0.4565
 3403SOL    HW210735   0.438   5.441   6.239 -0.0315  0.0914 -0.1790
 3404SOL     OW10736   4.597   3.964   1.882  0.0701 -0.1425 -0.2421
 3404SOL    HW110737   4.536   3.891   1.892 -0.6498  0.5558  0.6759
 3404SOL    HW210738   4.683   3.923   1.873 -0.5168 -1.1459 -1.6023
 3405SOL     OW10739   7.257   1.093   0.932  0.8273  0.3682  0.0518
 3405SOL    HW110740   7.181   1.070   0.878  0.5602  0.0926  0.5328
 3405SOL    HW210741   7.328   1.107   0.870  0.2198  1.2810 -0.4523
 3406SOL     OW10742   3.661   7.119   2.251 -0.2535 -0.7373  0.4550
 3406SOL    HW110743   3.732   7.165   2.296  0.6013  0.0247 -1.5758
 3406SOL    HW210744   3.627   7.183   2.189  1.3233 -2.8576 -2.8945
 3407SOL     OW10745   1.812   3.288   0.127  0.0712  0.3748 -0.2140
 3407SOL    HW110746   1.894   3.336   0.117 -0.2884  0.7617 -1.3359
 3407SOL    HW210747   1.796   3.249   0.041 -0.4415 -0.4776  0.2546
 3408SOL     OW10748   4.288   2.240   2.839 -0.6854 -0.0822  0.6603
 3408SOL    HW110749   4.373   2.195   2.835  0.5164  2.0796  0.1383
 3408SOL    HW210750   4.229   2.184   2.790  1.2567 -0.0928 -1.8910
 3409SOL     OW10751   6.172   2.667   6.183 -0.1032  0.4837  0.6459
 3409SOL    HW110752   6.121   2.640   6.107 -1.1726 -1.0895  1.8273
 3409SOL    HW210753   6.182   2.586   6.234  2.2725  1.0882  1.2280
 3410SOL     OW10754   5.940   0.422   1.641  0.3480  0.4048 -0.0435
 3410SOL    HW110755   5.959   0.400   1.733  0.0231 -0.6949 -0.2199
 3410SOL    HW210756   5.968   0.345   1.592 -1.4827  0.0594 -0.6361
 3411SOL     OW10757   5.124   4.171   3.683  0.0394 -0.1414  0.0589
 3411SOL    HW110758   5.166   4.119   3.614 -1.4268 -0.9110 -0.2982
 3411SOL    HW210759   5.145   4.125   3.764 -0.2261 -0.6052 -0.1326
 3412SOL     OW10760   1.824   2.586   5.203  0.7864  0.1168  0.4409
 3412SOL    HW110761   1.792   2.521   5.265  2.4823 -0.7748  0.4250
 3412SOL    HW210762   1.751   2.648   5.194 -0.3568 -1.0183  1.4950
 3413SOL     OW10763   2.594   6.044   7.369 -0.7312  0.2584  0.0463
 3413SOL    HW110764   2.537   6.118   7.346 -1.1855  0.3242  1.3061
 3413SOL    HW210765   2.538   5.967   7.360 -0.3280  0.0634 -1.0175
 3414SOL     OW10766   3.211   0.119   3.792 -0.2154  0.2665  0.5941
 3414SOL    HW110767   3.269   0.127   3.868 -0.6691 -0.8405  1.0716
 3414SOL    HW210768   3.168   0.205   3.786 -0.6177  0.1910  1.9622
 3415SOL     OW10769   2.034   0.227   4.911 -0.2594 -0.2850 -0.3605
 3415SOL    HW110770   2.114   0.213   4.961 -0.9880 -3.9383  0.0140
 3415SOL    HW210771   2.033   0.322   4.895  1.4548  0.7417  4.0371
 3416SOL     OW10772   1.802   5.134   5.014 -0.3875 -0.1356 -0.0188
 3416SOL    HW110773   1.832   5.093   4.933 -0.7502 -0.8505  0.2008
 3416SOL    HW210774   1.745   5.206   4.986  1.9609  1.6817 -0.4774
 3417SOL     OW10775   5.744   5.560   7.218  0.2441 -0.0184 -0.1307
 3417SOL    HW110776   5.707   5.495   7.278 -1.3246  2.7557  2.1807
 3417SOL    HW210777   5.836   5.566   7.242  0.0651 -0.3556  0.6523
 3418SOL     OW10778   2.319   4.838   3.183  0.6983  0.1292 -0.2900
 3418SOL    HW110779   2.294   4.928   3.201 -1.9048 -0.5799  0.0362
 3418SOL    HW210780   2.273   4.787   3.249  0.8865 -1.5555 -1.3939
 3419SOL     OW10781   4.955   3.590   2.818  0.5864  0.2229 -0.2115
 3419SOL    HW110782   5.040   3.635   2.820  0.0349  1.2822  0.4288
 3419SOL    HW210783   4.963   3.526   2.748  1.3462  1.4637 -1.3033
 3420SOL     OW10784   0.970   2.414   3.821  0.1827  0.3927 -0.2490
 3420SOL    HW110785   0.972   2.372   3.735 -0.2140 -0.0385 -0.0558
 3420SOL    HW210786   1.017   2.496   3.809  0.2857  0.2543 -0.8330
 3421SOL     OW10787   3.973   2.280   7.146 -0.1356  0.3323  0.3511
 3421SOL    HW110788   4.034   2.350   7.169  0.7279 -0.6302  1.0668
 3421SOL    HW210789   4.019   2.228   7.081 -0.9063  0.6030 -0.4240
 3422SOL     OW10790   7.353   2.139   1.224  0.1548 -0.6472 -0.1025
 3422SOL    HW110791   7.411   2.064   1.239  0.2596 -0.4749  0.3724
 3422SOL    HW210792   7.409   2.205   1.184  0.0639 -0.8138 -0.5147
 3423SOL     OW10793   0.236   4.506   7.406 -0.0380 -0.8965 -0.4363
 3423SOL    HW110794   0.225   4.557   7.326  2.5531 -0.0125 -0.3426
 3423SOL    HW210795   0.147   4.480   7.431 -0.9991 -0.4756 -3.0919
 3424SOL     OW10796   2.081   2.189   2.061  0.3552 -0.2066 -0.1822
 3424SOL    HW110797   2.070   2.158   1.971  0.1665 -0.7686  0.0297
 3424SOL    HW210798   2.067   2.111   2.115  1.8226 -0.1890  0.2764
 3425SOL     OW10799   2.626   0.862   2.078 -0.1094 -0.3633  0.0850
 3425SOL    HW110800   2.576   0.797   2.027 -0.7173  0.6610 -0.6622
 3425SOL    HW210801   2.698   0.887   2.020 -3.0088  3.8094 -2.1750
 3426SOL     OW10802   5.924   0.972   0.774 -0.1466 -0.0181  0.5571
 3426SOL    HW110803   5.911   1.050   0.828  1.5291  1.2029 -0.7099
 3426SOL    HW210804   5.879   0.902   0.822 -0.2552  1.3642  2.5968
 3427SOL     OW10805   7.122   2.852   4.428 -0.6986  0.4339  0.5086
 3427SOL    HW110806   7.180   2.925   4.453 -0.0550  0.6749 -1.4750
 3427SOL    HW210807   7.114   2.799   4.507  1.3244  1.0195  1.1644
 3428SOL     OW10808   6.821   6.288   5.819 -0.0099 -0.1951  0.2542
 3428SOL    HW110809   6.822   6.303   5.725  1.9488 -2.2856 -0.1455
 3428SOL    HW210810   6.747   6.228   5.833 -0.4761  0.3386  0.1068
 3429SOL     OW10811   7.542   5.848   3.942 -0.0949 -0.3742  0.8969
 3429SOL    HW110812   7.620   5.902   3.953 -0.5242  0.1755  1.3395
 3429SOL    HW210813   7.571   5.774   3.889  0.6729 -0.0702  0.8780
 3430SOL     OW10814   5.319   2.731   2.193  0.0547  0.5499  0.2481
 3430SOL    HW110815   5.234   2.713   2.232 -0.3523 -0.1987 -0.9323
 3430SOL    HW210816   5.310   2.815   2.150  0.4936  1.3612  1.6658
 3431SOL     OW10817   7.318   3.248   0.034  0.1969 -0.4412 -0.0019
 3431SOL    HW110818   7.292   3.268   0.124 -0.6821 -0.9848 -0.1309
 3431SOL    HW210819   7.238   3.256  -0.017  0.7616  0.2452 -0.8190
 3432SOL     OW10820   6.230   7.277   0.288 -0.0799  0.2516 -0.3987
 3432SOL    HW110821   6.194   7.228   0.215  3.2208  0.1655 -2.1610
 3432SOL    HW210822   6.273   7.353   0.248  0.4567  1.0966  1.6133
 3433SOL     OW10823   0.356   0.320   2.796  0.6647  0.1878 -0.4912
 3433SOL    HW110824   0.395   0.287   2.716  0.5313  0.4718 -0.6768
 3433SOL    HW210825   0.275   0.271   2.806  2.2289 -2.2578  1.2631
 3434SOL     OW10826   4.243   4.087   0.912  0.0767 -0.0609  0.0596
 3434SOL    HW110827   4.260   4.098   1.006 -1.6829  1.8426  0.2039
 3434SOL    HW210828   4.249   4.175   0.875 -0.4823 -0.6055 -1.4075
 3435SOL     OW10829   0.043   2.937   3.324  0.1986 -0.4498 -0.0967
 3435SOL    HW110830   0.087   2.867   3.371  3.5576  0.7779 -1.0738
 3435SOL    HW210831   0.041   2.907   3.233 -0.5814 -0.2577 -0.1524
 3436SOL     OW10832   1.047   7.482   6.013  0.0753 -0.0169  0.4004
 3436SOL    HW110833   1.126   7.528   6.041 -1.0955  1.7682  0.9525
 3436SOL    HW210834   1.066   7.389   6.028  1.1511  0.5349  2.8642
 3437SOL     OW10835   6.464   5.325   1.324  0.0791  0.6153 -0.3613
 3437SOL    HW110836   6.448   5.250   1.267 -1.0439  0.1008  0.5810
 3437SOL    HW210837   6.386   5.329   1.379  0.9200  1.3916  0.7994
 3438SOL     OW10838   5.803   7.563   0.958 -0.1055 -0.0731  0.4931
 3438SOL    HW110839   5.710   7.558   0.980  0.0524  1.5380  1.7040
 3438SOL    HW210840   5.804   7.562   0.862 -1.3132 -0.8696  0.4660
 3439SOL     OW10841   7.276   3.547   2.266  0.8852 -0.1928 -0.7026
 3439SOL    HW110842   7.235   3.588   2.343 -0.4782 -1.0135 -0.9626
 3439SOL    HW210843   7.282   3.618   2.202 -0.3862 -0.0916 -0.7442
 3440SOL     OW10844   2.289   1.893   0.244  0.0597 -0.2939 -0.0587
 3440SOL    HW110845   2.290   1.799   0.265  0.0063 -0.8049 -2.1682
 3440SOL    HW210846   2.343   1.933   0.312  1.2745 -2.0492  0.0669
 3441SOL     OW10847   0.618   7.062   3.373  0.9896 -0.3804  0.2793
 3441SOL    HW110848   0.672   6.991   3.338 -0.7317 -1.0228 -1.2484
 3441SOL    HW210849   0.600   7.117   3.297 -1.9629 -1.1932  0.2931
 3442SOL     OW10850   7.246   4.375   3.271  0.2239  0.4065  0.0317
 3442SOL    HW110851   7.270   4.467   3.260  0.0418  0.4259 -0.2234
 3442SOL    HW210852   7.201   4.353   3.190 -0.7687  0.4191  0.5639
 3443SOL     OW10853   1.928   7.286   4.792 -0.6544 -0.0027 -0.4655
 3443SOL    HW110854   2.002   7.282   4.852 -1.4979 -1.0612  0.5854
 3443SOL    HW210855   1.940   7.211   4.734 -0.6453  0.1065 -0.6040
 3444SOL     OW10856   0.944   4.108   1.651 -0.3229 -0.5216 -0.4194
 3444SOL    HW110857   0.987   4.063   1.578 -1.1883 -2.3618  0.1562
 3444SOL    HW210858   0.946   4.201   1.626  1.5337 -0.8244 -1.6415
 3445SOL     OW10859   1.740   2.861   0.408 -0.5653 -0.0588 -0.4475
 3445SOL    HW110860   1.769   2.822   0.490 -1.5943 -0.3655 -0.2086
 3445SOL    HW210861   1.753   2.955   0.419 -1.2546 -0.0410  0.3204
 3446SOL     OW10862   5.465   0.365   3.856  0.0284  0.7827  0.9496
 3446SOL    HW110863   5.517   0.425   3.909  1.1345  1.1109 -0.4529
 3446SOL    HW210864   5.523   0.291   3.839  0.3315  1.4302 -1.1409
 3447SOL     OW10865   1.663   6.472   6.441  0.1617  0.3901  0.0094
 3447SOL    HW110866   1.718   6.543   6.476 -0.4920  0.8942  0.0198
 3447SOL    HW210867   1.693   6.394   6.489  1.4106  0.4990 -0.5430
 3448SOL     OW10868   1.550   5.050   3.471 -0.0241  0.1598  0.3356
 3448SOL    HW110869   1.578   4.961   3.490 -0.1886  0.2775  1.1867
 3448SOL    HW210870   1.455   5.048   3.481 -0.1297  0.2119 -0.6048
 3449SOL     OW10871   2.081   2.580   0.780  0.0287  0.4555 -0.0896
 3449SOL    HW110872   2.014   2.609   0.843  0.6552 -0.9148  1.2775
 3449SOL    HW210873   2.031   2.539   0.709 -0.6128 -0.1167  0.6722
 3450SOL     OW10874   1.952   7.050   4.622  0.0425  0.2826  0.2076
 3450SOL    HW110875   2.003   6.969   4.622  0.3646  0.4874  0.6520
 3450SOL    HW210876   1.864   7.023   4.649 -0.3160 -0.2085 -1.3420
 3451SOL     OW10877   1.199   5.322   4.855 -0.3712 -0.5398  0.0901
 3451SOL    HW110878   1.129   5.257   4.859 -0.0078 -0.9606 -0.2123
 3451SOL    HW210879   1.248   5.308   4.936  0.1116 -1.1224 -0.2890
 3452SOL     OW10880   5.499   4.813   6.777 -0.4347  0.4543 -0.0483
 3452SOL    HW110881   5.526   4.873   6.708 -1.9206  1.2902  0.0535
 3452SOL    HW210882   5.524   4.856   6.858 -0.0910  0.1962 -0.0148
 3453SOL     OW10883   1.891   2.891   6.702 -0.4525  0.0644  0.1896
 3453SOL    HW110884   1.950   2.911   6.776  0.0932 -0.7028 -0.0174
 3453SOL    HW210885   1.847   2.811   6.729 -1.1741  0.4619  0.1991
 3454SOL     OW10886   2.279   0.614   0.539 -0.1304  0.2610  0.1102
 3454SOL    HW110887   2.295   0.590   0.630  1.5037  0.8244 -0.0014
 3454SOL    HW210888   2.361   0.596   0.493 -0.7726  0.4119 -1.1729
 3455SOL     OW10889   4.692   1.683   3.103  0.2234 -0.1503  0.4650
 3455SOL    HW110890   4.635   1.654   3.032  0.7068  1.2220 -0.5166
 3455SOL    HW210891   4.755   1.613   3.114 -0.0101 -0.4866 -0.2941
 3456SOL     OW10892   5.922   6.578   5.021  0.1819 -0.2787 -0.0443
 3456SOL    HW110893   5.906   6.666   4.986 -0.9148  1.3607  3.9980
 3456SOL    HW210894   5.843   6.529   4.998 -0.8786  0.9812  0.7369
 3457SOL     OW10895   3.072   1.910   2.599 -0.1661 -0.0722  0.3613
 3457SOL    HW110896   3.105   1.866   2.677  0.0116  0.5506  0.6420
 3457SOL    HW210897   2.982   1.934   2.620 -0.7256 -1.4926 -0.2909
 3458SOL     OW10898   0.381   0.738   2.400  0.1890 -0.4582 -0.4416
 3458SOL    HW110899   0.370   0.720   2.493 -1.2443  2.8093  0.1585
 3458SOL    HW210900   0.456   0.797   2.395 -0.2069 -0.0065 -1.2624
 3459SOL     OW10901   2.516   2.891   5.477  0.3228 -0.4326  0.3232
 3459SOL    HW110902   2.439   2.897   5.420 -0.4577 -1.0254  1.2675
 3459SOL    HW210903   2.580   2.951   5.438  0.0422 -1.2177 -1.4790
 3460SOL     OW10904   0.706   4.119   2.875 -0.0452 -0.1034  0.3539
 3460SOL    HW110905   0.710   4.144   2.967 -0.1231 -2.2746  1.0136
 3460SOL    HW210906   0.712   4.023   2.876  0.5552 -0.1589 -1.9403
 3461SOL     OW10907   4.412   4.837   7.341 -0.2177 -0.6785  0.2755
 3461SOL    HW110908   4.486   4.807   7.288  0.6901  1.1736  0.4129
 3461SOL    HW210909   4.446   4.843   7.430 -0.5976 -0.0145  0.3829
 3462SOL     OW10910   6.558   5.132   7.478  0.0069  0.1764 -0.2370
 3462SOL    HW110911   6.564   5.123   7.383  0.1701  0.5963 -0.2689
 3462SOL    HW210912   6.569   5.226   7.494  0.6432  0.0293  0.2399
 3463SOL     OW10913   3.871   4.348   1.740 -0.0098  0.3631  0.0463
 3463SOL    HW110914   3.855   4.284   1.670 -0.2415 -0.6010  0.9608
 3463SOL    HW210915   3.784   4.371   1.772 -0.0893  2.5860 -1.4689
 3464SOL     OW10916   4.183   0.653   6.447  0.3283  0.4611  0.0610
 3464SOL    HW110917   4.243   0.579   6.436 -0.0197  0.0604  0.7762
 3464SOL    HW210918   4.203   0.711   6.374  1.5828  0.3374  0.2810
 3465SOL     OW10919   7.361   4.664   2.074  0.0245 -0.0601  0.3318
 3465SOL    HW110920   7.453   4.679   2.099  0.5990 -0.8131 -1.1734
 3465SOL    HW210921   7.350   4.569   2.081  0.3998 -0.4108 -2.5966
 3466SOL     OW10922   4.260   6.507   7.562 -0.3036 -0.9735  0.0305
 3466SOL    HW110923   4.204   6.580   7.589  0.4798 -0.5205  0.4572
 3466SOL    HW210924   4.336   6.548   7.521  0.5125 -1.5020  0.9670
 3467SOL     OW10925   6.804   4.513   2.511 -0.0630 -0.4344 -0.2606
 3467SOL    HW110926   6.712   4.499   2.489  0.2031 -0.6254 -1.2833
 3467SOL    HW210927   6.850   4.441   2.468  0.4579 -0.9998  1.1803
 3468SOL     OW10928   3.931   0.070   0.758  0.6204 -0.4061 -0.2087
 3468SOL    HW110929   4.017   0.070   0.801  0.8967  1.1412 -0.7072
 3468SOL    HW210930   3.930   0.150   0.706 -1.6840  0.3358  0.8724
 3469SOL     OW10931   2.586   2.724   5.923  0.1158 -0.1541 -0.0880
 3469SOL    HW110932   2.670   2.705   5.966  0.0575  0.8402  0.4909
 3469SOL    HW210933   2.597   2.692   5.834  0.8089 -0.7988  0.2147
 3470SOL     OW10934   4.034   6.345   2.498  0.5824  0.2383 -0.1128
 3470SOL    HW110935   4.005   6.254   2.503 -1.7150  0.9655  2.1885
 3470SOL    HW210936   4.069   6.364   2.585  0.0017  1.8257 -0.1927
 3471SOL     OW10937   0.210   3.496   2.409  0.2138  0.4924  0.1312
 3471SOL    HW110938   0.129   3.537   2.377  0.5139  0.9890  0.0017
 3471SOL    HW210939   0.231   3.431   2.342 -2.0308 -2.2792  1.8448
 3472SOL     OW10940   1.948   1.250   3.328 -0.1672 -0.0088 -0.1920
 3472SOL    HW110941   1.979   1.221   3.242 -1.0030 -1.0640 -0.1552
 3472SOL    HW210942   1.937   1.169   3.378 -1.9955  0.3968  0.1220
 3473SOL     OW10943   6.999   4.213   3.342  0.2511 -0.0471 -0.2966
 3473SOL    HW110944   7.065   4.232   3.276  1.1910  0.4372  0.7617
 3473SOL    HW210945   7.048   4.199   3.423 -0.9051 -0.1712  0.4135
 3474SOL     OW10946   7.284   7.265   3.339 -0.3213  0.0652 -0.0990
 3474SOL    HW110947   7.246   7.221   3.263 -0.3381 -0.6480  0.3154
 3474SOL    HW210948   7.211   7.278   3.399 -0.2180  0.2054 -0.0011
 3475SOL     OW10949   5.645   5.932   6.710 -0.2257  0.2294 -0.0526
 3475SOL    HW110950   5.714   5.871   6.735  0.4846  0.5957 -1.0363
 3475SOL    HW210951   5.620   5.975   6.792 -0.8878 -1.4891  0.6988
 3476SOL     OW10952   7.529   0.532   6.225  0.1918 -0.4195 -0.3042
 3476SOL    HW110953   7.529   0.572   6.138  2.2985 -1.4960 -0.8737
 3476SOL    HW210954   7.610   0.481   6.228 -1.0512 -2.4771  1.3400
 3477SOL     OW10955   4.540   4.625   2.712  0.1400  0.2466  0.3762
 3477SOL    HW110956   4.622   4.667   2.685  0.7675 -0.6210  0.8791
 3477SOL    HW210957   4.566   4.565   2.782 -1.0248  0.4254  0.9877
 3478SOL     OW10958   4.968   2.216   0.689  0.2798 -0.1281  0.5781
 3478SOL    HW110959   4.924   2.169   0.759  1.1916 -0.5290  0.8987
 3478SOL    HW210960   4.974   2.306   0.721  0.4459 -0.2519  0.9001
 3479SOL     OW10961   0.469   4.785   2.973 -0.1583 -0.2087  0.2455
 3479SOL    HW110962   0.459   4.734   2.893 -0.1163  0.0304  0.0842
 3479SOL    HW210963   0.505   4.869   2.943  0.4359 -0.3360  0.5784
 3480SOL     OW10964   1.181   5.493   2.607  0.3023  0.3531 -0.2597
 3480SOL    HW110965   1.139   5.571   2.643 -0.8664 -1.0004  1.4318
 3480SOL    HW210966   1.110   5.432   2.592  1.2131 -0.4676 -1.4834
 3481SOL     OW10967   1.202   5.960   7.132 -0.5050 -0.6417 -0.2711
 3481SOL    HW110968   1.114   5.998   7.130 -0.3249  0.1474  2.4643
 3481SOL    HW210969   1.188   5.866   7.117 -1.6798 -0.3926 -0.8380
 3482SOL     OW10970   3.253   2.682   4.076  0.3399 -0.6207 -0.3719
 3482SOL    HW110971   3.172   2.716   4.040  0.6437 -0.7716 -1.2248
 3482SOL    HW210972   3.288   2.754   4.129 -0.0663 -0.3606 -0.4542
 3483SOL     OW10973   6.531   6.896   0.212  0.1771 -0.3351 -0.5829
 3483SOL    HW110974   6.484   6.909   0.130  1.7304  0.7222 -1.3462
 3483SOL    HW210975   6.622   6.887   0.187  0.5609 -1.1411  0.9551
 3484SOL     OW10976   7.437   6.195   0.127  0.4618  0.4728 -0.8105
 3484SOL    HW110977   7.381   6.273   0.131 -0.3339 -0.1398  0.6747
 3484SOL    HW210978   7.508   6.212   0.189 -0.3728 -0.4434  0.4428
 3485SOL     OW10979   3.898   0.806   4.988  0.3733 -0.0680  0.0062
 3485SOL    HW110980   3.910   0.813   5.083 -0.1889 -3.3184  0.4224
 3485SOL    HW210981   3.983   0.775   4.955 -0.1241 -1.2885 -0.1787
 3486SOL     OW10982   2.569   6.823   2.842  0.3245  0.2720 -0.2664
 3486SOL    HW110983   2.660   6.835   2.872  0.5994 -0.2928 -0.8532
 3486SOL    HW210984   2.576   6.820   2.746 -0.4126  0.9812 -0.3501
 3487SOL     OW10985   1.268   0.042   6.087 -0.6304 -0.1002 -0.2142
 3487SOL    HW110986   1.307   0.098   6.155 -0.6770 -1.3728  0.9001
 3487SOL    HW210987   1.326   0.054   6.011  1.1071 -0.8135  0.9384
 3488SOL     OW10988   4.274   2.574   6.442 -0.1729 -0.1165  0.1795
 3488SOL    HW110989   4.198   2.526   6.474 -0.7198 -0.5844 -1.6669
 3488SOL    HW210990   4.341   2.506   6.428 -0.7174 -0.3344 -1.7678
 3489SOL     OW10991   1.427   2.210   4.563 -0.3486  0.3983  0.0127
 3489SOL    HW110992   1.428   2.306   4.568 -0.5995  0.5899 -2.4639
 3489SOL    HW210993   1.515   2.186   4.535 -1.0080  0.1492 -1.9762
 3490SOL     OW10994   7.463   0.921   3.435  0.0574 -0.3269 -0.0646
 3490SOL    HW110995   7.494   0.888   3.519 -0.0059 -0.4168 -0.0763
 3490SOL    HW210996   7.465   0.844   3.377 -1.2162 -0.5830  0.2121
 3491SOL     OW10997   6.418   6.020   2.912  0.5586  0.1537  0.3944
 3491SOL    HW110998   6.401   6.099   2.963  0.4117 -0.7027  1.7013
 3491SOL    HW210999   6.502   6.037   2.869  0.2883  1.2106  0.2436
 3492SOL     OW11000   4.002   1.398   4.581  0.3853  0.3456  0.0006
 3492SOL    HW111001   3.973   1.309   4.602  0.0308  0.7782  1.3787
 3492SOL    HW211002   4.086   1.385   4.536 -0.3929 -0.7431 -1.2322
 3493SOL     OW11003   4.441   5.591   1.127  0.4365 -0.3983  0.4010
 3493SOL    HW111004   4.437   5.547   1.212  1.2445 -1.5847 -0.1523
 3493SOL    HW211005   4.532   5.580   1.098  0.0986 -0.2714 -0.7611
 3494SOL     OW11006   2.916   6.681   5.171  0.0241 -0.1106 -0.3644
 3494SOL    HW111007   2.942   6.673   5.079 -1.6268  0.5348 -0.9200
 3494SOL    HW211008   2.845   6.744   5.170 -2.8007 -2.9998  0.7885
 3495SOL     OW11009   3.521   7.563   6.668 -0.4429 -0.3256  0.4974
 3495SOL    HW111010   3.507   7.620   6.744  0.1921  0.1417  0.2723
 3495SOL    HW211011   3.610   7.583   6.639 -0.3450 -1.1558  0.1780
 3496SOL     OW11012   6.997   7.367   4.549 -0.2698  0.0871  0.9667
 3496SOL    HW111013   7.011   7.378   4.643  1.6483 -1.4612  0.8993
 3496SOL    HW211014   7.049   7.291   4.525 -3.7488 -2.0602 -0.6633
 3497SOL     OW11015   5.382   3.219   6.833 -0.1111 -0.1622  0.3015
 3497SOL    HW111016   5.404   3.183   6.919  0.1159  0.2337  0.4105
 3497SOL    HW211017   5.287   3.217   6.830 -0.1191 -0.2110  0.5487
 3498SOL     OW11018   2.492   3.208   6.956 -0.1767  0.0063 -0.0976
 3498SOL    HW111019   2.570   3.253   6.921 -0.4288 -0.8904 -1.9410
 3498SOL    HW211020   2.467   3.260   7.032  2.1094  0.4346  0.4493
 3499SOL     OW11021   2.831   4.499   2.705 -0.6161  0.2169 -0.3000
 3499SOL    HW111022   2.763   4.565   2.718 -0.1194  0.3549  1.8722
 3499SOL    HW211023   2.783   4.416   2.698 -1.0326  0.3122  1.2431
 3500SOL     OW11024   2.940   7.298   5.826  0.2023  0.4072  0.3862
 3500SOL    HW111025   2.903   7.261   5.906  0.5375  0.1280  0.4167
 3500SOL    HW211026   3.035   7.298   5.842  0.3470 -0.5938 -0.4010
 3501SOL     OW11027   0.693   6.229   2.687  0.0803 -0.1043 -0.5616
 3501SOL    HW111028   0.742   6.150   2.706 -0.7706 -0.1808  1.6430
 3501SOL    HW211029   0.757   6.300   2.697  0.1188 -0.3017  0.9132
 3502SOL     OW11030   5.041   3.936   6.546 -0.4095  0.3594  0.0158
 3502SOL    HW111031   5.026   3.851   6.505 -2.3008  0.1546  1.0121
 3502SOL    HW211032   5.095   3.917   6.622 -1.5218 -0.1143  0.7103
 3503SOL     OW11033   4.310   3.525   3.912 -0.0142  0.3356  0.1463
 3503SOL    HW111034   4.254   3.600   3.930 -0.0244  0.1733  0.8140
 3503SOL    HW211035   4.257   3.448   3.934  0.5179  0.1874  0.9294
 3504SOL     OW11036   0.053   7.093   0.808 -0.2693 -0.4729  0.6266
 3504SOL    HW111037  -0.018   7.028   0.811  0.0500 -0.8097  1.1708
 3504SOL    HW211038   0.094   7.086   0.894 -0.1555  0.3789  0.6427
 3505SOL     OW11039   1.831   7.489   0.133  0.0621  0.2923  0.0892
 3505SOL    HW111040   1.763   7.554   0.151 -0.4827  0.1234 -1.2321
 3505SOL    HW211041   1.911   7.540   0.124 -0.0783  0.6112  0.5845
 3506SOL     OW11042   3.027   0.800   1.849  0.2960  0.2593  0.1211
 3506SOL    HW111043   3.011   0.727   1.790  1.8901  0.1351 -0.2060
 3506SOL    HW211044   3.115   0.830   1.826  1.1485 -0.0603  2.7314
 3507SOL     OW11045   1.547   5.932   3.500 -0.3060 -0.3417  0.2616
 3507SOL    HW111046   1.609   6.005   3.507 -0.8270  0.0650  0.7170
 3507SOL    HW211047   1.587   5.873   3.437  0.4257  0.0407  0.3509
 3508SOL     OW11048   4.834   4.399   7.223 -0.1847  0.2625  0.0474
 3508SOL    HW111049   4.810   4.373   7.135 -0.7252 -0.4478  0.3988
 3508SOL    HW211050   4.917   4.446   7.212 -0.8282  1.2095 -0.9665
 3509SOL     OW11051   4.464   1.358   6.078 -0.4912 -0.0732 -0.7085
 3509SOL    HW111052   4.485   1.431   6.137  0.2400 -0.4432 -0.4998
 3509SOL    HW211053   4.546   1.309   6.071 -1.3079 -1.6884  0.3077
 3510SOL     OW11054   4.068   0.103   2.967 -0.1931  0.4695 -0.1452
 3510SOL    HW111055   4.053   0.192   2.936 -0.4787  0.7572  0.8076
 3510SOL    HW211056   4.156   0.081   2.936 -0.8468  0.3458 -2.0731
 3511SOL     OW11057   7.159   4.402   1.509  0.4733 -0.1357  0.4906
 3511SOL    HW111058   7.218   4.410   1.583  0.7171 -0.3986  0.3299
 3511SOL    HW211059   7.215   4.411   1.432  0.4223 -1.0522  0.3293
 3512SOL     OW11060   4.051   4.035   5.466  0.1048  0.9617 -0.2432
 3512SOL    HW111061   4.070   3.944   5.487 -3.4143  0.2862  0.6035
 3512SOL    HW211062   4.071   4.083   5.547 -0.8163  0.4479  0.2995
 3513SOL     OW11063   1.962   0.792   6.429 -0.3293  0.4511  0.4963
 3513SOL    HW111064   1.889   0.787   6.492  0.1188 -0.3122  0.9696
 3513SOL    HW211065   2.000   0.704   6.430  1.4914  1.2193  1.3183
 3514SOL     OW11066   3.206   1.043   4.787  0.2444  0.4891 -0.0187
 3514SOL    HW111067   3.149   1.050   4.710  1.6912  0.2153 -1.1734
 3514SOL    HW211068   3.179   1.115   4.844 -1.6289  0.0206 -0.2207
 3515SOL     OW11069   5.344   0.884   6.529  0.5221  0.2661 -0.3249
 3515SOL    HW111070   5.298   0.861   6.448  1.7846  1.9536 -1.6021
 3515SOL    HW211071   5.436   0.869   6.509  0.9399  1.6234  0.4280
 3516SOL     OW11072   1.488   0.920   4.035 -0.5177  0.3102 -0.0635
 3516SOL    HW111073   1.399   0.887   4.049  0.3765 -2.8576 -0.9106
 3516SOL    HW211074   1.504   0.906   3.942  0.8991  0.6692  0.1037
 3517SOL     OW11075   4.656   7.518   5.601  0.2900  0.1960 -0.0597
 3517SOL    HW111076   4.562   7.498   5.598  0.3351 -0.3512  1.3727
 3517SOL    HW211077   4.672   7.545   5.692  1.4254  0.8014 -0.4183
 3518SOL     OW11078   2.578   1.879   2.355  0.6001 -0.0815  0.2050
 3518SOL    HW111079   2.593   1.789   2.382 -0.0850 -1.1484 -2.6247
 3518SOL    HW211080   2.484   1.884   2.338  0.5512  1.3186  0.7350
 3519SOL     OW11081   0.737   2.863   4.717 -0.5491  0.0869  0.1724
 3519SOL    HW111082   0.731   2.927   4.788 -0.5883 -0.0486  0.2911
 3519SOL    HW211083   0.724   2.915   4.637 -2.3825 -0.0260  0.3479
 3520SOL     OW11084   6.954   5.723   4.864 -1.0397 -0.6995  0.0796
 3520SOL    HW111085   6.992   5.711   4.777  1.5639  1.0556  0.8698
 3520SOL    HW211086   7.007   5.666   4.921 -3.4552 -2.7576  0.4666
 3521SOL     OW11087   1.871   1.552   0.323  0.3540 -0.0418 -0.6185
 3521SOL    HW111088   1.793   1.606   0.341 -0.2379 -0.2504 -2.3250
 3521SOL    HW211089   1.875   1.548   0.227  0.7967 -2.4400 -0.5654
 3522SOL     OW11090   6.450   3.571   0.859  0.0734  0.0293 -0.6847
 3522SOL    HW111091   6.439   3.614   0.774  0.0623  0.1495 -0.6229
 3522SOL    HW211092   6.462   3.478   0.838 -2.8725 -0.4529 -0.6732
 3523SOL     OW11093   0.557   5.409   7.462  0.4547  0.6618 -0.1273
 3523SOL    HW111094   0.566   5.316   7.484 -0.5357  0.1235 -1.8718
 3523SOL    HW211095   0.645   5.444   7.475  0.8298 -0.4763  0.6488
 3524SOL     OW11096   7.385   5.145   3.573 -0.7248  0.0549  0.1949
 3524SOL    HW111097   7.315   5.136   3.638  0.1681  0.8165  1.3003
 3524SOL    HW211098   7.450   5.201   3.615 -1.2213  2.7640 -2.2622
 3525SOL     OW11099   4.038   6.050   4.911  0.4000 -0.0278  0.5550
 3525SOL    HW111100   3.962   6.003   4.879  0.0664  1.1532 -0.4768
 3525SOL    HW211101   4.102   5.982   4.931 -0.2977 -0.9457 -0.2234
 3526SOL     OW11102   6.729   4.671   4.256 -0.5736  0.0731 -0.5258
 3526SOL    HW111103   6.661   4.605   4.243  1.3096 -1.6926 -2.3047
 3526SOL    HW211104   6.774   4.644   4.336 -0.5017 -0.2121 -0.6571
 3527SOL     OW11105   3.233   7.188   1.957  0.0511 -0.6988  0.0255
 3527SOL    HW111106   3.273   7.270   1.927  0.2868 -0.7205  0.2733
 3527SOL    HW211107   3.256   7.183   2.049  0.4029 -1.2571 -0.0876
 3528SOL     OW11108   3.941   2.224   2.816 -0.3212 -0.0678 -0.3682
 3528SOL    HW111109   3.903   2.145   2.777 -3.7636  1.9723 -1.5523
 3528SOL    HW211110   3.997   2.260   2.747  0.8864 -1.1412  0.0079
 3529SOL     OW11111   7.451   6.428   6.170  0.0923  0.0837  0.8310
 3529SOL    HW111112   7.394   6.495   6.132 -0.5577 -0.7487  0.3181
 3529SOL    HW211113   7.458   6.360   6.103 -0.9734 -1.3590  2.0910
 3530SOL     OW11114   4.377   3.082   5.135  0.0210 -0.9835 -0.2159
 3530SOL    HW111115   4.432   3.091   5.058 -0.3141  0.0634 -0.3466
 3530SOL    HW211116   4.436   3.050   5.203  0.8842  0.4285 -0.2598
 3531SOL     OW11117   4.432   3.125   4.186  0.4113  0.5051 -0.1778
 3531SOL    HW111118   4.414   3.078   4.268  1.4151 -2.4904 -1.5411
 3531SOL    HW211119   4.525   3.147   4.192  0.7482 -0.6313 -0.8679
 3532SOL     OW11120   2.738   6.176   4.158 -0.0131  0.4473  0.4185
 3532SOL    HW111121   2.762   6.091   4.195  0.6944  0.5735  0.2625
 3532SOL    HW211122   2.745   6.236   4.232 -1.7639  0.1879  0.8523
 3533SOL     OW11123   0.291   0.571   5.052  0.2143  0.6655 -0.0710
 3533SOL    HW111124   0.340   0.593   4.973  0.1728  1.1420  0.0313
 3533SOL    HW211125   0.355   0.583   5.123  0.6563 -1.0629 -0.1243
 3534SOL     OW11126   4.406   6.907   1.664  0.3904  0.5539  0.3338
 3534SOL    HW111127   4.325   6.925   1.615 -0.4637 -2.0719  0.6387
 3534SOL    HW211128   4.476   6.929   1.603 -0.5980  0.4589 -0.8813
 3535SOL     OW11129   1.302   4.707   7.539 -0.0801  0.0358 -0.1231
 3535SOL    HW111130   1.235   4.772   7.562 -0.0881  0.0717 -0.2499
 3535SOL    HW211131   1.332   4.673   7.624  0.5748  0.8606 -0.0157
 3536SOL     OW11132   6.661   7.565   3.950  0.1731  0.1359  0.0834
 3536SOL    HW111133   6.745   7.611   3.946  0.8488 -0.6810  2.6223
 3536SOL    HW211134   6.624   7.592   4.034 -0.3537 -2.3001  0.6964
 3537SOL     OW11135   7.320   6.629   2.916  0.4044 -0.3306  0.0601
 3537SOL    HW111136   7.340   6.692   2.847  2.2919 -2.6895 -1.7060
 3537SOL    HW211137   7.231   6.600   2.896  0.4493 -0.0419 -0.5874
 3538SOL     OW11138   0.913   1.499   3.399  0.4516  0.4471 -0.1320
 3538SOL    HW111139   0.896   1.462   3.313  0.1775  0.0209  0.1057
 3538SOL    HW211140   0.847   1.568   3.409  1.6416  1.7877 -1.0325
 3539SOL     OW11141   5.672   4.704   1.626  0.4280 -0.2030 -0.0935
 3539SOL    HW111142   5.744   4.741   1.677 -1.1392  1.0818  1.3008
 3539SOL    HW211143   5.696   4.720   1.535  1.1781  1.6534  0.3885
 3540SOL     OW11144   0.495   4.791   6.982  0.2677  0.4990 -0.1610
 3540SOL    HW111145   0.446   4.725   6.934  0.8110  0.5540 -0.8156
 3540SOL    HW211146   0.434   4.864   6.993 -0.5902 -0.4112  1.2728
 3541SOL     OW11147   7.125   6.046   4.154  0.4974 -0.5059  0.0427
 3541SOL    HW111148   7.129   6.077   4.064  0.3003 -0.2928  0.1058
 3541SOL    HW211149   7.194   5.979   4.160  2.0172  1.0319  0.3514
 3542SOL     OW11150   2.518   6.516   5.015  0.3709  0.0126  0.2524
 3542SOL    HW111151   2.485   6.580   4.953 -2.7895 -1.1511  0.5856
 3542SOL    HW211152   2.521   6.563   5.098 -1.2136 -0.0091  0.3515
 3543SOL     OW11153   4.673   4.562   2.972 -0.1891  0.2125 -0.5702
 3543SOL    HW111154   4.711   4.640   2.932 -0.8405  1.0301  0.3679
 3543SOL    HW211155   4.688   4.573   3.066 -1.8749  0.1121 -0.2542
 3544SOL     OW11156   5.267   5.193   2.877  0.2209 -0.1414  0.0228
 3544SOL    HW111157   5.324   5.208   2.952  1.6332  1.5160 -1.2640
 3544SOL    HW211158   5.322   5.216   2.801 -1.7241  0.1273 -1.3857
 3545SOL     OW11159   4.198   1.595   2.825 -0.1223  0.3705 -0.2332
 3545SOL    HW111160   4.250   1.644   2.888  0.3763  0.8782 -1.0251
 3545SOL    HW211161   4.220   1.503   2.842 -0.5149  0.4607  0.7799
 3546SOL     OW11162   0.968   0.710   6.639 -0.1737 -0.1769 -0.0564
 3546SOL    HW111163   0.939   0.620   6.654  0.0227 -0.2191  0.0911
 3546SOL    HW211164   0.889   0.763   6.646 -0.1667 -0.2502  0.6895
 3547SOL     OW11165   7.369   2.770   6.304  0.3976  0.1050 -0.0648
 3547SOL    HW111166   7.392   2.731   6.220  2.2016  2.3662 -0.7034
 3547SOL    HW211167   7.356   2.863   6.285 -1.9391  0.2377  1.7039
 3548SOL     OW11168   0.671   0.696   7.019 -0.0571  0.3556  0.1363
 3548SOL    HW111169   0.764   0.683   7.037  0.2177  0.1436 -1.3711
 3548SOL    HW211170   0.651   0.782   7.055  0.9657  0.8370 -0.4192
 3549SOL     OW11171   2.174   1.971   7.517  0.1441  0.0060 -0.4347
 3549SOL    HW111172   2.196   1.921   7.595 -1.0983 -0.3232 -0.2708
 3549SOL    HW211173   2.177   2.062   7.546  0.0648 -0.0954 -0.0995
 3550SOL     OW11174   4.585   3.709   3.390 -0.2863 -0.0108  0.4130
 3550SOL    HW111175   4.526   3.753   3.450 -0.6558  0.3592 -0.2085
 3550SOL    HW211176   4.615   3.632   3.438 -1.5436 -0.3983  0.6161
 3551SOL     OW11177   6.699   5.922   1.325 -0.1449 -0.3334  0.4000
 3551SOL    HW111178   6.717   5.845   1.271  2.3554  0.0478  0.5636
 3551SOL    HW211179   6.677   5.887   1.411 -1.3486 -0.8756 -0.1045
 3552SOL     OW11180   2.672   0.175   6.651 -0.8958  0.6475  0.4156
 3552SOL    HW111181   2.749   0.229   6.635 -0.0093  0.0791  2.3961
 3552SOL    HW211182   2.702   0.085   6.636 -1.1402  0.4226  1.2038
 3553SOL     OW11183   6.372   6.328   4.891 -0.2156 -0.3515 -0.0153
 3553SOL    HW111184   6.449   6.332   4.949 -0.0158 -2.9132 -0.0123
 3553SOL    HW211185   6.375   6.410   4.842 -0.4032  2.0047  3.5484
 3554SOL     OW11186   7.218   6.524   3.717  0.4214  0.0941 -0.0990
 3554SOL    HW111187   7.293   6.464   3.724 -0.6894 -1.2415  0.7958
 3554SOL    HW211188   7.159   6.481   3.656 -0.7329 -0.1440  1.1409
 3555SOL     OW11189   7.123   4.904   3.883  0.2206  0.8157 -0.0990
 3555SOL    HW111190   7.045   4.892   3.829  1.0412 -0.2499 -1.0864
 3555SOL    HW211191   7.090   4.906   3.972 -0.9059  0.0593 -0.4800
 3556SOL     OW11192   2.680   0.825   5.468 -0.4920 -0.5801  0.0883
 3556SOL    HW111193   2.759   0.865   5.432 -1.2284 -0.1372 -1.1175
 3556SOL    HW211194   2.709   0.742   5.506  0.8900  0.5517  1.6351
 3557SOL     OW11195   2.701   5.144   4.381 -0.2101 -0.3199 -0.1741
 3557SOL    HW111196   2.780   5.197   4.368 -0.2792 -0.5853 -1.9283
 3557SOL    HW211197   2.639   5.203   4.424 -0.3550  1.1638 -2.2508
 3558SOL     OW11198   1.065   6.976   6.349  0.1153 -0.2067  0.4674
 3558SOL    HW111199   1.031   7.053   6.395 -1.9936 -1.2118  0.7046
 3558SOL    HW211200   0.993   6.913   6.352  0.9505 -1.3502 -1.7375
 3559SOL     OW11201   3.987   4.513   0.547 -0.1744  0.1261  0.8846
 3559SOL    HW111202   3.926   4.536   0.617 -0.1896 -0.8513  1.2066
 3559SOL    HW211203   4.030   4.433   0.577  0.1762 -0.0418 -0.0096
 3560SOL     OW11204   6.602   0.801   5.976 -0.0102 -0.3177 -0.4140
 3560SOL    HW111205   6.599   0.817   6.070  0.5135 -2.1052 -0.0468
 3560SOL    HW211206   6.694   0.779   5.958 -0.6165 -2.8780 -0.7575
 3561SOL     OW11207   4.346   0.837   3.103  0.3545  0.5775  0.0804
 3561SOL    HW111208   4.360   0.833   3.009  0.9059  0.2589  0.1754
 3561SOL    HW211209   4.396   0.764   3.139  0.2885  0.7971  0.6365
 3562SOL     OW11210   2.808   5.474   4.179  0.1596 -0.1345 -0.0095
 3562SOL    HW111211   2.848   5.530   4.112 -1.7169 -0.1811 -1.2301
 3562SOL    HW211212   2.715   5.471   4.156 -0.8722  0.9910  3.4016
 3563SOL     OW11213   7.018   6.339   6.006  0.8741  0.0446  0.4287
 3563SOL    HW111214   6.943   6.352   5.949 -0.6094 -2.1244  1.7420
 3563SOL    HW211215   7.008   6.405   6.074  0.0481 -0.3273  0.6736
 3564SOL     OW11216   2.728   0.156   0.054 -0.3220  0.0985 -0.1008
 3564SOL    HW111217   2.698   0.146  -0.037  0.1204  0.8767 -0.3485
 3564SOL    HW211218   2.655   0.125   0.107 -1.2685  1.2198 -0.6985
 3565SOL     OW11219   4.523   6.516   1.020 -0.3884  0.2323 -0.3436
 3565SOL    HW111220   4.481   6.552   0.942  0.0833 -0.1220 -0.7708
 3565SOL    HW211221   4.494   6.425   1.023  0.2583  0.0159 -0.5799
 3566SOL     OW11222   5.331   7.334   1.317  0.2290  0.5296  0.3036
 3566SOL    HW111223   5.317   7.247   1.280  1.2250  0.9252 -1.1314
 3566SOL    HW211224   5.270   7.340   1.390 -0.8549 -0.8425 -0.4477
 3567SOL     OW11225   0.226   2.732   2.304  0.0574  0.0385  0.4999
 3567SOL    HW111226   0.270   2.652   2.277  0.4622 -0.1754  1.7289
 3567SOL    HW211227   0.138   2.704   2.329 -0.7624  0.4276 -1.7117
 3568SOL     OW11228   3.244   3.361   1.929  0.1845  0.2335  0.1679
 3568SOL    HW111229   3.330   3.402   1.922  0.8004 -1.1353 -0.9394
 3568SOL    HW211230   3.221   3.340   1.838 -0.6264 -0.7725  0.5890
 3569SOL     OW11231   2.697   6.255   2.265 -0.4176  0.0924 -0.3979
 3569SOL    HW111232   2.776   6.213   2.300 -0.5622  0.5648  0.5371
 3569SOL    HW211233   2.645   6.276   2.343 -1.0468  0.6071 -0.9481
 3570SOL     OW11234   4.858   5.522   2.360  0.0655  0.1455 -0.3915
 3570SOL    HW111235   4.800   5.574   2.304 -0.3235 -2.2977 -2.4261
 3570SOL    HW211236   4.940   5.517   2.311  0.4124 -0.3732  0.2261
 3571SOL     OW11237   4.553   3.293   3.827  0.6946 -0.7896 -0.6560
 3571SOL    HW111238   4.645   3.271   3.809  0.9917  0.3893 -0.7034
 3571SOL    HW211239   4.506   3.268   3.748  0.7061 -2.7440 -0.1003
 3572SOL     OW11240   0.119   2.373   5.965  0.2916 -0.5336  0.2836
 3572SOL    HW111241   0.155   2.284   5.971  0.0121 -0.5641  1.9626
 3572SOL    HW211242   0.149   2.405   5.880  1.5605 -1.7345  0.2343
 3573SOL     OW11243   4.911   2.352   6.005 -0.1475 -0.0609  0.3586
 3573SOL    HW111244   4.860   2.423   6.044  0.1654  0.0736  0.5314
 3573SOL    HW211245   4.917   2.374   5.912  1.1893  0.9275  0.6443
 3574SOL     OW11246   2.127   4.702   6.899  0.3735 -0.2501 -0.0052
 3574SOL    HW111247   2.093   4.628   6.848  2.7500 -0.5672 -1.2828
 3574SOL    HW211248   2.098   4.779   6.851 -0.4457 -0.4134  0.2156
 3575SOL     OW11249   5.337   0.093   6.158  0.2529 -0.0681 -0.4625
 3575SOL    HW111250   5.271   0.129   6.217  0.1094 -1.6640  0.4182
 3575SOL    HW211251   5.410   0.070   6.215  1.6600  1.7605 -1.4343
 3576SOL     OW11252   0.449   2.958   4.379  0.1103  0.3512 -0.0180
 3576SOL    HW111253   0.465   2.894   4.309 -0.7376 -1.1977  1.1487
 3576SOL    HW211254   0.531   2.961   4.428  0.3189  0.5529 -0.3724
 3577SOL     OW11255   3.588   0.756   4.007  0.1097 -0.4177  0.0241
 3577SOL    HW111256   3.629   0.823   3.953 -1.0060  0.7735  0.6043
 3577SOL    HW211257   3.537   0.804   4.072 -0.1781 -1.8236  0.9063
 3578SOL     OW11258   2.581   4.080   2.412 -1.0389  0.1351  0.2930
 3578SOL    HW111259   2.652   4.113   2.357 -0.8955 -2.6299 -1.4024
 3578SOL    HW211260   2.623   4.019   2.473 -1.8700 -2.1517 -1.2467
 3579SOL     OW11261   0.308   5.367   2.851  0.3631 -0.1644 -0.3278
 3579SOL    HW111262   0.357   5.357   2.769 -1.1410  3.2602 -1.8531
 3579SOL    HW211263   0.296   5.462   2.860 -3.1924 -0.6449  1.5971
 3580SOL     OW11264   6.546   1.131   5.168 -0.2688 -0.2799 -0.2166
 3580SOL    HW111265   6.631   1.096   5.197 -0.2103  0.3102  0.3474
 3580SOL    HW211266   6.507   1.060   5.117  1.1082 -0.1312 -1.5345
 3581SOL     OW11267   4.529   2.297   0.439  0.0386 -0.4556 -0.2919
 3581SOL    HW111268   4.575   2.319   0.358 -0.4306 -0.0798 -0.4625
 3581SOL    HW211269   4.504   2.382   0.476 -1.1927 -0.6625 -0.6031
 3582SOL     OW11270   4.680   6.511   5.890 -0.8514  0.0011  0.2922
 3582SOL    HW111271   4.698   6.506   5.796  0.1305  1.3878  0.3690
 3582SOL    HW211272   4.585   6.521   5.897 -0.9406 -0.2281 -0.5452
 3583SOL     OW11273   4.684   3.246   7.087  0.0378 -0.0274  0.5171
 3583SOL    HW111274   4.649   3.231   6.999  0.7244 -3.0254  0.6301
 3583SOL    HW211275   4.608   3.265   7.141 -0.8756 -1.6129 -0.1421
 3584SOL     OW11276   1.916   2.731   3.298 -0.1093  0.4501 -0.8567
 3584SOL    HW111277   1.896   2.742   3.205  1.5469 -2.0341 -1.6257
 3584SOL    HW211278   1.988   2.792   3.314 -1.1336  1.6981 -0.8662
 3585SOL     OW11279   6.443   0.534   3.636  0.5197  0.6895  0.2394
 3585SOL    HW111280   6.395   0.451   3.626 -1.1060  1.6864 -0.8453
 3585SOL    HW211281   6.374   0.601   3.636  1.8323  2.0962  0.4983
 3586SOL     OW11282   1.136   6.908   3.245 -1.0435 -0.6146 -0.2061
 3586SOL    HW111283   1.133   6.930   3.338 -0.6849 -1.8800  0.1355
 3586SOL    HW211284   1.228   6.920   3.221 -1.0150 -0.8767 -0.2318
 3587SOL     OW11285   0.055   6.413   7.479  0.1988  0.1677 -0.3209
 3587SOL    HW111286   0.023   6.502   7.487 -0.9164 -0.2428 -0.0425
 3587SOL    HW211287  -0.013   6.367   7.429  1.6093 -0.0967 -2.1244
 3588SOL     OW11288   4.032   4.380   5.104  0.4531 -0.2305 -0.0876
 3588SOL    HW111289   4.107   4.365   5.046  2.2623  1.2775  1.7404
 3588SOL    HW211290   4.036   4.308   5.167 -2.2692 -2.6197 -2.3654
 3589SOL     OW11291   2.824   4.596   6.238 -0.1009  0.5949  0.0057
 3589SOL    HW111292   2.735   4.595   6.273 -0.1321 -0.6236 -0.0554
 3589SOL    HW211293   2.866   4.672   6.278 -1.0383  0.9304  0.3655
 3590SOL     OW11294   7.110   5.030   2.215  0.7326 -0.1160  0.2532
 3590SOL    HW111295   7.025   4.987   2.209  2.2976 -3.3528 -1.0452
 3590SOL    HW211296   7.151   4.991   2.292  1.9563 -0.4983 -0.5606
 3591SOL     OW11297   6.840   2.890   4.124 -0.0422 -0.4698 -0.4201
 3591SOL    HW111298   6.752   2.903   4.157  0.3608 -1.2959  1.0499
 3591SOL    HW211299   6.896   2.941   4.183  0.4321  0.7716 -1.8520
 3592SOL     OW11300   6.976   1.392   1.090  0.5114 -0.9963 -0.0245
 3592SOL    HW111301   6.919   1.453   1.138  1.2588 -1.4203  1.4492
 3592SOL    HW211302   7.065   1.415   1.118  1.1375 -0.2613 -2.3818
 3593SOL     OW11303   1.091   0.949   7.093  0.3215  0.4032 -0.0739
 3593SOL    HW111304   1.177   0.965   7.130  0.3705  0.6082 -0.2724
 3593SOL    HW211305   1.068   0.861   7.123  0.7169  0.2382 -0.2393
 3594SOL     OW11306   5.007   4.607   4.315 -0.2899 -0.1478 -0.1748
 3594SOL    HW111307   5.014   4.609   4.410  0.1261 -0.7873 -0.1814
 3594SOL    HW211308   4.914   4.598   4.297 -0.2013 -2.5298  0.2524
 3595SOL     OW11309   2.966   3.601   1.760  0.0431 -0.5191 -0.7606
 3595SOL    HW111310   2.889   3.639   1.718 -1.2607 -0.8054  1.2148
 3595SOL    HW211311   3.041   3.638   1.712 -1.1707  2.9076 -0.3346
 3596SOL     OW11312   0.034   7.551   2.664 -0.1042  0.2560 -0.3171
 3596SOL    HW111313  -0.035   7.510   2.716 -0.4258 -0.8499 -1.5710
 3596SOL    HW211314   0.055   7.631   2.712  0.2495 -1.1331  1.9860
 3597SOL     OW11315   2.291   0.865   3.129  0.2924 -0.2865  0.1173
 3597SOL    HW111316   2.372   0.867   3.180 -0.6291 -1.1793  1.6810
 3597SOL    HW211317   2.288   0.951   3.086  2.2250 -0.3722 -0.2575
 3598SOL     OW11318   3.554   6.650   4.525 -0.1370  0.3907  0.9607
 3598SOL    HW111319   3.542   6.556   4.518  1.1269  0.3565 -2.4913
 3598SOL    HW211320   3.648   6.664   4.516 -0.4694  2.0574 -0.5349
 3599SOL     OW11321   5.413   5.633   4.083 -0.4400 -0.3487  0.4102
 3599SOL    HW111322   5.477   5.697   4.114  0.3490 -0.8875 -0.0421
 3599SOL    HW211323   5.414   5.643   3.988  1.4700 -2.5707  0.0958
 3600SOL     OW11324   4.546   0.940   4.166  0.5234 -0.5202 -0.9847
 3600SOL    HW111325   4.467   0.888   4.178  1.4908 -1.7789  0.3170
 3600SOL    HW211326   4.603   0.886   4.111  1.5887 -0.9813  0.4887
 3601SOL     OW11327   4.087   5.048   5.530 -0.3509 -0.2622 -0.1656
 3601SOL    HW111328   4.079   4.958   5.560  1.1001 -0.5724 -0.6089
 3601SOL    HW211329   4.024   5.097   5.583  0.2266 -1.2219  1.4794
 3602SOL     OW11330   4.739   2.392   4.672  0.1429  0.3685 -0.3306
 3602SOL    HW111331   4.663   2.397   4.614 -0.7779  1.4682  0.9243
 3602SOL    HW211332   4.746   2.299   4.694 -1.2664  0.3563  0.0985
 3603SOL     OW11333   2.622   3.716   0.494  0.5411  0.2220  0.0430
 3603SOL    HW111334   2.711   3.730   0.461  1.1021  1.5903  1.9112
 3603SOL    HW211335   2.609   3.622   0.487  1.4827  0.1803 -1.7808
 3604SOL     OW11336   0.365   2.096   2.564  0.4455  0.2997 -0.4459
 3604SOL    HW111337   0.294   2.134   2.616 -1.1844  0.0224 -2.3356
 3604SOL    HW211338   0.445   2.132   2.602 -0.5291 -0.7198  2.8855
 3605SOL     OW11339   4.012   2.449   6.528  0.0015 -0.0616  0.5589
 3605SOL    HW111340   4.016   2.378   6.463  0.1042 -0.7056  1.2568
 3605SOL    HW211341   4.037   2.408   6.611 -0.2980  0.7118  1.0481
 3606SOL     OW11342   3.115   1.652   4.995 -0.0481 -0.4626 -0.4426
 3606SOL    HW111343   3.143   1.609   5.075  0.5671 -0.4659 -0.6515
 3606SOL    HW211344   3.020   1.641   4.993 -0.3840  1.4706  1.4016
 3607SOL     OW11345   2.237   2.271   5.298  0.1147 -0.2066 -0.8011
 3607SOL    HW111346   2.253   2.239   5.209  0.7711 -0.8620 -0.4562
 3607SOL    HW211347   2.311   2.329   5.316  0.8745 -1.3629 -0.0883
 3608SOL     OW11348   0.965   7.274   0.149  0.1751 -0.7912 -0.6488
 3608SOL    HW111349   0.967   7.210   0.220 -2.0915  1.3612  1.5099
 3608SOL    HW211350   0.892   7.246   0.094 -0.4686 -0.3669 -0.0118
 3609SOL     OW11351   2.115   3.307   1.628 -0.1891 -0.1752  0.0063
 3609SOL    HW111352   2.203   3.281   1.656 -0.7848 -0.9880  1.1799
 3609SOL    HW211353   2.071   3.224   1.609 -0.4577  0.2672 -1.4104
 3610SOL     OW11354   5.671   6.735   0.172 -0.1542  0.5209  0.0477
 3610SOL    HW111355   5.718   6.711   0.093 -0.0610 -0.8908  0.5031
 3610SOL    HW211356   5.700   6.824   0.192 -2.8858  2.4742 -3.4839
 3611SOL     OW11357   7.284   3.335   0.321 -0.0229  0.0416 -0.4869
 3611SOL    HW111358   7.243   3.421   0.320  0.6635  0.3959  0.8846
 3611SOL    HW211359   7.229   3.283   0.379 -0.2327 -0.3545 -1.0306
 3612SOL     OW11360   3.081   0.915   0.460  0.2513  0.6113 -0.0903
 3612SOL    HW111361   3.037   0.958   0.388  1.4038  0.7087 -0.7632
 3612SOL    HW211362   3.105   0.829   0.426  0.2980  0.4349  0.3699
 3613SOL     OW11363   2.484   4.805   2.141 -0.1544 -0.8651 -0.7575
 3613SOL    HW111364   2.532   4.724   2.124 -1.7136 -1.3812 -3.2024
 3613SOL    HW211365   2.444   4.827   2.057 -0.7400  1.8315  0.1357
 3614SOL     OW11366   4.319   4.565   1.212  0.2670  0.5943 -0.3248
 3614SOL    HW111367   4.341   4.578   1.304  0.2840  2.7797 -0.5840
 3614SOL    HW211368   4.224   4.578   1.208 -0.4091 -3.1286 -0.1198
 3615SOL     OW11369   3.261   3.471   7.306 -0.0826  0.0267 -0.4511
 3615SOL    HW111370   3.321   3.427   7.245 -1.1159  0.2123 -1.6300
 3615SOL    HW211371   3.218   3.538   7.254 -2.9807 -1.5601 -0.2710
 3616SOL     OW11372   7.354   6.049   5.490 -0.4272 -0.7571  0.1887
 3616SOL    HW111373   7.387   6.001   5.414 -0.2365 -1.0645  0.4578
 3616SOL    HW211374   7.262   6.066   5.470 -0.4973 -1.2420  0.0870
 3617SOL     OW11375   1.966   4.295   7.379  0.8696 -0.2284 -0.4544
 3617SOL    HW111376   1.932   4.356   7.314 -2.1294 -0.7217  0.4989
 3617SOL    HW211377   1.904   4.222   7.377  1.3987 -0.8106  2.0591
 3618SOL     OW11378   0.993   5.862   5.102  0.1480  0.2741 -0.6386
 3618SOL    HW111379   0.995   5.891   5.011 -0.9866  2.2638 -0.0790
 3618SOL    HW211380   1.032   5.934   5.151  0.4701 -0.6533  0.5002
 3619SOL     OW11381   1.868   4.686   2.731  0.4481  0.5880 -1.2640
 3619SOL    HW111382   1.934   4.672   2.798 -1.5348 -0.3082  0.6502
 3619SOL    HW211383   1.822   4.602   2.725  0.3710  0.7385 -3.5625
 3620SOL     OW11384   4.037   2.983   1.849 -0.1054  0.0492 -0.0601
 3620SOL    HW111385   4.096   2.926   1.802 -0.0271  1.0551 -1.2225
 3620SOL    HW211386   4.089   3.061   1.869 -0.2314 -0.2132  1.4244
 3621SOL     OW11387   1.821   0.249   1.581 -0.3141 -0.9494 -0.1784
 3621SOL    HW111388   1.785   0.171   1.540 -0.6997 -1.1939  0.6047
 3621SOL    HW211389   1.879   0.287   1.515  0.1154 -2.0609 -0.4481
 3622SOL     OW11390   3.625   2.034   7.026 -0.3666  0.2723  0.1082
 3622SOL    HW111391   3.677   1.955   7.017  0.5776  0.7300  1.2392
 3622SOL    HW211392   3.624   2.073   6.938  0.2875 -0.3022 -0.1591
 3623SOL     OW11393   6.746   0.353   6.925  0.3249  0.6687  0.2607
 3623SOL    HW111394   6.730   0.389   6.838  0.8228  0.6618  0.1640
 3623SOL    HW211395   6.757   0.259   6.910  1.8643  0.8528  0.1276
 3624SOL     OW11396   3.977   1.868   0.683  0.3612  0.5289 -0.3766
 3624SOL    HW111397   4.021   1.904   0.760 -0.5287  1.6788 -0.3745
 3624SOL    HW211398   4.028   1.899   0.609  1.8335 -1.4445 -0.2598
 3625SOL     OW11399   2.249   5.111   7.090  0.3321 -0.3745  0.3891
 3625SOL    HW111400   2.300   5.075   7.163 -0.4016  0.8327  1.5416
 3625SOL    HW211401   2.172   5.054   7.085  2.0633 -2.7845 -1.9600
 3626SOL     OW11402   4.700   1.098   4.877  0.4522 -0.0799 -0.0179
 3626SOL    HW111403   4.737   1.154   4.945 -0.5840  1.6897 -0.8325
 3626SOL    HW211404   4.776   1.057   4.835  1.4691  2.4860 -0.8396
 3627SOL     OW11405   3.688   6.412   4.635 -0.3936  0.4156 -0.2446
 3627SOL    HW111406   3.693   6.388   4.542 -0.9856  0.2529 -0.2387
 3627SOL    HW211407   3.653   6.334   4.678  0.7896  0.1468  0.2680
 3628SOL     OW11408   6.658   6.019   7.556  0.0689  0.4421  0.3460
 3628SOL    HW111409   6.626   6.109   7.560  0.2417  0.6254 -1.6794
 3628SOL    HW211410   6.677   5.997   7.647 -0.9234  2.0968  1.0032
 3629SOL     OW11411   6.942   0.426   6.142  0.8198 -0.1380  0.2820
 3629SOL    HW111412   6.890   0.375   6.080  1.2472 -1.1588  0.7531
 3629SOL    HW211413   7.026   0.440   6.097  0.6094  0.3882  0.0462
 3630SOL     OW11414   2.594   4.242   4.003  0.0230 -0.6428  0.0197
 3630SOL    HW111415   2.614   4.332   3.976 -0.8450 -0.9800 -1.8761
 3630SOL    HW211416   2.678   4.205   4.028  0.8654 -0.1703 -1.9680
 3631SOL     OW11417   3.155   5.174   5.753  0.2547 -0.2659 -0.3971
 3631SOL    HW111418   3.154   5.204   5.844  1.0554  0.9771 -0.7602
 3631SOL    HW211419   3.068   5.196   5.720  0.1954 -0.0619 -0.1191
 3632SOL     OW11420   1.940   3.431   6.667 -0.0777  0.7191  0.2376
 3632SOL    HW111421   2.029   3.412   6.638  0.1928 -0.4080  1.6360
 3632SOL    HW211422   1.901   3.344   6.679 -1.7066  1.1933 -1.2503
 3633SOL     OW11423   2.402   0.838   6.538 -0.0055 -0.1025  0.0920
 3633SOL    HW111424   2.387   0.765   6.598 -1.0268  2.4998  3.2790
 3633SOL    HW211425   2.489   0.871   6.562 -0.8327  1.5752  0.9056
 3634SOL     OW11426   1.870   7.252   4.063  0.1737  0.0264  0.4065
 3634SOL    HW111427   1.850   7.344   4.081  0.0455  0.1722 -0.4534
 3634SOL    HW211428   1.900   7.251   3.972 -1.7155 -1.0625 -0.2466
 3635SOL     OW11429   7.088   5.284   0.949  0.1759  0.3896 -0.3130
 3635SOL    HW111430   7.043   5.349   1.003 -1.1754 -1.3170  0.7436
 3635SOL    HW211431   7.027   5.265   0.878 -1.4266 -2.6149  1.6273
 3636SOL     OW11432   5.154   1.655   0.235  0.0790  0.0138  0.0326
 3636SOL    HW111433   5.060   1.650   0.221 -0.2976  1.9507  1.4772
 3636SOL    HW211434   5.178   1.570   0.271 -1.6918  0.4366  2.4142
 3637SOL     OW11435   3.358   5.555   7.367  0.3548 -0.2188  0.2623
 3637SOL    HW111436   3.267   5.532   7.348  0.5156 -1.5849  1.0004
 3637SOL    HW211437   3.385   5.608   7.293 -0.8499 -0.3282 -0.2824
 3638SOL     OW11438   6.791   1.021   3.039  0.0752 -0.0715  0.3077
 3638SOL    HW111439   6.818   0.982   3.122 -0.4951  1.9938  1.5406
 3638SOL    HW211440   6.870   1.066   3.007  0.0683 -0.1765  0.1413
 3639SOL     OW11441   2.270   0.915   0.478  0.6751  0.0289 -0.2645
 3639SOL    HW111442   2.220   0.835   0.496  2.6227 -0.8822  1.6286
 3639SOL    HW211443   2.351   0.884   0.438  0.8941  1.1931 -0.7514
 3640SOL     OW11444   5.371   0.353   5.484  0.0790  0.6329  0.5759
 3640SOL    HW111445   5.389   0.259   5.480  1.3045  0.8768 -0.0320
 3640SOL    HW211446   5.295   0.366   5.427 -0.7271 -0.1182  1.4540
 3641SOL     OW11447   2.419   1.520   6.950  0.3741  0.4946  0.1530
 3641SOL    HW111448   2.414   1.614   6.970  0.4676  0.6098 -0.3493
 3641SOL    HW211449   2.331   1.487   6.969  0.0170  0.9056 -0.7415
 3642SOL     OW11450   2.170   0.749   5.495  0.1755 -0.0403  0.6429
 3642SOL    HW111451   2.252   0.779   5.534 -0.7262  0.5235  2.2108
 3642SOL    HW211452   2.196   0.699   5.418  1.9892 -0.0911  1.2585
 3643SOL     OW11453   2.782   3.135   5.634 -0.5167 -0.7958  0.0852
 3643SOL    HW111454   2.770   3.229   5.648  0.3500 -0.8015  1.0540
 3643SOL    HW211455   2.723   3.094   5.698 -3.3849 -1.0192 -2.5059
 3644SOL     OW11456   3.970   0.033   4.600  0.5657 -0.3666 -0.2591
 3644SOL    HW111457   4.051   0.075   4.573  0.3866 -0.3511 -0.7833
 3644SOL    HW211458   3.928   0.096   4.658  0.1391  0.3193 -1.3028
 3645SOL     OW11459   5.819   6.322   0.046  0.4857  0.4345 -0.4013
 3645SOL    HW111460   5.750   6.268   0.007  0.8833 -0.6980  0.4202
 3645SOL    HW211461   5.900   6.289   0.008  0.5975  2.1507 -1.8262
 3646SOL     OW11462   7.163   5.563   0.694  0.1776 -0.3049 -0.1079
 3646SOL    HW111463   7.212   5.481   0.699 -1.3073 -1.1942  0.5604
 3646SOL    HW211464   7.160   5.594   0.785 -1.3498 -0.8186  0.0438
 3647SOL     OW11465   1.278   5.680   6.146  0.0598  0.1159 -0.0449
 3647SOL    HW111466   1.265   5.593   6.109 -0.1832  0.0216  0.2638
 3647SOL    HW211467   1.196   5.700   6.191  1.2415 -0.8798  2.7683
 3648SOL     OW11468   6.140   1.703   7.151 -0.2852 -0.5258 -0.7324
 3648SOL    HW111469   6.074   1.670   7.212 -0.3777  1.6770  0.4777
 3648SOL    HW211470   6.157   1.630   7.092 -3.3488 -1.3964 -0.7289
 3649SOL     OW11471   0.565   3.705   1.972  0.8918  0.2181  0.3640
 3649SOL    HW111472   0.493   3.768   1.979  1.7775  1.0840  2.4257
 3649SOL    HW211473   0.573   3.688   1.878  0.3475  2.8546 -0.2315
 3650SOL     OW11474   3.683   1.668   6.026  0.1305 -0.1863  0.2068
 3650SOL    HW111475   3.605   1.702   6.069  0.0527  0.2110 -0.2308
 3650SOL    HW211476   3.650   1.614   5.954  0.2553 -1.2278  0.9136
 3651SOL     OW11477   4.134   6.662   4.403  0.0740 -0.0454  0.2570
 3651SOL    HW111478   4.060   6.603   4.413 -0.7076  1.0362  1.0037
 3651SOL    HW211479   4.103   6.746   4.436  2.0455  0.1097  1.8920
 3652SOL     OW11480   2.039   6.286   3.223  0.1482 -0.5967  0.4424
 3652SOL    HW111481   1.974   6.306   3.156  0.0978 -0.9633  0.3829
 3652SOL    HW211482   2.122   6.315   3.185 -0.0687  0.6368  0.8418
 3653SOL     OW11483   7.422   3.743   6.382 -0.1543 -0.2096  0.4983
 3653SOL    HW111484   7.418   3.778   6.293  0.7207  1.1221  0.9506
 3653SOL    HW211485   7.347   3.781   6.427 -0.0258 -0.0729  0.5986
 3654SOL     OW11486   4.839   7.252   6.403  0.1472 -0.2569 -0.5410
 3654SOL    HW111487   4.790   7.333   6.390 -1.3084 -0.6100  2.0599
 3654SOL    HW211488   4.810   7.194   6.332 -1.4513  0.3433 -0.4040
 3655SOL     OW11489   2.243   1.258   6.257 -1.0195 -0.0784  0.1728
 3655SOL    HW111490   2.307   1.232   6.323 -0.2863  0.3465 -0.3516
 3655SOL    HW211491   2.159   1.230   6.292 -0.4794 -1.2734  0.5680
 3656SOL     OW11492   4.281   5.715   3.692 -0.1231 -0.0273 -0.2677
 3656SOL    HW111493   4.349   5.778   3.718  0.6300 -1.2904  0.9896
 3656SOL    HW211494   4.330   5.636   3.668 -1.0300 -0.1024 -2.0691
 3657SOL     OW11495   3.264   6.993   1.040  0.1948 -0.1570  0.1456
 3657SOL    HW111496   3.358   6.998   1.059  0.1222  0.5738  0.3610
 3657SOL    HW211497   3.259   6.991   0.944  0.4736 -1.5283  0.1479
 3658SOL     OW11498   0.733   3.799   5.298 -0.3853 -0.0429 -0.5144
 3658SOL    HW111499   0.809   3.743   5.316 -0.6943  0.1038  1.4333
 3658SOL    HW211500   0.662   3.738   5.280 -0.4558 -0.2727  0.4899
 3659SOL     OW11501   5.825   3.508   1.717  0.5945 -0.0374 -0.0624
 3659SOL    HW111502   5.779   3.587   1.746 -1.8013 -1.1709 -0.5330
 3659SOL    HW211503   5.886   3.489   1.788 -2.1233 -0.3679  2.4063
 3660SOL     OW11504   1.608   4.585   5.597  0.1090 -0.0447  0.3402
 3660SOL    HW111505   1.521   4.616   5.622  0.6366  0.9022  1.0150
 3660SOL    HW211506   1.645   4.656   5.545  0.6538 -0.2686  0.4165
 3661SOL     OW11507   5.587   3.751   2.494 -0.0375 -0.4817  0.3779
 3661SOL    HW111508   5.576   3.667   2.538 -1.6999 -0.0566  0.8586
 3661SOL    HW211509   5.513   3.803   2.524  0.3174  0.7684 -0.8181
 3662SOL     OW11510   2.594   7.110   1.096  0.5589 -0.7252 -0.4329
 3662SOL    HW111511   2.579   7.144   1.007  0.6589  2.5487  0.6621
 3662SOL    HW211512   2.522   7.146   1.148  1.7518 -0.6410  1.2358
 3663SOL     OW11513   5.463   7.330   7.188 -0.3988 -0.0667 -0.1411
 3663SOL    HW111514   5.490   7.293   7.104 -2.2039  0.1689 -0.8881
 3663SOL    HW211515   5.446   7.422   7.169  0.4090  0.2849  0.8069
 3664SOL     OW11516   0.312   0.561   6.537 -0.3116  0.4599  0.3688
 3664SOL    HW111517   0.350   0.649   6.535 -0.4706  0.5537  1.1368
 3664SOL    HW211518   0.368   0.509   6.479 -0.5807  1.2057 -0.5751
 3665SOL     OW11519   0.597   5.677   6.760 -0.1721 -0.2433 -0.0331
 3665SOL    HW111520   0.541   5.689   6.683 -1.0543 -0.7567  0.5157
 3665SOL    HW211521   0.578   5.752   6.816 -0.0510 -0.2367  0.0008
 3666SOL     OW11522   0.614   2.232   7.286 -0.5972  0.8058 -0.3439
 3666SOL    HW111523   0.544   2.170   7.267  1.0790 -0.8141 -1.6216
 3666SOL    HW211524   0.618   2.288   7.208 -1.7924  2.2861  0.6077
 3667SOL     OW11525   6.266   4.373   2.011  0.2117  0.1525  0.4158
 3667SOL    HW111526   6.245   4.466   2.013  0.2291  0.1584  0.3181
 3667SOL    HW211527   6.287   4.354   1.920 -0.9213 -0.2089  0.2160
 3668SOL     OW11528   1.475   0.624   0.898 -0.2879  0.2375 -0.6237
 3668SOL    HW111529   1.546   0.612   0.960 -0.9060  2.1098  0.5295
 3668SOL    HW211530   1.404   0.568   0.931 -0.9173  1.8619  0.9487
 3669SOL     OW11531   0.722   1.413   2.813  0.4597 -0.1046  0.3305
 3669SOL    HW111532   0.708   1.429   2.906  0.9414 -0.9856  0.5691
 3669SOL    HW211533   0.799   1.355   2.810 -0.4841 -1.3612 -0.5300
 3670SOL     OW11534   7.041   0.772   1.415  0.2083  0.3556 -0.6362
 3670SOL    HW111535   7.049   0.739   1.325 -0.4614 -1.4637 -0.0522
 3670SOL    HW211536   7.130   0.793   1.441  0.4214  0.8302 -1.6837
 3671SOL     OW11537   7.522   5.438   6.303  0.2528  0.3573  0.2441
 3671SOL    HW111538   7.501   5.398   6.387  1.5239  0.2123  0.5211
 3671SOL    HW211539   7.492   5.528   6.311 -3.6927 -0.6687 -0.7928
 3672SOL     OW11540   5.784   5.302   2.969 -0.2308 -0.0459  0.0843
 3672SOL    HW111541   5.752   5.386   3.003 -1.3046 -0.4485  0.0700
 3672SOL    HW211542   5.835   5.326   2.891 -0.1474  0.6255  0.3380
 3673SOL     OW11543   1.341   5.859   7.420  0.0230  0.5902 -0.4990
 3673SOL    HW111544   1.269   5.813   7.377 -0.6206 -0.3093  1.4173
 3673SOL    HW211545   1.343   5.945   7.377 -2.0766  0.5731 -0.7528
 3674SOL     OW11546   0.300   0.243   4.582 -0.1281 -0.2967  0.4032
 3674SOL    HW111547   0.383   0.276   4.618 -1.0545  0.9017  1.5414
 3674SOL    HW211548   0.296   0.152   4.610 -0.4414  0.3766  2.7816
 3675SOL     OW11549   1.270   6.006   3.370  0.1951 -0.1691 -0.2689
 3675SOL    HW111550   1.326   5.965   3.304 -1.0746 -1.3797 -0.6427
 3675SOL    HW211551   1.330   6.046   3.432  1.4797 -2.2644 -0.1084
 3676SOL     OW11552   2.488   0.421   7.024 -0.7989 -0.3464  0.1025
 3676SOL    HW111553   2.510   0.392   7.112  0.8834  1.4528  0.3360
 3676SOL    HW211554   2.544   0.367   6.967 -0.2598 -0.0039  0.2977
 3677SOL     OW11555   2.284   6.589   4.631 -0.7705 -0.0001  0.4248
 3677SOL    HW111556   2.271   6.526   4.559 -0.8758  1.3317 -0.7651
 3677SOL    HW211557   2.379   6.591   4.644 -0.6513  0.5609 -0.4498
 3678SOL     OW11558   1.555   4.711   3.042  0.3428 -0.5305 -0.3426
 3678SOL    HW111559   1.629   4.740   3.095 -1.7258  2.1014  1.3809
 3678SOL    HW211560   1.557   4.768   2.966 -1.3351  1.4798  1.0198
 3679SOL     OW11561   0.499   4.036   6.627 -0.2569  0.0886 -0.5743
 3679SOL    HW111562   0.573   4.054   6.569 -0.3595 -1.8056 -1.3551
 3679SOL    HW211563   0.425   4.081   6.585  0.5616  2.9990  0.8295
 3680SOL     OW11564   7.134   5.697   1.911  0.2562 -0.3402 -0.1167
 3680SOL    HW111565   7.215   5.697   1.859  0.1457 -0.6281 -0.2892
 3680SOL    HW211566   7.064   5.689   1.846  0.1661 -2.0486  0.1611
 3681SOL     OW11567   6.968   1.203   4.517 -0.3691 -0.6086  0.6762
 3681SOL    HW111568   6.874   1.188   4.507 -0.2463 -1.2406  0.3915
 3681SOL    HW211569   6.992   1.151   4.593 -0.4942  0.6637  1.6056
 3682SOL     OW11570   5.237   0.164   0.005 -0.0414  0.4502  0.4788
 3682SOL    HW111571   5.316   0.207  -0.028  0.4319 -0.0745  0.8994
 3682SOL    HW211572   5.175   0.169  -0.068  1.5687 -2.2992 -1.2685
 3683SOL     OW11573   4.916   2.597   4.038 -0.3444  0.1202 -0.1325
 3683SOL    HW111574   4.895   2.691   4.041  0.1215  0.2114  0.4858
 3683SOL    HW211575   4.917   2.570   4.130 -0.9165 -0.5993 -0.3306
 3684SOL     OW11576   7.411   4.857   2.766 -0.4835 -0.0669 -0.6157
 3684SOL    HW111577   7.395   4.765   2.786 -1.0324  0.6339  2.6868
 3684SOL    HW211578   7.327   4.901   2.783  0.3019  1.3045 -0.0975
 3685SOL     OW11579   6.682   1.448   3.506  0.0997 -0.3677  0.2732
 3685SOL    HW111580   6.705   1.388   3.435  1.5434 -0.2758  0.6444
 3685SOL    HW211581   6.614   1.403   3.555 -2.7907  0.5500 -2.5413
 3686SOL     OW11582   3.737   6.555   4.198 -0.9187 -0.1127 -0.0285
 3686SOL    HW111583   3.735   6.493   4.271  0.3801 -1.8381 -1.3674
 3686SOL    HW211584   3.652   6.544   4.154  0.0985 -2.7910 -1.5965
 3687SOL     OW11585   4.609   3.988   4.259 -0.1010 -0.1687  1.1049
 3687SOL    HW111586   4.517   4.002   4.279 -0.0714  0.9944  0.5449
 3687SOL    HW211587   4.622   3.893   4.266 -1.5782 -0.4700  0.2090
 3688SOL     OW11588   0.536   1.978   0.823 -0.1009 -0.2066 -0.1097
 3688SOL    HW111589   0.586   2.042   0.872  0.8051 -1.6426  0.9456
 3688SOL    HW211590   0.513   2.021   0.741  0.3121  1.4913  0.6411
 3689SOL     OW11591   6.226   6.640   5.902  0.1647 -0.2266 -0.7485
 3689SOL    HW111592   6.295   6.590   5.945  0.0090 -1.3174 -1.7048
 3689SOL    HW211593   6.173   6.676   5.973  1.3551  0.1234 -0.0182
 3690SOL     OW11594   6.364   1.400   2.610 -0.5153 -0.0571  0.2182
 3690SOL    HW111595   6.323   1.481   2.582 -1.5236 -0.5724  0.1404
 3690SOL    HW211596   6.293   1.335   2.608  0.4403 -1.1226 -0.5422
 3691SOL     OW11597   5.281   7.163   7.295 -0.1458  0.1863  0.2151
 3691SOL    HW111598   5.210   7.199   7.242  0.2797 -1.1887 -1.3401
 3691SOL    HW211599   5.351   7.229   7.289 -0.9032  1.0972  0.9803
 3692SOL     OW11600   6.120   2.997   4.168 -0.3662  0.2862 -0.3738
 3692SOL    HW111601   6.036   3.033   4.197 -0.3881 -0.3161  0.3568
 3692SOL    HW211602   6.166   2.974   4.250  0.3761  0.3149 -0.7702
 3693SOL     OW11603   0.668   6.081   4.938  0.4485  0.4171 -0.1000
 3693SOL    HW111604   0.720   6.095   4.859  0.2645  1.4411 -0.0513
 3693SOL    HW211605   0.643   5.988   4.933  1.0361  0.2793 -0.8669
 3694SOL     OW11606   0.042   6.505   7.098 -0.3214  0.2079 -0.0233
 3694SOL    HW111607   0.036   6.583   7.153 -0.4644  0.6510 -0.6525
 3694SOL    HW211608   0.073   6.537   7.014  0.6245 -0.5729  0.0142
 3695SOL     OW11609   5.004   5.128   5.127  0.3278  0.1094  0.1579
 3695SOL    HW111610   5.034   5.112   5.216 -0.5469 -0.5425  0.3561
 3695SOL    HW211611   5.080   5.164   5.082  1.2003 -0.8525  0.8029
 3696SOL     OW11612   6.300   5.397   4.731  0.2584  0.3904  0.2070
 3696SOL    HW111613   6.274   5.489   4.737 -0.0035  0.2562  1.2612
 3696SOL    HW211614   6.219   5.348   4.739  0.4277  0.0480 -0.1079
 3697SOL     OW11615   0.165   3.917   3.146 -0.0408  0.3103 -0.4000
 3697SOL    HW111616   0.136   3.963   3.067  0.2945  0.9319 -0.1744
 3697SOL    HW211617   0.230   3.854   3.115  1.2777  1.6252 -0.4764
 3698SOL     OW11618   0.469   5.693   2.372  0.1164  0.1974 -0.4948
 3698SOL    HW111619   0.484   5.616   2.428 -3.1229  0.3327  0.8045
 3698SOL    HW211620   0.484   5.767   2.430 -0.5800  0.4024 -0.5629
 3699SOL     OW11621   3.314   5.460   4.653 -0.0817 -0.3378  0.5757
 3699SOL    HW111622   3.328   5.527   4.721  3.2791 -0.5631  0.2512
 3699SOL    HW211623   3.347   5.500   4.573 -2.0130 -0.8907 -0.5744
 3700SOL     OW11624   7.001   2.701   2.606  0.4578 -0.6083 -0.0509
 3700SOL    HW111625   7.085   2.746   2.620  0.6346 -0.9551  0.0143
 3700SOL    HW211626   6.997   2.635   2.675  1.0887 -1.9789 -1.2671
 3701SOL     OW11627   3.908   6.890   1.337  0.4151  0.0723 -0.1523
 3701SOL    HW111628   3.969   6.878   1.409  0.5906  0.3952 -0.2477
 3701SOL    HW211629   3.822   6.876   1.376  0.4642  0.9039  0.2689
 3702SOL     OW11630   4.355   0.436   4.274 -0.1234  0.2748 -0.4163
 3702SOL    HW111631   4.375   0.479   4.191  0.6209 -2.4795 -1.8001
 3702SOL    HW211632   4.260   0.441   4.281 -0.1665  0.8564 -1.2405
 3703SOL     OW11633   3.357   7.528   5.495 -0.0573 -0.3484 -0.5138
 3703SOL    HW111634   3.275   7.572   5.474  0.7553  1.5802  0.1392
 3703SOL    HW211635   3.334   7.435   5.501 -1.7492 -0.1016 -2.3698
 3704SOL     OW11636   3.930   1.159   4.996  0.1120  0.5644  0.2616
 3704SOL    HW111637   3.947   1.087   5.057 -0.4530 -0.7725 -1.0914
 3704SOL    HW211638   3.848   1.197   5.026 -0.4168 -0.3987  0.0889
 3705SOL     OW11639   0.805   3.118   3.430  0.0783  0.5768  0.1072
 3705SOL    HW111640   0.791   3.152   3.342 -1.0179  0.8777  0.3788
 3705SOL    HW211641   0.846   3.191   3.477 -1.5884  1.3198  0.4884
 3706SOL     OW11642   4.860   4.605   3.875  0.3020 -0.2354 -0.5931
 3706SOL    HW111643   4.906   4.529   3.840  0.4858 -1.0768  1.3138
 3706SOL    HW211644   4.930   4.669   3.891  0.6857 -0.9534  0.8835
 3707SOL     OW11645   3.612   0.580   3.641 -0.2673 -0.0765 -0.2131
 3707SOL    HW111646   3.681   0.642   3.616  0.4945 -0.7668  0.1296
 3707SOL    HW211647   3.637   0.499   3.597 -0.6918 -0.4169  0.1740
 3708SOL     OW11648   5.564   0.463   3.291 -0.4442 -0.0311  0.4498
 3708SOL    HW111649   5.621   0.386   3.288 -2.4714 -1.5919 -1.6489
 3708SOL    HW211650   5.534   0.467   3.382 -0.3808 -1.8091  0.5889
 3709SOL     OW11651   0.269   3.845   0.580 -0.2381  0.1124  0.4908
 3709SOL    HW111652   0.362   3.847   0.599 -0.2925  0.4883  0.7379
 3709SOL    HW211653   0.263   3.868   0.487 -0.1401  1.0856  0.7158
 3710SOL     OW11654   4.697   1.436   1.866 -0.4084 -0.0056 -0.5943
 3710SOL    HW111655   4.616   1.420   1.914  0.1061 -0.1393  0.2655
 3710SOL    HW211656   4.766   1.425   1.932  0.2226  1.7299 -0.9125
 3711SOL     OW11657   6.940   2.476   3.559 -0.4226  0.1180 -0.4314
 3711SOL    HW111658   6.853   2.497   3.592 -1.1617 -1.3294 -1.3348
 3711SOL    HW211659   6.957   2.388   3.592  0.3988  0.1049 -0.8687
 3712SOL     OW11660   2.866   4.154   6.250 -0.3854 -0.0293 -0.6863
 3712SOL    HW111661   2.940   4.108   6.290 -0.2892  1.1694  0.5881
 3712SOL    HW211662   2.897   4.179   6.163 -0.4673 -2.3828 -1.4513
 3713SOL     OW11663   0.972   0.143   3.092  0.5070 -0.5047  0.4572
 3713SOL    HW111664   0.922   0.174   3.168  3.3807  0.0099  2.3021
 3713SOL    HW211665   1.014   0.222   3.058 -0.3177 -0.8204 -1.4420
 3714SOL     OW11666   5.139   0.946   6.340 -0.3325 -0.2223 -0.1302
 3714SOL    HW111667   5.143   0.925   6.247 -1.5388  0.6405 -0.4056
 3714SOL    HW211668   5.055   0.910   6.369  0.2163 -0.8529  0.7398
 3715SOL     OW11669   4.818   2.468   2.451  0.1134 -0.3729  0.2243
 3715SOL    HW111670   4.879   2.461   2.378 -0.2210  1.3915 -0.2796
 3715SOL    HW211671   4.869   2.512   2.520  0.1135 -1.0845  0.6910
 3716SOL     OW11672   4.807   3.852   2.997  0.1242  0.3244  0.4579
 3716SOL    HW111673   4.827   3.876   3.088  0.5279  0.9457  0.2045
 3716SOL    HW211674   4.752   3.774   3.006 -1.1091  1.2519  1.2881
 3717SOL     OW11675   0.469   2.511   4.228 -0.4828  0.0166  0.0447
 3717SOL    HW111676   0.423   2.534   4.309 -0.4105  0.5237 -0.0566
 3717SOL    HW211677   0.418   2.439   4.191 -0.7318  0.0355  0.3469
 3718SOL     OW11678   7.073   4.029   0.962 -0.0273  0.1384 -0.0207
 3718SOL    HW111679   7.118   3.973   1.025  2.6976  0.9908 -1.0844
 3718SOL    HW211680   7.088   4.118   0.994 -1.3016  0.4495 -0.2382
 3719SOL     OW11681   4.114   2.079   5.782 -0.0551 -0.5307 -0.5601
 3719SOL    HW111682   4.185   2.140   5.803  0.4554 -1.1451 -0.4409
 3719SOL    HW211683   4.079   2.109   5.698 -1.2694  1.2149  0.4945
 3720SOL     OW11684   6.341   1.447   5.548 -0.0307  0.5823 -0.7476
 3720SOL    HW111685   6.385   1.370   5.512  0.0172  1.5230 -2.8497
 3720SOL    HW211686   6.247   1.426   5.542  0.0190 -0.0022  0.3680
 3721SOL     OW11687   0.131   1.114   3.460  0.4923 -0.3467  0.1802
 3721SOL    HW111688   0.101   1.147   3.545 -1.0951  0.8299 -0.7798
 3721SOL    HW211689   0.057   1.065   3.425  0.0608  1.4810 -1.6614
 3722SOL     OW11690   6.937   3.004   6.793  0.5211 -0.0596  0.2004
 3722SOL    HW111691   6.844   2.996   6.815  0.0602  1.5632 -0.9794
 3722SOL    HW211692   6.945   3.090   6.751  2.5177 -0.2683  0.0405
 3723SOL     OW11693   6.671   4.046   1.066 -0.3131 -0.0550  0.2976
 3723SOL    HW111694   6.597   3.999   1.029 -0.9862  0.2438  1.2302
 3723SOL    HW211695   6.732   3.978   1.095 -0.2849 -0.3016 -0.3275
 3724SOL     OW11696   4.786   6.641   1.769  0.4276  0.1066  0.1754
 3724SOL    HW111697   4.780   6.600   1.683 -0.0075  1.5446 -0.5018
 3724SOL    HW211698   4.777   6.735   1.752 -0.9332  0.3462  1.8992
 3725SOL     OW11699   4.915   2.366   5.723 -0.3663 -0.2190 -0.2962
 3725SOL    HW111700   4.967   2.446   5.722 -0.6275 -0.0073  0.9456
 3725SOL    HW211701   4.965   2.304   5.670  0.2450  0.5139 -0.5982
 3726SOL     OW11702   2.683   3.292   0.055  0.1122 -0.4037  0.5496
 3726SOL    HW111703   2.766   3.315   0.013 -0.0119  0.5811  0.8123
 3726SOL    HW211704   2.631   3.253  -0.015  0.7790 -0.9923  0.3767
 3727SOL     OW11705   3.403   5.655   6.839  0.4040  0.7031  0.2563
 3727SOL    HW111706   3.399   5.748   6.862  0.2246  0.4843  1.1722
 3727SOL    HW211707   3.326   5.640   6.784  1.5593  1.5320 -1.6514
 3728SOL     OW11708   7.240   2.151   1.476 -0.2524 -0.2933  1.0056
 3728SOL    HW111709   7.318   2.123   1.523  0.2934 -0.5433 -0.0244
 3728SOL    HW211710   7.268   2.159   1.385 -0.7921  1.9482  0.9584
 3729SOL     OW11711   1.632   3.931   1.577 -0.2157 -0.2897 -0.0654
 3729SOL    HW111712   1.687   4.008   1.559 -0.5867  0.5059  1.9636
 3729SOL    HW211713   1.691   3.868   1.616 -0.6821  0.6667  2.3718
 3730SOL     OW11714   5.927   0.057   1.878 -0.3863 -0.5435  0.7331
 3730SOL    HW111715   5.895  -0.032   1.888  2.1763 -1.6580 -0.1240
 3730SOL    HW211716   5.975   0.074   1.959  2.8762 -1.7466 -0.7658
 3731SOL     OW11717   4.936   2.137   0.426  0.3825  0.4357  0.2469
 3731SOL    HW111718   4.944   2.188   0.506 -1.4624 -0.8325  1.3139
 3731SOL    HW211719   4.897   2.054   0.454  2.4187 -1.2616 -1.5342
 3732SOL     OW11720   2.379   1.621   1.334 -0.3549 -0.2958 -0.4473
 3732SOL    HW111721   2.310   1.661   1.281 -0.6000 -1.1915 -0.8121
 3732SOL    HW211722   2.374   1.528   1.315  0.7225 -0.4222 -0.1985
 3733SOL     OW11723   1.883   1.175   5.645 -0.2603 -0.0066 -0.0721
 3733SOL    HW111724   1.869   1.247   5.707  0.4164  0.7320 -0.7692
 3733SOL    HW211725   1.795   1.151   5.616 -0.5454 -0.0070  0.7645
 3734SOL     OW11726   2.278   3.524   1.780 -0.5169 -0.4003 -0.2933
 3734SOL    HW111727   2.258   3.433   1.800 -0.9741 -0.5131 -1.1832
 3734SOL    HW211728   2.360   3.542   1.825 -0.8533 -0.9980  0.5712
 3735SOL     OW11729   5.966   1.810   6.598 -0.1335  0.3942  0.4427
 3735SOL    HW111730   5.913   1.807   6.518 -1.3388  0.2248  1.2226
 3735SOL    HW211731   5.933   1.886   6.646 -0.6309 -0.5228  1.5864
 3736SOL     OW11732   6.910   0.075   6.973 -0.4875  0.2808 -0.2848
 3736SOL    HW111733   6.838   0.070   6.911 -0.9004  1.0787  0.1087
 3736SOL    HW211734   6.901  -0.004   7.027 -1.3775  0.6202  0.0793
 3737SOL     OW11735   5.704   1.992   1.237 -0.8591 -1.1147  0.3124
 3737SOL    HW111736   5.627   1.954   1.281  0.5278 -2.5063  1.6511
 3737SOL    HW211737   5.746   1.918   1.195  0.5171 -0.6415  0.8116
 3738SOL     OW11738   5.197   2.276   4.566 -0.2217  0.3294  0.4915
 3738SOL    HW111739   5.119   2.314   4.605 -1.3663 -0.3562 -1.0227
 3738SOL    HW211740   5.217   2.200   4.620 -0.8083  0.3100  0.6870
 3739SOL     OW11741   4.000   3.288   5.112 -0.1785 -0.3136  0.3716
 3739SOL    HW111742   3.995   3.350   5.185  2.6921  0.3262  0.1849
 3739SOL    HW211743   3.966   3.337   5.037  2.9101  1.6188  0.0176
 3740SOL     OW11744   3.058   6.137   5.485 -0.0432  0.0524  0.6660
 3740SOL    HW111745   3.040   6.202   5.553  0.2984  1.4695 -0.5503
 3740SOL    HW211746   3.127   6.082   5.522 -0.7345 -0.0158  1.9379
 3741SOL     OW11747   7.479   5.692   3.167  0.5025 -0.0178  0.8965
 3741SOL    HW111748   7.502   5.735   3.085 -0.4988  0.0221  0.6215
 3741SOL    HW211749   7.439   5.609   3.140 -1.4439  0.7570  1.2513
 3742SOL     OW11750   0.575   3.423   3.502  0.1809 -0.0330 -0.1369
 3742SOL    HW111751   0.500   3.432   3.443 -2.0904 -1.9591  2.2118
 3742SOL    HW211752   0.635   3.365   3.455 -1.9612 -2.2439 -0.3360
 3743SOL     OW11753   2.455   3.986   4.770  0.0766 -0.6088 -0.1038
 3743SOL    HW111754   2.376   4.003   4.718  0.5991 -0.5532 -0.8754
 3743SOL    HW211755   2.527   3.993   4.709  0.6389 -1.4289  0.4470
 3744SOL     OW11756   2.197   6.967   2.065  0.6853  0.1702  0.1171
 3744SOL    HW111757   2.181   6.933   1.977  0.6581  0.3808  0.0387
 3744SOL    HW211758   2.111   6.965   2.108  0.7167 -0.0230  0.1723
 3745SOL     OW11759   3.929   2.355   0.764 -0.0621  0.1677 -0.0513
 3745SOL    HW111760   3.989   2.430   0.768  0.4666 -0.2939  1.1025
 3745SOL    HW211761   3.987   2.278   0.758 -0.5707 -0.2148 -0.1357
 3746SOL     OW11762   4.848   4.583   3.516 -0.7526  0.2405  0.3881
 3746SOL    HW111763   4.777   4.576   3.453 -0.2801  0.7077 -0.2062
 3746SOL    HW211764   4.810   4.629   3.590 -1.7262 -1.6127  1.1024
 3747SOL     OW11765   6.996   3.106   2.377 -0.2303  0.3683 -0.1567
 3747SOL    HW111766   6.983   3.179   2.317  0.7509  0.2362 -0.5318
 3747SOL    HW211767   6.909   3.092   2.416 -0.6487  1.0889 -0.8057
 3748SOL     OW11768   6.773   2.052   7.087 -0.3902 -0.0575  0.1547
 3748SOL    HW111769   6.808   2.114   7.152 -2.2911 -0.7623  1.9633
 3748SOL    HW211770   6.780   2.098   7.004  0.9431  1.4114  1.0165
 3749SOL     OW11771   4.187   1.712   6.256 -0.3506  0.1251  0.5081
 3749SOL    HW111772   4.258   1.706   6.320 -0.4090  0.0432  0.5656
 3749SOL    HW211773   4.230   1.743   6.176 -0.5559  1.7711  1.0123
 3750SOL     OW11774   4.916   7.105   3.840  0.6381 -0.3259 -0.0250
 3750SOL    HW111775   4.995   7.158   3.848 -0.7004  1.5178  1.8755
 3750SOL    HW211776   4.927   7.035   3.904  0.4848  0.3212  0.7283
 3751SOL     OW11777   2.548   3.721   1.107 -0.3514 -0.4283 -0.2407
 3751SOL    HW111778   2.580   3.685   1.024 -1.4228 -1.1677 -0.3509
 3751SOL    HW211779   2.502   3.648   1.148  0.2794 -0.1094  1.0828
 3752SOL     OW11780   2.550   4.358   5.221  0.2366  0.0964 -0.1094
 3752SOL    HW111781   2.611   4.317   5.160 -0.2056  0.0001 -0.4896
 3752SOL    HW211782   2.555   4.304   5.300 -0.1587 -0.5537 -0.5181
 3753SOL     OW11783   0.506   3.041   3.570 -0.1993 -0.1214  0.0330
 3753SOL    HW111784   0.553   3.040   3.653  0.5103  1.7572 -0.2799
 3753SOL    HW211785   0.565   2.996   3.509  0.1102  0.0723  0.1825
 3754SOL     OW11786   1.487   0.182   2.814  0.4218  0.5374  0.2981
 3754SOL    HW111787   1.530   0.230   2.885  0.5047  1.6196 -0.4714
 3754SOL    HW211788   1.408   0.145   2.854  1.5977 -0.7966  1.5308
 3755SOL     OW11789   2.970   7.307   0.882 -0.0831 -0.3918  0.5793
 3755SOL    HW111790   2.924   7.324   0.800  0.4882  1.0784  0.5488
 3755SOL    HW211791   2.902   7.315   0.950 -0.2819 -0.2964  0.3679
 3756SOL     OW11792   4.186   4.523   2.175 -0.0353 -0.0424  0.3594
 3756SOL    HW111793   4.271   4.483   2.194  1.2579  1.9633 -0.8565
 3756SOL    HW211794   4.187   4.606   2.223 -1.0333  0.3362 -0.2411
 3757SOL     OW11795   2.766   0.374   0.230 -0.1961  0.4505 -0.2471
 3757SOL    HW111796   2.743   0.318   0.156 -1.2654 -1.0419  1.1502
 3757SOL    HW211797   2.709   0.451   0.219  0.2293  0.6256 -1.3817
 3758SOL     OW11798   2.407   4.753   6.946  0.3772  0.4266  0.2436
 3758SOL    HW111799   2.311   4.745   6.949  0.1347  2.8541  1.6965
 3758SOL    HW211800   2.430   4.729   6.857 -1.8849  2.0663 -0.8713
 3759SOL     OW11801   6.368   2.341   2.745  0.5074  0.0962 -0.1319
 3759SOL    HW111802   6.399   2.394   2.820  1.7435  0.3475 -0.7869
 3759SOL    HW211803   6.387   2.251   2.771 -1.2002 -0.0227  0.8054
 3760SOL     OW11804   5.732   2.601   0.700 -0.3842 -0.5209 -0.0898
 3760SOL    HW111805   5.811   2.549   0.708 -0.0411  0.0563  0.2901
 3760SOL    HW211806   5.723   2.617   0.606  0.7607  0.6388 -0.0292
 3761SOL     OW11807   1.244   0.005   2.425 -0.7654  0.6626 -0.0865
 3761SOL    HW111808   1.210  -0.055   2.491 -0.5107  2.1147  1.4294
 3761SOL    HW211809   1.186   0.081   2.429  1.2679  2.2684  1.0150
 3762SOL     OW11810   1.727   5.719   6.149  0.2952  0.7998  0.2950
 3762SOL    HW111811   1.726   5.738   6.243 -1.2381  0.4761  0.3776
 3762SOL    HW211812   1.647   5.760   6.115  1.0819  1.3470 -0.9720
 3763SOL     OW11813   6.256   7.275   5.518 -0.2908  0.1296 -0.4778
 3763SOL    HW111814   6.178   7.300   5.568 -0.5143 -0.2144 -0.6544
 3763SOL    HW211815   6.317   7.347   5.533 -0.3868  0.0747  0.2165
 3764SOL     OW11816   0.308   6.588   1.886  0.4016  0.4957 -0.1532
 3764SOL    HW111817   0.231   6.636   1.856 -1.6218 -2.4971 -0.1647
 3764SOL    HW211818   0.339   6.541   1.809  2.2074  1.5132 -0.0965
 3765SOL     OW11819   3.027   1.683   3.190 -0.2494 -0.2133 -0.4138
 3765SOL    HW111820   3.004   1.770   3.158  0.5495  0.6084  1.1444
 3765SOL    HW211821   2.945   1.634   3.187 -0.6378  0.4515 -1.6636
 3766SOL     OW11822   5.585   1.193   5.058 -0.3712  0.2534 -0.3316
 3766SOL    HW111823   5.608   1.248   5.132  0.1627 -0.2524 -0.1182
 3766SOL    HW211824   5.659   1.201   4.998 -0.4771  0.0997 -0.4841
 3767SOL     OW11825   5.193   7.225   3.920  0.2017 -0.5707 -0.4454
 3767SOL    HW111826   5.272   7.193   3.963  0.2965 -0.8695 -0.8379
 3767SOL    HW211827   5.208   7.318   3.907 -0.3151 -0.2102  1.2402
 3768SOL     OW11828   0.942   5.588   7.165 -0.1363 -0.1018 -0.3388
 3768SOL    HW111829   0.952   5.496   7.140  0.6495 -0.3468  0.7599
 3768SOL    HW211830   0.872   5.621   7.109 -1.5969 -1.8164  0.3715
 3769SOL     OW11831   4.164   3.392   2.669 -0.1608 -0.0867  0.0812
 3769SOL    HW111832   4.229   3.429   2.728 -1.2438 -0.4919  1.5853
 3769SOL    HW211833   4.188   3.299   2.661 -0.9295 -0.4045  1.2210
 3770SOL     OW11834   6.273   6.313   1.687 -0.2282  0.2609 -1.0695
 3770SOL    HW111835   6.270   6.397   1.643 -1.2778  1.1307  0.5670
 3770SOL    HW211836   6.366   6.289   1.687  0.0776  1.3691 -1.6014
 3771SOL     OW11837   1.372   5.242   7.552 -0.3169  0.4311  0.0854
 3771SOL    HW111838   1.339   5.165   7.505 -1.4373 -0.1900  1.7834
 3771SOL    HW211839   1.317   5.247   7.631  1.3479  1.5294  1.2403
 3772SOL     OW11840   5.492   4.236   2.538 -0.1137  0.5968 -0.4335
 3772SOL    HW111841   5.562   4.295   2.508 -1.2489  1.1418 -2.1632
 3772SOL    HW211842   5.530   4.190   2.613  0.9333  3.3264  0.8588
 3773SOL     OW11843   6.629   0.756   1.296  0.2602  0.6944 -0.2300
 3773SOL    HW111844   6.659   0.780   1.384 -2.5461 -2.2267  1.7197
 3773SOL    HW211845   6.644   0.662   1.290 -2.1663  0.3096 -1.7171
 3774SOL     OW11846   6.036   2.292   5.179 -0.3407  0.1930  0.5102
 3774SOL    HW111847   6.108   2.336   5.133 -0.4682 -0.2205 -0.0950
 3774SOL    HW211848   5.990   2.243   5.111 -2.9886  2.7172  0.2730
 3775SOL     OW11849   2.977   3.738   3.124 -0.3461 -0.5735 -0.3000
 3775SOL    HW111850   2.917   3.791   3.177  2.1648  0.1857  2.0333
 3775SOL    HW211851   2.963   3.649   3.154  0.9456 -0.1699  1.7684
 3776SOL     OW11852   6.425   1.998   3.588  0.2411  0.0787 -0.3322
 3776SOL    HW111853   6.389   2.032   3.506  1.7003  1.6589 -0.3942
 3776SOL    HW211854   6.471   1.918   3.563  1.1975  0.8740 -1.2177
 3777SOL     OW11855   7.366   1.053   5.491 -0.0548  0.1207  1.1836
 3777SOL    HW111856   7.313   1.092   5.421  0.2435  0.6582  1.2547
 3777SOL    HW211857   7.380   1.125   5.553  1.2281  0.1416  0.8951
 3778SOL     OW11858   1.529   1.503   3.820 -0.4792 -0.2388  0.1097
 3778SOL    HW111859   1.619   1.511   3.851 -0.1532 -0.6974 -0.6780
 3778SOL    HW211860   1.496   1.422   3.860 -0.5652 -0.0334  0.4542
 3779SOL     OW11861   2.567   5.690   6.128 -0.0943 -0.1546  0.4809
 3779SOL    HW111862   2.611   5.658   6.206  0.3227 -1.7021 -0.3460
 3779SOL    HW211863   2.638   5.713   6.068 -0.4074  1.1731  0.5878
 3780SOL     OW11864   2.031   6.803   6.798  0.2861 -0.3091  0.4920
 3780SOL    HW111865   2.083   6.805   6.878  0.0025 -0.7113  0.6880
 3780SOL    HW211866   2.091   6.770   6.731  0.1065 -1.3987  0.8504
 3781SOL     OW11867   1.756   0.494   6.047  1.0009  0.0485 -0.4546
 3781SOL    HW111868   1.756   0.402   6.021  0.2224 -0.2237  0.4272
 3781SOL    HW211869   1.791   0.541   5.972  1.0847 -0.9333 -1.0439
 3782SOL     OW11870   4.952   6.536   2.975  0.1892  0.3532  0.1070
 3782SOL    HW111871   4.974   6.525   3.067  0.7043 -1.3011 -0.1738
 3782SOL    HW211872   4.871   6.488   2.963  0.2135  0.4180 -0.3393
 3783SOL     OW11873   5.850   3.473   6.469  0.3626 -0.0682  0.0495
 3783SOL    HW111874   5.840   3.439   6.380  0.0670 -0.8454  0.3718
 3783SOL    HW211875   5.828   3.399   6.526  1.8520  0.0178  0.7798
 3784SOL     OW11876   0.133   6.482   3.585  0.4291 -0.2518  0.3679
 3784SOL    HW111877   0.114   6.574   3.565 -2.5299 -0.7352  0.3790
 3784SOL    HW211878   0.208   6.485   3.644  1.7562  1.9739 -1.2737
 3785SOL     OW11879   5.164   6.587   0.522 -0.0971 -0.0970 -0.1797
 3785SOL    HW111880   5.177   6.493   0.505 -0.5047 -0.3090  0.6338
 3785SOL    HW211881   5.075   6.593   0.556  0.4856  0.3474  1.3607
 3786SOL     OW11882   5.033   7.300   1.164 -0.0768  0.0136  0.3777
 3786SOL    HW111883   5.080   7.217   1.162 -1.1551 -0.6006 -0.3870
 3786SOL    HW211884   5.034   7.326   1.257  0.7469 -0.5495  0.5400
 3787SOL     OW11885   0.754   6.849   3.204  0.2912  0.5576 -0.2382
 3787SOL    HW111886   0.786   6.760   3.188 -1.2546 -0.0476 -0.1302
 3787SOL    HW211887   0.748   6.888   3.117  0.7048  0.4771 -0.3077
 3788SOL     OW11888   2.806   6.247   5.894 -0.2831 -0.5585 -0.4035
 3788SOL    HW111889   2.787   6.293   5.812  1.0744  0.9700  0.0828
 3788SOL    HW211890   2.893   6.278   5.919 -0.4573 -1.3708  1.3564
 3789SOL     OW11891   7.207   1.862   5.528 -0.0811  0.6681  0.0098
 3789SOL    HW111892   7.126   1.853   5.478  0.0700  0.1111 -0.1375
 3789SOL    HW211893   7.214   1.780   5.578  0.8231  0.3568 -0.6101
 3790SOL     OW11894   4.767   3.224   0.568  0.4113 -0.8845  0.4497
 3790SOL    HW111895   4.842   3.245   0.624 -0.7046  0.2740  1.6006
 3790SOL    HW211896   4.718   3.159   0.619  0.2383 -1.0559  0.0625
 3791SOL     OW11897   7.516   2.931   6.994 -0.2672  0.2150 -0.5474
 3791SOL    HW111898   7.428   2.967   6.986 -0.6755 -0.9742 -1.9003
 3791SOL    HW211899   7.532   2.925   7.088 -2.0441 -0.5236 -0.2653
 3792SOL     OW11900   5.617   2.633   0.942 -0.6108  0.2169  0.0481
 3792SOL    HW111901   5.596   2.541   0.959  1.1964  0.0992  1.9700
 3792SOL    HW211902   5.662   2.632   0.857 -1.9898 -0.4083 -0.7174
 3793SOL     OW11903   1.457   4.644   4.378  0.0901  0.1752  0.3434
 3793SOL    HW111904   1.533   4.695   4.406  1.0623 -1.1453  0.2123
 3793SOL    HW211905   1.423   4.690   4.302  0.2794  1.2102  0.8710
 3794SOL     OW11906   5.934   4.752   7.187 -0.6771 -0.4189 -0.0116
 3794SOL    HW111907   6.027   4.730   7.179 -0.8728 -0.8219 -1.6450
 3794SOL    HW211908   5.924   4.785   7.276  0.7340 -1.8001  0.6976
 3795SOL     OW11909   1.493   6.994   3.961 -0.8461  0.0555  0.3184
 3795SOL    HW111910   1.548   7.040   4.025 -0.9558  1.0474 -0.2757
 3795SOL    HW211911   1.524   7.024   3.876  0.4541 -2.5808 -0.2171
 3796SOL     OW11912   3.212   6.150   7.339 -0.6426  0.5787 -0.1376
 3796SOL    HW111913   3.210   6.245   7.353 -1.7615  0.4466  0.7845
 3796SOL    HW211914   3.255   6.115   7.417 -0.7485  0.2940 -0.2051
 3797SOL     OW11915   1.884   2.415   5.474  0.1892  0.2359  0.3562
 3797SOL    HW111916   1.858   2.323   5.478 -0.4359  0.3486 -0.8094
 3797SOL    HW211917   1.980   2.412   5.476  0.1864 -0.4642 -0.0303
 3798SOL     OW11918   2.839   4.447   4.523  0.2904 -0.1165  0.0998
 3798SOL    HW111919   2.875   4.511   4.584 -0.5874  0.5962 -0.1164
 3798SOL    HW211920   2.882   4.465   4.440 -0.2413  0.4550 -0.0551
 3799SOL     OW11921   4.749   4.364   6.973 -0.6003 -0.3230 -0.4686
 3799SOL    HW111922   4.708   4.289   6.930  1.6237 -1.0254 -1.4629
 3799SOL    HW211923   4.778   4.420   6.901 -0.8166  0.7367  0.2434
 3800SOL     OW11924   1.322   5.134   5.847 -0.2475  0.3278 -0.1660
 3800SOL    HW111925   1.390   5.082   5.805 -0.3248  0.6147 -0.6525
 3800SOL    HW211926   1.264   5.070   5.888  0.7097  0.1001  0.8860
 3801SOL     OW11927   4.010   6.174   3.427  0.9277 -0.4302 -0.8323
 3801SOL    HW111928   3.957   6.235   3.375  1.3662 -0.9109 -1.8898
 3801SOL    HW211929   4.097   6.215   3.430  1.1757 -0.8996 -1.3939
 3802SOL     OW11930   1.252   1.976   0.263  0.0918  0.5676 -0.0454
 3802SOL    HW111931   1.197   1.914   0.215 -0.8267  0.3945  1.1798
 3802SOL    HW211932   1.196   2.052   0.276  0.5161  0.8253  0.2745
 3803SOL     OW11933   5.964   4.039   0.211  0.0053  0.3465 -0.2746
 3803SOL    HW111934   5.953   4.050   0.306  1.6005 -1.2761  0.1602
 3803SOL    HW211935   6.009   4.119   0.183  2.4304 -0.5015  0.9572
 3804SOL     OW11936   2.411   2.678   0.720 -0.1615 -0.0561  0.3144
 3804SOL    HW111937   2.384   2.628   0.643 -0.0212 -0.3099  0.4315
 3804SOL    HW211938   2.459   2.753   0.684  0.9399 -0.7979  0.2028
 3805SOL     OW11939   2.152   1.941   1.420 -0.9368 -0.4239 -0.0612
 3805SOL    HW111940   2.089   2.008   1.446 -2.9035 -2.0794 -0.3003
 3805SOL    HW211941   2.210   1.932   1.495 -1.6575  0.3831  0.6101
 3806SOL     OW11942   1.718   6.441   7.365  0.0640  0.5184  0.2918
 3806SOL    HW111943   1.762   6.460   7.282 -0.4983  1.1823  0.1370
 3806SOL    HW211944   1.636   6.398   7.339  0.4772 -0.4558  0.5643
 3807SOL     OW11945   2.892   2.642   1.403 -0.5876 -0.3195 -0.2269
 3807SOL    HW111946   2.862   2.732   1.397  1.6554  0.6354  1.3820
 3807SOL    HW211947   2.983   2.645   1.374 -0.1573 -1.8434  0.8091
 3808SOL     OW11948   0.806   4.478   2.540 -1.1238  0.1917  0.0462
 3808SOL    HW111949   0.794   4.392   2.579 -1.0197  0.1472 -0.0208
 3808SOL    HW211950   0.719   4.504   2.511 -1.4495  0.7431  1.4001
 3809SOL     OW11951   3.737   2.845   2.214  0.4534 -0.5190 -0.4909
 3809SOL    HW111952   3.641   2.844   2.218  0.4488 -1.9227 -0.5456
 3809SOL    HW211953   3.759   2.938   2.206 -0.8320 -0.0382  0.9118
 3810SOL     OW11954   2.892   6.236   4.564  0.3330 -0.2861 -0.0018
 3810SOL    HW111955   2.965   6.290   4.596 -1.9478  0.2710  5.1753
 3810SOL    HW211956   2.894   6.158   4.619 -1.7085 -1.3365 -1.2980
 3811SOL     OW11957   2.299   6.327   4.881  0.0030  0.3758 -0.0265
 3811SOL    HW111958   2.380   6.355   4.924 -1.2613 -0.4635  3.2291
 3811SOL    HW211959   2.256   6.272   4.946 -3.0000  0.4549 -1.7905
 3812SOL     OW11960   2.519   1.397   3.795  0.3749 -0.0575 -0.2191
 3812SOL    HW111961   2.499   1.414   3.887 -4.0496 -0.7851 -0.8418
 3812SOL    HW211962   2.535   1.303   3.790 -0.0668 -0.1321 -0.2677
 3813SOL     OW11963   3.773   3.695   1.071 -0.0346  0.1011 -0.0998
 3813SOL    HW111964   3.708   3.631   1.101 -0.0556 -0.1089 -0.5778
 3813SOL    HW211965   3.844   3.641   1.036  0.2631  0.3328  0.1562
 3814SOL     OW11966   6.656   7.238   2.527 -0.4692  0.2057 -0.0050
 3814SOL    HW111967   6.691   7.307   2.470 -3.1037  0.1787 -1.8103
 3814SOL    HW211968   6.703   7.249   2.609  1.8313  1.7678 -1.3993
 3815SOL     OW11969   6.845   4.376   0.213 -0.3093 -0.2333  0.0653
 3815SOL    HW111970   6.914   4.345   0.154 -0.7730 -0.3059 -0.4501
 3815SOL    HW211971   6.841   4.310   0.283 -0.4504 -0.6930 -0.3700
 3816SOL     OW11972   4.715   3.350   2.529 -0.3618 -0.2766 -0.2680
 3816SOL    HW111973   4.710   3.386   2.618 -0.1457  1.4107 -0.9098
 3816SOL    HW211974   4.691   3.258   2.539  0.5113 -0.3382  1.6705
 3817SOL     OW11975   7.227   6.186   0.720 -0.2120 -0.3166 -0.7821
 3817SOL    HW111976   7.142   6.228   0.731 -0.2931 -0.2498 -1.6181
 3817SOL    HW211977   7.218   6.101   0.763  0.1763  0.7594  1.5834
 3818SOL     OW11978   6.213   0.811   0.282  0.5230  0.2960  0.0129
 3818SOL    HW111979   6.127   0.769   0.284  0.4501  0.3045 -1.6222
 3818SOL    HW211980   6.194   0.903   0.263  0.8621  0.4564  0.4266
 3819SOL     OW11981   1.527   0.672   3.899 -0.0632 -0.4028 -0.2465
 3819SOL    HW111982   1.489   0.586   3.918  3.2285 -1.7344  1.2419
 3819SOL    HW211983   1.573   0.696   3.980  0.8526  1.7837 -1.3163
 3820SOL     OW11984   7.085   3.766   1.065 -0.2754  0.2887  0.1969
 3820SOL    HW111985   7.040   3.682   1.051  0.1334  0.3980 -2.3742
 3820SOL    HW211986   7.169   3.756   1.020  0.4675  1.5578  1.2311
 3821SOL     OW11987   1.454   5.963   4.648 -0.1415 -0.1664  0.5042
 3821SOL    HW111988   1.542   5.990   4.674 -0.8272 -0.0572  2.9521
 3821SOL    HW211989   1.442   6.003   4.562  1.4342  1.5651  1.0050
 3822SOL     OW11990   2.134   5.870   4.173  0.1574  0.4185 -0.3342
 3822SOL    HW111991   2.090   5.948   4.140  0.6160 -0.2170 -2.6522
 3822SOL    HW211992   2.120   5.804   4.105  1.2185 -1.0081  0.7580
 3823SOL     OW11993   3.832   4.594   4.676 -0.4492 -0.4685  0.0743
 3823SOL    HW111994   3.877   4.657   4.619  0.1516 -1.3080 -0.3981
 3823SOL    HW211995   3.842   4.631   4.764 -0.1864  0.1489 -0.2038
 3824SOL     OW11996   2.899   0.362   5.717  0.3880 -0.0878  0.7002
 3824SOL    HW111997   2.854   0.369   5.801  1.9132 -1.7368  1.7293
 3824SOL    HW211998   2.893   0.269   5.694  3.8530 -0.6109  1.3316
 3825SOL     OW11999   0.188   3.894   2.271 -0.1182  0.1266 -0.2206
 3825SOL    HW112000   0.201   3.833   2.343  0.1977  0.1404 -0.2618
 3825SOL    HW212001   0.265   3.881   2.215 -1.3983 -1.4728 -1.7339
 3826SOL     OW12002   2.840   4.330   1.614 -0.1314 -0.0241 -0.0715
 3826SOL    HW112003   2.930   4.315   1.585  0.4590 -0.5758  1.8681
 3826SOL    HW212004   2.843   4.314   1.709 -2.6753 -2.0346 -0.2325
 3827SOL     OW12005   7.135   4.940   4.676  0.3081 -0.2405  0.1874
 3827SOL    HW112006   7.181   5.009   4.628 -1.2787  0.1548 -0.8633
 3827SOL    HW212007   7.089   4.985   4.747 -0.1235 -0.3031 -0.0444
 3828SOL     OW12008   5.545   2.853   6.742  0.1304  0.5309  0.4601
 3828SOL    HW112009   5.464   2.903   6.729  0.5414  1.6185  1.8826
 3828SOL    HW212010   5.520   2.762   6.724 -0.7895  1.1170 -1.6006
 3829SOL     OW12011   1.852   5.510   6.067 -0.1775  0.0515 -0.1635
 3829SOL    HW112012   1.928   5.557   6.031 -1.2194  0.5424 -1.8332
 3829SOL    HW212013   1.798   5.579   6.106  0.4127 -0.3523  1.4615
 3830SOL     OW12014   2.727   1.425   3.610 -0.1962  0.3499 -0.1559
 3830SOL    HW112015   2.656   1.365   3.632 -0.1830  0.6736  0.8276
 3830SOL    HW212016   2.683   1.509   3.595  0.0193  0.7237  1.1643
 3831SOL     OW12017   0.938   4.861   4.004 -0.4092 -0.1179  0.9563
 3831SOL    HW112018   0.985   4.882   4.085 -0.8497  0.9924  0.9458
 3831SOL    HW212019   0.991   4.794   3.961  1.4164  1.4130  0.7132
 3832SOL     OW12020   0.374   4.845   6.654 -0.1439 -0.4848 -0.3274
 3832SOL    HW112021   0.282   4.849   6.628 -0.1857 -0.8734 -0.2377
 3832SOL    HW212022   0.402   4.937   6.658 -0.7527 -0.3274  0.4502
 3833SOL     OW12023   6.954   2.879   3.361 -0.1888 -0.2844 -0.0645
 3833SOL    HW112024   6.904   2.850   3.437 -1.1149  0.2570 -0.4563
 3833SOL    HW212025   7.010   2.805   3.339 -0.8791 -0.9372  0.3392
 3834SOL     OW12026   4.837   1.810   1.614  0.3416 -0.2664 -0.0788
 3834SOL    HW112027   4.871   1.817   1.703 -2.6480 -1.6444  1.3294
 3834SOL    HW212028   4.889   1.741   1.573  1.3233 -0.0761  0.8268
 3835SOL     OW12029   0.554   7.321   6.456 -0.2530  0.4979  0.1214
 3835SOL    HW112030   0.460   7.340   6.454 -0.5061 -0.7203 -0.7213
 3835SOL    HW212031   0.560   7.235   6.496  0.4834  0.4572 -0.0677
 3836SOL     OW12032   5.517   0.444   6.670  0.1944 -0.0959 -0.1636
 3836SOL    HW112033   5.580   0.403   6.730 -0.9348  1.2657  2.1253
 3836SOL    HW212034   5.442   0.384   6.670 -0.2340  0.4168  0.7128
 3837SOL     OW12035   0.207   3.640   2.145  0.1228 -0.2986 -0.3947
 3837SOL    HW112036   0.219   3.682   2.060  0.7374  0.4748  0.0552
 3837SOL    HW212037   0.122   3.672   2.175  0.1559 -0.1312 -0.4748
 3838SOL     OW12038   6.598   2.905   4.241 -0.2024 -0.0218 -0.8030
 3838SOL    HW112039   6.583   2.833   4.303 -1.1850  0.8008 -0.0622
 3838SOL    HW212040   6.603   2.983   4.296  0.8160  0.5025 -1.6041
 3839SOL     OW12041   0.249   2.883   2.740 -0.2294 -0.2407 -0.5250
 3839SOL    HW112042   0.183   2.825   2.702 -0.1529 -0.6009 -0.1087
 3839SOL    HW212043   0.290   2.831   2.809  0.4932 -0.0174 -0.7819
 3840SOL     OW12044   3.970   3.393   5.887 -0.2270  0.2783  0.2255
 3840SOL    HW112045   4.050   3.341   5.878 -0.1213  0.2293  1.3118
 3840SOL    HW212046   3.943   3.411   5.797 -0.6422 -2.2278 -0.2287
 3841SOL     OW12047   0.039   1.459   6.557  0.3830 -0.1866  0.1858
 3841SOL    HW112048   0.126   1.499   6.563  1.4965 -2.1048 -1.5293
 3841SOL    HW212049   0.010   1.477   6.468 -0.6747 -0.1786  0.5177
 3842SOL     OW12050   5.543   2.314   0.556  0.4931  0.6185  0.0546
 3842SOL    HW112051   5.572   2.383   0.616 -0.4666  0.6515  0.4934
 3842SOL    HW212052   5.488   2.257   0.609 -1.3649  1.2972 -1.0217
 3843SOL     OW12053   2.302   5.839   6.227 -0.5137  0.2456 -0.2702
 3843SOL    HW112054   2.282   5.795   6.310 -0.5889 -0.4630 -0.6578
 3843SOL    HW212055   2.365   5.782   6.184  0.3215  1.1389 -0.2445
 3844SOL     OW12056   5.611   0.086   4.830 -0.9292 -0.3005  0.6540
 3844SOL    HW112057   5.668   0.022   4.785  0.0835 -0.8194  2.5783
 3844SOL    HW212058   5.553   0.033   4.884 -0.8329  0.3545  1.4219
 3845SOL     OW12059   3.397   5.182   4.314 -0.8048  0.2723 -0.7895
 3845SOL    HW112060   3.319   5.223   4.351 -0.1954 -0.9861  2.2039
 3845SOL    HW212061   3.363   5.111   4.259 -1.8824 -1.1416  1.5558
 3846SOL     OW12062   0.079   2.353   4.485 -0.3755  0.1967  0.3444
 3846SOL    HW112063   0.044   2.436   4.451 -0.1686 -0.2602 -1.0887
 3846SOL    HW212064   0.095   2.301   4.406  1.1847 -0.5406  1.1003
 3847SOL     OW12065   3.980   4.636   4.029  0.1959 -0.2676  0.3393
 3847SOL    HW112066   4.047   4.628   3.962 -1.9279 -0.7782 -1.8741
 3847SOL    HW212067   3.969   4.730   4.041 -0.1498 -0.1405 -0.8725
 3848SOL     OW12068   6.280   2.177   1.155 -0.2722  0.4147 -0.0999
 3848SOL    HW112069   6.302   2.230   1.232 -0.2787  0.7523 -0.3271
 3848SOL    HW212070   6.338   2.101   1.161  1.5754  1.6697 -1.1149
 3849SOL     OW12071   1.640   6.024   3.828 -0.3590 -0.2576 -0.4572
 3849SOL    HW112072   1.705   6.053   3.763 -1.1363  1.0962 -0.6721
 3849SOL    HW212073   1.606   5.942   3.792  1.0429 -0.8780 -0.4537
 3850SOL     OW12074   7.554   0.502   5.539 -0.0755 -0.2345 -0.8538
 3850SOL    HW112075   7.523   0.548   5.462 -0.0664  0.8229 -0.2519
 3850SOL    HW212076   7.623   0.444   5.507  0.5511  0.8366 -1.5334
 3851SOL     OW12077   7.503   0.142   1.717  0.0558  0.2797  0.3509
 3851SOL    HW112078   7.582   0.127   1.665  0.4474 -0.7665  1.2082
 3851SOL    HW212079   7.462   0.218   1.676  1.5533  0.9149 -0.0456
 3852SOL     OW12080   0.916   1.000   2.291 -0.7041  0.3126 -0.8661
 3852SOL    HW112081   0.980   0.933   2.267  0.4297  1.3400 -0.7913
 3852SOL    HW212082   0.868   0.961   2.365  1.7678  0.5614  1.0186
 3853SOL     OW12083   2.184   0.390   4.464  0.0961 -0.2567 -0.0033
 3853SOL    HW112084   2.221   0.410   4.550 -0.4253  0.1403  0.1330
 3853SOL    HW212085   2.254   0.410   4.402  0.9617 -1.8604  0.4053
 3854SOL     OW12086   1.575   0.040   1.978  0.1584  0.7817 -0.2192
 3854SOL    HW112087   1.532  -0.029   2.029  1.4172 -0.8746 -1.2923
 3854SOL    HW212088   1.628   0.087   2.042 -0.1172  0.2398  0.4199
 3855SOL     OW12089   2.953   3.318   0.219  0.1991 -0.0292  0.2763
 3855SOL    HW112090   3.011   3.314   0.143 -0.9011  0.7511 -0.6309
 3855SOL    HW212091   2.938   3.227   0.244  1.1562 -0.2613  0.0300
 3856SOL     OW12092   4.154   5.111   7.562 -0.0140 -0.1040 -0.8757
 3856SOL    HW112093   4.229   5.135   7.618  0.0533 -1.4405 -0.3580
 3856SOL    HW212094   4.193   5.075   7.483 -0.0418 -2.5189  0.1390
 3857SOL     OW12095   6.092   5.437   0.245  0.0206 -0.0422 -0.2795
 3857SOL    HW112096   6.043   5.513   0.213 -0.7934 -0.9484 -1.2419
 3857SOL    HW212097   6.145   5.410   0.170  0.6382 -0.1695  0.1982
 3858SOL     OW12098   5.996   1.416   3.512  0.2760  0.4347 -0.3565
 3858SOL    HW112099   5.977   1.510   3.505 -1.1932  0.3240  1.2760
 3858SOL    HW212100   5.918   1.380   3.554  2.0762 -1.0215  1.9340
 3859SOL     OW12101   1.397   6.359   3.291  0.1857 -0.0466 -0.3129
 3859SOL    HW112102   1.491   6.354   3.274  0.4005 -1.0733  1.0042
 3859SOL    HW212103   1.357   6.338   3.206  1.1635 -0.8754 -0.5977
 3860SOL     OW12104   3.200   0.585   7.180 -0.3883 -0.2114  0.9889
 3860SOL    HW112105   3.185   0.675   7.209 -0.1470 -0.0490  0.6130
 3860SOL    HW212106   3.237   0.541   7.256  2.2628  0.7406  0.3645
 3861SOL     OW12107   1.191   0.146   6.767 -0.5560  0.4284 -0.2638
 3861SOL    HW112108   1.264   0.207   6.775 -0.9405  0.9275 -0.4930
 3861SOL    HW212109   1.198   0.089   6.844 -0.0183  0.5702 -0.2106
 3862SOL     OW12110   5.506   0.994   4.292  0.6971  0.0553 -0.3281
 3862SOL    HW112111   5.571   0.975   4.360  1.7070 -0.7299 -1.4527
 3862SOL    HW212112   5.497   1.089   4.292  0.4858  0.0531  1.0521
 3863SOL     OW12113   2.952   5.791   4.865 -1.1174  0.2472  0.2300
 3863SOL    HW112114   2.976   5.716   4.810  0.7548 -0.2064  1.5640
 3863SOL    HW212115   2.887   5.755   4.926 -0.9541 -0.0298  0.2422
 3864SOL     OW12116   1.770   5.728   0.236  0.1972 -0.2061  0.1230
 3864SOL    HW112117   1.762   5.688   0.323 -0.3741  1.0491  0.6696
 3864SOL    HW212118   1.688   5.705   0.192 -0.5100  0.9927  0.7381
 3865SOL     OW12119   2.667   4.920   3.445 -0.3266  0.2126 -0.3098
 3865SOL    HW112120   2.756   4.910   3.477  0.3309 -0.0672 -2.0826
 3865SOL    HW212121   2.643   5.011   3.465 -0.1760 -0.0929  1.3606
 3866SOL     OW12122   0.925   0.112   4.679 -0.1116 -0.4294  0.1246
 3866SOL    HW112123   0.879   0.094   4.597 -0.8081  0.0577  0.3974
 3866SOL    HW212124   0.921   0.029   4.727 -0.7958 -0.3723  0.1804
 3867SOL     OW12125   6.133   6.207   2.789 -0.4546 -0.2034  0.3617
 3867SOL    HW112126   6.116   6.121   2.750  2.5932 -1.1891  0.9094
 3867SOL    HW212127   6.128   6.192   2.883 -1.8830  0.7543  0.4704
 3868SOL     OW12128   0.731   5.695   6.354 -0.8442 -0.0552  0.2462
 3868SOL    HW112129   0.792   5.711   6.282  0.3000 -0.0460  1.1797
 3868SOL    HW212130   0.745   5.603   6.378  0.6228  0.5636  2.0344
 3869SOL     OW12131   4.617   3.913   4.885 -0.8220 -0.5448  0.5320
 3869SOL    HW112132   4.635   4.006   4.904 -0.4745 -0.4258 -0.3340
 3869SOL    HW212133   4.555   3.915   4.812  0.0389 -0.9940 -0.2283
 3870SOL     OW12134   3.790   6.293   1.505  0.1432 -0.9768 -0.2604
 3870SOL    HW112135   3.728   6.224   1.527 -1.1311  0.2551  0.1190
 3870SOL    HW212136   3.750   6.339   1.431  1.7547 -1.6156 -1.6070
 3871SOL     OW12137   6.714   5.794   6.790  0.1240 -0.1858 -0.3398
 3871SOL    HW112138   6.717   5.809   6.884 -0.0807  3.0674 -0.7592
 3871SOL    HW212139   6.665   5.712   6.781 -0.2019 -0.3773  2.3389
 3872SOL     OW12140   7.532   3.742   1.078 -0.0595 -0.2738 -0.0112
 3872SOL    HW112141   7.588   3.761   1.003 -0.8794 -0.3895 -0.6740
 3872SOL    HW212142   7.568   3.662   1.115  2.0987  1.2685  1.4844
 3873SOL     OW12143   4.071   0.124   5.894 -0.2213 -0.1843 -0.0212
 3873SOL    HW112144   4.010   0.051   5.898 -1.5388  0.9489  1.3021
 3873SOL    HW212145   4.027   0.190   5.841  1.1097 -0.4339 -1.5146
 3874SOL     OW12146   6.720   7.408   3.033 -0.3164  0.5755  0.0453
 3874SOL    HW112147   6.631   7.434   3.007 -0.5170 -0.1479 -0.0023
 3874SOL    HW212148   6.708   7.325   3.079  0.3387  0.4867  0.0593
 3875SOL     OW12149   1.146   4.973   5.955  0.2916  0.2780  0.2025
 3875SOL    HW112150   1.151   4.895   6.011 -0.4576  0.7437  0.9374
 3875SOL    HW212151   1.068   4.959   5.901  1.1153 -0.2594 -0.9101
 3876SOL     OW12152   3.041   6.163   2.609 -0.0746 -0.9863  0.2724
 3876SOL    HW112153   2.987   6.131   2.680  0.0582  1.4577  1.5985
 3876SOL    HW212154   3.129   6.132   2.630 -0.4888 -2.7803 -0.4922
 3877SOL     OW12155   3.331   5.189   1.707 -0.3821 -0.1449  0.4860
 3877SOL    HW112156   3.263   5.236   1.755 -2.2864 -2.1193 -0.1366
 3877SOL    HW212157   3.411   5.203   1.758 -1.4211  1.4799  1.7473
 3878SOL     OW12158   5.875   4.325   1.282  0.2029  0.2859 -0.2330
 3878SOL    HW112159   5.796   4.292   1.325  0.0721  2.6179  1.4984
 3878SOL    HW212160   5.942   4.261   1.304 -0.8956 -1.1147 -0.7344
 3879SOL     OW12161   1.696   2.615   3.474  0.3997 -0.2286 -1.0223
 3879SOL    HW112162   1.772   2.628   3.417  1.2818 -1.0333 -0.0814
 3879SOL    HW212163   1.684   2.520   3.476  0.1870 -0.1899 -0.1442
 3880SOL     OW12164   1.411   6.195   3.936 -0.1033 -0.3547 -0.1177
 3880SOL    HW112165   1.450   6.179   3.850  0.8257  0.3679  0.1516
 3880SOL    HW212166   1.484   6.186   3.997 -0.4570  0.5269  0.4519
 3881SOL     OW12167   4.787   0.326   5.616  0.0582 -0.0261 -0.3849
 3881SOL    HW112168   4.826   0.279   5.689 -0.9704 -1.3138 -0.6252
 3881SOL    HW212169   4.741   0.399   5.656 -1.6686 -1.4951  0.4706
 3882SOL     OW12170   2.982   1.141   5.193 -0.1188  0.0423  0.1513
 3882SOL    HW112171   3.015   1.197   5.122 -0.0318 -0.9038 -0.5692
 3882SOL    HW212172   2.932   1.072   5.149 -0.8582 -0.0356  1.0761
 3883SOL     OW12173   3.846   3.234   6.505 -0.5636 -0.1371  0.1337
 3883SOL    HW112174   3.891   3.233   6.421 -2.2385 -0.2170 -0.7894
 3883SOL    HW212175   3.780   3.302   6.497 -0.7117 -0.0972  1.4171
 3884SOL     OW12176   3.766   5.968   3.355  0.2836  0.4185  0.2792
 3884SOL    HW112177   3.715   5.934   3.429  0.8657 -2.6059 -0.5487
 3884SOL    HW212178   3.846   6.001   3.395  1.0309 -2.0729  1.0477
 3885SOL     OW12179   4.768   3.175   0.084  0.3858 -0.2246 -0.1298
 3885SOL    HW112180   4.737   3.133   0.003 -0.1505  0.0231 -0.0543
 3885SOL    HW212181   4.817   3.107   0.129 -0.5670 -0.8139  0.0439
 3886SOL     OW12182   3.799   0.577   5.823  0.4151  0.2953  0.2145
 3886SOL    HW112183   3.822   0.644   5.887  2.2032 -0.2843  0.2317
 3886SOL    HW212184   3.706   0.561   5.837  0.3469  1.5457  1.3496
 3887SOL     OW12185   6.087   5.387   1.797  0.5962  0.3375  0.3845
 3887SOL    HW112186   6.091   5.293   1.781  1.1434  0.8166 -2.8242
 3887SOL    HW212187   6.159   5.423   1.746 -0.6170  2.6468  0.1924
 3888SOL     OW12188   5.010   3.702   6.425  0.5986 -0.5771 -0.2084
 3888SOL    HW112189   4.928   3.661   6.397  1.0143 -1.1640 -0.5954
 3888SOL    HW212190   5.052   3.637   6.482  0.3069  0.1459  0.8684
 3889SOL     OW12191   0.864   1.098   4.282  0.1518  0.1219 -0.1996
 3889SOL    HW112192   0.826   1.112   4.196 -0.3043 -0.3931 -0.0842
 3889SOL    HW212193   0.804   1.142   4.342 -0.0077 -0.2774 -0.0638
 3890SOL     OW12194   1.753   0.099   2.775 -0.3106  0.4211 -0.5057
 3890SOL    HW112195   1.670   0.145   2.767 -0.3839  0.7979  1.6549
 3890SOL    HW212196   1.740   0.016   2.730 -1.0874  1.3722 -2.1152
 3891SOL     OW12197   0.335   7.237   7.562  0.6677  0.3478 -0.6079
 3891SOL    HW112198   0.349   7.271   7.474  0.2889 -1.3056 -1.3433
 3891SOL    HW212199   0.241   7.244   7.576  0.7924  1.1343 -0.0872
 3892SOL     OW12200   4.705   3.807   4.508  0.0957 -0.1086 -0.0360
 3892SOL    HW112201   4.660   3.880   4.549 -2.5004 -1.8845  0.5353
 3892SOL    HW212202   4.759   3.769   4.578 -1.6287 -1.0539  0.8311
 3893SOL     OW12203   5.755   5.910   4.794 -0.2116 -0.2822  0.3533
 3893SOL    HW112204   5.770   5.892   4.701 -0.6375  0.0297  0.2234
 3893SOL    HW212205   5.838   5.887   4.836 -0.2151 -1.0137 -0.0222
 3894SOL     OW12206   7.196   6.735   5.758  0.3409 -0.1680  0.3575
 3894SOL    HW112207   7.272   6.777   5.718  0.6129 -1.7418 -0.8484
 3894SOL    HW212208   7.144   6.705   5.684 -0.7827 -0.3154  1.1869
 3895SOL     OW12209   4.319   1.753   2.310  0.4666  0.1021 -0.2649
 3895SOL    HW112210   4.278   1.815   2.249  0.9114  0.4846 -0.1797
 3895SOL    HW212211   4.246   1.713   2.357  0.1412  0.0960 -0.7674
 3896SOL     OW12212   2.870   0.156   3.515 -0.2933 -0.2594  0.0406
 3896SOL    HW112213   2.865   0.073   3.468 -0.1015 -0.4216  0.2990
 3896SOL    HW212214   2.781   0.172   3.546 -0.3032 -0.4382  0.1063
 3897SOL     OW12215   1.970   5.889   0.118 -0.4342 -0.3782  0.1426
 3897SOL    HW112216   1.923   5.816   0.157 -2.1150  0.7957  0.4430
 3897SOL    HW212217   1.902   5.939   0.072  0.8989  0.2319 -1.2735
 3898SOL     OW12218   4.266   7.116   3.332  0.0500 -0.2130  0.8958
 3898SOL    HW112219   4.299   7.054   3.397  1.0083 -1.4865 -0.7273
 3898SOL    HW212220   4.180   7.142   3.366 -0.7069 -2.9696  1.3693
 3899SOL     OW12221   7.112   2.794   6.811  0.2741  0.1858  0.5544
 3899SOL    HW112222   7.191   2.810   6.760 -0.0871  1.1236  0.2659
 3899SOL    HW212223   7.060   2.874   6.800 -0.5655 -0.2871  0.9997
 3900SOL     OW12224   2.217   1.140   1.569  0.0353  0.0341  0.1163
 3900SOL    HW112225   2.187   1.097   1.649 -0.7217  0.6496  0.1838
 3900SOL    HW212226   2.156   1.109   1.502 -0.4802  0.9165  0.1532
 3901SOL     OW12227   4.093   6.257   4.316  0.2826 -0.1725 -0.0154
 3901SOL    HW112228   4.054   6.332   4.269 -1.0151 -0.4455  0.5615
 3901SOL    HW212229   4.131   6.296   4.395  1.6135  0.1583 -0.7935
 3902SOL     OW12230   3.212   4.872   2.161  0.0653  0.6175 -0.1070
 3902SOL    HW112231   3.263   4.927   2.220 -0.2598 -0.4542  1.2123
 3902SOL    HW212232   3.155   4.821   2.218  1.3189 -2.1163 -1.1002
 3903SOL     OW12233   5.934   0.161   1.352  0.5189 -0.3605  0.2767
 3903SOL    HW112234   5.855   0.214   1.348  1.1402  0.7203  1.4486
 3903SOL    HW212235   5.911   0.079   1.310 -0.0354  1.3675 -3.1961
 3904SOL     OW12236   5.303   3.759   3.766 -0.4154  0.0690  0.3083
 3904SOL    HW112237   5.295   3.761   3.862  1.9356 -1.3344  0.6122
 3904SOL    HW212238   5.257   3.680   3.740 -0.9673  0.3957  0.2795
 3905SOL     OW12239   6.060   7.511   5.646 -0.0248 -0.0168  0.6431
 3905SOL    HW112240   6.105   7.519   5.730 -1.9639  0.2738  1.7025
 3905SOL    HW212241   5.967   7.509   5.668 -0.5759 -0.4062 -1.4731
 3906SOL     OW12242   0.262   0.491   7.275 -0.0457  0.3445  0.2946
 3906SOL    HW112243   0.211   0.572   7.279  1.9511  1.6070  3.7801
 3906SOL    HW212244   0.319   0.503   7.199 -0.9966  1.3940 -0.2844
 3907SOL     OW12245   3.044   5.941   5.218  0.4789  0.7611  0.0382
 3907SOL    HW112246   3.034   6.005   5.288 -0.6483  0.9947 -0.3109
 3907SOL    HW212247   2.955   5.911   5.200  1.0094 -1.3265  0.5664
 3908SOL     OW12248   4.744   2.142   5.928 -0.0339  0.4182  0.0599
 3908SOL    HW112249   4.822   2.188   5.959  0.5062  0.1658 -0.8655
 3908SOL    HW212250   4.738   2.166   5.835 -1.3292  0.7954  0.2235
 3909SOL     OW12251   5.977   6.043   5.548  0.1519  0.6839 -0.3971
 3909SOL    HW112252   5.978   6.049   5.644  0.8388  0.0774 -0.3560
 3909SOL    HW212253   5.886   6.055   5.524  0.0753  1.5890  0.2840
 3910SOL     OW12254   6.254   4.598   6.965  0.3485 -0.0720 -0.2834
 3910SOL    HW112255   6.345   4.573   6.978  0.2622  0.2307  1.1154
 3910SOL    HW212256   6.205   4.517   6.977  0.3484  0.0152  0.3560
 3911SOL     OW12257   1.564   3.731   4.066  0.0671  0.4130  0.3809
 3911SOL    HW112258   1.539   3.642   4.087  0.6659  0.4089  1.1120
 3911SOL    HW212259   1.496   3.785   4.104  1.0121  0.3916  2.2039
 3912SOL     OW12260   2.383   1.026   2.000  0.3741 -0.3654  0.3878
 3912SOL    HW112261   2.467   1.062   1.971 -0.5597  0.9822 -0.7425
 3912SOL    HW212262   2.372   1.059   2.089  0.8204 -0.1820  0.3780
 3913SOL     OW12263   6.986   0.030   3.640 -0.4827 -0.0264  1.0120
 3913SOL    HW112264   7.039   0.059   3.714  0.1122  1.4690  0.0504
 3913SOL    HW212265   7.044   0.039   3.564 -1.4081 -0.5163  0.2253
 3914SOL     OW12266   7.250   7.203   0.839 -1.4259 -0.1670 -0.2575
 3914SOL    HW112267   7.287   7.160   0.762  0.5116  1.1519 -0.1299
 3914SOL    HW212268   7.172   7.248   0.806  0.1676  1.6058 -1.8526
 3915SOL     OW12269   2.870   6.945   4.507 -0.0039  0.1392 -0.7855
 3915SOL    HW112270   2.788   6.909   4.472 -0.6277  1.0527 -0.3025
 3915SOL    HW212271   2.874   7.034   4.472  0.1409  0.5368  0.2114
 3916SOL     OW12272   4.008   5.734   3.713  0.5330  0.1802  0.6383
 3916SOL    HW112273   4.101   5.759   3.718  0.3752  1.3681 -1.3236
 3916SOL    HW212274   4.005   5.666   3.646  0.3584 -2.2688  2.9886
 3917SOL     OW12275   7.461   6.823   2.746  0.9961 -0.3331  0.4637
 3917SOL    HW112276   7.453   6.866   2.831 -0.1043  2.9154 -1.0971
 3917SOL    HW212277   7.548   6.848   2.714  0.8954 -0.4367  0.0991
 3918SOL     OW12278   4.427   0.586   4.053 -0.5428 -0.3821 -0.0096
 3918SOL    HW112279   4.381   0.669   4.065 -0.6351 -0.8016  3.6902
 3918SOL    HW212280   4.470   0.595   3.967 -2.4339  2.4809 -0.8167
 3919SOL     OW12281   5.386   2.541   2.636 -0.2480  0.0954 -0.3887
 3919SOL    HW112282   5.465   2.486   2.638 -0.8999 -0.8935 -0.8978
 3919SOL    HW212283   5.333   2.509   2.709 -1.2433 -0.9348 -1.5204
 3920SOL     OW12284   3.454   4.850   6.060  0.1300 -0.0835  0.2441
 3920SOL    HW112285   3.402   4.898   5.995 -1.1222 -0.6128  0.8087
 3920SOL    HW212286   3.474   4.766   6.018 -0.1019 -0.1556  0.2700
 3921SOL     OW12287   2.276   1.182   3.255  0.1504 -0.7029  0.0505
 3921SOL    HW112288   2.312   1.270   3.241 -1.8256  0.1022 -0.2739
 3921SOL    HW212289   2.234   1.160   3.172 -0.4474 -1.4268  0.5335
 3922SOL     OW12290   3.615   3.120   3.704  0.2314 -0.3734 -0.1197
 3922SOL    HW112291   3.555   3.130   3.779  1.0354  0.4215  0.4424
 3922SOL    HW212292   3.588   3.188   3.643  0.1671 -0.4181 -0.1414
 3923SOL     OW12293   4.522   1.139   1.913 -0.9436 -0.1027  0.1862
 3923SOL    HW112294   4.479   1.157   1.830 -1.3080 -1.2445  0.1114
 3923SOL    HW212295   4.493   1.209   1.971 -2.1049 -0.2952 -0.1459
 3924SOL     OW12296   1.066   6.609   6.147 -0.2448 -0.1739 -0.0515
 3924SOL    HW112297   1.075   6.582   6.055 -0.8692 -0.3219 -0.0725
 3924SOL    HW212298   1.085   6.703   6.147  0.7088 -0.3561 -0.1765
 3925SOL     OW12299   0.040   4.774   7.358  0.1705  0.0907 -0.1976
 3925SOL    HW112300   0.093   4.738   7.286  0.1323  0.6783 -0.5287
 3925SOL    HW212301  -0.046   4.736   7.345 -0.4498  1.8700 -1.8051
 3926SOL     OW12302   1.809   1.896   2.468 -0.4683  0.3297  0.3396
 3926SOL    HW112303   1.801   1.923   2.560 -1.7021 -0.7137  0.5583
 3926SOL    HW212304   1.904   1.886   2.455 -0.2387  1.0633  1.3205
 3927SOL     OW12305   5.910   1.909   6.024 -0.7024 -0.4478  0.3654
 3927SOL    HW112306   5.968   1.912   6.099 -0.3720  1.2066  0.0748
 3927SOL    HW212307   5.903   1.815   6.002  0.4685 -0.8043  1.4443
 3928SOL     OW12308   3.126   7.220   7.383 -0.2800  0.0755 -0.7467
 3928SOL    HW112309   3.074   7.282   7.332 -0.7678  1.3312  1.1592
 3928SOL    HW212310   3.062   7.174   7.437  0.3468 -0.1891 -0.2241
 3929SOL     OW12311   6.015   2.236   5.996 -0.2175  0.1147  0.1374
 3929SOL    HW112312   6.001   2.172   5.927  0.2737  0.9550 -0.7665
 3929SOL    HW212313   5.932   2.242   6.042 -0.0536 -1.7329  0.7370
 3930SOL     OW12314   4.159   3.020   4.976 -0.2306 -1.1676 -0.6144
 3930SOL    HW112315   4.229   3.010   5.042 -0.4382 -2.3441 -0.5518
 3930SOL    HW212316   4.137   3.114   4.979  0.2192 -1.0742  0.5268
 3931SOL     OW12317   5.437   6.732   1.290  0.5681  0.1380  0.0077
 3931SOL    HW112318   5.483   6.651   1.314  3.6585  1.7651 -0.0277
 3931SOL    HW212319   5.479   6.761   1.209 -1.3902  1.1513 -0.7091
 3932SOL     OW12320   5.952   6.390   6.096  0.4506 -0.4941 -0.7126
 3932SOL    HW112321   5.963   6.316   6.156  2.5006 -0.3574 -0.8536
 3932SOL    HW212322   5.986   6.358   6.012  0.3239  0.2597 -1.0623
 3933SOL     OW12323   3.645   6.760   0.714  0.2259  0.4640 -0.4871
 3933SOL    HW112324   3.575   6.746   0.651 -0.3497  1.6776 -0.1430
 3933SOL    HW212325   3.687   6.674   0.723 -0.4727 -0.0037 -1.5657
 3934SOL     OW12326   1.223   4.518   4.521 -1.2546  0.1910  0.2474
 3934SOL    HW112327   1.295   4.536   4.461 -0.2159 -2.2220  0.6160
 3934SOL    HW212328   1.156   4.582   4.499  0.6846  2.0381 -0.6397
 3935SOL     OW12329   0.963   7.028   2.908  0.3429  0.4374 -0.3490
 3935SOL    HW112330   1.001   6.948   2.945  1.0557  0.6265 -0.6515
 3935SOL    HW212331   0.895   6.997   2.849 -0.1799  0.1000  0.4163
 3936SOL     OW12332   2.156   3.253   1.136 -0.2075 -0.2934 -0.5420
 3936SOL    HW112333   2.118   3.184   1.081  2.5726 -0.3373 -2.6164
 3936SOL    HW212334   2.125   3.335   1.097 -1.4584 -0.3096  0.3630
 3937SOL     OW12335   3.543   2.380   6.563 -0.6712  0.2045  0.2561
 3937SOL    HW112336   3.468   2.426   6.527 -0.2162  0.5294 -0.2806
 3937SOL    HW212337   3.619   2.434   6.541  0.0695 -1.5271 -1.7689
 3938SOL     OW12338   1.528   6.221   2.884 -0.0694 -0.4601 -1.0636
 3938SOL    HW112339   1.493   6.295   2.835 -1.0204  0.2979  0.6586
 3938SOL    HW212340   1.622   6.237   2.888 -0.4964  2.0489  1.3371
 3939SOL     OW12341   3.971   0.874   3.772  0.1182  0.5133  0.2354
 3939SOL    HW112342   3.929   0.798   3.732  0.5008 -0.0787  0.9491
 3939SOL    HW212343   4.060   0.873   3.739  0.4968 -0.0972  1.2430
 3940SOL     OW12344   0.702   1.069   5.854  0.1523  0.0445  0.0971
 3940SOL    HW112345   0.666   1.085   5.941  0.9320 -1.0126  0.6319
 3940SOL    HW212346   0.675   1.146   5.803  2.0207  2.1128  1.9758
 3941SOL     OW12347   5.555   5.195   5.308 -1.0324 -0.0304 -0.0550
 3941SOL    HW112348   5.544   5.127   5.242  0.0833 -0.2750 -0.0159
 3941SOL    HW212349   5.474   5.193   5.359 -0.7109 -1.8961  0.4602
 3942SOL     OW12350   3.804   5.185   5.000 -0.0850  0.4321 -0.1082
 3942SOL    HW112351   3.776   5.093   4.995  0.9650  0.1142 -0.4227
 3942SOL    HW212352   3.844   5.193   5.087 -2.0022  1.1617  0.7715
 3943SOL     OW12353   6.358   3.203   4.301 -0.2841 -0.1971 -0.2122
 3943SOL    HW112354   6.360   3.299   4.300 -1.7715 -0.1407 -1.0529
 3943SOL    HW212355   6.278   3.181   4.348  0.0014 -1.0263 -0.1047
 3944SOL     OW12356   2.815   2.968   7.328 -0.8705 -0.3338  0.8048
 3944SOL    HW112357   2.889   2.964   7.389  0.3104  0.7254 -0.4853
 3944SOL    HW212358   2.769   3.048   7.353 -1.6646 -1.0461  1.6722
 3945SOL     OW12359   7.326   0.591   4.933 -0.1727  0.4679 -0.2317
 3945SOL    HW112360   7.351   0.664   4.876  0.6142 -1.5496 -2.6790
 3945SOL    HW212361   7.408   0.564   4.975 -0.0002 -0.3651 -1.0734
 3946SOL     OW12362   4.118   2.741   0.407  0.0708  0.3695  0.4791
 3946SOL    HW112363   4.073   2.727   0.324  1.0411  2.1952 -0.4271
 3946SOL    HW212364   4.049   2.765   0.468 -0.4348  1.3729 -0.4399
 3947SOL     OW12365   5.125   3.184   4.449  0.4484  0.7791 -0.1148
 3947SOL    HW112366   5.215   3.166   4.420  0.8510  2.1313  0.2247
 3947SOL    HW212367   5.124   3.278   4.467 -0.5111  0.4797  1.6988
 3948SOL     OW12368   4.387   6.578   3.584 -0.3407 -0.3818  0.4700
 3948SOL    HW112369   4.308   6.537   3.619 -0.1015 -0.2145  1.2323
 3948SOL    HW212370   4.445   6.586   3.660  0.3589 -0.3925 -0.0562
 3949SOL     OW12371   7.555   2.115   1.877 -0.4987 -0.6409  0.0758
 3949SOL    HW112372   7.639   2.080   1.845  0.8123  0.3449  2.2110
 3949SOL    HW212373   7.494   2.100   1.804  0.8468 -3.8114 -0.5973
 3950SOL     OW12374   4.893   7.531   5.279  0.0960 -0.2809 -0.4486
 3950SOL    HW112375   4.865   7.609   5.328  0.7354 -1.0749  1.2772
 3950SOL    HW212376   4.835   7.528   5.203 -1.0896  0.9219  0.3623
 3951SOL     OW12377   7.353   5.029   7.136  0.7239  1.4715 -0.2557
 3951SOL    HW112378   7.378   4.946   7.094  1.8446  1.1924  0.8952
 3951SOL    HW212379   7.408   5.034   7.214 -2.1486  1.3087  1.9667
 3952SOL     OW12380   5.463   6.870   1.038 -0.4836 -0.5034 -0.1051
 3952SOL    HW112381   5.537   6.815   1.012 -0.7881 -0.9085 -0.1228
 3952SOL    HW212382   5.407   6.873   0.961 -1.1160 -1.2531  0.3116
 3953SOL     OW12383   6.212   3.800   2.016 -0.5446 -0.4801 -0.0262
 3953SOL    HW112384   6.283   3.736   2.016  0.1982  0.3200  0.6049
 3953SOL    HW212385   6.155   3.773   2.088 -1.4735 -1.7257 -1.1789
 3954SOL     OW12386   6.186   3.557   0.926 -0.1033  0.2737 -0.5887
 3954SOL    HW112387   6.277   3.528   0.937 -0.6988 -1.7834 -0.6750
 3954SOL    HW212388   6.145   3.487   0.876 -3.0236 -1.6646  3.8704
 3955SOL     OW12389   0.594   3.903   2.210 -0.1952 -0.5827 -0.4863
 3955SOL    HW112390   0.512   3.858   2.229  0.0482 -0.5028  0.8555
 3955SOL    HW212391   0.644   3.899   2.292  0.5684  0.5646 -0.8591
 3956SOL     OW12392   2.297   1.876   2.293 -0.0885  0.1433 -0.3266
 3956SOL    HW112393   2.221   1.861   2.349 -0.4407  1.1002 -0.5230
 3956SOL    HW212394   2.316   1.790   2.255 -0.3697 -0.3384  0.5931
 3957SOL     OW12395   3.265   3.762   3.172 -0.1194  0.0521 -0.1261
 3957SOL    HW112396   3.303   3.746   3.085  0.7789 -1.8242  0.5650
 3957SOL    HW212397   3.177   3.723   3.167 -0.4906  0.8940 -0.4879
 3958SOL     OW12398   3.699   0.231   4.073  0.0675 -0.6712 -0.0698
 3958SOL    HW112399   3.658   0.287   4.007 -1.2936 -0.3514  0.9909
 3958SOL    HW212400   3.740   0.292   4.133 -0.8748 -0.8057  0.7398
 3959SOL     OW12401   1.154   1.169   0.070 -0.9177  0.5454  0.2814
 3959SOL    HW112402   1.078   1.124   0.108 -1.4091  2.2273  1.3835
 3959SOL    HW212403   1.121   1.256   0.046  0.9710  1.8875  2.2356
 3960SOL     OW12404   0.627   2.276   0.544 -0.3949  0.0258 -0.1953
 3960SOL    HW112405   0.708   2.306   0.584  0.0923 -0.1469 -1.0425
 3960SOL    HW212406   0.564   2.347   0.560 -0.0012  0.2832  0.2150
 3961SOL     OW12407   0.508   4.692   1.132 -0.3457 -0.5687 -0.5936
 3961SOL    HW112408   0.444   4.621   1.135 -0.6667 -0.2646  1.4157
 3961SOL    HW212409   0.456   4.771   1.120 -0.5877 -0.1857  2.2206
 3962SOL     OW12410   2.032   1.661   0.718  0.1989  0.5610  0.2642
 3962SOL    HW112411   2.109   1.632   0.768  0.7048  0.5224 -0.5228
 3962SOL    HW212412   2.014   1.589   0.658  1.0079  1.5139 -1.1846
 3963SOL     OW12413   5.954   6.132   2.131 -0.1028  0.1057  0.3921
 3963SOL    HW112414   5.905   6.199   2.083 -0.4426  0.5208  1.2923
 3963SOL    HW212415   5.975   6.065   2.066 -0.1669  0.8678 -0.4186
 3964SOL     OW12416   0.146   0.485   3.836 -0.3550 -0.3252  0.5314
 3964SOL    HW112417   0.161   0.455   3.926  0.0275 -2.4826 -0.1940
 3964SOL    HW212418   0.068   0.540   3.842 -0.4338 -0.5702  2.1494
 3965SOL     OW12419   4.128   4.341   7.121 -0.3901  0.2641  0.2762
 3965SOL    HW112420   4.069   4.322   7.195  0.4728  0.2508  0.9809
 3965SOL    HW212421   4.074   4.389   7.058 -1.3161 -0.2931  0.6293
 3966SOL     OW12422   2.668   5.667   6.637 -0.0325  0.5647  0.1082
 3966SOL    HW112423   2.745   5.709   6.676  0.7252 -0.3125 -0.4011
 3966SOL    HW212424   2.643   5.599   6.700 -2.7040  3.1622  2.1012
 3967SOL     OW12425   6.127   6.629   4.630  0.1158 -0.0845 -0.1662
 3967SOL    HW112426   6.153   6.540   4.608  2.2017  0.3723  0.2694
 3967SOL    HW212427   6.106   6.670   4.546 -1.6481 -1.1662 -0.3061
 3968SOL     OW12428   6.491   2.784   6.095 -0.4876  0.2976 -0.3470
 3968SOL    HW112429   6.500   2.696   6.061 -3.3223 -1.0875  1.9555
 3968SOL    HW212430   6.396   2.798   6.101 -0.1456  3.1129  0.3281
 3969SOL     OW12431   6.291   5.575   6.807 -0.5292 -0.4605 -0.4436
 3969SOL    HW112432   6.252   5.605   6.889 -0.6148  1.9896 -1.3050
 3969SOL    HW212433   6.247   5.626   6.739 -0.0526 -2.0073 -1.9896
 3970SOL     OW12434   1.594   7.412   5.768 -0.2538  0.0377  0.5657
 3970SOL    HW112435   1.528   7.480   5.772  0.8696  1.2101  0.0037
 3970SOL    HW212436   1.574   7.362   5.689 -0.3724  0.4805  0.3197
 3971SOL     OW12437   6.198   6.885   2.372  0.2644  0.0634 -0.6945
 3971SOL    HW112438   6.174   6.914   2.284 -0.4917 -0.2613 -0.6073
 3971SOL    HW212439   6.284   6.923   2.387  1.2949 -1.4082 -2.3234
 3972SOL     OW12440   4.001   3.626   6.030 -0.0452  0.0583  0.4653
 3972SOL    HW112441   4.003   3.533   6.007  2.7385 -0.0562  0.8565
 3972SOL    HW212442   3.948   3.666   5.961 -1.1501 -1.7513  0.1833
 3973SOL     OW12443   0.334   1.441   1.550  0.1935  0.3525 -1.0875
 3973SOL    HW112444   0.250   1.484   1.536 -0.3909 -0.4625 -0.1840
 3973SOL    HW212445   0.313   1.348   1.558  1.1020  0.2026 -0.1971
 3974SOL     OW12446   1.449   4.228   2.589 -0.5619  0.0306  0.1843
 3974SOL    HW112447   1.462   4.160   2.656 -0.4297  0.4684  0.6062
 3974SOL    HW212448   1.373   4.277   2.619  2.1406  3.1845  2.5712
 3975SOL     OW12449   3.072   6.006   3.466  1.2816  0.6582  0.2079
 3975SOL    HW112450   3.148   5.996   3.408  0.9919 -1.3565  0.1038
 3975SOL    HW212451   3.085   5.940   3.534 -0.1397  0.6150  0.4711
 3976SOL     OW12452   2.584   7.072   6.623  0.6179 -0.1840 -0.1031
 3976SOL    HW112453   2.598   7.151   6.676 -1.4168 -1.2984  2.2833
 3976SOL    HW212454   2.669   7.056   6.582  1.9944  1.4596  1.8966
 3977SOL     OW12455   2.944   0.269   6.598  0.4803  0.0869  0.8743
 3977SOL    HW112456   2.959   0.363   6.601  0.7330  0.0811  0.0996
 3977SOL    HW212457   3.007   0.232   6.659  1.1023  0.3495  0.3980
 3978SOL     OW12458   5.203   2.942   0.897 -0.1084 -0.1693 -0.0073
 3978SOL    HW112459   5.236   3.031   0.911 -0.8778  0.1469 -0.1401
 3978SOL    HW212460   5.281   2.887   0.897  0.3805  0.5114  0.0484
 3979SOL     OW12461   3.202   6.407   7.419  0.7022  0.8574 -0.2697
 3979SOL    HW112462   3.130   6.470   7.413 -0.9694 -0.7837  1.2996
 3979SOL    HW212463   3.238   6.419   7.507  0.2382 -0.4679  0.1207
 3980SOL     OW12464   1.097   6.071   5.245 -0.2840  0.7425 -0.3415
 3980SOL    HW112465   1.115   6.165   5.243  2.1711  0.3948  1.3607
 3980SOL    HW212466   1.183   6.030   5.245 -1.2893 -1.6012 -1.7237
 3981SOL     OW12467   1.674   3.048   3.774  0.0768 -0.7882  0.1634
 3981SOL    HW112468   1.591   3.017   3.739  0.1285 -1.0509  0.2712
 3981SOL    HW212469   1.668   3.144   3.768  1.2376 -0.7968 -3.2420
 3982SOL     OW12470   0.338   1.155   6.282  0.1726 -0.2270 -0.4623
 3982SOL    HW112471   0.244   1.173   6.279  0.0371 -0.6986  0.5564
 3982SOL    HW212472   0.373   1.201   6.206 -0.5282  2.0675  0.5212
 3983SOL     OW12473   6.990   1.696   1.360 -0.0806  0.0387  0.1824
 3983SOL    HW112474   6.956   1.697   1.271  0.0918  2.6781  0.0856
 3983SOL    HW212475   7.085   1.690   1.349 -0.0649  0.2586  0.2088
 3984SOL     OW12476   3.816   5.903   0.837  0.5671 -0.1949  0.4461
 3984SOL    HW112477   3.874   5.952   0.894 -0.6311  0.5978  1.0333
 3984SOL    HW212478   3.856   5.816   0.830  1.1784 -0.0352  1.8048
 3985SOL     OW12479   7.557   6.251   7.157  0.2859  0.5404 -0.4386
 3985SOL    HW112480   7.590   6.341   7.160  2.3244 -0.1086  3.6906
 3985SOL    HW212481   7.518   6.237   7.243 -0.3152 -2.4366 -1.0901
 3986SOL     OW12482   5.573   2.414   2.196  0.4814  0.0692 -0.2110
 3986SOL    HW112483   5.664   2.394   2.175  0.6472  0.4346  0.1450
 3986SOL    HW212484   5.577   2.499   2.239 -0.0977  0.3765 -0.7598
 3987SOL     OW12485   0.078   4.940   3.533  0.0978 -0.3288 -0.2627
 3987SOL    HW112486   0.142   4.887   3.485  1.1606 -0.6992  1.4565
 3987SOL    HW212487   0.097   5.030   3.506  2.3092 -0.2755  1.1513
 3988SOL     OW12488   5.059   1.806   1.340  0.4339 -0.4420  0.3945
 3988SOL    HW112489   5.071   1.858   1.419 -0.9427 -0.9467  0.9638
 3988SOL    HW212490   5.127   1.739   1.345  0.0476 -0.7690  1.4104
 3989SOL     OW12491   6.733   3.852   4.578  0.1228  0.2335  0.0711
 3989SOL    HW112492   6.814   3.860   4.629  0.5424  0.6857 -0.6552
 3989SOL    HW212493   6.684   3.931   4.600  1.4724  1.8147 -2.2165
 3990SOL     OW12494   7.339   1.164   4.003  0.2531  0.0264  0.1448
 3990SOL    HW112495   7.336   1.258   4.021  0.4809 -0.2352  1.6555
 3990SOL    HW212496   7.429   1.148   3.976  0.5522  0.0519  1.0938
 3991SOL     OW12497   5.460   5.886   5.458  0.0009 -0.2398  0.1578
 3991SOL    HW112498   5.501   5.861   5.541 -0.0600 -0.1948  0.2022
 3991SOL    HW212499   5.376   5.925   5.484  0.1250  0.0722  0.0919
 3992SOL     OW12500   3.530   2.295   2.149 -0.2836 -0.3120 -0.1638
 3992SOL    HW112501   3.576   2.332   2.226  0.2398  1.2009 -1.1476
 3992SOL    HW212502   3.456   2.354   2.135  0.3795  0.2316 -1.5888
 3993SOL     OW12503   0.668   5.891   0.679 -0.3487 -0.1973  0.4090
 3993SOL    HW112504   0.727   5.859   0.610 -0.4868  0.9119 -0.2497
 3993SOL    HW212505   0.592   5.923   0.631 -1.4282 -1.4244  1.2420
 3994SOL     OW12506   3.400   6.404   0.575  0.6482  0.2482  0.8345
 3994SOL    HW112507   3.393   6.365   0.488  2.2317  0.8383  0.4146
 3994SOL    HW212508   3.363   6.493   0.565 -2.0874 -0.6898  1.5703
 3995SOL     OW12509   4.025   5.019   0.235  0.4482 -0.9164 -0.1693
 3995SOL    HW112510   4.066   5.023   0.148  2.0618  1.6943  0.6040
 3995SOL    HW212511   3.968   5.095   0.239  0.7771 -0.7176  1.2252
 3996SOL     OW12512   3.323   4.348   3.608  0.1115 -0.1565  0.4708
 3996SOL    HW112513   3.397   4.315   3.659  1.0089 -0.1343 -0.7636
 3996SOL    HW212514   3.265   4.272   3.598  0.8229 -0.6461 -0.0129
 3997SOL     OW12515   7.244   0.256   3.842 -0.0828  0.3529  0.3931
 3997SOL    HW112516   7.222   0.281   3.753  0.9958 -0.5074 -0.1431
 3997SOL    HW212517   7.340   0.253   3.843 -0.0968 -0.5879  1.2935
 3998SOL     OW12518   5.948   3.814   3.345  0.2908  0.2939  0.0091
 3998SOL    HW112519   5.920   3.902   3.319 -1.6481 -0.3715 -0.3524
 3998SOL    HW212520   5.938   3.762   3.266 -0.7354 -0.6868  0.7426
 3999SOL     OW12521   0.041   6.192   5.301 -0.4456 -0.3148 -0.1371
 3999SOL    HW112522  -0.014   6.140   5.242 -1.0294  0.2019 -0.0623
 3999SOL    HW212523   0.128   6.188   5.262 -0.4326 -1.4914 -0.0406
 4000SOL     OW12524   6.198   0.978   4.914 -0.1732  0.1962  0.2483
 4000SOL    HW112525   6.239   1.061   4.888  2.4802 -1.5621 -1.7162
 4000SOL    HW212526   6.106   0.989   4.891  0.0076  2.7277  0.4270
 4001SOL     OW12527   2.486   3.552   2.173 -0.1115  0.3974  0.3783
 4001SOL    HW112528   2.556   3.557   2.237  0.7105  1.1363 -0.5562
 4001SOL    HW212529   2.420   3.614   2.205 -1.1652 -1.4747  2.1475
 4002SOL     OW12530   6.661   1.055   4.903  0.0500  0.1479  0.3692
 4002SOL    HW112531   6.745   1.031   4.942  0.3771 -0.4510 -0.6630
 4002SOL    HW212532   6.596   1.007   4.954  0.6084 -2.1616 -0.9306
 4003SOL     OW12533   1.933   0.887   0.374  0.9431  0.2445  0.2369
 4003SOL    HW112534   1.993   0.814   0.385  2.7737  1.6497 -0.0386
 4003SOL    HW212535   1.916   0.919   0.462 -0.7485 -1.1111  0.4712
 4004SOL     OW12536   2.466   6.946   3.791 -0.1618  0.4099 -0.1587
 4004SOL    HW112537   2.451   6.858   3.755 -2.3753  0.6352  0.1224
 4004SOL    HW212538   2.490   6.930   3.883 -1.4070  0.1091  0.1274
 4005SOL     OW12539   5.240   3.200   2.724 -0.1386 -0.2192  0.3895
 4005SOL    HW112540   5.173   3.170   2.663 -0.1005 -0.9669  0.7020
 4005SOL    HW212541   5.196   3.268   2.776 -0.0383  0.7408 -0.7394
 4006SOL     OW12542   1.467   0.445   2.156  0.3591  0.0350  0.9468
 4006SOL    HW112543   1.406   0.453   2.083  2.6598  0.1781 -1.1031
 4006SOL    HW212544   1.415   0.409   2.227 -1.7654 -1.1619 -1.0748
 4007SOL     OW12545   3.696   7.123   3.865  0.5136 -0.5830  0.2548
 4007SOL    HW112546   3.601   7.114   3.867  0.3488  0.9070 -0.0634
 4007SOL    HW212547   3.728   7.041   3.904 -0.8442 -1.5823 -0.6395
 4008SOL     OW12548   0.126   7.446   3.469 -0.0015 -0.1944  0.2851
 4008SOL    HW112549   0.066   7.441   3.544 -1.3717 -0.8431 -0.7965
 4008SOL    HW212550   0.118   7.360   3.427 -1.3741  0.9964 -2.1117
 4009SOL     OW12551   4.261   3.264   6.200 -0.3411  0.0369 -0.1337
 4009SOL    HW112552   4.276   3.341   6.254  0.3924  0.1631 -0.5135
 4009SOL    HW212553   4.246   3.299   6.112 -0.2854 -0.2380 -0.2543
 4010SOL     OW12554   7.126   2.795   1.137  0.6411 -0.8423  0.2272
 4010SOL    HW112555   7.142   2.704   1.163 -0.2673 -1.4349 -1.2022
 4010SOL    HW212556   7.031   2.806   1.146  0.5386 -0.5353 -1.1020
 4011SOL     OW12557   5.599   2.305   6.351 -0.0302  0.2107 -0.3326
 4011SOL    HW112558   5.597   2.288   6.445 -0.1605 -3.0557 -0.8320
 4011SOL    HW212559   5.516   2.272   6.318  0.0831  1.1482 -1.6674
 4012SOL     OW12560   7.479   7.187   2.603  0.5037  0.3551 -0.9452
 4012SOL    HW112561   7.570   7.164   2.623  0.2578 -0.2857 -0.5314
 4012SOL    HW212562   7.475   7.282   2.617  0.4902  0.0560  1.6935
 4013SOL     OW12563   4.838   3.677   3.741  0.1532 -0.1982 -0.5577
 4013SOL    HW112564   4.745   3.660   3.754 -0.0841  0.5063 -1.2617
 4013SOL    HW212565   4.842   3.725   3.658  0.9044  1.8089  0.5736
 4014SOL     OW12566   4.325   6.760   7.408  0.5683  0.2429  0.1329
 4014SOL    HW112567   4.303   6.812   7.485 -0.7182  0.2118 -0.1857
 4014SOL    HW212568   4.312   6.821   7.334  1.0106  0.0463 -0.1084
 4015SOL     OW12569   2.390   5.879   5.231  0.2713 -0.3625 -0.5642
 4015SOL    HW112570   2.430   5.914   5.311  0.8447 -1.2804 -0.4378
 4015SOL    HW212571   2.459   5.884   5.165 -0.6329  1.8026 -1.4580
 4016SOL     OW12572   1.464   5.449   4.228 -0.0162 -0.5817 -0.2662
 4016SOL    HW112573   1.435   5.491   4.148  0.1068 -0.6441 -0.3438
 4016SOL    HW212574   1.478   5.358   4.204  2.1286 -0.1751 -0.7215
 4017SOL     OW12575   5.120   1.481   5.682 -0.5664  0.0226  0.1811
 4017SOL    HW112576   5.134   1.393   5.716  0.4164  0.1324  0.1084
 4017SOL    HW212577   5.076   1.469   5.598  0.5469 -0.4828 -0.3567
 4018SOL     OW12578   0.237   6.708   1.072 -0.9330 -0.1528  0.0519
 4018SOL    HW112579   0.215   6.728   1.163 -1.0369 -1.1027  0.2461
 4018SOL    HW212580   0.154   6.681   1.032 -0.6672 -0.9046 -0.0007
 4019SOL     OW12581   4.284   1.405   4.089 -0.6769  0.2673  0.3868
 4019SOL    HW112582   4.314   1.316   4.072 -1.7137 -0.2404  1.0749
 4019SOL    HW212583   4.293   1.450   4.005 -1.8762 -1.0168 -0.4789
 4020SOL     OW12584   3.116   4.242   3.227  1.0037 -0.3726  0.2139
 4020SOL    HW112585   3.128   4.274   3.137  0.8964  0.3252  0.4398
 4020SOL    HW212586   3.194   4.272   3.273  0.7339 -0.1315  0.5140
 4021SOL     OW12587   5.063   0.697   0.167 -0.0889  0.4871 -0.2593
 4021SOL    HW112588   5.121   0.761   0.208 -0.4259 -1.0738  2.9631
 4021SOL    HW212589   5.122   0.637   0.122  0.4031  1.4743 -0.9822
 4022SOL     OW12590   4.294   1.738   5.603  0.1593 -0.1958  0.4351
 4022SOL    HW112591   4.249   1.785   5.674  0.3104  0.2422  0.2488
 4022SOL    HW212592   4.377   1.785   5.593  0.8212 -1.2165  1.0127
 4023SOL     OW12593   1.411   4.235   5.852  0.1020  0.6387 -0.1219
 4023SOL    HW112594   1.442   4.280   5.773  0.6593  0.9509  0.2709
 4023SOL    HW212595   1.491   4.212   5.899 -0.2664  1.7015  1.0445
 4024SOL     OW12596   5.907   0.588   7.554  0.3698  0.2318 -0.1571
 4024SOL    HW112597   5.899   0.666   7.500 -1.1648  0.4890  0.3930
 4024SOL    HW212598   5.943   0.522   7.495 -0.7366  0.6533 -1.3548
 4025SOL     OW12599   3.794   3.618   6.212  0.0939 -0.2765 -0.1059
 4025SOL    HW112600   3.867   3.622   6.150  0.7812 -0.3078  0.6961
 4025SOL    HW212601   3.722   3.662   6.166  0.2561 -1.2544 -1.3730
 4026SOL     OW12602   2.879   5.408   3.845  0.2790 -0.1735 -0.5788
 4026SOL    HW112603   2.893   5.503   3.847  1.6351 -0.2079 -3.2592
 4026SOL    HW212604   2.813   5.396   3.777  2.4088 -1.2272 -2.6149
 4027SOL     OW12605   1.964   1.506   4.650 -0.1516  0.1150 -0.0994
 4027SOL    HW112606   1.939   1.540   4.736  1.6332  1.3209  0.0000
 4027SOL    HW212607   1.983   1.583   4.598 -1.0919 -0.6102 -1.5777
 4028SOL     OW12608   0.167   2.388   6.488  0.2717 -0.1650 -0.1268
 4028SOL    HW112609   0.133   2.336   6.562 -0.4334 -0.4080 -0.6104
 4028SOL    HW212610   0.096   2.448   6.467  1.0613  1.0008  0.3950
 4029SOL     OW12611   7.214   1.090   7.074  0.2521  0.0723 -0.1480
 4029SOL    HW112612   7.258   1.025   7.020  2.5372  0.5131  1.0593
 4029SOL    HW212613   7.216   1.052   7.162  2.3737  2.0128  0.7381
 4030SOL     OW12614   1.118   6.383   6.509  0.4098 -0.0207 -0.0238
 4030SOL    HW112615   1.202   6.403   6.550  1.1267  0.7272 -1.7149
 4030SOL    HW212616   1.136   6.308   6.453 -1.0498 -2.3588  2.4592
 4031SOL     OW12617   7.524   6.154   3.793  0.2782 -0.1317  0.0833
 4031SOL    HW112618   7.560   6.091   3.856  0.1625 -0.1583  0.1234
 4031SOL    HW212619   7.539   6.114   3.708 -3.3364 -2.1801  0.1882
 4032SOL     OW12620   0.200   1.022   4.499 -0.0705 -0.5380  0.1478
 4032SOL    HW112621   0.198   1.115   4.475 -1.2578 -0.4904  0.3976
 4032SOL    HW212622   0.196   0.976   4.415  1.6368 -0.3981 -0.0585
 4033SOL     OW12623   7.204   4.641   4.083 -0.0425  0.3940 -0.0106
 4033SOL    HW112624   7.217   4.620   4.175 -1.9505  0.7414  0.3702
 4033SOL    HW212625   7.284   4.688   4.058  1.3571 -1.3689  0.8981
 4034SOL     OW12626   1.179   1.002   4.677 -0.0360  0.4309 -0.4737
 4034SOL    HW112627   1.260   1.006   4.729 -0.6987  1.1806  0.5333
 4034SOL    HW212628   1.195   1.060   4.603  0.0404  1.2717  0.1870
 4035SOL     OW12629   5.925   1.754   4.430  0.4401  0.0843  0.2003
 4035SOL    HW112630   5.948   1.831   4.482 -1.5881  1.0782 -0.2841
 4035SOL    HW212631   5.843   1.723   4.469 -0.2595 -0.1040 -1.3702
 4036SOL     OW12632   3.755   1.053   6.781 -0.0345  0.7449 -0.0077
 4036SOL    HW112633   3.822   1.105   6.826  1.1053  0.0201 -0.8339
 4036SOL    HW212634   3.721   1.111   6.713  3.1528 -0.3230 -2.7547
 4037SOL     OW12635   5.466   6.916   6.823 -0.1369  0.6230 -0.4019
 4037SOL    HW112636   5.521   6.984   6.862  1.2629  0.2379 -1.5969
 4037SOL    HW212637   5.434   6.865   6.898 -0.6112  2.1283  0.4565
 4038SOL     OW12638   6.591   4.464   7.201  0.4141  0.3121 -0.0131
 4038SOL    HW112639   6.575   4.538   7.142 -0.8884  0.0768  0.0012
 4038SOL    HW212640   6.682   4.440   7.186  0.4434  1.0151 -1.0626
 4039SOL     OW12641   6.146   1.167   6.917 -0.0915 -0.0547 -0.1794
 4039SOL    HW112642   6.201   1.138   6.844 -0.1624 -1.0697  0.1573
 4039SOL    HW212643   6.081   1.225   6.876  1.5441  1.6661 -0.4983
 4040SOL     OW12644   1.068   7.446   2.581 -0.4849 -0.1346  0.0562
 4040SOL    HW112645   1.039   7.355   2.574  0.3195 -0.3630 -0.5016
 4040SOL    HW212646   1.141   7.443   2.644 -2.1457  0.5684  2.1280
 4041SOL     OW12647   6.787   0.764   1.537 -0.0216 -0.0611  0.4175
 4041SOL    HW112648   6.769   0.823   1.611  0.5149  0.0591  0.4527
 4041SOL    HW212649   6.876   0.784   1.511 -0.1602 -0.2045 -0.1811
 4042SOL     OW12650   6.272   6.036   4.856 -0.2155 -0.6485  0.0633
 4042SOL    HW112651   6.264   6.129   4.877 -0.6815 -0.8460  0.8308
 4042SOL    HW212652   6.319   6.033   4.773  0.7222  0.2263  0.5471
 4043SOL     OW12653   5.604   2.630   0.120  0.4216 -0.0100 -0.7382
 4043SOL    HW112654   5.603   2.555   0.060 -0.1403  0.3652 -1.2140
 4043SOL    HW212655   5.632   2.703   0.066 -0.6908  0.4601 -0.7124
 4044SOL     OW12656   3.313   5.501   5.397  0.1451 -0.0227 -0.3311
 4044SOL    HW112657   3.362   5.582   5.383 -1.7002  1.3619  0.8698
 4044SOL    HW212658   3.295   5.468   5.309  2.1259  0.0400 -0.8218
 4045SOL     OW12659   2.289   0.393   4.723 -0.8494  0.3728 -0.1468
 4045SOL    HW112660   2.268   0.461   4.787  0.5620  0.1123  0.6367
 4045SOL    HW212661   2.366   0.349   4.759 -0.1563  0.0564 -1.9218
 4046SOL     OW12662   5.566   6.571   5.892 -0.2101  0.1834  0.3415
 4046SOL    HW112663   5.569   6.555   5.797 -0.1669 -1.0290  0.5340
 4046SOL    HW212664   5.492   6.519   5.923 -0.6535  1.1208  0.8885
 4047SOL     OW12665   5.950   7.145   3.746  0.2460 -0.2004  0.0689
 4047SOL    HW112666   5.973   7.165   3.655  1.0064 -1.2988  0.0027
 4047SOL    HW212667   5.858   7.119   3.742 -0.0502  0.8299 -0.2032
 4048SOL     OW12668   0.046   1.643   1.132 -0.4706  0.5739 -0.0442
 4048SOL    HW112669  -0.049   1.635   1.129 -0.6498  2.4217 -1.3983
 4048SOL    HW212670   0.079   1.553   1.128 -2.1538 -0.0549 -0.3600
 4049SOL     OW12671   5.055   3.130   5.246 -0.8211 -0.4306  0.5746
 4049SOL    HW112672   5.000   3.063   5.286 -0.3418 -2.2430 -1.5965
 4049SOL    HW212673   5.071   3.098   5.157  0.3828  2.0426 -0.1902
 4050SOL     OW12674   7.173   7.477   5.387 -0.1046  0.1764 -0.6569
 4050SOL    HW112675   7.095   7.458   5.334 -1.1816  0.6332  0.6888
 4050SOL    HW212676   7.146   7.456   5.477  0.9433  1.4111 -0.0184
 4051SOL     OW12677   7.156   2.595   6.989  0.0645  0.3241 -0.6651
 4051SOL    HW112678   7.071   2.549   6.986  0.5344 -0.5514 -1.0936
 4051SOL    HW212679   7.141   2.677   6.942 -0.3571 -0.1607 -1.3878
 4052SOL     OW12680   0.276   5.201   1.039 -0.2698 -0.1877 -0.2974
 4052SOL    HW112681   0.371   5.201   1.056 -0.2243  0.4766 -0.5459
 4052SOL    HW212682   0.237   5.180   1.124  0.1330 -1.8546 -0.4781
 4053SOL     OW12683   1.018   0.730   5.901 -0.0839  0.1586  0.1468
 4053SOL    HW112684   0.932   0.732   5.859  0.4569  0.5216 -0.9730
 4053SOL    HW212685   0.999   0.734   5.995 -1.5351 -4.2784  0.3038
 4054SOL     OW12686   5.734   7.560   4.046  0.3212 -0.2499  0.1802
 4054SOL    HW112687   5.700   7.550   4.135  0.1165  1.4288  0.3291
 4054SOL    HW212688   5.816   7.512   4.046 -0.5804 -1.8663  0.7047
 4055SOL     OW12689   5.196   0.580   1.085 -0.1409 -0.0838 -0.0906
 4055SOL    HW112690   5.287   0.550   1.092 -0.5082 -1.3618 -0.5419
 4055SOL    HW212691   5.202   0.675   1.094  1.1953 -0.1762  0.2825
 4056SOL     OW12692   2.552   3.581   2.481  0.1810 -0.0367 -0.1516
 4056SOL    HW112693   2.513   3.668   2.493 -0.1954 -0.4434  1.9460
 4056SOL    HW212694   2.643   3.593   2.508  0.5423  0.0199 -1.3283
 4057SOL     OW12695   5.079   7.414   7.250  0.6128 -0.3500 -0.0650
 4057SOL    HW112696   5.021   7.384   7.321 -1.4936  0.9579 -1.1344
 4057SOL    HW212697   5.145   7.467   7.294 -0.6244  0.3959  0.9778
 4058SOL     OW12698   5.596   3.876   1.363  0.2043 -0.2644  0.4175
 4058SOL    HW112699   5.634   3.798   1.324  0.1596 -0.0220 -0.1122
 4058SOL    HW212700   5.599   3.942   1.294 -0.1741  0.0720  0.7170
 4059SOL     OW12701   4.834   2.950   4.732  0.1640  0.1439 -0.5251
 4059SOL    HW112702   4.743   2.969   4.708  0.2298  2.0931  0.5938
 4059SOL    HW212703   4.826   2.885   4.802 -0.4184  0.6426 -0.1075
 4060SOL     OW12704   3.272   2.890   0.815 -0.3791 -0.0505 -0.3799
 4060SOL    HW112705   3.335   2.961   0.802  0.2189 -0.6915 -1.1040
 4060SOL    HW212706   3.251   2.893   0.908  0.8561  0.0799 -0.0834
 4061SOL     OW12707   2.173   3.805   7.122 -0.0135  0.2759 -0.2499
 4061SOL    HW112708   2.159   3.859   7.200 -0.1476  2.3562 -1.6205
 4061SOL    HW212709   2.105   3.738   7.127 -0.4761  0.8061  1.0516
 4062SOL     OW12710   4.709   2.903   0.677  0.1183  0.1584  0.0718
 4062SOL    HW112711   4.741   2.843   0.745  0.7271 -1.3783 -1.4995
 4062SOL    HW212712   4.755   2.876   0.597 -1.8363  0.7828 -1.3476
 4063SOL     OW12713   0.130   4.446   2.762  0.0232 -0.0002 -0.3494
 4063SOL    HW112714   0.094   4.439   2.674  0.0310  2.4792 -0.6200
 4063SOL    HW212715   0.219   4.478   2.749 -0.4463  1.8196  0.5404
 4064SOL     OW12716   3.558   0.630   2.137  0.0651  0.0983 -0.2597
 4064SOL    HW112717   3.521   0.643   2.224 -1.0079  2.2687 -0.9863
 4064SOL    HW212718   3.492   0.579   2.090 -0.4427  0.9511 -0.4906
 4065SOL     OW12719   4.997   7.492   6.587 -0.1622 -0.3737  0.8139
 4065SOL    HW112720   4.992   7.516   6.494  0.9023 -0.6561  0.6709
 4065SOL    HW212721   4.937   7.553   6.631 -1.6271 -1.0133 -0.1935
 4066SOL     OW12722   4.657   2.672   7.420  0.0141  0.3817  0.0934
 4066SOL    HW112723   4.642   2.717   7.503  1.1405  1.3289 -0.1881
 4066SOL    HW212724   4.671   2.580   7.444 -0.0447  0.5771  0.9063
 4067SOL     OW12725   5.360   2.513   6.129 -0.2098  0.5347 -0.6352
 4067SOL    HW112726   5.396   2.485   6.213  0.3188  1.4887 -0.5347
 4067SOL    HW212727   5.381   2.441   6.069  0.2009  0.2485 -0.1526
 4068SOL     OW12728   7.489   1.178   0.812 -0.2493 -0.6956  0.1495
 4068SOL    HW112729   7.564   1.223   0.849 -2.6872  4.1429  0.0001
 4068SOL    HW212730   7.503   1.179   0.718  0.4948 -2.0241  0.2218
 4069SOL     OW12731   0.657   6.138   2.429  0.1159 -0.1490 -0.0885
 4069SOL    HW112732   0.578   6.170   2.386 -0.4806 -0.2111  0.9146
 4069SOL    HW212733   0.657   6.181   2.514  0.8203 -0.6398  0.1704
 4070SOL     OW12734   5.278   0.860   1.113 -1.2463  0.1380  0.5544
 4070SOL    HW112735   5.338   0.868   1.039 -0.7618 -0.7254  0.8356
 4070SOL    HW212736   5.221   0.937   1.107 -1.1819  0.1082 -0.6777
 4071SOL     OW12737   5.161   2.696   4.087 -0.3842  0.0739 -0.0015
 4071SOL    HW112738   5.205   2.613   4.104  0.1593 -0.0674 -1.8855
 4071SOL    HW212739   5.071   2.671   4.064 -0.4792  0.0887  0.3470
 4072SOL     OW12740   3.310   2.406   2.374  0.0735 -0.3228 -0.2108
 4072SOL    HW112741   3.272   2.318   2.369 -0.6532 -0.0236 -0.1167
 4072SOL    HW212742   3.323   2.431   2.282  0.0081 -0.4105 -0.2442
 4073SOL     OW12743   7.540   4.148   0.927 -0.1398 -0.2500 -0.0130
 4073SOL    HW112744   7.536   4.146   1.022  0.3993  0.1186  0.0232
 4073SOL    HW212745   7.567   4.238   0.906  0.0085 -0.4040 -0.5035
 4074SOL     OW12746   1.914   3.182   3.285 -0.5390  0.4037  0.2761
 4074SOL    HW112747   1.997   3.134   3.278 -0.5773  0.5624 -1.9211
 4074SOL    HW212748   1.862   3.130   3.346  0.4941 -0.7436  0.2266
 4075SOL     OW12749   7.303   5.818   5.645  0.0581  0.6382 -0.1942
 4075SOL    HW112750   7.321   5.891   5.586 -0.8670 -0.5488 -2.0302
 4075SOL    HW212751   7.245   5.760   5.595  1.1883 -1.6442  0.9712
 4076SOL     OW12752   5.242   0.031   2.513 -0.1746 -0.2749  0.2370
 4076SOL    HW112753   5.255  -0.013   2.597 -0.0433 -0.8250 -0.0638
 4076SOL    HW212754   5.222  -0.040   2.452  0.4127  0.0422 -0.3364
 4077SOL     OW12755   6.094   5.067   6.543 -0.0608  0.2803  0.7242
 4077SOL    HW112756   6.094   5.044   6.636  0.5240  2.1677  1.2406
 4077SOL    HW212757   6.183   5.047   6.514 -0.2995 -0.4938  0.5004
 4078SOL     OW12758   3.644   1.096   1.847 -0.0566  0.2828  0.2321
 4078SOL    HW112759   3.622   1.003   1.845  1.0864 -0.0398  1.2970
 4078SOL    HW212760   3.637   1.124   1.756 -0.9118 -0.7231 -0.0311
 4079SOL     OW12761   0.612   4.651   0.437 -0.1311 -0.1543  0.2827
 4079SOL    HW112762   0.696   4.618   0.404  0.5298 -2.3302  3.6650
 4079SOL    HW212763   0.636   4.725   0.493 -0.6856  0.3198 -0.0973
 4080SOL     OW12764   3.440   4.629   7.213  0.4748  0.4971  0.5193
 4080SOL    HW112765   3.507   4.697   7.212 -0.0711  1.0414  0.1300
 4080SOL    HW212766   3.463   4.573   7.288  0.7141  1.3333  1.0814
 4081SOL     OW12767   0.802   5.320   4.784 -0.0108  0.1272  0.4090
 4081SOL    HW112768   0.765   5.270   4.710 -1.2409  1.7841 -0.1487
 4081SOL    HW212769   0.771   5.273   4.862 -2.3780  0.7328 -0.0691
 4082SOL     OW12770   2.021   0.998   1.417 -0.0132  0.2953 -0.5354
 4082SOL    HW112771   1.980   1.053   1.351 -1.5581 -0.5506 -0.3261
 4082SOL    HW212772   1.953   0.936   1.442  1.5699 -1.5869 -0.6174
 4083SOL     OW12773   5.039   0.385   1.002 -0.5465  0.0153  0.8101
 4083SOL    HW112774   4.983   0.429   0.938 -0.3825 -1.4337 -0.3796
 4083SOL    HW212775   5.101   0.453   1.029 -1.7162  1.1459  0.8010
 4084SOL     OW12776   1.519   3.344   0.527  0.2439  0.5731  0.1341
 4084SOL    HW112777   1.548   3.394   0.451 -0.9004  1.8114  0.4706
 4084SOL    HW212778   1.596   3.336   0.582  0.8428  0.5097 -0.6890
 4085SOL     OW12779   1.508   4.217   6.494  0.0309  0.0728  0.4470
 4085SOL    HW112780   1.480   4.271   6.421 -1.4641 -2.2843 -0.8326
 4085SOL    HW212781   1.531   4.132   6.455  2.7904 -0.1739  2.2855
 4086SOL     OW12782   2.878   7.449   3.415  0.7194  0.5959 -0.3828
 4086SOL    HW112783   2.811   7.454   3.346 -0.2104 -1.7291  0.2496
 4086SOL    HW212784   2.837   7.396   3.484  2.7493  0.2297  0.6134
 4087SOL     OW12785   1.528   0.602   7.487 -0.3377 -0.2228  0.1004
 4087SOL    HW112786   1.537   0.561   7.401 -2.1188 -2.1694  0.7643
 4087SOL    HW212787   1.616   0.596   7.526  0.6776  1.3425 -1.7763
 4088SOL     OW12788   3.693   6.581   6.059 -0.3953  0.1548 -0.3523
 4088SOL    HW112789   3.642   6.516   6.107  0.4635  0.4515  1.0202
 4088SOL    HW212790   3.648   6.590   5.975 -1.5785 -0.8498  0.1486
 4089SOL     OW12791   0.737   6.024   1.936 -0.3250 -0.1952 -0.5363
 4089SOL    HW112792   0.673   5.957   1.958  0.0061 -0.3012  0.1446
 4089SOL    HW212793   0.779   6.046   2.020  0.8116 -0.4328 -1.0226
 4090SOL     OW12794   7.043   5.379   6.056 -0.4253 -0.0852 -0.2140
 4090SOL    HW112795   7.000   5.448   6.107 -1.6984 -0.1736 -1.1167
 4090SOL    HW212796   7.135   5.405   6.054 -0.4184  0.1847  1.6663
 4091SOL     OW12797   4.733   2.757   1.233 -0.1862  0.1361  0.1966
 4091SOL    HW112798   4.713   2.833   1.178 -2.0493  0.1727  0.8623
 4091SOL    HW212799   4.728   2.682   1.174 -3.3979  0.0370  0.4467
 4092SOL     OW12800   7.355   4.077   5.849 -0.2484  0.0983  0.4132
 4092SOL    HW112801   7.388   3.988   5.861  1.7291  0.6857 -0.2763
 4092SOL    HW212802   7.324   4.103   5.936  0.2621 -0.8496  0.8918
 4093SOL     OW12803   7.407   7.513   0.631 -0.2661  0.0150  0.3548
 4093SOL    HW112804   7.459   7.593   0.635 -1.1509  0.6007  0.6368
 4093SOL    HW212805   7.318   7.544   0.615 -0.6299 -0.9114  0.5267
 4094SOL     OW12806   3.100   6.316   3.163  0.0396 -0.2838  0.1632
 4094SOL    HW112807   3.018   6.363   3.146  1.7071  3.1192  0.6943
 4094SOL    HW212808   3.146   6.318   3.080  1.2483  1.5609  0.8225
 4095SOL     OW12809   4.431   6.436   1.455 -0.1772 -0.3785  0.6368
 4095SOL    HW112810   4.464   6.519   1.423  2.3511 -1.0685  1.2428
 4095SOL    HW212811   4.377   6.402   1.383  1.4737  0.2763 -0.9761
 4096SOL     OW12812   3.760   2.512   7.232 -0.2793  0.0366 -0.5456
 4096SOL    HW112813   3.716   2.441   7.185  0.9691 -0.5120 -0.9183
 4096SOL    HW212814   3.832   2.470   7.279 -0.7719  0.7495  0.9451
 4097SOL     OW12815   3.373   7.194   0.325 -0.1125  0.2607  0.1058
 4097SOL    HW112816   3.361   7.288   0.342  1.0834  0.4246  0.0892
 4097SOL    HW212817   3.461   7.175   0.356 -0.4126 -0.9092  0.2797
 4098SOL     OW12818   3.216   7.441   0.298  1.1785 -0.1489  0.0803
 4098SOL    HW112819   3.180   7.463   0.211 -3.1231 -0.5055  1.5139
 4098SOL    HW212820   3.234   7.525   0.338 -0.1893  0.2139 -0.0014
 4099SOL     OW12821   0.189   5.030   6.382 -0.5171 -0.1681  0.4374
 4099SOL    HW112822   0.171   5.115   6.344  0.3616 -0.2125 -0.1171
 4099SOL    HW212823   0.174   5.042   6.476  0.3680  0.8368  0.4788
 4100SOL     OW12824   0.317   5.023   0.160 -0.0034 -0.4487 -0.4484
 4100SOL    HW112825   0.264   5.102   0.167  1.2360  0.4180 -0.4563
 4100SOL    HW212826   0.265   4.963   0.107 -2.7419 -1.2042  2.8171
 4101SOL     OW12827   6.441   5.879   4.005 -0.8638 -0.0011  0.4524
 4101SOL    HW112828   6.385   5.950   4.037 -0.3238 -0.0949  1.6336
 4101SOL    HW212829   6.405   5.800   4.042 -0.7720 -0.2244  0.0763
 4102SOL     OW12830   7.215   0.079   7.388  0.3591 -0.5630  0.6084
 4102SOL    HW112831   7.279   0.029   7.438 -0.9605 -0.8537  2.1255
 4102SOL    HW212832   7.225   0.169   7.420  2.8309  0.3161 -2.2178
 4103SOL     OW12833   7.132   6.116   6.167 -0.3872  0.4638 -0.2866
 4103SOL    HW112834   7.228   6.120   6.159 -0.4511  1.2377 -0.6805
 4103SOL    HW212835   7.101   6.196   6.127 -1.2042  0.2854 -0.0242
 4104SOL     OW12836   1.698   1.631   1.085 -0.1672  0.1893  0.5167
 4104SOL    HW112837   1.777   1.657   1.038 -1.1045 -0.9051 -1.8339
 4104SOL    HW212838   1.626   1.660   1.029 -1.3409 -1.3273  1.1715
 4105SOL     OW12839   4.805   0.071   6.711 -0.4325 -0.4107  0.9165
 4105SOL    HW112840   4.735   0.023   6.755 -0.2277 -1.2668  0.3378
 4105SOL    HW212841   4.759   0.127   6.648 -0.5722 -2.0017 -0.4619
 4106SOL     OW12842   4.734   5.795   7.183  0.6372 -0.2101  0.1859
 4106SOL    HW112843   4.822   5.825   7.162  0.9814 -1.3973 -0.1724
 4106SOL    HW212844   4.745   5.702   7.203 -0.7000 -0.6544 -1.0046
 4107SOL     OW12845   2.929   2.354   6.649  0.0497 -0.3001  0.2994
 4107SOL    HW112846   2.958   2.420   6.586  0.0150  0.6630  1.2671
 4107SOL    HW212847   3.009   2.320   6.688  0.0510 -0.6047  0.0385
 4108SOL     OW12848   0.372   4.361   6.805 -0.2449 -0.7383 -0.6006
 4108SOL    HW112849   0.389   4.293   6.871 -0.2733  0.0235  0.2026
 4108SOL    HW212850   0.449   4.358   6.748 -0.9293 -2.4941 -1.5248
 4109SOL     OW12851   7.404   6.057   6.154  0.0728  0.0084  0.1085
 4109SOL    HW112852   7.451   6.041   6.236  3.0250  0.2928 -1.3976
 4109SOL    HW212853   7.414   5.976   6.104 -0.5889  0.2703 -0.4581
 4110SOL     OW12854   1.142   5.230   5.298 -0.4315  0.5411  0.1446
 4110SOL    HW112855   1.072   5.293   5.282 -1.0762 -0.2694 -0.3219
 4110SOL    HW212856   1.186   5.262   5.377 -0.9511  1.3777  0.1086
 4111SOL     OW12857   0.030   2.951   7.264  0.2577 -0.3402  1.1382
 4111SOL    HW112858   0.100   3.011   7.238 -0.1695 -0.5070 -0.5158
 4111SOL    HW212859  -0.034   3.007   7.307 -0.6010  0.6627 -1.2690
 4112SOL     OW12860   5.584   4.901   2.396 -0.7037  0.4017  0.6977
 4112SOL    HW112861   5.619   4.896   2.485  0.5507 -0.8478  0.1587
 4112SOL    HW212862   5.536   4.984   2.394  1.3005  1.6629  1.8094
 4113SOL     OW12863   0.911   1.675   6.857  0.1072  0.5478 -0.2184
 4113SOL    HW112864   0.838   1.689   6.917  0.9623  0.6887  0.8207
 4113SOL    HW212865   0.953   1.761   6.851 -0.6472  0.8321 -1.9718
 4114SOL     OW12866   4.969   6.968   6.232  0.1576  0.5664 -0.2928
 4114SOL    HW112867   4.947   7.051   6.190  0.3563  1.1760  0.7532
 4114SOL    HW212868   5.017   6.919   6.165  2.0340  2.2171 -0.2775
 4115SOL     OW12869   5.639   3.438   2.032  0.3605 -0.2332 -0.5739
 4115SOL    HW112870   5.635   3.516   1.976 -0.6360 -1.3992 -2.2198
 4115SOL    HW212871   5.702   3.380   1.988 -1.7507 -1.9015 -1.5651
 4116SOL     OW12872   4.478   1.290   1.651  0.3791  0.3035  0.1791
 4116SOL    HW112873   4.523   1.371   1.628  0.0482 -0.2854 -3.0044
 4116SOL    HW212874   4.392   1.299   1.611  0.7992 -2.1027 -1.4400
 4117SOL     OW12875   0.447   5.669   1.826 -0.1805  0.3631  0.1589
 4117SOL    HW112876   0.379   5.685   1.760  1.0376 -0.0815 -1.2725
 4117SOL    HW212877   0.425   5.728   1.898 -2.8351 -0.7290  0.3518
 4118SOL     OW12878   3.036   2.443   3.256 -0.8371 -0.3379 -0.4233
 4118SOL    HW112879   3.025   2.513   3.191 -0.6314 -0.1011 -0.2032
 4118SOL    HW212880   3.018   2.363   3.207  0.9712 -0.3157 -1.2235
 4119SOL     OW12881   4.247   2.346   0.765  0.2285 -0.5520 -0.2505
 4119SOL    HW112882   4.268   2.369   0.856 -0.9227  1.3945 -0.4051
 4119SOL    HW212883   4.204   2.424   0.730  0.4824 -1.3171 -2.4411
 4120SOL     OW12884   2.288   7.471   4.130 -0.1388 -0.1993  0.1665
 4120SOL    HW112885   2.199   7.506   4.116  0.6161  1.9679  0.3983
 4120SOL    HW212886   2.328   7.475   4.043 -0.4787 -1.9793 -0.1164
 4121SOL     OW12887   0.537   3.370   5.464 -0.2751 -0.3427  0.1332
 4121SOL    HW112888   0.627   3.338   5.469 -0.2930 -0.7046 -1.3013
 4121SOL    HW212889   0.495   3.313   5.399 -1.8856 -0.9561  1.6352
 4122SOL     OW12890   0.852   4.302   6.649  0.2160  0.3664 -0.5838
 4122SOL    HW112891   0.938   4.344   6.647  0.6132 -0.4423 -0.8045
 4122SOL    HW212892   0.849   4.256   6.733  0.0135  0.3489 -0.5984
 4123SOL     OW12893   3.727   5.416   7.436 -0.6482  0.0645  0.3633
 4123SOL    HW112894   3.771   5.393   7.354 -1.5622 -0.7047  0.0709
 4123SOL    HW212895   3.779   5.372   7.504 -0.8858 -0.7612  0.0273
 4124SOL     OW12896   5.134   5.119   5.899  0.1062 -0.0886 -0.0671
 4124SOL    HW112897   5.148   5.046   5.959  2.1525 -0.0172 -0.4172
 4124SOL    HW212898   5.100   5.190   5.955  0.1501 -0.6295  0.6557
 4125SOL     OW12899   0.977   6.565   1.547  0.3238 -0.8466 -0.2558
 4125SOL    HW112900   0.918   6.638   1.560 -0.8575 -1.6010 -1.1359
 4125SOL    HW212901   1.063   6.597   1.576 -0.1882  0.8150 -0.4790
 4126SOL     OW12902   5.858   6.356   4.280 -0.5356  0.2713  0.3025
 4126SOL    HW112903   5.944   6.316   4.292 -0.4541  0.8322  1.8354
 4126SOL    HW212904   5.829   6.377   4.369 -1.5610  1.5450 -0.2976
 4127SOL     OW12905   0.990   1.275   6.248 -0.6319  0.4650 -0.9321
 4127SOL    HW112906   1.034   1.359   6.261  0.0529  0.1281 -0.9857
 4127SOL    HW212907   1.004   1.255   6.155  1.6733 -1.0123 -0.3621
 4128SOL     OW12908   2.961   1.507   0.077 -0.2516  0.4266  0.1318
 4128SOL    HW112909   2.928   1.526  -0.011 -0.2440 -1.0164 -0.2004
 4128SOL    HW212910   2.888   1.528   0.135 -0.7236  0.1054 -0.3426
 4129SOL     OW12911   5.451   3.945   0.489  0.7638  0.5425 -0.2919
 4129SOL    HW112912   5.420   3.923   0.577 -0.7804  1.9316 -0.4293
 4129SOL    HW212913   5.383   3.911   0.431  1.3584  0.3690 -0.8985
 4130SOL     OW12914   1.536   1.036   2.739 -0.3412 -0.2045 -0.0886
 4130SOL    HW112915   1.535   1.060   2.831  0.8285 -0.1190 -0.0829
 4130SOL    HW212916   1.574   1.112   2.695 -1.3035 -0.0683 -0.6997
 4131SOL     OW12917   3.564   3.916   3.306  0.0510  0.6955 -0.4893
 4131SOL    HW112918   3.483   3.869   3.286 -0.0149 -0.0238  1.3068
 4131SOL    HW212919   3.599   3.942   3.220 -2.1671  1.2179 -1.2952
 4132SOL     OW12920   3.665   6.416   0.649 -0.0360  0.1824 -0.4971
 4132SOL    HW112921   3.679   6.323   0.666 -2.1294  0.1092  1.2200
 4132SOL    HW212922   3.571   6.424   0.633  0.1155  1.9975 -0.6912
 4133SOL     OW12923   1.741   4.460   2.771  0.9520 -0.5023  0.0992
 4133SOL    HW112924   1.768   4.368   2.775  0.4947 -0.6133  2.0677
 4133SOL    HW212925   1.645   4.456   2.771  0.8451 -0.0307 -2.6410
 4134SOL     OW12926   2.953   3.652   3.787 -0.9097  0.0898  0.4141
 4134SOL    HW112927   2.971   3.638   3.694  0.2411  1.9616  0.2952
 4134SOL    HW212928   2.865   3.689   3.789 -0.5351  1.0711 -0.0827
 4135SOL     OW12929   4.362   5.973   3.847  0.3995  0.1123  0.0033
 4135SOL    HW112930   4.282   5.930   3.877 -0.7173  2.1639  0.1240
 4135SOL    HW212931   4.360   6.060   3.887  3.2319 -0.0871  0.8576
 4136SOL     OW12932   4.874   6.926   5.806  0.3113 -0.1797  0.3643
 4136SOL    HW112933   4.903   6.843   5.768 -1.2270 -0.3740 -0.4503
 4136SOL    HW212934   4.805   6.902   5.868 -0.8285  0.5401 -0.5929
 4137SOL     OW12935   3.869   6.249   0.054 -0.4484 -0.3903 -0.3848
 4137SOL    HW112936   3.912   6.334   0.046 -0.2673 -0.3454  0.8237
 4137SOL    HW212937   3.917   6.192  -0.005 -0.5617  0.3381 -1.1949
 4138SOL     OW12938   2.371   5.683   5.923 -0.1083  0.1517 -0.0287
 4138SOL    HW112939   2.426   5.670   6.001 -2.3035  0.1940  1.6249
 4138SOL    HW212940   2.408   5.624   5.857  0.8486 -1.1289  1.5792
 4139SOL     OW12941   7.435   2.611   0.917 -0.3610 -0.5479 -0.5538
 4139SOL    HW112942   7.411   2.638   0.829  0.1065 -0.5763 -0.6962
 4139SOL    HW212943   7.427   2.515   0.916  0.4294 -0.6207 -0.8184
 4140SOL     OW12944   6.842   5.608   4.358  0.0778 -0.1811  0.2025
 4140SOL    HW112945   6.766   5.664   4.376  0.3487 -0.0458  0.9510
 4140SOL    HW212946   6.915   5.669   4.351  0.9298 -0.5446  3.9216
 4141SOL     OW12947   6.832   3.981   3.541  0.1076  1.0701 -0.1092
 4141SOL    HW112948   6.743   3.947   3.544 -0.7211  2.9587 -1.5676
 4141SOL    HW212949   6.876   3.929   3.473  0.4390 -0.4233  1.1776
 4142SOL     OW12950   6.301   7.399   4.382  0.1925 -0.2329  0.1647
 4142SOL    HW112951   6.295   7.306   4.358  0.4962  0.1441 -1.4491
 4142SOL    HW212952   6.211   7.430   4.384  0.1542 -0.3102 -0.3483
 4143SOL     OW12953   7.071   6.643   0.453  0.2607 -0.1534 -0.2693
 4143SOL    HW112954   7.097   6.636   0.361 -0.3903 -0.2213 -0.4504
 4143SOL    HW212955   7.009   6.571   0.466  1.4629 -1.0794  0.6210
 4144SOL     OW12956   2.247   4.475   2.122  0.1945 -0.0353  0.5283
 4144SOL    HW112957   2.319   4.481   2.186  1.1760 -0.2873 -0.5231
 4144SOL    HW212958   2.172   4.447   2.174  1.3593 -1.8626  1.3378
 4145SOL     OW12959   1.909   7.091   3.284 -0.1692 -0.2281 -0.1309
 4145SOL    HW112960   1.869   7.176   3.301 -1.7603 -1.3821  2.5596
 4145SOL    HW212961   1.938   7.060   3.370 -0.7922 -2.9412 -0.7909
 4146SOL     OW12962   4.493   0.487   6.238  0.0379 -0.0205 -0.1271
 4146SOL    HW112963   4.563   0.527   6.289  0.3706  0.3399 -0.8434
 4146SOL    HW212964   4.443   0.561   6.203 -0.7450 -0.2729  0.4256
 4147SOL     OW12965   6.130   3.666   7.459 -0.3208  0.4659  0.1157
 4147SOL    HW112966   6.091   3.708   7.535  0.6243  0.5309  0.5841
 4147SOL    HW212967   6.142   3.737   7.396  1.3339  0.9604  0.9299
 4148SOL     OW12968   2.921   3.354   3.779 -0.0970 -0.0192  0.0165
 4148SOL    HW112969   2.840   3.313   3.809  0.1646  0.7653  1.9400
 4148SOL    HW212970   2.928   3.328   3.687 -0.1883 -3.8772  0.9272
 4149SOL     OW12971   0.077   0.430   0.539  0.6280 -0.3365  0.2707
 4149SOL    HW112972   0.118   0.517   0.535  1.7322 -0.8951 -1.4551
 4149SOL    HW212973   0.150   0.369   0.551 -0.0707 -1.0813  0.8205
 4150SOL     OW12974   1.611   0.056   1.008  0.2846  0.2836 -0.3868
 4150SOL    HW112975   1.669   0.097   1.071  0.5387 -0.6819  0.0233
 4150SOL    HW212976   1.668   0.033   0.934  0.5283 -1.0113  0.1761
 4151SOL     OW12977   6.579   3.382   3.732 -0.3348 -0.3331  0.0486
 4151SOL    HW112978   6.562   3.398   3.825 -0.1448 -0.5282  0.1164
 4151SOL    HW212979   6.568   3.288   3.722 -0.8986 -0.2438 -0.2404
 4152SOL     OW12980   5.924   3.495   1.462  0.5044 -0.2513 -0.1385
 4152SOL    HW112981   5.911   3.529   1.550  1.2038  3.2698 -1.2672
 4152SOL    HW212982   5.849   3.527   1.412  1.7874  0.7130 -1.5328
 4153SOL     OW12983   5.526   6.729   5.224 -0.2947  0.1051 -0.6101
 4153SOL    HW112984   5.573   6.702   5.303 -0.5163  1.5050  0.0324
 4153SOL    HW212985   5.434   6.731   5.251 -0.2446  2.0257 -0.4211
 4154SOL     OW12986   3.486   4.481   3.076  0.3189  0.1931  0.6112
 4154SOL    HW112987   3.441   4.419   3.133 -0.6275 -0.6085 -0.9268
 4154SOL    HW212988   3.416   4.518   3.021  1.4521 -1.1269 -1.8876
 4155SOL     OW12989   0.204   4.888   1.750 -0.0655 -0.1808 -0.4677
 4155SOL    HW112990   0.194   4.801   1.787 -0.1002 -0.1742 -0.4606
 4155SOL    HW212991   0.224   4.944   1.824  1.7180 -0.4614 -0.6909
 4156SOL     OW12992   0.322   7.007   0.150 -0.3914  0.1801  0.0513
 4156SOL    HW112993   0.353   7.043   0.234  0.2429 -0.9296  0.3135
 4156SOL    HW212994   0.344   7.075   0.086  1.3209  0.0644  0.4471
 4157SOL     OW12995   4.920   1.123   0.337  0.0122  0.1653 -0.3643
 4157SOL    HW112996   4.899   1.085   0.251 -2.5864  0.1964  0.1577
 4157SOL    HW212997   4.940   1.215   0.318  0.7813 -0.1399 -1.0622
 4158SOL     OW12998   7.427   1.291   5.643 -0.1205  0.0306  1.0435
 4158SOL    HW112999   7.469   1.214   5.679 -0.5736 -0.5825  0.2913
 4158SOL    HW213000   7.333   1.275   5.653 -0.2302  0.2617  0.4553
 4159SOL     OW13001   5.414   0.993   5.025  0.1659  0.7875 -0.0620
 4159SOL    HW113002   5.451   1.076   4.996 -2.6645  2.0675 -0.3406
 4159SOL    HW213003   5.337   0.981   4.970  0.1713 -1.7948  0.3487
 4160SOL     OW13004   3.079   1.949   5.291  0.3159  0.6057 -0.0712
 4160SOL    HW113005   3.132   1.960   5.213  0.2182  0.5097 -0.1510
 4160SOL    HW213006   3.062   2.038   5.321 -2.5921  0.8916 -2.1373
 4161SOL     OW13007   2.554   6.244   2.498 -0.2180 -0.0885  0.8915
 4161SOL    HW113008   2.594   6.287   2.574 -2.5698  3.2073  0.4544
 4161SOL    HW213009   2.460   6.253   2.512 -0.7372  0.5919 -2.3515
 4162SOL     OW13010   6.925   4.811   6.477 -0.2088  0.6520  0.3027
 4162SOL    HW113011   6.894   4.726   6.444  1.4929  0.1372 -0.0735
 4162SOL    HW213012   6.859   4.873   6.448 -0.6190 -0.3108 -0.9134
 4163SOL     OW13013   7.367   2.236   2.276  0.5573 -0.3915  0.3482
 4163SOL    HW113014   7.296   2.187   2.234 -0.7163  0.4538  1.4264
 4163SOL    HW213015   7.437   2.239   2.210 -0.6484 -0.6937 -0.9905
 4164SOL     OW13016   6.991   4.389   3.753  0.3449 -0.3465 -0.5762
 4164SOL    HW113017   6.985   4.453   3.824 -1.5676 -0.8186 -0.2500
 4164SOL    HW213018   7.058   4.424   3.695  2.7434 -0.4672  1.9426
 4165SOL     OW13019   0.652   6.171   0.052 -0.2162 -0.3072  0.5939
 4165SOL    HW113020   0.597   6.243   0.021  0.7733 -0.9054 -2.9733
 4165SOL    HW213021   0.593   6.097   0.060 -0.6685  0.1032  1.1198
 4166SOL     OW13022   2.473   4.934   0.194 -0.5476  1.0044 -0.3300
 4166SOL    HW113023   2.501   4.888   0.115  0.4277  1.8445 -0.4929
 4166SOL    HW213024   2.415   5.003   0.163 -0.5136  1.0628 -0.2631
 4167SOL     OW13025   4.750   3.344   5.212  0.1031 -0.1989 -0.1247
 4167SOL    HW113026   4.663   3.330   5.251  0.6412 -0.5150  1.0113
 4167SOL    HW213027   4.795   3.261   5.225  0.5882 -0.0222 -0.6712
 4168SOL     OW13028   0.286   6.222   5.214  0.7032 -0.4522  0.0230
 4168SOL    HW113029   0.324   6.149   5.263  2.2542  0.8029  0.7594
 4168SOL    HW213030   0.361   6.275   5.187 -0.2704  0.0641 -1.8641
 4169SOL     OW13031   0.800   4.419   7.047  0.0687 -0.1499 -0.1793
 4169SOL    HW113032   0.772   4.350   6.986 -0.8514 -1.3101  1.4933
 4169SOL    HW213033   0.721   4.443   7.094  0.8830  0.2656  1.0177
 4170SOL     OW13034   6.854   1.980   6.099 -0.2316  0.1485  0.6665
 4170SOL    HW113035   6.949   1.968   6.100 -0.1553  0.7366  0.6929
 4170SOL    HW213036   6.827   1.960   6.189 -0.3727 -1.7988  0.2290
 4171SOL     OW13037   4.843   4.874   6.031  0.0188 -0.2401 -0.1840
 4171SOL    HW113038   4.855   4.967   6.012 -1.9994 -0.1845 -1.5699
 4171SOL    HW213039   4.911   4.853   6.095  1.0536  1.9725 -0.4688
 4172SOL     OW13040   5.514   2.568   7.375  0.7297  0.1181  0.2721
 4172SOL    HW113041   5.435   2.566   7.430  1.9352 -1.4647  2.0617
 4172SOL    HW213042   5.484   2.537   7.289 -0.5784 -0.5954  0.9522
 4173SOL     OW13043   6.502   4.544   6.939  0.4486 -0.2722 -0.3632
 4173SOL    HW113044   6.527   4.611   6.875 -2.4418 -0.2656 -1.6630
 4173SOL    HW213045   6.506   4.462   6.889 -2.6321 -0.1806 -0.9961
 4174SOL     OW13046   4.204   6.396   2.288 -0.5122  0.0935 -0.0533
 4174SOL    HW113047   4.262   6.451   2.340 -0.1216 -0.0996 -0.2845
 4174SOL    HW213048   4.134   6.371   2.349 -0.5619  0.6361  0.1220
 4175SOL     OW13049   5.921   5.878   2.970 -0.2055  0.2955 -0.1744
 4175SOL    HW113050   5.939   5.806   3.030  1.2214 -0.5360 -1.5536
 4175SOL    HW213051   5.826   5.877   2.960 -0.2027 -1.5643 -0.3452
 4176SOL     OW13052   3.644   4.983   4.272 -0.4304 -0.4368 -0.4804
 4176SOL    HW113053   3.613   4.924   4.203 -2.9906 -1.5493  1.4405
 4176SOL    HW213054   3.670   4.924   4.344  1.4295  0.7028 -0.1533
 4177SOL     OW13055   5.043   1.654   3.926 -0.2359 -0.5261 -0.0038
 4177SOL    HW113056   5.070   1.741   3.899 -1.5174 -0.1437 -0.0872
 4177SOL    HW213057   5.088   1.595   3.865  0.7965  0.0499  0.1833
 4178SOL     OW13058   3.847   0.814   6.898  0.0068  0.0671  0.5961
 4178SOL    HW113059   3.816   0.875   6.831  1.4030 -0.8181 -0.9375
 4178SOL    HW213060   3.781   0.745   6.900  0.2836 -0.2520 -0.4230
 4179SOL     OW13061   3.245   6.886   3.373  0.4475 -0.3450 -0.2351
 4179SOL    HW113062   3.178   6.889   3.442  0.0649  0.0645 -0.6273
 4179SOL    HW213063   3.298   6.963   3.388  2.1460 -1.7224  1.3746
 4180SOL     OW13064   6.271   2.927   6.238 -0.2641  0.2243  0.8290
 4180SOL    HW113065   6.212   2.851   6.240 -0.2638  0.2159  0.5440
 4180SOL    HW213066   6.339   2.906   6.303 -0.4574  0.1398  1.0065
 4181SOL     OW13067   0.818   4.817   4.408 -0.6472  0.0648 -0.1465
 4181SOL    HW113068   0.847   4.904   4.382 -1.9885 -0.1011 -2.4972
 4181SOL    HW213069   0.783   4.828   4.496  1.7902  1.2616  0.7548
 4182SOL     OW13070   6.667   0.501   7.558  0.2525  0.1311  0.2720
 4182SOL    HW113071   6.582   0.492   7.602  1.2202  1.2062  2.4758
 4182SOL    HW213072   6.664   0.588   7.519  1.1910  1.2155  2.4580
 4183SOL     OW13073   0.072   3.779   0.837  0.2002 -0.3516  0.5069
 4183SOL    HW113074   0.026   3.859   0.814  1.8527  0.9840  1.5417
 4183SOL    HW213075   0.157   3.787   0.794 -0.3950 -2.7227 -1.3427
 4184SOL     OW13076   3.130   4.782   1.195 -0.1566 -0.5055 -0.3675
 4184SOL    HW113077   3.192   4.716   1.225 -0.9633 -1.0209  0.2339
 4184SOL    HW213078   3.045   4.750   1.224 -0.5714  0.8277 -0.0098
 4185SOL     OW13079   3.600   4.335   1.817 -0.2752  0.5597  0.1646
 4185SOL    HW113080   3.606   4.256   1.871 -2.3486 -0.1890 -0.5598
 4185SOL    HW213081   3.583   4.406   1.879 -0.7861  0.0201  0.6545
 4186SOL     OW13082   1.185   7.353   2.265  0.1222  0.0827  0.2367
 4186SOL    HW113083   1.196   7.260   2.282  2.0058  0.6760  2.9606
 4186SOL    HW213084   1.165   7.391   2.351  2.4335  2.5026 -0.1438
 4187SOL     OW13085   4.983   0.222   7.429 -0.2349  0.1466 -0.1475
 4187SOL    HW113086   5.038   0.238   7.352  0.9996 -0.1166  0.6439
 4187SOL    HW213087   4.903   0.182   7.394  0.1578  0.3414 -1.3113
 4188SOL     OW13088   0.135   7.248   3.693 -0.9767 -0.4989 -0.7615
 4188SOL    HW113089   0.203   7.309   3.719  0.6127 -2.8624  1.0534
 4188SOL    HW213090   0.053   7.292   3.714  0.0484  1.4923 -0.7818
 4189SOL     OW13091   7.102   1.960   6.048 -0.1997 -0.1672  0.4235
 4189SOL    HW113092   7.164   1.980   5.979 -0.4040 -0.8051  0.0398
 4189SOL    HW213093   7.153   1.912   6.113  0.3220  1.6341  1.4087
 4190SOL     OW13094   3.789   2.750   5.963  0.0274  0.3719 -0.6705
 4190SOL    HW113095   3.770   2.699   5.884 -1.0803 -0.4895  0.1155
 4190SOL    HW213096   3.721   2.817   5.965  0.2167  0.5624 -0.5789
 4191SOL     OW13097   6.211   4.715   6.728  0.4938 -0.4531 -0.5581
 4191SOL    HW113098   6.132   4.674   6.693  1.1470 -0.5305 -2.0001
 4191SOL    HW213099   6.239   4.656   6.799 -0.2758 -0.8518 -0.5713
 4192SOL     OW13100   6.509   3.056   1.922  0.1153  0.3971  0.2175
 4192SOL    HW113101   6.493   3.137   1.873 -0.2838  0.3747  0.3045
 4192SOL    HW213102   6.598   3.066   1.956  1.1660 -0.4191 -2.0830
 4193SOL     OW13103   0.556   5.338   0.201 -0.2108 -0.4139  0.2583
 4193SOL    HW113104   0.547   5.414   0.144  0.7011 -0.1114  0.5048
 4193SOL    HW213105   0.540   5.263   0.144 -0.0744 -0.0812 -0.2241
 4194SOL     OW13106   3.878   5.074   5.986 -0.2905 -0.4187 -0.3542
 4194SOL    HW113107   3.847   5.163   5.968  0.0651 -0.6626 -2.3919
 4194SOL    HW213108   3.830   5.019   5.924  0.5300 -1.4671 -0.0950
 4195SOL     OW13109   0.481   6.817   2.321  0.3524  0.2219 -0.6408
 4195SOL    HW113110   0.428   6.744   2.354 -2.4568  2.1896 -0.4608
 4195SOL    HW213111   0.500   6.794   2.230 -2.2100  0.0916 -1.2009
 4196SOL     OW13112   7.356   4.780   7.566  0.1479  0.3618 -0.3002
 4196SOL    HW113113   7.419   4.842   7.604 -1.1584  0.6831  1.4769
 4196SOL    HW213114   7.273   4.828   7.565 -0.4391 -0.6378 -0.9316
 4197SOL     OW13115   0.635   3.768   4.995  0.0843  0.1459  0.3046
 4197SOL    HW113116   0.592   3.700   4.944  1.1276 -1.3231  1.3154
 4197SOL    HW213117   0.670   3.723   5.072  0.0772  1.9763  1.4492
 4198SOL     OW13118   3.947   5.330   5.235  0.2155 -0.0665 -0.3116
 4198SOL    HW113119   3.869   5.349   5.287 -0.4049  0.4115 -1.3808
 4198SOL    HW213120   4.017   5.321   5.299 -0.5023  0.6311  0.5980
 4199SOL     OW13121   2.843   6.786   5.998  0.5056  0.3761  0.3812
 4199SOL    HW113122   2.785   6.823   6.064 -1.2243  0.2832 -1.0364
 4199SOL    HW213123   2.835   6.843   5.922  0.3803 -0.9752 -0.6726
 4200SOL     OW13124   6.012   5.637   5.381  0.0863 -0.4345  0.0955
 4200SOL    HW113125   6.052   5.554   5.355 -0.4899 -0.8953  0.6750
 4200SOL    HW213126   5.919   5.626   5.360  0.4029  1.2136 -2.7803
 4201SOL     OW13127   3.855   7.515   5.871 -0.4376 -0.3291  0.8494
 4201SOL    HW113128   3.762   7.520   5.894 -1.3154 -0.2656 -2.1712
 4201SOL    HW213129   3.867   7.426   5.839 -0.5254  0.6039 -2.1819
 4202SOL     OW13130   0.156   0.039   5.899  0.5263  0.0770  0.7776
 4202SOL    HW113131   0.187   0.127   5.918  0.6917  0.1781  0.0567
 4202SOL    HW213132   0.064   0.040   5.926  0.7668  0.1929  1.6104
 4203SOL     OW13133   4.317   6.935   6.366  0.1473 -0.6852  0.2189
 4203SOL    HW113134   4.334   6.842   6.356  0.8724 -0.6490  0.9274
 4203SOL    HW213135   4.309   6.947   6.461  1.0842  0.1174  0.2189
 4204SOL     OW13136   4.173   4.617   7.384 -0.0615  0.6308 -0.3050
 4204SOL    HW113137   4.204   4.696   7.428  0.1219  1.4744 -1.8982
 4204SOL    HW213138   4.204   4.625   7.294 -2.5683  0.2283 -1.2921
 4205SOL     OW13139   2.362   1.502   3.595 -0.1927 -0.4072  0.1142
 4205SOL    HW113140   2.320   1.572   3.645 -0.3348 -0.6565  0.3534
 4205SOL    HW213141   2.423   1.462   3.658  2.0971  1.3667 -0.8498
 4206SOL     OW13142   4.350   5.416   0.275 -0.3297  0.1170  0.2736
 4206SOL    HW113143   4.276   5.384   0.325  0.4908 -2.1461  0.1507
 4206SOL    HW213144   4.354   5.510   0.295 -0.9510 -0.3944  3.2140
 4207SOL     OW13145   1.541   3.753   4.860 -0.1500 -0.2682  0.3229
 4207SOL    HW113146   1.556   3.754   4.765 -1.0343 -1.0312  0.1674
 4207SOL    HW213147   1.629   3.758   4.898  0.1637  1.3183 -0.5087
 4208SOL     OW13148   6.063   3.822   1.229 -0.4524 -0.3484 -0.2268
 4208SOL    HW113149   6.071   3.739   1.277 -0.7111 -0.1977  0.0797
 4208SOL    HW213150   6.153   3.855   1.222 -0.3246 -0.7462 -0.5180
 4209SOL     OW13151   7.080   0.571   1.621  0.4326 -0.2174  0.1693
 4209SOL    HW113152   7.052   0.615   1.541  0.7869  0.0743  0.1995
 4209SOL    HW213153   7.110   0.485   1.592  1.6979  0.3184 -0.1983
 4210SOL     OW13154   0.331   5.404   2.528  0.0811  0.3461 -0.2183
 4210SOL    HW113155   0.338   5.486   2.576 -0.2055  0.3233 -0.1365
 4210SOL    HW213156   0.404   5.407   2.466  0.2574  0.5215 -0.0066
 4211SOL     OW13157   0.957   4.606   0.054 -0.0363 -0.2054  0.3911
 4211SOL    HW113158   0.884   4.562   0.011  0.1084  0.0369 -0.1239
 4211SOL    HW213159   0.975   4.682  -0.003 -0.2752  0.5106  1.2538
 4212SOL     OW13160   5.457   0.012   1.919  0.2983 -0.2745 -0.2523
 4212SOL    HW113161   5.482   0.078   1.854 -0.5684 -1.1163 -1.4967
 4212SOL    HW213162   5.472  -0.072   1.874 -0.7827 -0.8655  0.4448
 4213SOL     OW13163   6.354   0.912   7.370  0.2640  0.1944 -0.5079
 4213SOL    HW113164   6.281   0.900   7.430 -0.1415 -1.3916 -1.2840
 4213SOL    HW213165   6.329   0.987   7.316 -0.3807  0.2094 -0.1926
 4214SOL     OW13166   4.624   4.849   5.891 -0.5219  0.1787  0.5099
 4214SOL    HW113167   4.714   4.849   5.922 -0.9015  0.3135  1.6613
 4214SOL    HW213168   4.583   4.775   5.935 -1.5939  1.5576  1.9416
 4215SOL     OW13169   7.105   6.659   0.133  0.2281 -0.4449 -0.6239
 4215SOL    HW113170   7.040   6.699   0.074 -0.9697  0.9749  1.5203
 4215SOL    HW213171   7.141   6.732   0.182  1.7418 -1.5071 -0.0898
 4216SOL     OW13172   4.228   2.184   6.121 -0.1090 -0.0222  0.1533
 4216SOL    HW113173   4.313   2.218   6.092  0.2739 -0.3377  0.8784
 4216SOL    HW213174   4.181   2.165   6.040  0.7857 -0.5133 -0.2587
 4217SOL     OW13175   2.131   5.965   3.782 -0.1176  0.5922  0.5337
 4217SOL    HW113176   2.038   5.948   3.796 -0.6866  1.4987 -1.6545
 4217SOL    HW213177   2.158   5.898   3.719  0.7029  0.4060  1.0640
 4218SOL     OW13178   6.584   5.760   6.048  0.2084  0.5030 -0.9640
 4218SOL    HW113179   6.491   5.768   6.070  0.0757  2.1571 -1.9549
 4218SOL    HW213180   6.598   5.666   6.035 -0.5415 -0.1828  2.2524
 4219SOL     OW13181   0.284   7.479   4.207  0.1853  0.3129  0.7295
 4219SOL    HW113182   0.302   7.564   4.245 -1.3860  0.2164  1.7902
 4219SOL    HW213183   0.200   7.452   4.246 -0.6373 -0.5901 -1.4721
 4220SOL     OW13184   5.506   7.103   2.366 -0.1243 -0.3386 -0.3860
 4220SOL    HW113185   5.433   7.096   2.427  0.7829 -2.0622  0.5772
 4220SOL    HW213186   5.543   7.190   2.381 -0.6549 -0.2892  0.6630
 4221SOL     OW13187   6.868   5.871   6.593  0.3529 -0.0988  0.8594
 4221SOL    HW113188   6.918   5.934   6.645  0.0759  0.3018  0.6455
 4221SOL    HW213189   6.794   5.847   6.648 -0.7903  1.4888  0.0918
 4222SOL     OW13190   7.192   0.857   5.482 -0.5864 -0.6910 -0.5028
 4222SOL    HW113191   7.241   0.936   5.503  0.1723 -1.4403  0.6423
 4222SOL    HW213192   7.103   0.888   5.465 -0.1400  0.4766 -0.7937
 4223SOL     OW13193   2.655   1.166   3.829 -0.1701 -0.2978 -0.6081
 4223SOL    HW113194   2.730   1.148   3.772  0.5871 -0.9967  0.5797
 4223SOL    HW213195   2.682   1.135   3.915 -1.4016  0.4844  0.0860
 4224SOL     OW13196   1.225   3.899   6.673 -0.1867  0.1584  0.6961
 4224SOL    HW113197   1.145   3.902   6.725 -0.3460 -2.1354  0.7082
 4224SOL    HW213198   1.195   3.879   6.584  0.3067  0.5663  0.4318
 4225SOL     OW13199   1.676   0.584   1.448 -0.0213 -0.7156  0.0096
 4225SOL    HW113200   1.650   0.495   1.421  1.7121 -2.0788  2.4154
 4225SOL    HW213201   1.632   0.597   1.532 -0.2390  0.7293 -0.3095
 4226SOL     OW13202   1.785   6.470   3.428  0.1704  0.6444 -0.1530
 4226SOL    HW113203   1.736   6.512   3.499 -0.3316  0.7780 -0.5768
 4226SOL    HW213204   1.867   6.442   3.469 -1.4652 -2.3789  1.3648
 4227SOL     OW13205   6.902   0.690   7.456  0.5131 -0.1768 -0.3447
 4227SOL    HW113206   6.884   0.606   7.498  2.1958 -2.0175 -2.9426
 4227SOL    HW213207   6.979   0.724   7.503 -1.0002  0.6958  1.6191
 4228SOL     OW13208   7.372   5.878   7.007 -0.3129 -0.7323 -0.6463
 4228SOL    HW113209   7.311   5.804   6.996  0.9339 -1.8717 -0.2309
 4228SOL    HW213210   7.456   5.844   6.977  0.9516 -0.5039  2.2729
 4229SOL     OW13211   6.322   6.077   1.425 -0.3033  0.0330 -0.6990
 4229SOL    HW113212   6.306   6.106   1.335  0.4274 -1.6195 -1.3964
 4229SOL    HW213213   6.408   6.113   1.447 -1.1548  1.7931 -0.0253
 4230SOL     OW13214   2.734   1.030   5.072 -0.1966 -0.6378 -0.0176
 4230SOL    HW113215   2.676   0.957   5.051 -0.9619 -0.3181  0.9264
 4230SOL    HW213216   2.687   1.080   5.138  0.2927  0.7619 -0.6919
 4231SOL     OW13217   4.464   4.856   6.972 -0.3379 -0.4258  0.2377
 4231SOL    HW113218   4.489   4.866   6.880  0.0759  0.1864  0.4113
 4231SOL    HW213219   4.389   4.914   6.983  1.5096  1.9543  1.0211
 4232SOL     OW13220   0.608   1.441   0.654  0.0142 -0.1673 -0.1809
 4232SOL    HW113221   0.573   1.519   0.612 -0.5453 -0.5700 -0.4702
 4232SOL    HW213222   0.690   1.470   0.693  1.0415 -0.0049 -2.3408
 4233SOL     OW13223   0.769   3.102   2.967 -0.0217  0.1117  0.1427
 4233SOL    HW113224   0.783   3.156   2.889  0.8541 -1.5252 -0.8890
 4233SOL    HW213225   0.675   3.083   2.967  0.0701 -0.3962 -0.9000
 4234SOL     OW13226   1.936   0.538   6.248  0.0711 -0.1217  0.1327
 4234SOL    HW113227   1.856   0.582   6.220  1.0336  1.3956 -0.3770
 4234SOL    HW213228   1.976   0.508   6.166 -0.6254 -2.1254  0.4781
 4235SOL     OW13229   2.340   1.579   2.393 -0.1863  0.1326 -0.3560
 4235SOL    HW113230   2.320   1.577   2.300  2.2658 -0.2646 -0.9417
 4235SOL    HW213231   2.323   1.490   2.424  0.2322 -0.0744 -0.7204
 4236SOL     OW13232   5.523   4.478   0.766  0.0538 -0.1903 -0.0468
 4236SOL    HW113233   5.428   4.485   0.771  0.0980 -0.2583  0.9803
 4236SOL    HW213234   5.544   4.398   0.815  0.5393 -0.9257 -1.3793
 4237SOL     OW13235   0.228   1.838   5.595  0.0100  0.2713  0.1968
 4237SOL    HW113236   0.203   1.871   5.681  0.3106  1.8934 -0.3042
 4237SOL    HW213237   0.150   1.850   5.542 -0.0482 -0.3498  0.1423
 4238SOL     OW13238   6.211   2.233   5.393  0.1317 -0.0258  0.1846
 4238SOL    HW113239   6.128   2.251   5.348  0.2167  0.9991  0.3969
 4238SOL    HW213240   6.251   2.320   5.404  1.1760 -0.4928  0.2005
 4239SOL     OW13241   1.668   0.592   6.888 -0.0985 -0.1142  0.1674
 4239SOL    HW113242   1.631   0.547   6.812 -1.3923 -0.6688  1.0905
 4239SOL    HW213243   1.688   0.680   6.856 -2.1163  0.1679 -0.4472
 4240SOL     OW13244   6.087   6.289   4.957 -0.5507  0.0273 -0.2909
 4240SOL    HW113245   6.073   6.282   4.863 -0.4145 -0.4979 -0.2768
 4240SOL    HW213246   6.181   6.307   4.966 -0.1197 -2.0223 -0.1952
 4241SOL     OW13247   1.895   3.453   7.330 -0.4311  0.1920 -0.4627
 4241SOL    HW113248   1.871   3.499   7.410 -2.5116 -1.3605 -0.1285
 4241SOL    HW213249   1.893   3.520   7.262  1.5762  1.5782  0.7328
 4242SOL     OW13250   4.626   3.626   3.126  0.0572 -0.7189 -0.4375
 4242SOL    HW113251   4.719   3.606   3.112 -0.2795 -3.8155  0.8037
 4242SOL    HW213252   4.624   3.675   3.209  0.6441  0.4955 -1.1255
 4243SOL     OW13253   2.957   7.175   6.731 -0.0942 -0.3174 -0.1657
 4243SOL    HW113254   2.966   7.269   6.746  1.0721 -0.7277  2.2890
 4243SOL    HW213255   3.046   7.141   6.744 -1.2526 -2.3135  4.5784
 4244SOL     OW13256   3.309   0.000   6.509  0.3163 -0.1290  0.2972
 4244SOL    HW113257   3.291  -0.094   6.508 -1.0431 -0.0095  3.1144
 4244SOL    HW213258   3.403   0.007   6.525  0.6854 -0.9258 -1.2837
 4245SOL     OW13259   5.860   3.624   6.686 -0.0692 -0.0735  0.0663
 4245SOL    HW113260   5.788   3.687   6.688  1.3008  1.6863 -1.6701
 4245SOL    HW213261   5.855   3.585   6.598  2.1094  1.4746 -0.8471
 4246SOL     OW13262   0.703   5.413   1.125 -0.4802  0.4607 -0.2299
 4246SOL    HW113263   0.756   5.486   1.157 -1.7731  1.4602 -0.3115
 4246SOL    HW213264   0.624   5.415   1.178 -0.4509 -1.0506 -0.0641
 4247SOL     OW13265   5.682   1.960   4.298 -0.4142 -0.2248  0.1444
 4247SOL    HW113266   5.741   1.905   4.247 -0.7956 -0.8889  0.4032
 4247SOL    HW213267   5.689   1.925   4.387  0.8445  1.4082  0.7469
 4248SOL     OW13268   5.400   3.210   4.721 -0.1020  0.7133  0.0249
 4248SOL    HW113269   5.380   3.150   4.649  4.0051 -0.9677 -0.0130
 4248SOL    HW213270   5.423   3.293   4.677 -1.1519  0.8761 -0.2563
 4249SOL     OW13271   0.537   1.746   0.572 -0.9782  0.3945 -0.1506
 4249SOL    HW113272   0.503   1.784   0.653 -0.1881  0.3035  0.2354
 4249SOL    HW213273   0.625   1.784   0.563 -1.2871  0.8923 -1.3026
 4250SOL     OW13274   4.240   0.964   7.159  0.5601  0.0277  0.7198
 4250SOL    HW113275   4.211   0.888   7.209  2.6327 -2.4934 -1.6009
 4250SOL    HW213276   4.194   0.957   7.075  1.8947  0.3773 -0.0840
 4251SOL     OW13277   6.533   6.970   1.441  0.1215 -0.1262 -0.4601
 4251SOL    HW113278   6.557   6.878   1.448  1.1675  0.2060  0.8104
 4251SOL    HW213279   6.617   7.016   1.434 -0.3802  0.7446 -1.0635
 4252SOL     OW13280   1.013   7.465   5.300  0.1136  0.0044  0.0163
 4252SOL    HW113281   1.069   7.501   5.369  0.7313 -0.0509 -0.4534
 4252SOL    HW213282   0.986   7.379   5.334  0.0493  0.1672  0.3815
 4253SOL     OW13283   5.097   2.405   5.343 -0.1312 -0.4922  0.4479
 4253SOL    HW113284   5.126   2.329   5.395  0.3335 -1.0605 -0.6029
 4253SOL    HW213285   5.004   2.416   5.366 -0.5042 -2.0697 -0.1661
 4254SOL     OW13286   0.914   3.456   5.788 -0.7197 -1.1483 -0.4952
 4254SOL    HW113287   0.931   3.369   5.754 -0.0136 -2.1744  2.2020
 4254SOL    HW213288   1.000   3.489   5.815 -0.9177  0.5689 -1.8035
 4255SOL     OW13289   4.025   5.659   5.162  0.1710 -0.3005  0.2001
 4255SOL    HW113290   3.933   5.645   5.138  0.2779 -0.2243 -0.2716
 4255SOL    HW213291   4.056   5.572   5.189  0.1013 -0.4389 -0.1522
 4256SOL     OW13292   5.928   2.790   0.952  0.1955 -0.1176  0.4503
 4256SOL    HW113293   5.870   2.726   0.993  0.1263  0.3942  1.1738
 4256SOL    HW213294   6.016   2.760   0.973  0.1662 -0.1498  0.5287
 4257SOL     OW13295   4.787   2.096   3.141 -1.0386  0.4491  0.0868
 4257SOL    HW113296   4.870   2.089   3.189 -0.3681  1.4992 -0.8865
 4257SOL    HW213297   4.809   2.144   3.062 -2.4952  0.2987 -0.4321
 4258SOL     OW13298   6.189   7.086   5.914 -0.1606  0.8636  0.1412
 4258SOL    HW113299   6.203   7.041   5.998  1.6488  1.7687  0.3921
 4258SOL    HW213300   6.098   7.068   5.892 -0.5230  0.1091  2.0125
 4259SOL     OW13301   3.056   5.239   4.693 -0.0551  0.3575 -0.0817
 4259SOL    HW113302   3.111   5.180   4.744 -0.9509 -0.0949  0.3839
 4259SOL    HW213303   3.036   5.311   4.753  1.1616  1.2395 -0.6958
 4260SOL     OW13304   5.648   2.040   2.268 -0.3227  1.0088  0.1011
 4260SOL    HW113305   5.627   2.099   2.341  1.2971 -0.9676  2.3145
 4260SOL    HW213306   5.727   1.995   2.295  1.1395  1.0633 -3.5382
 4261SOL     OW13307   4.015   0.595   6.057 -0.2885 -0.1137  0.2340
 4261SOL    HW113308   3.961   0.671   6.080 -0.4273 -0.9042  2.8534
 4261SOL    HW213309   3.954   0.521   6.059  0.3941 -0.6749  0.6728
 4262SOL     OW13310   3.908   6.686   1.141  0.2334  0.0397 -0.1038
 4262SOL    HW113311   3.935   6.743   1.213 -0.5825  1.0466 -0.5768
 4262SOL    HW213312   3.821   6.655   1.167  0.0550  0.1883 -0.5286
 4263SOL     OW13313   2.697   2.225   5.107  0.2445  0.2226  0.1451
 4263SOL    HW113314   2.673   2.132   5.103  1.0884 -0.1222  2.0473
 4263SOL    HW213315   2.789   2.227   5.080  0.0543  0.5894 -0.4741
 4264SOL     OW13316   5.164   5.111   7.068 -0.3685 -0.1159  0.2086
 4264SOL    HW113317   5.226   5.128   6.998 -0.5276 -1.8714 -0.4038
 4264SOL    HW213318   5.081   5.147   7.037 -0.6257 -1.5655 -0.9095
 4265SOL     OW13319   4.736   5.866   6.301  0.0679 -0.0293 -0.0141
 4265SOL    HW113320   4.672   5.931   6.271 -0.8055 -0.8091  0.1288
 4265SOL    HW213321   4.800   5.862   6.230 -1.1933 -0.7926 -1.1556
 4266SOL     OW13322   7.300   6.787   1.212 -0.1308  0.2071 -0.2418
 4266SOL    HW113323   7.291   6.804   1.306 -2.6505 -1.5706 -0.0700
 4266SOL    HW213324   7.294   6.874   1.172  2.7690  1.2374  1.2030
 4267SOL     OW13325   4.462   4.374   3.022 -0.9592  0.3895 -0.0573
 4267SOL    HW113326   4.519   4.313   2.974 -1.5781 -0.2681  0.0181
 4267SOL    HW213327   4.499   4.460   3.005  0.0993 -0.0309  0.0519
 4268SOL     OW13328   4.681   1.036   5.242 -0.2681  0.5235 -0.1291
 4268SOL    HW113329   4.595   1.069   5.217 -0.0543  1.3335  0.1752
 4268SOL    HW213330   4.705   0.974   5.173 -0.9798  0.4889 -0.3454
 4269SOL     OW13331   4.937   5.110   1.061 -0.1305  0.3367 -0.1561
 4269SOL    HW113332   4.934   5.125   0.967 -1.6229  0.2534 -0.1323
 4269SOL    HW213333   4.951   5.016   1.070  0.2482  0.3778 -0.2833
 4270SOL     OW13334   0.902   6.521   6.341  0.4254  0.2557 -0.5662
 4270SOL    HW113335   0.953   6.481   6.411 -0.0978 -0.3309 -0.5127
 4270SOL    HW213336   0.958   6.515   6.264  0.1990 -0.9858 -0.6584
 4271SOL     OW13337   0.883   1.327   1.381 -0.4250 -0.2342 -0.0750
 4271SOL    HW113338   0.911   1.269   1.310 -0.3449 -0.5563  0.2159
 4271SOL    HW213339   0.792   1.348   1.360  0.7844  3.3344 -2.7340
 4272SOL     OW13340   7.059   2.809   1.474  0.5287 -0.1567 -0.3561
 4272SOL    HW113341   7.073   2.827   1.567 -1.6785 -0.4461  0.0961
 4272SOL    HW213342   7.082   2.716   1.464 -0.1142 -0.3793  0.1321
 4273SOL     OW13343   5.968   5.643   3.107 -0.2274 -0.0619 -0.2641
 4273SOL    HW113344   6.007   5.593   3.035  0.0994 -2.5207  1.5182
 4273SOL    HW213345   5.994   5.596   3.186 -2.5646  1.1849  1.3515
 4274SOL     OW13346   2.480   6.046   5.422  0.0159  0.0888 -0.3564
 4274SOL    HW113347   2.433   6.129   5.432  1.1280  0.6050  0.9670
 4274SOL    HW213348   2.572   6.069   5.434  0.4165 -1.2342 -0.7097
 4275SOL     OW13349   5.424   3.556   1.435  0.5374  0.2807 -0.2234
 4275SOL    HW113350   5.370   3.478   1.433  0.2044  0.5324 -1.4755
 4275SOL    HW213351   5.502   3.530   1.485 -1.0313  0.1509  2.3560
 4276SOL     OW13352   2.946   5.051   5.015 -0.0709  0.4914  0.0150
 4276SOL    HW113353   2.879   5.014   5.072 -0.4359 -0.0374 -0.7390
 4276SOL    HW213354   2.971   5.133   5.058 -2.2627  1.4733 -0.4189
 4277SOL     OW13355   3.774   1.317   3.113 -0.0719  0.3489  0.0842
 4277SOL    HW113356   3.700   1.305   3.173  0.9797  1.0364  1.5761
 4277SOL    HW213357   3.827   1.386   3.153  1.6594 -0.4879 -0.6486
 4278SOL     OW13358   0.439   6.843   0.889  0.6326 -0.1153 -0.1679
 4278SOL    HW113359   0.403   6.926   0.919 -0.9961 -1.2130  1.1462
 4278SOL    HW213360   0.372   6.779   0.911  1.9824 -1.8343 -0.8161
 4279SOL     OW13361   2.250   0.002   5.305  0.6797  0.4389 -0.7262
 4279SOL    HW113362   2.281   0.085   5.342  0.8293  0.6638 -1.3434
 4279SOL    HW213363   2.306  -0.013   5.229  1.8229 -1.1183  0.3541
 4280SOL     OW13364   6.655   3.917   6.538  0.3581  0.1135 -0.4682
 4280SOL    HW113365   6.694   3.831   6.524 -1.3286 -0.8994  0.7122
 4280SOL    HW213366   6.561   3.902   6.533  0.0229  2.0769 -1.1186
 4281SOL     OW13367   6.154   6.958   6.868  0.5560 -0.4392  0.2496
 4281SOL    HW113368   6.097   7.008   6.809  0.7544  1.2077  1.4011
 4281SOL    HW213369   6.094   6.919   6.932  0.4108 -1.6704 -0.5972
 4282SOL     OW13370   0.951   4.565   6.236  0.4319 -0.6130  0.6269
 4282SOL    HW113371   0.875   4.520   6.273  0.1571 -0.4108  0.3113
 4282SOL    HW213372   0.993   4.606   6.312  0.1072 -0.5460  0.7721
 4283SOL     OW13373   4.898   5.737   3.794 -0.0545  1.3176 -0.4420
 4283SOL    HW113374   4.982   5.692   3.801 -0.8351  0.0330  1.6003
 4283SOL    HW213375   4.855   5.698   3.718 -0.7141 -1.5870  1.2830
 4284SOL     OW13376   1.586   4.523   6.893  0.1524 -0.1555  0.1559
 4284SOL    HW113377   1.556   4.437   6.922  0.6598 -0.9575 -1.5187
 4284SOL    HW213378   1.666   4.538   6.943 -0.7427  0.0608  1.5609
 4285SOL     OW13379   6.136   7.428   4.737  0.1379 -0.1433  0.2938
 4285SOL    HW113380   6.171   7.399   4.821 -0.3866 -0.1773  0.5038
 4285SOL    HW213381   6.059   7.372   4.722  0.4284 -0.3817 -0.3778
 4286SOL     OW13382   5.059   2.398   1.759  0.3148 -0.4314 -0.0034
 4286SOL    HW113383   5.119   2.444   1.817 -1.0014  0.6002  0.5936
 4286SOL    HW213384   5.025   2.466   1.701 -0.7376 -0.8597  0.0845
 4287SOL     OW13385   1.580   1.309   2.674 -0.2810  0.1916  0.0505
 4287SOL    HW113386   1.634   1.348   2.743  0.7533 -0.1676 -0.5427
 4287SOL    HW213387   1.636   1.308   2.597 -1.2453  0.0833 -0.6694
 4288SOL     OW13388   6.140   2.300   3.708 -0.0223  0.3639 -0.3965
 4288SOL    HW113389   6.165   2.208   3.720 -2.6780 -0.2174  1.6682
 4288SOL    HW213390   6.213   2.350   3.744  1.0195 -0.9454 -0.6181
 4289SOL     OW13391   5.334   7.384   3.601 -0.8645 -0.3456  0.2359
 4289SOL    HW113392   5.426   7.383   3.573  0.0513 -2.6902  2.8547
 4289SOL    HW213393   5.308   7.292   3.603 -3.3406  0.2642 -0.4669
 4290SOL     OW13394   7.045   5.359   1.248  0.4082 -0.3156  0.4020
 4290SOL    HW113395   7.019   5.364   1.339 -0.4395  0.8392  0.1220
 4290SOL    HW213396   6.981   5.301   1.207  0.4774 -0.4159  0.4349
 4291SOL     OW13397   5.168   0.786   4.328  0.1231  0.3885  0.0924
 4291SOL    HW113398   5.215   0.843   4.267  0.1876 -0.4296 -0.6492
 4291SOL    HW213399   5.236   0.751   4.386  0.1456  0.7110  0.2635
 4292SOL     OW13400   6.764   6.441   1.738 -0.3825  0.0459 -0.7755
 4292SOL    HW113401   6.849   6.481   1.749 -0.0933 -0.8453  0.4577
 4292SOL    HW213402   6.750   6.391   1.819 -3.0728  1.9745  0.1185
 4293SOL     OW13403   6.302   0.333   5.179  0.3321 -0.0541  0.4968
 4293SOL    HW113404   6.216   0.306   5.147 -3.1254  3.4674  5.2784
 4293SOL    HW213405   6.329   0.263   5.239 -2.4208  1.1427  3.4286
 4294SOL     OW13406   3.173   2.443   2.917  0.5441 -0.2115  0.0012
 4294SOL    HW113407   3.206   2.374   2.860 -0.3895 -0.6970  0.0325
 4294SOL    HW213408   3.134   2.507   2.858 -0.6538 -0.8390  0.0894
 4295SOL     OW13409   6.866   4.441   1.934 -0.1257 -0.0186 -0.0073
 4295SOL    HW113410   6.791   4.385   1.950 -0.1818  0.3102  0.9298
 4295SOL    HW213411   6.933   4.381   1.900  0.2362 -0.9254  2.1387
 4296SOL     OW13412   4.352   4.068   5.194 -0.2123  0.0600  0.7232
 4296SOL    HW113413   4.437   4.026   5.180 -0.8104 -1.1353  0.5494
 4296SOL    HW213414   4.361   4.113   5.278  0.0946 -1.4148  1.5075
 4297SOL     OW13415   4.089   2.206   6.404 -0.4047 -0.3729 -0.1669
 4297SOL    HW113416   4.140   2.209   6.323  1.7128 -3.0804  0.8944
 4297SOL    HW213417   4.037   2.126   6.396 -1.2398  0.0822  0.5648
 4298SOL     OW13418   5.933   1.221   2.680 -0.6018 -0.1687  0.1342
 4298SOL    HW113419   5.975   1.137   2.660  0.6421  0.1086  1.4207
 4298SOL    HW213420   5.995   1.266   2.738 -2.4913  0.4736  1.7510
 4299SOL     OW13421   0.922   5.948   0.539 -0.6948  0.1955  0.1722
 4299SOL    HW113422   0.883   6.016   0.484  1.2739 -1.9230 -4.4457
 4299SOL    HW213423   1.007   5.983   0.564  0.3667 -0.3982 -2.2958
 4300SOL     OW13424   7.147   2.365   4.710 -0.1427 -0.3672 -0.3043
 4300SOL    HW113425   7.196   2.426   4.654 -1.6591  1.1948 -0.0530
 4300SOL    HW213426   7.139   2.286   4.657  0.8536  0.0782 -1.1643
 4301SOL     OW13427   5.555   6.794   6.169 -0.3778 -0.1188  0.7255
 4301SOL    HW113428   5.618   6.749   6.112 -1.3495 -0.6239  0.0348
 4301SOL    HW213429   5.557   6.885   6.140 -0.1253 -0.1693  0.5757
 4302SOL     OW13430   6.738   6.512   7.055  0.1520  0.2189 -0.0561
 4302SOL    HW113431   6.810   6.574   7.040  0.9453 -0.6683 -0.0585
 4302SOL    HW213432   6.737   6.499   7.149 -0.1349  0.3933 -0.0379
 4303SOL     OW13433   0.989   4.061   0.364 -0.5078 -0.1587  0.7186
 4303SOL    HW113434   0.982   4.006   0.286  0.5181 -0.0178  0.5131
 4303SOL    HW213435   1.001   4.150   0.330 -1.3580  0.0942  1.0490
 4304SOL     OW13436   4.081   4.924   4.335  0.3389 -0.0560 -0.6596
 4304SOL    HW113437   4.020   4.904   4.264 -0.3962 -1.4731  0.3151
 4304SOL    HW213438   4.068   5.017   4.352 -0.6626 -0.0586 -1.3104
 4305SOL     OW13439   6.546   6.044   6.731  0.3779  0.1404 -0.5140
 4305SOL    HW113440   6.589   6.021   6.814  1.2581 -0.1939 -1.0555
 4305SOL    HW213441   6.528   5.960   6.689 -1.8030  0.2049  0.1694
 4306SOL     OW13442   5.483   3.274   7.364  0.7599 -0.1265 -0.3458
 4306SOL    HW113443   5.564   3.237   7.398  0.1216 -0.4142  0.9148
 4306SOL    HW213444   5.450   3.206   7.305  0.2162 -1.0998  1.0225
 4307SOL     OW13445   1.488   4.936   0.316 -0.6505  0.1911  0.0073
 4307SOL    HW113446   1.467   4.992   0.391 -0.5664  0.1070  0.0940
 4307SOL    HW213447   1.475   4.847   0.348  2.3785 -0.0349  0.9154
 4308SOL     OW13448   7.054   6.990   6.807 -0.0654  0.0790 -0.2094
 4308SOL    HW113449   7.131   6.947   6.844  0.2039  0.6816 -0.0664
 4308SOL    HW213450   6.980   6.937   6.838  0.1791  0.3954  0.9441
 4309SOL     OW13451   2.902   1.413   4.503 -0.1547  0.0273  0.3384
 4309SOL    HW113452   2.951   1.335   4.476  0.7333 -0.1259  2.2388
 4309SOL    HW213453   2.811   1.386   4.504  0.1406 -0.9894  0.9202
 4310SOL     OW13454   3.945   1.966   4.273  0.2140 -0.1495  0.5838
 4310SOL    HW113455   3.850   1.953   4.263  0.3051 -0.8981  0.6325
 4310SOL    HW213456   3.952   2.042   4.331 -0.3619 -0.4150  1.0153
 4311SOL     OW13457   3.283   6.000   3.915  0.2586  0.0304 -1.0798
 4311SOL    HW113458   3.277   5.913   3.877  0.1913 -0.4937  0.1074
 4311SOL    HW213459   3.204   6.045   3.885 -0.5628 -0.8777 -0.3009
 4312SOL     OW13460   1.310   7.059   2.489  0.1752 -0.0199 -0.1845
 4312SOL    HW113461   1.238   7.049   2.551  2.1217 -2.4488  1.9137
 4312SOL    HW213462   1.280   7.016   2.410 -0.2767 -2.1711  1.0861
 4313SOL     OW13463   2.917   2.971   3.519  0.0223 -0.2635 -0.3695
 4313SOL    HW113464   2.885   2.889   3.557  0.1552 -1.7669 -3.1936
 4313SOL    HW213465   3.009   2.953   3.499  0.4006  1.0621  0.1074
 4314SOL     OW13466   7.348   1.597   4.642 -0.5549 -0.0113 -0.1365
 4314SOL    HW113467   7.430   1.636   4.611  0.2053 -0.2241  1.4828
 4314SOL    HW213468   7.369   1.504   4.654 -1.0196 -0.0692  0.2841
 4315SOL     OW13469   1.447   3.110   4.766 -0.2283 -0.0346  0.4718
 4315SOL    HW113470   1.393   3.042   4.726  0.4214 -0.4432  0.2563
 4315SOL    HW213471   1.421   3.191   4.722 -0.7337 -0.2094  0.4485
 4316SOL     OW13472   3.054   3.847   5.881 -0.8820 -0.0802 -0.2952
 4316SOL    HW113473   3.150   3.852   5.884 -0.9680  1.8674  1.7429
 4316SOL    HW213474   3.033   3.765   5.927 -0.2116 -1.3800 -2.1879
 4317SOL     OW13475   4.659   0.073   2.426  0.0186 -1.0684 -1.0882
 4317SOL    HW113476   4.646   0.135   2.354  0.9459 -1.6711 -1.7939
 4317SOL    HW213477   4.718   0.007   2.391 -0.7410 -2.2324 -0.2647
 4318SOL     OW13478   2.280   2.288   6.320  0.7908  0.3399 -0.0364
 4318SOL    HW113479   2.308   2.200   6.345 -0.2504  0.0199  0.0750
 4318SOL    HW213480   2.353   2.345   6.343 -0.1129  0.1420  4.1483
 4319SOL     OW13481   1.988   2.776   4.553  0.5092 -0.1583 -0.6949
 4319SOL    HW113482   1.988   2.867   4.522 -1.7321 -0.0704 -0.6533
 4319SOL    HW213483   1.925   2.777   4.625 -0.5423 -1.9946 -1.5432
 4320SOL     OW13484   3.066   6.441   4.127 -0.2690 -0.1339 -0.2700
 4320SOL    HW113485   3.070   6.518   4.184 -0.5678 -0.1062 -0.2848
 4320SOL    HW213486   3.098   6.369   4.181 -2.0141 -0.4114  0.4569
 4321SOL     OW13487   0.815   6.575   5.427  0.0677 -0.0737 -0.5504
 4321SOL    HW113488   0.879   6.566   5.356 -0.1057  1.5164 -0.9478
 4321SOL    HW213489   0.739   6.617   5.386  0.1684  1.3698  0.6724
 4322SOL     OW13490   6.310   1.141   1.672 -0.2754  0.1600 -0.2869
 4322SOL    HW113491   6.372   1.087   1.624 -1.8835 -0.4488 -1.7576
 4322SOL    HW213492   6.234   1.085   1.687 -1.1765  1.3829 -0.0534
 4323SOL     OW13493   5.840   4.525   0.423  0.0904 -0.0477  0.1705
 4323SOL    HW113494   5.835   4.508   0.329 -0.2573  0.7859  0.0297
 4323SOL    HW213495   5.824   4.439   0.464  2.7596 -0.9659 -0.5268
 4324SOL     OW13496   6.998   4.199   0.041  0.6645  0.2770 -0.1734
 4324SOL    HW113497   7.066   4.202   0.108 -0.1070  1.4766  0.5988
 4324SOL    HW213498   7.042   4.163  -0.036  2.1724  0.9997  0.3032
 4325SOL     OW13499   1.562   0.762   4.654 -0.3660 -0.6658 -0.0830
 4325SOL    HW113500   1.592   0.847   4.624 -2.4543  0.5192  0.9962
 4325SOL    HW213501   1.549   0.711   4.574 -0.4294  0.5209 -0.8429
 4326SOL     OW13502   4.195   5.841   3.386 -0.2910 -0.0707 -0.5653
 4326SOL    HW113503   4.218   5.884   3.468 -0.9769 -0.0084 -0.3988
 4326SOL    HW213504   4.152   5.910   3.334  0.2641 -0.0711 -1.0356
 4327SOL     OW13505   0.616   5.405   1.506 -0.0688 -0.4196  0.6035
 4327SOL    HW113506   0.693   5.460   1.520 -1.2942  1.1137  1.7853
 4327SOL    HW213507   0.575   5.399   1.592 -1.6441 -0.6099 -0.1226
 4328SOL     OW13508   0.987   5.702   5.771 -0.9651 -0.2776 -0.0010
 4328SOL    HW113509   1.069   5.687   5.724 -0.4283 -0.0875  0.8602
 4328SOL    HW213510   0.990   5.794   5.798 -2.0716  0.1118 -1.0921
 4329SOL     OW13511   0.451   6.338   5.865  0.0732  0.0130  0.0992
 4329SOL    HW113512   0.438   6.320   5.958  0.2927 -0.2011  0.0899
 4329SOL    HW213513   0.378   6.295   5.821  1.0166 -1.5854  0.0050
 4330SOL     OW13514   3.077   0.016   0.646 -0.4106  0.0612  0.3056
 4330SOL    HW113515   3.073   0.102   0.686 -1.0348 -0.1956  0.8088
 4330SOL    HW213516   3.118  -0.040   0.712  1.3579  0.2568 -0.5602
 4331SOL     OW13517   7.509   5.568   0.700 -0.0355  0.8579  0.1097
 4331SOL    HW113518   7.500   5.501   0.768  1.3336  0.2087 -0.2949
 4331SOL    HW213519   7.501   5.519   0.617  2.0037  0.9476 -0.2079
 4332SOL     OW13520   1.456   2.276   6.809 -0.0471 -0.3498 -0.6813
 4332SOL    HW113521   1.537   2.243   6.769 -0.1496  0.1411 -1.3150
 4332SOL    HW213522   1.447   2.365   6.774 -1.6109 -0.8943 -1.7546
 4333SOL     OW13523   3.651   0.241   4.444  0.0504 -0.2992 -0.2342
 4333SOL    HW113524   3.595   0.315   4.467  0.5890 -0.3693  1.4846
 4333SOL    HW213525   3.733   0.282   4.415  0.1519 -0.1997  0.1783
 4334SOL     OW13526   4.005   1.580   0.401  0.6418  0.4404 -0.4731
 4334SOL    HW113527   3.970   1.529   0.328 -0.4621 -1.0900  1.0741
 4334SOL    HW213528   3.945   1.565   0.473  0.0955  4.1609  0.0717
 4335SOL     OW13529   1.375   1.082   5.902  0.3035 -0.5652  0.5400
 4335SOL    HW113530   1.330   1.121   5.827 -2.3041 -0.6785  1.9225
 4335SOL    HW213531   1.360   0.988   5.893 -1.4280 -0.4798  1.9429
 4336SOL     OW13532   2.219   3.133   0.773  0.3174  0.1065 -0.0977
 4336SOL    HW113533   2.136   3.106   0.733  0.2611 -0.5476  0.4449
 4336SOL    HW213534   2.207   3.226   0.791 -0.3798 -0.0275  0.1558
 4337SOL     OW13535   3.552   4.578   4.717  0.3525  0.0783 -0.1596
 4337SOL    HW113536   3.648   4.570   4.715  0.1705 -3.0053 -1.4004
 4337SOL    HW213537   3.525   4.559   4.627 -1.5033 -1.1023  0.5982
 4338SOL     OW13538   0.874   3.394   0.803 -0.0412 -0.0388  0.0735
 4338SOL    HW113539   0.779   3.406   0.809 -0.2645 -0.8992 -1.2834
 4338SOL    HW213540   0.884   3.305   0.768  1.2688  0.0787  0.1289
 4339SOL     OW13541   6.995   0.893   5.254 -0.5226 -0.0469  0.6531
 4339SOL    HW113542   6.949   0.826   5.305 -0.2820 -0.7389 -0.0101
 4339SOL    HW213543   6.936   0.968   5.253 -1.5028 -0.7958  0.1062
 4340SOL     OW13544   6.706   1.397   5.992 -0.6343 -0.1314  0.0911
 4340SOL    HW113545   6.620   1.362   6.015 -0.9228  0.2557 -0.3839
 4340SOL    HW213546   6.693   1.438   5.906 -0.2491  0.9121  0.5195
 4341SOL     OW13547   0.637   1.566   6.511 -0.5250 -0.1916  0.6931
 4341SOL    HW113548   0.716   1.550   6.564  0.4302 -0.4056 -0.7328
 4341SOL    HW213549   0.570   1.510   6.550  0.3826 -0.9974  1.1481
 4342SOL     OW13550   7.489   3.749   3.065  0.1473  0.1359  0.4602
 4342SOL    HW113551   7.487   3.717   2.975 -0.5355  0.4345  0.3710
 4342SOL    HW213552   7.565   3.807   3.068 -0.1908  0.6123 -0.0849
 4343SOL     OW13553   2.823   4.122   7.452  0.0828 -0.0456 -0.1017
 4343SOL    HW113554   2.764   4.197   7.460  0.0604  0.2078 -2.1251
 4343SOL    HW213555   2.793   4.076   7.374  2.6441  0.1927 -1.3209
 4344SOL     OW13556   3.803   5.574   3.779 -0.2907 -0.2341  0.1171
 4344SOL    HW113557   3.879   5.633   3.776 -0.8294  0.4511 -1.6692
 4344SOL    HW213558   3.733   5.627   3.817 -0.3538 -0.2580  0.0344
 4345SOL     OW13559   6.440   5.602   1.038  0.2208 -0.1435  0.0424
 4345SOL    HW113560   6.397   5.665   1.095  0.2414 -0.1660  0.0832
 4345SOL    HW213561   6.483   5.655   0.971 -1.5325 -0.1903 -1.1862
 4346SOL     OW13562   3.467   4.457   4.441 -0.3504  0.0095 -0.3727
 4346SOL    HW113563   3.520   4.413   4.375 -0.6679  0.3798 -0.8793
 4346SOL    HW213564   3.383   4.473   4.398  0.3006  2.6331 -0.8027
 4347SOL     OW13565   3.101   3.296   1.711 -0.3047  0.1740  0.0880
 4347SOL    HW113566   3.108   3.295   1.615  0.2449 -1.0160  0.1281
 4347SOL    HW213567   3.092   3.389   1.733 -0.9479  0.4174 -1.1475
 4348SOL     OW13568   4.843   5.129   5.847 -0.4269 -0.3401  0.3003
 4348SOL    HW113569   4.928   5.084   5.842 -0.7953 -0.9806 -0.2863
 4348SOL    HW213570   4.794   5.096   5.772 -1.9184 -1.4403  1.7060
 4349SOL     OW13571   0.332   2.459   1.066 -0.6928 -0.6147 -0.9566
 4349SOL    HW113572   0.281   2.535   1.039  0.5752  0.9035  0.6746
 4349SOL    HW213573   0.346   2.409   0.985 -0.1237  1.7611 -2.4177
 4350SOL     OW13574   7.171   5.956   5.039  0.3779  0.0747 -0.0546
 4350SOL    HW113575   7.205   5.970   4.950  0.5335  2.0270  0.2723
 4350SOL    HW213576   7.076   5.947   5.027  0.3581  0.6795 -0.3965
 4351SOL     OW13577   1.898   3.408   6.347 -0.3589 -0.2435  0.4519
 4351SOL    HW113578   1.823   3.445   6.393  0.0226 -0.0581  0.9449
 4351SOL    HW213579   1.885   3.313   6.351 -1.0655 -0.1865 -0.3374
 4352SOL     OW13580   5.223   1.695   7.129 -0.3177 -0.1254  0.1670
 4352SOL    HW113581   5.299   1.752   7.141 -0.3403  0.1029 -0.7162
 4352SOL    HW213582   5.155   1.753   7.095 -0.1228 -0.7999 -1.4641
 4353SOL     OW13583   7.037   6.826   4.130  0.2147  0.0485  0.0304
 4353SOL    HW113584   7.127   6.794   4.137  1.3980  2.8803 -0.4303
 4353SOL    HW213585   7.006   6.832   4.220  0.7612 -0.2726  0.2451
 4354SOL     OW13586   4.649   2.538   1.050 -0.3065 -0.9867 -0.0359
 4354SOL    HW113587   4.671   2.473   0.984  2.1137  1.0940 -1.5250
 4354SOL    HW213588   4.567   2.577   1.020  1.0073  0.2804 -2.2693
 4355SOL     OW13589   0.262   1.191   1.881 -0.0634  0.8112 -0.3965
 4355SOL    HW113590   0.207   1.247   1.935  0.8779  1.3804  0.0148
 4355SOL    HW213591   0.263   1.107   1.926 -0.2612  0.9194 -0.1908
 4356SOL     OW13592   2.108   5.917   5.228  0.3007  0.0002  0.2139
 4356SOL    HW113593   2.081   5.964   5.307 -0.8847 -0.0076 -0.1649
 4356SOL    HW213594   2.182   5.864   5.256  0.7945  1.0623  0.9774
 4357SOL     OW13595   5.188   3.409   2.926 -0.1695  0.1798  0.7319
 4357SOL    HW113596   5.104   3.442   2.959 -0.3015  1.1840 -0.5308
 4357SOL    HW213597   5.237   3.386   3.005 -1.6654 -0.5642  1.4954
 4358SOL     OW13598   2.060   0.219   5.793 -0.1324 -0.2991  0.3716
 4358SOL    HW113599   2.152   0.196   5.784 -0.3881 -1.4292  0.4147
 4358SOL    HW213600   2.028   0.224   5.702  0.5648  2.9240  0.1844
 4359SOL     OW13601   7.430   2.631   1.500 -0.0389 -0.0827 -0.1357
 4359SOL    HW113602   7.353   2.582   1.471 -0.5528  0.5499  0.1357
 4359SOL    HW213603   7.503   2.573   1.481 -0.6854 -1.2733  0.8295
 4360SOL     OW13604   3.491   0.985   3.595  0.1623 -0.2847 -0.4329
 4360SOL    HW113605   3.485   1.080   3.606  1.1284 -0.2162 -0.3756
 4360SOL    HW213606   3.470   0.969   3.503  1.4522  0.1573 -0.8329
 4361SOL     OW13607   2.332   1.301   4.199  0.6236 -0.1120 -0.5351
 4361SOL    HW113608   2.365   1.213   4.216  1.2194  0.3885  1.1098
 4361SOL    HW213609   2.257   1.310   4.257 -0.0060  0.1495 -1.3751
 4362SOL     OW13610   4.478   1.170   0.819  0.1188 -0.0166  0.2100
 4362SOL    HW113611   4.504   1.162   0.911 -0.7820 -2.7918  0.3120
 4362SOL    HW213612   4.385   1.149   0.819  0.4254 -1.6232 -1.4759
 4363SOL     OW13613   0.771   6.666   4.320  0.0311  0.3973  0.2467
 4363SOL    HW113614   0.760   6.760   4.328  1.3930  0.7135 -1.0954
 4363SOL    HW213615   0.865   6.653   4.308 -0.2358 -1.0393 -0.5947
 4364SOL     OW13616   4.070   2.030   3.402 -0.6949 -0.4614 -0.1084
 4364SOL    HW113617   4.118   2.086   3.340 -0.1511 -0.1767  0.5660
 4364SOL    HW213618   4.121   2.034   3.483 -1.3890 -0.8570  0.3550
 4365SOL     OW13619   2.553   4.507   1.967  0.1945 -0.1067 -0.3898
 4365SOL    HW113620   2.473   4.502   1.915  0.7937  0.8653 -1.4590
 4365SOL    HW213621   2.623   4.501   1.902  0.9641  2.1539  0.1576
 4366SOL     OW13622   4.641   7.500   1.167  0.6417 -0.4965 -0.4050
 4366SOL    HW113623   4.725   7.469   1.134  0.5129 -1.5943  0.2603
 4366SOL    HW213624   4.647   7.489   1.262  0.5932  1.5768 -0.1080
 4367SOL     OW13625   6.350   1.269   1.936 -0.3191 -0.8508 -0.1732
 4367SOL    HW113626   6.309   1.263   1.850 -0.9602  0.4409  0.0105
 4367SOL    HW213627   6.377   1.360   1.944  1.5238 -1.3959  0.2239
 4368SOL     OW13628   0.687   2.098   4.173 -0.6307 -0.1962 -0.5439
 4368SOL    HW113629   0.757   2.158   4.144 -0.8638  0.9401  1.1193
 4368SOL    HW213630   0.733   2.016   4.191  0.2240  0.3929  0.0740
 4369SOL     OW13631   5.220   5.849   2.991 -0.1511 -0.1943 -0.4496
 4369SOL    HW113632   5.239   5.758   3.014  1.2439  0.1219 -0.2419
 4369SOL    HW213633   5.220   5.850   2.895  2.4098  0.0129 -0.5260
 4370SOL     OW13634   3.294   7.261   5.561  0.8913 -0.0789  0.4576
 4370SOL    HW113635   3.263   7.227   5.645 -1.9950  0.8327 -0.1181
 4370SOL    HW213636   3.319   7.183   5.511  3.0617 -0.6171  2.1977
 4371SOL     OW13637   2.000   5.286   3.467  0.3334  0.1643  1.0653
 4371SOL    HW113638   1.904   5.291   3.472  0.2083 -1.1277  0.2122
 4371SOL    HW213639   2.018   5.214   3.407  1.8540  0.4025  1.1908
 4372SOL     OW13640   5.915   7.232   4.703  0.0728  0.0285  0.0776
 4372SOL    HW113641   5.880   7.223   4.792  1.2595 -0.0704  0.5494
 4372SOL    HW213642   5.944   7.144   4.679  3.5643  0.6948  1.2584
 4373SOL     OW13643   3.204   4.227   1.968  0.2526 -0.6112 -0.4065
 4373SOL    HW113644   3.159   4.146   1.991  0.6740 -0.4441  1.1472
 4373SOL    HW213645   3.149   4.296   2.005  0.1454 -0.2140 -1.2985
 4374SOL     OW13646   7.030   5.225   3.088 -0.0474 -0.3881  1.1203
 4374SOL    HW113647   7.071   5.181   3.163  0.3574  0.4108  1.3809
 4374SOL    HW213648   6.936   5.218   3.105  0.0476  0.0224  1.8501
 4375SOL     OW13649   2.409   3.840   6.282  0.3922 -0.3248 -0.9326
 4375SOL    HW113650   2.491   3.791   6.294 -0.0433 -0.9999 -0.6393
 4375SOL    HW213651   2.389   3.831   6.189 -0.3314 -1.8016 -0.6743
 4376SOL     OW13652   6.237   0.247   0.116 -0.0592  0.4044  0.0619
 4376SOL    HW113653   6.192   0.162   0.121  0.5725  0.0364 -0.2833
 4376SOL    HW213654   6.229   0.284   0.203 -1.1446  0.4126 -0.0328
 4377SOL     OW13655   5.286   1.140   2.826 -0.1732 -0.2853 -0.4199
 4377SOL    HW113656   5.313   1.061   2.871  1.3454  0.1771 -0.4768
 4377SOL    HW213657   5.222   1.110   2.761 -1.7659 -1.0649  1.4234
 4378SOL     OW13658   0.676   4.463   1.057  0.3034  0.4951  0.1576
 4378SOL    HW113659   0.730   4.498   0.986 -1.2051 -0.5782 -1.6197
 4378SOL    HW213660   0.608   4.528   1.071  0.1764  0.3749  0.1032
 4379SOL     OW13661   6.499   1.751   0.937  0.4204 -0.9751 -0.2988
 4379SOL    HW113662   6.465   1.789   0.856 -1.0200  2.3013  1.6576
 4379SOL    HW213663   6.583   1.794   0.952  0.1152 -0.6342  0.5139
 4380SOL     OW13664   1.363   4.625   6.332  0.7718 -0.5490  0.3915
 4380SOL    HW113665   1.335   4.534   6.338  1.4669 -0.7427  0.7987
 4380SOL    HW213666   1.318   4.659   6.255 -0.5276 -0.8574  0.9696
 4381SOL     OW13667   1.758   4.413   5.444  0.0358  0.2154 -0.5415
 4381SOL    HW113668   1.720   4.326   5.456  0.3621 -0.2710 -2.6225
 4381SOL    HW213669   1.704   4.470   5.498 -0.0922 -1.2765  0.9946
 4382SOL     OW13670   3.681   7.504   3.682  0.3190  0.1934  0.5146
 4382SOL    HW113671   3.644   7.554   3.756  0.5274  1.8605 -0.4534
 4382SOL    HW213672   3.627   7.530   3.607  1.7881  0.6397 -0.4254
 4383SOL     OW13673   6.757   7.218   1.594 -0.4904 -0.1009 -0.1565
 4383SOL    HW113674   6.823   7.287   1.600  0.3783 -0.9411  0.0570
 4383SOL    HW213675   6.680   7.263   1.559  0.3090  0.8158 -0.8192
 4384SOL     OW13676   4.290   2.284   5.829  0.2070  0.3193  0.0786
 4384SOL    HW113677   4.366   2.330   5.866  2.4332 -1.4067 -2.0476
 4384SOL    HW213678   4.257   2.342   5.761 -0.1614  0.8883  0.7272
 4385SOL     OW13679   5.005   6.764   3.728 -0.6755 -0.3190 -0.1982
 4385SOL    HW113680   4.994   6.670   3.736 -0.6469 -0.3433 -0.4554
 4385SOL    HW213681   5.089   6.783   3.770 -1.2045 -0.2643  0.8675
 4386SOL     OW13682   0.851   4.775   7.313  0.2030 -0.5700 -0.0637
 4386SOL    HW113683   0.908   4.742   7.243 -0.2526  2.2106 -1.9079
 4386SOL    HW213684   0.763   4.755   7.282  0.0393 -1.0961  0.7234
 4387SOL     OW13685   5.884   3.542   2.629 -0.5745  0.6953  0.2614
 4387SOL    HW113686   5.977   3.539   2.605 -0.0406  2.5111  1.8369
 4387SOL    HW213687   5.839   3.501   2.555  1.4295  0.1802 -0.7573
 4388SOL     OW13688   5.926   5.076   1.213 -0.2703  0.1461 -0.1041
 4388SOL    HW113689   5.869   5.048   1.142  1.4194  2.0601 -2.4161
 4388SOL    HW213690   5.981   5.144   1.174  2.1240 -0.0729  2.5337
 4389SOL     OW13691   2.587   1.559   0.454  0.2099 -0.5301  0.0394
 4389SOL    HW113692   2.501   1.569   0.497  0.5948 -0.3871  0.7928
 4389SOL    HW213693   2.646   1.534   0.525  0.4745 -2.3035 -0.7474
 4390SOL     OW13694   1.500   2.749   2.287  0.0594 -0.1556  0.0950
 4390SOL    HW113695   1.574   2.689   2.277  0.5268  0.4211  0.0134
 4390SOL    HW213696   1.443   2.707   2.351  0.9484 -0.1568  0.9005
 4391SOL     OW13697   6.342   0.572   2.042  0.2734  0.2378 -0.1290
 4391SOL    HW113698   6.256   0.595   2.005  0.9415 -0.6659 -2.4295
 4391SOL    HW213699   6.395   0.650   2.028 -0.2408  0.9805  1.7485
 4392SOL     OW13700   6.904   0.103   1.458  0.2768  0.6368  0.2054
 4392SOL    HW113701   6.962   0.038   1.495 -0.6787 -0.7177 -0.5685
 4392SOL    HW213702   6.846   0.128   1.530 -1.4526 -1.8386 -0.1746
 4393SOL     OW13703   4.203   1.355   6.158  0.1127  0.3950  0.0011
 4393SOL    HW113704   4.298   1.359   6.143 -0.0024  0.8878 -0.6872
 4393SOL    HW213705   4.165   1.358   6.070 -0.5418  0.1792  0.2711
 4394SOL     OW13706   1.721   4.873   3.661 -0.2766  0.1905 -0.3341
 4394SOL    HW113707   1.766   4.957   3.673 -0.5841  0.2451  0.5422
 4394SOL    HW213708   1.751   4.842   3.576  0.2292  0.9524 -0.4500
 4395SOL     OW13709   4.464   6.977   5.580 -0.1900 -0.4331  0.0599
 4395SOL    HW113710   4.484   7.069   5.597 -0.8952 -0.2273 -0.1801
 4395SOL    HW213711   4.370   6.970   5.595 -0.2082 -1.0281 -0.3031
 4396SOL     OW13712   4.197   7.484   1.834 -0.3361 -0.1413 -0.0736
 4396SOL    HW113713   4.253   7.536   1.892 -0.5423 -1.3456  1.2790
 4396SOL    HW213714   4.209   7.522   1.748  1.1267  0.8083  0.5110
 4397SOL     OW13715   3.329   1.739   4.812  0.0336  0.0577  0.3350
 4397SOL    HW113716   3.386   1.666   4.836 -1.0174 -0.4425  1.4067
 4397SOL    HW213717   3.247   1.722   4.859 -0.4116  1.6537  0.1967
 4398SOL     OW13718   6.216   6.969   6.171 -0.1359 -0.3725  0.0370
 4398SOL    HW113719   6.296   7.020   6.163 -0.0802 -0.1886  1.4294
 4398SOL    HW213720   6.157   7.025   6.221 -0.6647 -1.0240  0.1651
 4399SOL     OW13721   2.341   1.346   0.390  0.1998  0.0075 -0.2560
 4399SOL    HW113722   2.268   1.359   0.330  1.4244  1.9363 -1.4129
 4399SOL    HW213723   2.417   1.338   0.333  1.1043 -0.5027  0.9843
 4400SOL     OW13724   5.755   4.972   1.824 -0.3077  0.2569  0.1221
 4400SOL    HW113725   5.672   4.971   1.871 -1.0737  0.7508 -1.1663
 4400SOL    HW213726   5.741   5.035   1.753  0.1563 -1.7871 -1.9061
 4401SOL     OW13727   3.596   3.788   6.115  0.5668  0.1141  0.0436
 4401SOL    HW113728   3.663   3.820   6.055 -0.1007  0.6500 -0.4313
 4401SOL    HW213729   3.554   3.867   6.149 -0.5241 -0.2135 -0.4855
 4402SOL     OW13730   5.837   1.519   6.844 -0.7020 -0.2591 -0.1219
 4402SOL    HW113731   5.816   1.603   6.886 -1.1936 -0.9949  1.1485
 4402SOL    HW213732   5.758   1.497   6.794 -0.2437  0.4431 -1.2180
 4403SOL     OW13733   6.988   1.431   0.506  0.3305  0.2404 -0.7710
 4403SOL    HW113734   7.069   1.404   0.463  2.2606  2.0193  1.4423
 4403SOL    HW213735   6.991   1.527   0.504 -0.0189  0.4003  2.1715
 4404SOL     OW13736   3.456   3.855   5.439 -0.0892  0.0092 -0.3765
 4404SOL    HW113737   3.398   3.780   5.427  1.2630 -1.0055 -0.7822
 4404SOL    HW213738   3.397   3.931   5.439 -1.2989 -0.8852 -1.8290
 4405SOL     OW13739   1.882   1.149   1.259  0.0551 -0.2359 -0.0081
 4405SOL    HW113740   1.853   1.219   1.201  0.2792  1.4235  1.7637
 4405SOL    HW213741   1.803   1.123   1.306  0.1796 -0.4182  0.1011
 4406SOL     OW13742   2.354   2.721   1.320  0.0445  0.6415  0.2204
 4406SOL    HW113743   2.361   2.765   1.235  2.5212 -0.0751 -0.0289
 4406SOL    HW213744   2.436   2.672   1.328 -0.1606  0.6135  2.9935
 4407SOL     OW13745   6.116   5.097   1.465  0.0163 -0.2355 -0.0283
 4407SOL    HW113746   6.154   5.183   1.482 -0.3185  0.0858 -0.8677
 4407SOL    HW213747   6.185   5.047   1.422 -0.3653  0.2421 -1.2551
 4408SOL     OW13748   7.290   6.021   6.542  0.5208 -0.1521  0.6816
 4408SOL    HW113749   7.345   6.023   6.619  1.0209  1.8328  0.3190
 4408SOL    HW213750   7.351   6.029   6.468 -0.1038  0.2109  0.1926
 4409SOL     OW13751   2.041   3.306   2.557  0.5060  0.1870 -0.4492
 4409SOL    HW113752   1.959   3.259   2.541  0.5564  0.0204 -0.2272
 4409SOL    HW213753   2.106   3.237   2.571  0.9019  0.2991 -1.6261
 4410SOL     OW13754   4.220   4.677   3.089  0.1881  0.1988  0.8594
 4410SOL    HW113755   4.294   4.678   3.028  0.1352  2.4888  0.7331
 4410SOL    HW213756   4.143   4.671   3.033  0.2155 -1.3121  0.9450
 4411SOL     OW13757   0.645   4.661   3.943  0.1420  0.0271  0.6096
 4411SOL    HW113758   0.656   4.755   3.932  0.3839 -0.1843 -1.5732
 4411SOL    HW213759   0.570   4.652   4.001 -0.8290  1.5975 -0.3227
 4412SOL     OW13760   1.868   2.368   6.973 -0.2738 -0.2827 -0.2742
 4412SOL    HW113761   1.932   2.375   6.902 -1.4626  1.1282 -1.2933
 4412SOL    HW213762   1.918   2.381   7.053  1.1415 -2.0746 -0.8053
 4413SOL     OW13763   5.318   6.523   1.739 -0.1805 -0.2941  0.3552
 4413SOL    HW113764   5.277   6.499   1.822 -1.1524 -0.6032 -0.1962
 4413SOL    HW213765   5.269   6.600   1.709 -1.0048 -1.2011 -0.7495
 4414SOL     OW13766   4.822   0.314   5.318  0.4658 -0.6819  0.3375
 4414SOL    HW113767   4.818   0.358   5.403 -0.5072 -0.9230  0.4282
 4414SOL    HW213768   4.834   0.385   5.255 -2.0799 -0.0950  0.3832
 4415SOL     OW13769   1.023   0.291   4.843 -0.1320 -0.0964  0.7878
 4415SOL    HW113770   0.995   0.229   4.775  0.0650 -0.9072  1.4341
 4415SOL    HW213771   1.027   0.239   4.923 -0.6441  0.9052  1.4931
 4416SOL     OW13772   0.989   6.326   3.937  0.0772 -0.3188  0.3590
 4416SOL    HW113773   0.894   6.319   3.929 -0.1046 -1.4168  2.7979
 4416SOL    HW213774   1.022   6.294   3.853 -1.6932  1.0963 -0.9420
 4417SOL     OW13775   5.497   3.294   3.507 -0.1327  0.6401 -0.6575
 4417SOL    HW113776   5.519   3.242   3.584  0.3160  0.6970 -0.7440
 4417SOL    HW213777   5.563   3.364   3.505 -0.0116  0.5197 -1.2098
 4418SOL     OW13778   0.865   4.384   3.495  0.2531  0.5313 -0.0177
 4418SOL    HW113779   0.851   4.290   3.511 -1.7027  0.5194 -1.4061
 4418SOL    HW213780   0.907   4.416   3.575  2.2870 -1.7559 -0.0529
 4419SOL     OW13781   6.238   0.665   4.699 -0.3368  0.0880  0.2513
 4419SOL    HW113782   6.261   0.653   4.791 -0.3545 -0.5657  0.1734
 4419SOL    HW213783   6.272   0.752   4.678 -1.3875  0.7623  1.2014
 4420SOL     OW13784   7.541   0.912   1.627 -0.0295 -0.0854  0.0614
 4420SOL    HW113785   7.500   0.844   1.574  1.0957  1.3024 -2.8260
 4420SOL    HW213786   7.613   0.868   1.672 -0.3792 -1.1489 -0.4008
 4421SOL     OW13787   3.292   1.641   3.208 -0.2510  0.1051  0.2344
 4421SOL    HW113788   3.196   1.641   3.206 -0.2464  0.9439 -0.5922
 4421SOL    HW213789   3.318   1.609   3.122  0.2045  0.2980  0.2976
 4422SOL     OW13790   3.477   0.428   2.666  0.4935  0.2262 -0.3552
 4422SOL    HW113791   3.445   0.489   2.733  1.0023  0.5738 -0.4240
 4422SOL    HW213792   3.480   0.343   2.710 -0.2879  0.2274 -0.2761
 4423SOL     OW13793   6.938   3.799   4.024  0.1694 -0.0890  0.3446
 4423SOL    HW113794   6.997   3.856   4.075 -0.5674  0.8435  0.1887
 4423SOL    HW213795   6.929   3.721   4.078  2.4916 -0.7926 -0.1797
 4424SOL     OW13796   0.199   3.758   2.508  0.3106 -0.5576  0.0748
 4424SOL    HW113797   0.138   3.693   2.472 -1.1337  0.8598 -0.1541
 4424SOL    HW213798   0.229   3.719   2.590  0.5445 -2.0912 -0.7104
 4425SOL     OW13799   6.411   4.168   2.560  0.2546 -0.3040  0.0510
 4425SOL    HW113800   6.346   4.209   2.503 -0.1058 -0.5361  0.2920
 4425SOL    HW213801   6.383   4.078   2.569  0.8922 -0.5401 -0.2486
 4426SOL     OW13802   4.418   5.653   5.175  0.5296  0.1504  0.4126
 4426SOL    HW113803   4.361   5.703   5.233 -0.8366 -0.2437 -0.5340
 4426SOL    HW213804   4.501   5.647   5.222  0.3555  2.2258  1.0798
 4427SOL     OW13805   7.111   5.128   0.258 -0.0198 -0.2533 -0.3843
 4427SOL    HW113806   7.119   5.155   0.167 -0.4003 -0.4445 -0.4782
 4427SOL    HW213807   7.168   5.051   0.265  0.6125  0.2241 -0.2617
 4428SOL     OW13808   5.356   2.802   3.023  0.4320  0.7261  0.1355
 4428SOL    HW113809   5.430   2.766   2.973  2.3190  2.5883  1.4089
 4428SOL    HW213810   5.367   2.765   3.111 -2.2290 -1.6704 -0.3827
 4429SOL     OW13811   5.943   6.735   6.785 -0.8548 -0.2070  0.0668
 4429SOL    HW113812   5.906   6.801   6.727 -0.0014 -0.4499 -0.7862
 4429SOL    HW213813   5.905   6.652   6.755 -0.2816 -0.3542 -0.2619
 4430SOL     OW13814   4.874   0.912   3.006  0.3067  0.3078 -0.1107
 4430SOL    HW113815   4.800   0.893   2.948 -0.5486  0.4406  0.9059
 4430SOL    HW213816   4.837   0.967   3.076  1.4903  0.8580  0.1146
 4431SOL     OW13817   4.239   0.310   0.468 -0.0482 -0.9274  0.3754
 4431SOL    HW113818   4.319   0.259   0.480  0.4154 -0.2943 -0.0203
 4431SOL    HW213819   4.228   0.356   0.551 -0.6917 -1.9567  0.8881
 4432SOL     OW13820   3.314   3.158   1.258  0.3134  0.6404 -0.0221
 4432SOL    HW113821   3.322   3.223   1.188  0.4886  0.5303 -0.1048
 4432SOL    HW213822   3.398   3.114   1.259 -0.5449 -1.1716 -1.5261
 4433SOL     OW13823   4.620   2.102   2.572  0.1893  0.5434 -0.0615
 4433SOL    HW113824   4.640   2.080   2.481 -0.5093 -0.4403  0.0093
 4433SOL    HW213825   4.615   2.198   2.572 -0.7724  0.5251 -1.2895
 4434SOL     OW13826   5.235   2.373   0.461  0.3977  0.1050  0.1175
 4434SOL    HW113827   5.175   2.392   0.533  0.9209 -0.6613  0.7760
 4434SOL    HW213828   5.187   2.396   0.382 -0.2986  0.6759  0.6952
 4435SOL     OW13829   4.657   7.532   6.365  0.3182  0.4072 -0.0703
 4435SOL    HW113830   4.620   7.549   6.279  1.6652 -0.7450 -0.9346
 4435SOL    HW213831   4.586   7.550   6.426 -0.6751  1.2315 -1.4196
 4436SOL     OW13832   1.312   4.498   1.558 -0.2801  0.1367  0.2178
 4436SOL    HW113833   1.300   4.405   1.536 -0.4205  0.1992  0.0206
 4436SOL    HW213834   1.320   4.500   1.653 -1.1686  0.0136  0.3028
 4437SOL     OW13835   0.371   6.344   0.185 -0.0312  0.5476 -0.3713
 4437SOL    HW113836   0.383   6.374   0.095 -0.9484  3.1317  0.2681
 4437SOL    HW213837   0.451   6.370   0.230  0.5935 -1.0928 -0.4791
 4438SOL     OW13838   6.484   1.800   1.687 -0.1691 -0.6776  0.5829
 4438SOL    HW113839   6.444   1.840   1.610 -0.1787 -2.0764 -0.1612
 4438SOL    HW213840   6.499   1.709   1.663  0.9379 -0.8621  1.8191
 4439SOL     OW13841   0.903   5.693   0.178  0.3063  0.4482 -0.0127
 4439SOL    HW113842   0.965   5.638   0.130 -0.4433 -0.8680  0.4745
 4439SOL    HW213843   0.907   5.778   0.133 -0.3745 -0.7189 -2.4623
 4440SOL     OW13844   0.735   2.581   6.889 -0.0540  0.1847  0.1901
 4440SOL    HW113845   0.717   2.665   6.931 -2.1787  0.3168 -0.8218
 4440SOL    HW213846   0.748   2.603   6.796 -0.0010 -0.5396  0.0207
 4441SOL     OW13847   6.188   2.943   5.965 -0.1605 -0.2847 -0.3980
 4441SOL    HW113848   6.231   2.959   6.049 -0.5045 -3.0074  0.3670
 4441SOL    HW213849   6.258   2.911   5.908 -0.2020  0.2626 -0.7713
 4442SOL     OW13850   6.140   1.581   0.158 -0.4616  0.2669 -0.2661
 4442SOL    HW113851   6.112   1.554   0.246 -2.3398  2.7779  0.0403
 4442SOL    HW213852   6.109   1.512   0.101 -0.0876 -0.9392  0.9348
 4443SOL     OW13853   0.653   7.196   5.542  0.2759 -0.1986 -0.1913
 4443SOL    HW113854   0.615   7.168   5.625 -0.2656 -1.4385 -0.8216
 4443SOL    HW213855   0.580   7.237   5.495 -0.2405 -2.1248 -1.1959
 4444SOL     OW13856   7.078   6.972   2.661  0.0212  0.8440 -0.3495
 4444SOL    HW113857   7.046   6.916   2.590  0.3611  2.3702 -1.7865
 4444SOL    HW213858   7.006   6.977   2.723  0.0093 -1.1952 -0.1268
 4445SOL     OW13859   1.680   3.395   2.981 -0.1730 -0.0098  0.6843
 4445SOL    HW113860   1.705   3.485   3.001  0.4213  0.0269 -0.1802
 4445SOL    HW213861   1.711   3.381   2.891  0.5843 -1.3793  1.1320
 4446SOL     OW13862   3.510   0.957   3.152  0.2626 -0.2569 -0.1766
 4446SOL    HW113863   3.484   0.889   3.091 -0.1702 -0.0100 -0.2673
 4446SOL    HW213864   3.587   0.997   3.112 -0.8502  0.8633 -1.2848
 4447SOL     OW13865   2.248   3.521   1.487  0.0635 -0.0353  0.5015
 4447SOL    HW113866   2.208   3.463   1.551 -1.5147  1.2304  0.7155
 4447SOL    HW213867   2.237   3.609   1.524  0.0878  0.6245 -0.9934
 4448SOL     OW13868   5.109   5.135   2.378  0.3534  0.1407 -0.7005
 4448SOL    HW113869   5.093   5.144   2.472 -1.0696  0.7328 -0.9713
 4448SOL    HW213870   5.139   5.221   2.350 -0.5289  0.3537 -1.0138
 4449SOL     OW13871   4.876   1.090   0.943  0.8036  0.2113 -0.0951
 4449SOL    HW113872   4.881   1.171   0.994 -1.0287  0.1464  0.2409
 4449SOL    HW213873   4.876   1.119   0.852  2.3872  0.4223 -0.0612
 4450SOL     OW13874   7.213   2.488   2.942 -0.1010  0.1661 -0.5827
 4450SOL    HW113875   7.186   2.578   2.957 -0.3111  0.1696 -0.9827
 4450SOL    HW213876   7.301   2.483   2.979 -0.2369  0.4299 -0.2131
 4451SOL     OW13877   7.118   0.209   5.169 -0.1446  0.4053  0.1180
 4451SOL    HW113878   7.194   0.172   5.126 -0.9238 -1.0529 -0.1013
 4451SOL    HW213879   7.141   0.300   5.187  1.7779 -0.1051  0.4156
 4452SOL     OW13880   5.030   6.089   6.362 -0.1516 -0.3356 -0.6817
 4452SOL    HW113881   5.023   6.136   6.445  1.4459 -1.4839  0.1567
 4452SOL    HW213882   4.997   6.151   6.296 -0.2419  1.0764  0.6403
 4453SOL     OW13883   0.778   2.708   3.217 -0.0654 -0.0725 -0.0212
 4453SOL    HW113884   0.872   2.694   3.201 -0.4629 -2.5871 -0.7285
 4453SOL    HW213885   0.747   2.755   3.139  0.5578  0.4885  0.0676
 4454SOL     OW13886   6.581   3.346   1.339 -0.2802 -0.2061 -0.7363
 4454SOL    HW113887   6.650   3.404   1.308  1.5788 -0.2754  2.7588
 4454SOL    HW213888   6.499   3.389   1.314  1.0443  2.3415 -0.9382
 4455SOL     OW13889   5.469   0.954   6.886 -0.1569  0.0035 -0.1744
 4455SOL    HW113890   5.472   0.859   6.894 -1.6631  0.0349  1.4884
 4455SOL    HW213891   5.386   0.972   6.843 -0.4399  0.5860  0.5873
 4456SOL     OW13892   2.682   0.799   5.836 -0.0996 -0.5709  0.2550
 4456SOL    HW113893   2.771   0.809   5.870 -0.6883 -0.5415  1.8694
 4456SOL    HW213894   2.690   0.734   5.767  1.7139  1.7269 -1.9199
 4457SOL     OW13895   4.033   6.223   1.571  0.0124  0.5196 -0.1815
 4457SOL    HW113896   4.043   6.287   1.641 -0.6788  2.2228 -1.5790
 4457SOL    HW213897   3.958   6.253   1.520  0.2481 -0.8790 -1.4443
 4458SOL     OW13898   4.553   5.097   4.345 -0.3954 -0.0573  0.2642
 4458SOL    HW113899   4.526   5.076   4.434  0.0027  0.6159  0.5589
 4458SOL    HW213900   4.612   5.026   4.320 -0.9312 -0.5322  0.3288
 4459SOL     OW13901   6.664   1.180   1.635  0.7454  0.0724 -0.1639
 4459SOL    HW113902   6.624   1.188   1.549  1.0548  0.7831 -0.2471
 4459SOL    HW213903   6.621   1.248   1.688 -1.1760 -1.8540  0.9371
 4460SOL     OW13904   3.836   2.887   2.762  0.3033 -0.2386  0.0238
 4460SOL    HW113905   3.895   2.960   2.778 -1.8083  1.3559  0.9433
 4460SOL    HW213906   3.846   2.830   2.838 -0.0532  0.5630  0.6900
 4461SOL     OW13907   3.743   0.233   0.226  0.2846  0.1116 -0.1835
 4461SOL    HW113908   3.732   0.184   0.145  1.2407 -0.4950  0.0332
 4461SOL    HW213909   3.747   0.166   0.294  0.6102  0.5496  0.2352
 4462SOL     OW13910   6.796   1.573   1.879  0.0980 -0.0215 -0.2948
 4462SOL    HW113911   6.842   1.569   1.963  0.1883  0.5395 -0.3151
 4462SOL    HW213912   6.846   1.515   1.821  0.0307 -0.4138  0.0375
 4463SOL     OW13913   4.217   6.209   5.045  0.4567  0.4464 -0.1699
 4463SOL    HW113914   4.150   6.186   4.981  0.0802  1.2016 -0.0520
 4463SOL    HW213915   4.169   6.243   5.120  0.7936 -1.6963  1.1112
 4464SOL     OW13916   1.722   5.488   7.288  0.1110  0.4400 -0.2469
 4464SOL    HW113917   1.801   5.438   7.268 -0.6357 -0.8829  0.0145
 4464SOL    HW213918   1.752   5.579   7.289  1.5985 -0.0096 -0.3056
 4465SOL     OW13919   3.200   5.085   6.874  0.3646 -0.0194 -0.3224
 4465SOL    HW113920   3.277   5.096   6.930 -1.5230 -0.2387  2.5253
 4465SOL    HW213921   3.193   4.991   6.861  0.9372  0.0482 -1.1513
 4466SOL     OW13922   2.026   0.912   3.369  0.5830  0.4017 -0.4788
 4466SOL    HW113923   1.985   0.913   3.283 -1.9789 -1.0300  0.5799
 4466SOL    HW213924   2.074   0.830   3.372 -1.7681 -1.0681  0.3342
 4467SOL     OW13925   4.914   0.559   5.212  0.3883 -0.7882 -0.1188
 4467SOL    HW113926   4.991   0.604   5.179  0.5834 -2.1264 -1.6226
 4467SOL    HW213927   4.866   0.625   5.260 -0.3995  1.6420 -3.8702
 4468SOL     OW13928   4.536   7.398   1.504  0.7555 -0.3442 -0.1598
 4468SOL    HW113929   4.455   7.348   1.495  0.9297 -0.4721 -1.1996
 4468SOL    HW213930   4.511   7.477   1.551  0.1529 -0.6649  0.0656
 4469SOL     OW13931   2.470   6.803   6.734  0.3157  0.2139  0.1635
 4469SOL    HW113932   2.499   6.891   6.710  1.6065 -0.6316 -1.5799
 4469SOL    HW213933   2.522   6.781   6.811  0.0917  0.9130  0.5214
 4470SOL     OW13934   3.519   4.564   2.714 -0.0675  0.1285  0.4317
 4470SOL    HW113935   3.494   4.508   2.640 -0.4888 -0.9149  1.3346
 4470SOL    HW213936   3.437   4.606   2.740 -0.1786 -0.4880  1.0993
 4471SOL     OW13937   6.173   7.283   0.582  0.0146 -0.0314 -0.5479
 4471SOL    HW113938   6.204   7.257   0.496  0.7706  0.8430 -0.5478
 4471SOL    HW213939   6.222   7.228   0.643  2.3581  1.9955 -0.4928
 4472SOL     OW13940   0.633   1.719   0.149 -0.1840 -0.3979 -1.1897
 4472SOL    HW113941   0.664   1.668   0.074  0.9488 -0.2569 -0.8367
 4472SOL    HW213942   0.705   1.781   0.167  1.0419 -2.4992  1.9977
 4473SOL     OW13943   0.380   0.569   1.484 -0.3085 -0.1376  0.4307
 4473SOL    HW113944   0.423   0.651   1.460  0.0671 -0.5721 -0.4397
 4473SOL    HW213945   0.382   0.517   1.404  1.7264 -1.9889  1.5570
 4474SOL     OW13946   2.170   1.168   0.505 -0.5439 -0.1290 -0.3462
 4474SOL    HW113947   2.205   1.085   0.474  0.0465  0.0221 -0.1012
 4474SOL    HW213948   2.223   1.235   0.461 -0.4305  0.1027  0.1362
 4475SOL     OW13949   0.433   7.373   3.742  0.6069 -0.7754 -0.2089
 4475SOL    HW113950   0.431   7.468   3.739  1.1802 -0.6672  1.5933
 4475SOL    HW213951   0.517   7.349   3.702  1.0316 -0.4317  0.4581
 4476SOL     OW13952   2.641   1.021   2.568 -0.1613 -0.1666  0.5275
 4476SOL    HW113953   2.710   0.957   2.551  1.2687  1.2477  0.8095
 4476SOL    HW213954   2.583   1.015   2.492  1.7209  0.4483 -1.0177
 4477SOL     OW13955   1.794   1.358   5.830 -0.3077 -0.2409 -0.4542
 4477SOL    HW113956   1.699   1.361   5.842 -0.2697 -1.6055  0.4974
 4477SOL    HW213957   1.825   1.443   5.860 -1.2000  0.0510 -0.3399
 4478SOL     OW13958   6.975   3.026   4.289 -0.3086 -0.1958 -0.4404
 4478SOL    HW113959   7.017   2.954   4.337  1.0546  0.1256 -1.0914
 4478SOL    HW213960   6.982   3.101   4.348  1.5318  0.2443 -1.1328
 4479SOL     OW13961   6.634   3.112   0.822  0.4824 -0.1235  0.0825
 4479SOL    HW113962   6.699   3.149   0.763 -0.1343  0.0688 -0.4851
 4479SOL    HW213963   6.621   3.023   0.790  0.5552 -0.2003  0.2678
 4480SOL     OW13964   2.105   0.169   4.289 -0.2332  0.4525 -0.1097
 4480SOL    HW113965   2.116   0.236   4.355  1.0673  0.3029 -0.1532
 4480SOL    HW213966   2.152   0.093   4.323  0.1653  0.2670 -1.0468
 4481SOL     OW13967   1.568   0.368   1.032 -0.7616  0.3716  0.2687
 4481SOL    HW113968   1.494   0.402   1.082 -0.2998 -1.6617  2.5593
 4481SOL    HW213969   1.528   0.315   0.964 -1.4399  0.3350  0.6842
 4482SOL     OW13970   6.309   5.747   2.886 -0.2557  0.6571 -0.1386
 4482SOL    HW113971   6.346   5.833   2.906  2.5122 -0.0402 -1.7841
 4482SOL    HW213972   6.301   5.704   2.972  2.2856  1.0885  0.3747
 4483SOL     OW13973   6.820   1.430   5.088 -0.2421 -0.3159  0.4319
 4483SOL    HW113974   6.784   1.431   5.177 -1.7027  3.2729 -0.0386
 4483SOL    HW213975   6.905   1.474   5.096 -0.8206  0.9388 -0.0253
 4484SOL     OW13976   4.168   1.013   4.531 -0.3975  0.2002 -0.0336
 4484SOL    HW113977   4.209   1.083   4.479  0.6184 -0.2815  0.0921
 4484SOL    HW213978   4.157   1.051   4.618  0.6226  0.0542  0.1701
 4485SOL     OW13979   7.186   5.821   6.111  0.1973  0.4911  0.5782
 4485SOL    HW113980   7.200   5.840   6.018  1.2426  0.4753  0.7223
 4485SOL    HW213981   7.158   5.905   6.148 -0.0449  0.5414  0.2790
 4486SOL     OW13982   7.360   3.253   1.427 -0.1849  0.4011  0.2125
 4486SOL    HW113983   7.307   3.182   1.463 -1.9386  0.8912 -1.2960
 4486SOL    HW213984   7.349   3.246   1.332  1.6738  1.1555 -0.0982
 4487SOL     OW13985   0.396   5.020   7.196 -0.4253  0.2600 -0.2312
 4487SOL    HW113986   0.311   5.037   7.237 -1.7377 -2.2732 -1.6946
 4487SOL    HW213987   0.392   5.068   7.113 -1.6600 -2.0519 -1.5896
 4488SOL     OW13988   2.709   7.191   7.206  0.4006  0.1352  0.0178
 4488SOL    HW113989   2.794   7.219   7.173  0.3501  2.2232  1.4361
 4488SOL    HW213990   2.684   7.261   7.267 -2.0855 -0.6942  0.0275
 4489SOL     OW13991   2.734   7.284   4.102  0.2003  0.4299  0.2102
 4489SOL    HW113992   2.789   7.344   4.152  0.7597  1.4842 -1.5905
 4489SOL    HW213993   2.682   7.341   4.045  0.0579 -0.7589 -0.8746
 4490SOL     OW13994   1.291   3.340   2.097 -0.4104  0.3907 -0.5278
 4490SOL    HW113995   1.321   3.264   2.147  0.7763  1.3846  0.3138
 4490SOL    HW213996   1.371   3.382   2.066 -0.7056  3.5976  2.4692
 4491SOL     OW13997   4.803   7.340   0.741 -0.1930 -0.4830 -0.3019
 4491SOL    HW113998   4.787   7.337   0.835 -1.3825 -0.7036 -0.4968
 4491SOL    HW213999   4.813   7.433   0.721 -1.7240 -0.2759 -0.2172
 4492SOL     OW14000   3.682   0.976   5.368  0.5511  0.2382 -0.1913
 4492SOL    HW114001   3.696   1.029   5.446  1.6483 -0.6145  0.2285
 4492SOL    HW214002   3.650   0.892   5.401  0.7856 -0.0504 -0.6758
 4493SOL     OW14003   5.365   1.142   3.290 -0.5397 -0.6330  0.2219
 4493SOL    HW114004   5.457   1.117   3.284  0.2954  2.2055 -0.5266
 4493SOL    HW214005   5.362   1.204   3.362 -1.1437  1.6907 -1.6644
 4494SOL     OW14006   6.911   2.362   7.512  0.5863  0.0897  0.8007
 4494SOL    HW114007   6.820   2.391   7.514  0.4943 -0.1703  0.5375
 4494SOL    HW214008   6.936   2.367   7.419  0.0670 -2.1418  0.4698
 4495SOL     OW14009   5.001   0.039   2.823  0.2395 -0.2093  0.4369
 4495SOL    HW114010   5.084  -0.007   2.813  0.4474  0.1898  0.3056
 4495SOL    HW214011   4.934  -0.028   2.806  0.5053 -0.7706  1.4634
 4496SOL     OW14012   3.774   2.565   2.709 -0.4890 -0.3069  0.0814
 4496SOL    HW114013   3.860   2.546   2.671 -1.4387 -1.7277 -1.5521
 4496SOL    HW214014   3.741   2.639   2.659 -0.5362 -0.2981  0.1255
 4497SOL     OW14015   1.941   3.051   2.111  0.3185  0.1088  0.5664
 4497SOL    HW114016   2.026   3.049   2.067  1.0623 -0.9139  1.9642
 4497SOL    HW214017   1.882   3.090   2.047  1.4966 -0.6112 -1.0363
 4498SOL     OW14018   3.529   0.201   6.823  0.3026 -0.3955  0.1559
 4498SOL    HW114019   3.491   0.279   6.782  1.1300 -0.0256  0.0867
 4498SOL    HW214020   3.497   0.205   6.913 -0.3255 -0.4195 -0.0614
 4499SOL     OW14021   5.107   0.958   3.575 -0.1352 -0.5374  0.2442
 4499SOL    HW114022   5.031   0.905   3.551  0.5032 -0.8926 -1.0778
 4499SOL    HW214023   5.174   0.935   3.510  0.0485  2.1967 -0.6371
 4500SOL     OW14024   0.414   5.719   7.197 -0.6215 -0.3692 -0.3503
 4500SOL    HW114025   0.349   5.738   7.265  1.1070  2.9143  0.5982
 4500SOL    HW214026   0.479   5.664   7.240  0.1413  1.1743  0.5352
 4501SOL     OW14027   6.768   7.389   2.324 -0.1277  0.0855 -0.4138
 4501SOL    HW114028   6.848   7.421   2.366 -0.4438  1.5409 -0.8433
 4501SOL    HW214029   6.796   7.360   2.237 -0.0701  0.6913 -0.6016
 4502SOL     OW14030   5.131   4.754   1.226  0.2055  0.0396  0.0152
 4502SOL    HW114031   5.207   4.766   1.170  0.7653 -0.7247  0.5883
 4502SOL    HW214032   5.125   4.659   1.238  0.0570  0.1872  1.1864
 4503SOL     OW14033   0.298   1.561   6.740 -0.7542  0.4135 -0.2842
 4503SOL    HW114034   0.308   1.478   6.786  0.2791  0.5674 -0.2098
 4503SOL    HW214035   0.210   1.591   6.764 -1.0449 -0.5278 -0.1146
 4504SOL     OW14036   5.200   1.131   1.945  0.1122 -0.3595 -0.0994
 4504SOL    HW114037   5.191   1.036   1.936 -0.9415 -0.3289  0.5604
 4504SOL    HW214038   5.293   1.144   1.965  0.0639 -1.3369  0.8445
 4505SOL     OW14039   0.773   4.222   0.754 -0.3763 -0.1278  0.4251
 4505SOL    HW114040   0.764   4.317   0.765  1.9811 -0.0212  2.2518
 4505SOL    HW214041   0.808   4.192   0.838  0.9209 -2.3079 -0.8192
 4506SOL     OW14042   5.097   2.721   3.080  0.0663  0.4152  0.2374
 4506SOL    HW114043   5.178   2.766   3.055  0.5339 -0.7786 -0.5246
 4506SOL    HW214044   5.042   2.789   3.119  0.9057  1.5292 -0.4570
 4507SOL     OW14045   4.134   5.480   1.225  0.1294 -0.1247 -0.9000
 4507SOL    HW114046   4.194   5.424   1.175  1.8516  0.0162  0.8635
 4507SOL    HW214047   4.093   5.420   1.288  0.5878  0.2474 -0.2305
 4508SOL     OW14048   3.836   6.132   3.100  0.1638 -0.0941 -0.4669
 4508SOL    HW114049   3.859   6.050   3.056 -0.1269 -0.2789 -0.2685
 4508SOL    HW214050   3.779   6.177   3.038  0.9647  0.3255 -0.9225
 4509SOL     OW14051   5.506   3.552   6.427  0.3129  0.2360 -0.0354
 4509SOL    HW114052   5.554   3.482   6.471 -1.8334 -0.7070  0.9563
 4509SOL    HW214053   5.462   3.510   6.354 -0.1198  0.7689 -0.0917
 4510SOL     OW14054   3.305   5.409   2.697  0.1486 -0.0775  0.1081
 4510SOL    HW114055   3.296   5.418   2.602  0.4578 -0.9566 -0.0100
 4510SOL    HW214056   3.337   5.495   2.726  0.8667 -0.0677 -0.6837
 4511SOL     OW14057   1.946   7.287   7.115 -0.1331 -0.0959 -0.0079
 4511SOL    HW114058   2.020   7.262   7.171 -0.4233  0.1907  0.5126
 4511SOL    HW214059   1.958   7.236   7.035 -0.4138 -1.4855  0.8012
 4512SOL     OW14060   2.817   7.297   0.636 -0.1622 -0.1819 -0.2866
 4512SOL    HW114061   2.882   7.284   0.567 -1.2691 -1.3845 -1.1447
 4512SOL    HW214062   2.753   7.228   0.622 -0.9626  0.1868  1.3347
 4513SOL     OW14063   3.638   6.773   3.895  0.0401  0.4602  0.5099
 4513SOL    HW114064   3.678   6.707   3.952 -0.6370 -0.1858  0.2584
 4513SOL    HW214065   3.662   6.746   3.807  1.1913  1.5311  0.4669
 4514SOL     OW14066   5.647   0.816   1.403 -0.1106 -0.3191 -0.0038
 4514SOL    HW114067   5.734   0.843   1.374  0.3219 -0.9652  0.6453
 4514SOL    HW214068   5.650   0.826   1.498  0.3335 -3.1889  0.3954
 4515SOL     OW14069   3.581   2.734   3.225  0.4075  0.0294 -0.3023
 4515SOL    HW114070   3.508   2.678   3.199 -0.5774  0.8788  0.5223
 4515SOL    HW214071   3.594   2.716   3.318  1.0458  0.1141 -0.3711
 4516SOL     OW14072   3.908   1.670   5.882 -0.3539  0.4873  0.1067
 4516SOL    HW114073   3.842   1.660   5.950 -0.6811 -1.6314 -0.4593
 4516SOL    HW214074   3.860   1.707   5.808 -0.7893 -0.4530 -0.0943
 4517SOL     OW14075   0.048   2.999   6.368  0.0153 -1.0602  0.1155
 4517SOL    HW114076   0.091   2.940   6.306  1.0738  0.2169 -0.4228
 4517SOL    HW214077  -0.008   3.055   6.313  1.0078  0.1209  0.2657
 4518SOL     OW14078   5.476   0.256   0.883 -0.2269 -0.2158  0.1720
 4518SOL    HW114079   5.517   0.341   0.864 -1.0083 -0.2001 -1.7134
 4518SOL    HW214080   5.417   0.242   0.809 -1.4381 -1.5900  1.3478
 4519SOL     OW14081   2.016   0.854   5.676  0.5993  0.3236  0.5159
 4519SOL    HW114082   1.980   0.937   5.645  0.5564  0.5066  1.0360
 4519SOL    HW214083   2.073   0.824   5.605 -1.5081 -0.5963 -0.8773
 4520SOL     OW14084   5.297   4.197   2.316 -0.1585 -0.2198  0.0640
 4520SOL    HW114085   5.247   4.119   2.291  0.7378 -0.3896 -1.3503
 4520SOL    HW214086   5.325   4.180   2.406  1.1064 -2.1694 -0.6254
 4521SOL     OW14087   6.511   6.664   7.160 -0.3818  0.2037  0.2190
 4521SOL    HW114088   6.572   6.629   7.095  0.9771  0.1564  1.4428
 4521SOL    HW214089   6.545   6.751   7.181 -0.6999  0.1558  0.9735
 4522SOL     OW14090   1.326   4.924   1.635 -0.5000  0.1172  0.0004
 4522SOL    HW114091   1.251   4.947   1.691  0.2692 -0.3344  1.2735
 4522SOL    HW214092   1.391   4.993   1.653 -0.2103 -0.0876 -0.2629
 4523SOL     OW14093   0.753   5.440   6.434 -0.0150  0.0448 -0.1503
 4523SOL    HW114094   0.771   5.357   6.390 -0.1951  0.9817 -2.1047
 4523SOL    HW214095   0.741   5.417   6.526  0.2232 -2.0393 -0.6049
 4524SOL     OW14096   4.707   5.781   1.176 -0.3401  0.5757 -0.0419
 4524SOL    HW114097   4.784   5.728   1.192  1.7772  3.4850  0.2053
 4524SOL    HW214098   4.655   5.773   1.257  0.3391 -0.3694  0.3175
 4525SOL     OW14099   4.543   6.082   6.274  0.2628 -0.1416  0.1339
 4525SOL    HW114100   4.551   6.172   6.244 -0.9033 -0.0619  0.0064
 4525SOL    HW214101   4.548   6.089   6.370 -3.0616  0.5442  0.4026
 4526SOL     OW14102   2.799   1.065   4.044  0.2937  0.0718  0.4190
 4526SOL    HW114103   2.717   1.079   4.091  0.4472  0.8491  0.4789
 4526SOL    HW214104   2.809   0.970   4.039  0.1584 -0.0361  1.7579
 4527SOL     OW14105   4.927   3.322   4.112  0.0811  0.3286  0.0325
 4527SOL    HW114106   5.002   3.274   4.077 -1.5788 -1.8607 -0.7328
 4527SOL    HW214107   4.945   3.328   4.206  0.3851 -1.8506  0.1659
 4528SOL     OW14108   2.920   5.586   3.587 -0.2018  0.2571 -0.0852
 4528SOL    HW114109   2.958   5.658   3.638 -0.0994  0.3075 -0.2306
 4528SOL    HW214110   2.991   5.558   3.529 -0.4146  0.4149 -0.4258
 4529SOL     OW14111   1.365   0.612   7.117  0.1581  0.0591  0.3041
 4529SOL    HW114112   1.329   0.661   7.190  0.8244 -0.3438  0.9223
 4529SOL    HW214113   1.298   0.548   7.095 -0.3109  0.6042  0.1314
 4530SOL     OW14114   7.487   3.638   2.756 -0.1188  0.9174 -0.1841
 4530SOL    HW114115   7.443   3.554   2.770 -0.5189  0.9741 -1.0434
 4530SOL    HW214116   7.420   3.695   2.720  0.9530  0.6050 -2.8712
 4531SOL     OW14117   7.212   5.248   0.675  0.1225 -0.5750  0.1290
 4531SOL    HW114118   7.197   5.296   0.593  0.0374  0.5267  0.7792
 4531SOL    HW214119   7.124   5.227   0.706  0.1085  0.0872  0.5565
 4532SOL     OW14120   0.095   6.685   0.383 -0.6842 -0.4354  0.2136
 4532SOL    HW114121   0.069   6.606   0.335 -1.0410 -1.1273  1.5135
 4532SOL    HW214122   0.190   6.676   0.393 -0.8335 -1.1389  1.0974
 4533SOL     OW14123   7.438   4.460   3.546  0.3593  0.4514 -0.9513
 4533SOL    HW114124   7.506   4.445   3.480  0.5022 -2.8263 -0.2544
 4533SOL    HW214125   7.470   4.414   3.624 -1.7357  0.5430  0.0277
 4534SOL     OW14126   2.688   4.486   1.332  0.1604 -0.1359 -0.2101
 4534SOL    HW114127   2.658   4.419   1.394  0.9711 -0.9530 -0.6821
 4534SOL    HW214128   2.608   4.519   1.292 -0.2289 -1.2548 -0.4015
 4535SOL     OW14129   2.942   5.303   6.997  0.3169  0.0853  0.5227
 4535SOL    HW114130   3.031   5.338   7.008 -0.1881  1.1585  1.4565
 4535SOL    HW214131   2.955   5.211   6.976  1.6742  0.4740 -0.4999
 4536SOL     OW14132   5.998   7.442   2.119  0.8588  0.0111  0.1813
 4536SOL    HW114133   6.075   7.448   2.176  1.2997 -0.5163 -0.3512
 4536SOL    HW214134   6.009   7.359   2.072  0.6026  0.5289 -0.8152
 4537SOL     OW14135   4.278   2.843   5.275 -0.1143 -0.4984  0.1264
 4537SOL    HW114136   4.359   2.890   5.294 -0.1559 -0.4844  0.2683
 4537SOL    HW214137   4.209   2.906   5.295 -0.1381 -0.1254 -1.0403
 4538SOL     OW14138   1.467   2.007   4.153  0.0397  0.4325 -0.6431
 4538SOL    HW114139   1.483   2.029   4.061  0.5898  0.1285 -0.6252
 4538SOL    HW214140   1.504   2.081   4.202 -0.5170  0.7357 -0.6707
 4539SOL     OW14141   4.969   4.303   0.196 -0.0219 -0.7137  0.0554
 4539SOL    HW114142   4.961   4.332   0.105 -1.3231  0.3176  0.4782
 4539SOL    HW214143   4.964   4.383   0.248 -1.3459 -1.4566  1.1386
 4540SOL     OW14144   1.743   6.208   6.528 -0.0447 -0.4861 -0.4465
 4540SOL    HW114145   1.776   6.180   6.443 -0.0094  0.2696 -0.6873
 4540SOL    HW214146   1.820   6.243   6.573 -0.2199 -0.1323 -0.4208
 4541SOL     OW14147   4.172   3.463   3.628  0.5159  0.0119 -0.1404
 4541SOL    HW114148   4.093   3.514   3.615  1.8629  2.7444  1.5936
 4541SOL    HW214149   4.204   3.488   3.715  3.0506 -1.3096 -0.5827
 4542SOL     OW14150   1.798   1.413   7.398 -0.0615  0.2236  0.0954
 4542SOL    HW114151   1.826   1.322   7.408  0.1077  0.4249  1.7077
 4542SOL    HW214152   1.724   1.423   7.458  1.2259  1.6606  1.5456
 4543SOL     OW14153   3.682   6.459   1.305  0.3523  0.0745 -0.0981
 4543SOL    HW114154   3.595   6.446   1.342  0.9774  0.1582  1.4790
 4543SOL    HW214155   3.666   6.497   1.219 -1.2212 -1.7453 -0.6978
 4544SOL     OW14156   3.718   7.269   5.025  0.0878 -0.5691  0.1140
 4544SOL    HW114157   3.706   7.182   5.063  1.4757 -0.3546  1.1373
 4544SOL    HW214158   3.758   7.253   4.940 -1.3956 -0.9873 -0.5276
 4545SOL     OW14159   4.595   7.344   4.711  0.2941 -0.0965  0.1934
 4545SOL    HW114160   4.599   7.438   4.691  0.4293 -0.4636 -1.7657
 4545SOL    HW214161   4.533   7.309   4.647 -0.5255 -1.2142  1.5599
 4546SOL     OW14162   3.756   4.968   0.773 -0.0681  0.2567  0.5844
 4546SOL    HW114163   3.825   5.031   0.795  0.7798 -0.5584  0.2832
 4546SOL    HW214164   3.682   5.023   0.748  1.5413  1.2214 -2.6400
 4547SOL     OW14165   1.250   4.563   0.492 -0.1246  0.1489 -0.2845
 4547SOL    HW114166   1.279   4.568   0.401 -0.5854  0.9124 -0.3991
 4547SOL    HW214167   1.326   4.530   0.540 -0.2524 -1.4077 -1.1100
 4548SOL     OW14168   1.160   4.423   0.023  0.4581  0.7259 -1.0956
 4548SOL    HW114169   1.077   4.460   0.053  1.2800  1.5228  0.3169
 4548SOL    HW214170   1.220   4.498   0.017  1.2925  0.0651 -1.3324
 4549SOL     OW14171   0.213   2.349   0.437  0.3164 -0.5281  0.6385
 4549SOL    HW114172   0.246   2.371   0.349  2.0664 -0.9383  1.1515
 4549SOL    HW214173   0.187   2.257   0.430 -0.1496 -0.3829  0.3964
 4550SOL     OW14174   6.016   4.040   2.334  0.1720 -0.2041 -0.0244
 4550SOL    HW114175   5.975   3.968   2.383 -0.5281 -0.8336 -1.4706
 4550SOL    HW214176   5.991   4.119   2.382 -1.0144 -0.7548  0.3108
 4551SOL     OW14177   1.301   7.077   6.695 -0.2378  0.5155 -0.1384
 4551SOL    HW114178   1.272   7.168   6.702 -0.9098  0.3966 -1.1884
 4551SOL    HW214179   1.221   7.027   6.679  0.1615 -0.2333  0.1268
 4552SOL     OW14180   0.588   7.408   1.508  0.1862  0.3979  0.2032
 4552SOL    HW114181   0.575   7.489   1.458 -2.7473  2.1459  3.3860
 4552SOL    HW214182   0.678   7.413   1.539  0.3572  1.9311 -0.4520
 4553SOL     OW14183   1.814   3.726   6.865  0.3904  0.0963 -0.4138
 4553SOL    HW114184   1.882   3.794   6.868  2.3924 -1.8292  1.1107
 4553SOL    HW214185   1.820   3.690   6.777  2.1929 -0.7671  0.0109
 4554SOL     OW14186   3.260   1.850   4.145 -0.2980  0.0579 -0.2223
 4554SOL    HW114187   3.255   1.816   4.056 -1.5615 -0.3348 -0.0326
 4554SOL    HW214188   3.188   1.806   4.191 -1.7388  2.6253  0.1582
 4555SOL     OW14189   3.758   0.825   0.841 -0.4504  0.1186  0.0930
 4555SOL    HW114190   3.667   0.841   0.815  0.0290 -0.9550 -2.5374
 4555SOL    HW214191   3.756   0.740   0.885 -0.5236 -0.8029 -1.6001
 4556SOL     OW14192   0.567   7.275   6.770 -0.2400  0.3285 -0.3892
 4556SOL    HW114193   0.600   7.232   6.848 -1.7922  0.3793  0.3232
 4556SOL    HW214194   0.556   7.205   6.706 -2.3846 -0.3566  0.6359
 4557SOL     OW14195   5.373   2.716   1.729  0.3907 -0.1724  0.0733
 4557SOL    HW114196   5.441   2.738   1.792  0.8544 -1.0053 -0.1121
 4557SOL    HW214197   5.419   2.709   1.645 -0.0320 -0.1223 -0.1699
 4558SOL     OW14198   6.095   4.152   1.306 -0.2986 -0.0012  0.2255
 4558SOL    HW114199   6.144   4.118   1.231  0.2852  1.2197  0.0181
 4558SOL    HW214200   6.091   4.079   1.368  1.4310 -0.2692  0.0692
 4559SOL     OW14201   2.476   0.942   3.811 -0.1119 -0.3598 -0.0839
 4559SOL    HW114202   2.502   0.887   3.885 -0.1540  0.9768  0.9733
 4559SOL    HW214203   2.531   1.020   3.819 -0.2287 -0.1255 -1.3858
 4560SOL     OW14204   4.654   0.260   3.155  0.1815 -0.1490  0.2362
 4560SOL    HW114205   4.711   0.336   3.162 -0.2931  0.2345  0.0790
 4560SOL    HW214206   4.664   0.231   3.064  0.3732 -0.2797  0.3000
 4561SOL     OW14207   3.815   5.848   7.218 -0.1260 -0.1479  0.2527
 4561SOL    HW114208   3.783   5.938   7.228  1.8826  0.5176  1.3373
 4561SOL    HW214209   3.800   5.807   7.302  1.3003  0.0212  0.6149
 4562SOL     OW14210   3.558   1.418   1.767 -0.1579 -0.8743 -0.4013
 4562SOL    HW114211   3.506   1.492   1.796  1.5396  0.7011 -1.1660
 4562SOL    HW214212   3.494   1.348   1.752 -1.6554 -0.0764  1.7557
 4563SOL     OW14213   2.048   0.071   0.193  0.5189  0.2682 -0.3874
 4563SOL    HW114214   2.050   0.157   0.150 -0.8437  0.6385  0.2417
 4563SOL    HW214215   2.050   0.091   0.286 -1.0463 -0.3190 -0.2125
 4564SOL     OW14216   0.518   5.823   5.021 -0.3416 -0.3653 -0.4211
 4564SOL    HW114217   0.538   5.787   5.107 -0.7911 -0.2287 -0.2615
 4564SOL    HW214218   0.581   5.780   4.963  1.5764  1.3117  0.3199
 4565SOL     OW14219   0.934   4.893   3.687 -0.1226 -0.3549  0.0025
 4565SOL    HW114220   1.007   4.847   3.645 -0.9724 -1.2556 -0.5290
 4565SOL    HW214221   0.958   4.895   3.780  0.8848 -0.0399 -0.2539
 4566SOL     OW14222   0.160   2.356   3.057 -0.5214 -0.0197 -0.3107
 4566SOL    HW114223   0.122   2.284   3.108  0.2313 -0.3655 -0.2170
 4566SOL    HW214224   0.151   2.432   3.113  0.5113 -0.4421  0.4573
 4567SOL     OW14225   3.605   4.209   1.285  0.4320  0.1570 -0.3238
 4567SOL    HW114226   3.622   4.240   1.196  1.7330 -0.3750 -0.2844
 4567SOL    HW214227   3.597   4.289   1.337 -0.1900  0.4703 -0.8877
 4568SOL     OW14228   3.430   3.664   3.928 -0.6269 -0.1005 -0.8935
 4568SOL    HW114229   3.375   3.742   3.925  0.9746  1.1886  1.3778
 4568SOL    HW214230   3.493   3.676   3.857  1.6926  2.4124  1.3934
 4569SOL     OW14231   6.535   1.673   2.335  0.0438 -0.0153  0.2834
 4569SOL    HW114232   6.527   1.665   2.430  1.2034  0.4883  0.4459
 4569SOL    HW214233   6.505   1.762   2.316  1.0260  0.3396  0.3521
 4570SOL     OW14234   6.584   4.837   7.242  0.4384 -0.2288  0.2757
 4570SOL    HW114235   6.507   4.891   7.257  0.6305  0.0334  0.3300
 4570SOL    HW214236   6.657   4.899   7.238  0.7198 -0.5202  0.7638
 4571SOL     OW14237   5.591   5.237   2.677 -0.1642  0.1892  0.0767
 4571SOL    HW114238   5.680   5.261   2.654  0.8613 -1.2736  2.1696
 4571SOL    HW214239   5.550   5.213   2.593  1.8790 -0.5557 -0.7640
 4572SOL     OW14240   7.139   2.094   0.029 -0.1062  0.3872  0.4397
 4572SOL    HW114241   7.128   2.028  -0.039 -0.9116  0.5989  0.3495
 4572SOL    HW214242   7.056   2.142   0.029 -0.4466 -0.1356  2.1286
 4573SOL     OW14243   3.387   0.898   0.614 -0.2571  0.3080  0.3259
 4573SOL    HW114244   3.459   0.860   0.563 -0.2044  0.4619  0.2856
 4573SOL    HW214245   3.327   0.933   0.548  0.1381  1.1096  0.3817
 4574SOL     OW14246   2.644   5.408   1.298  0.5630  0.1295  0.0926
 4574SOL    HW114247   2.652   5.317   1.328  2.5686 -0.7591 -2.6865
 4574SOL    HW214248   2.724   5.450   1.330 -0.0848  0.8030  0.8719
 4575SOL     OW14249   0.492   7.336   4.120  0.2663  0.5754  0.0125
 4575SOL    HW114250   0.404   7.374   4.120 -0.2681 -0.6093  0.4593
 4575SOL    HW214251   0.548   7.406   4.086 -0.5712  1.9706  1.3777
 4576SOL     OW14252   5.991   6.427   1.777  0.0395  0.3832  0.1508
 4576SOL    HW114253   5.996   6.335   1.754 -2.2714 -0.0484  1.1537
 4576SOL    HW214254   5.996   6.474   1.693 -0.4274 -0.7206 -0.5042
 4577SOL     OW14255   6.892   4.822   1.759  0.2988 -0.2808  0.3462
 4577SOL    HW114256   6.860   4.896   1.811  1.4868 -0.9036  2.0541
 4577SOL    HW214257   6.855   4.836   1.672 -0.9387  1.3635  1.0836
 4578SOL     OW14258   7.129   2.256   7.271  0.5719 -0.1826  0.0405
 4578SOL    HW114259   7.100   2.189   7.333 -0.2878 -0.7133 -0.9190
 4578SOL    HW214260   7.049   2.287   7.229  0.7733  2.3021  1.2397
 4579SOL     OW14261   6.368   4.672   2.525 -0.0596 -0.3444  0.2251
 4579SOL    HW114262   6.389   4.706   2.612 -0.8976 -1.6446  0.9715
 4579SOL    HW214263   6.435   4.605   2.509  1.4778  1.4126 -1.1612
 4580SOL     OW14264   2.852   2.702   5.992  0.2659  0.3640 -0.0036
 4580SOL    HW114265   2.887   2.616   6.015 -0.3550  0.1725  0.2608
 4580SOL    HW214266   2.928   2.753   5.964  0.8646  0.2046  1.2638
 4581SOL     OW14267   1.697   7.072   4.953  0.1902 -0.1541  0.3361
 4581SOL    HW114268   1.621   7.024   4.987  0.8267 -0.6067  1.1704
 4581SOL    HW214269   1.721   7.131   5.024  0.4295  0.2166 -0.0511
 4582SOL     OW14270   3.807   2.539   1.916 -0.2830 -0.6420  0.1845
 4582SOL    HW114271   3.883   2.482   1.908 -0.6987 -1.3280  1.0381
 4582SOL    HW214272   3.836   2.612   1.970  0.4148  0.2906 -1.3676
 4583SOL     OW14273   2.335   6.215   7.295 -0.6696 -0.4485 -0.1044
 4583SOL    HW114274   2.341   6.235   7.201  0.4562  0.3637  0.1067
 4583SOL    HW214275   2.374   6.292   7.337  1.8142 -2.1004  0.8857
 4584SOL     OW14276   7.081   1.968   3.956 -0.1222 -0.4447  0.6466
 4584SOL    HW114277   7.136   1.895   3.984  1.0609  0.5891  1.0847
 4584SOL    HW214278   7.052   1.943   3.868  2.0128 -0.5056 -0.0759
 4585SOL     OW14279   4.202   1.457   0.701 -0.1339 -0.2942 -0.0879
 4585SOL    HW114280   4.177   1.458   0.608 -0.3872 -1.6840 -0.0581
 4585SOL    HW214281   4.220   1.548   0.722  2.2618 -0.2021 -2.1394
 4586SOL     OW14282   7.298   1.839   2.590  0.2237 -1.0553 -0.0155
 4586SOL    HW114283   7.254   1.833   2.505  1.1221  0.4025 -0.6172
 4586SOL    HW214284   7.333   1.927   2.592 -1.4791 -0.3261  2.7347
 4587SOL     OW14285   5.908   4.457   6.413  0.2246 -0.0719  0.3617
 4587SOL    HW114286   5.934   4.490   6.499 -1.9657  1.0044  0.6745
 4587SOL    HW214287   5.988   4.460   6.361  1.2031  0.9545  1.8547
 4588SOL     OW14288   1.620   3.313   3.711  0.2509 -0.1533 -0.4786
 4588SOL    HW114289   1.684   3.384   3.715 -0.7807  0.7523  1.5017
 4588SOL    HW214290   1.564   3.335   3.636 -1.6073  2.6651  1.5015
 4589SOL     OW14291   6.894   4.292   1.282 -0.3517 -0.4949 -0.4216
 4589SOL    HW114292   6.959   4.226   1.308  0.4137 -0.2884 -1.7279
 4589SOL    HW214293   6.901   4.360   1.348  0.4818 -0.6705 -0.3125
 4590SOL     OW14294   7.497   1.067   5.764 -0.4142 -0.4330 -0.2919
 4590SOL    HW114295   7.439   1.043   5.836  0.7744 -0.9415  0.5323
 4590SOL    HW214296   7.579   1.023   5.784  0.1116 -0.1229 -1.6815
 4591SOL     OW14297   6.326   2.822   2.283 -0.2105  0.5647 -0.0820
 4591SOL    HW114298   6.309   2.735   2.319 -0.9355  1.3777  1.6346
 4591SOL    HW214299   6.363   2.871   2.356 -0.6475  1.9595 -0.7742
 4592SOL     OW14300   2.135   3.719   0.279 -0.0434  0.3902 -0.2005
 4592SOL    HW114301   2.168   3.752   0.195  0.7795  0.4366  0.1325
 4592SOL    HW214302   2.197   3.753   0.344 -0.6744  0.3569  0.4289
 4593SOL     OW14303   5.500   3.838   2.842 -0.0633  0.5075 -0.1847
 4593SOL    HW114304   5.515   3.746   2.822 -0.5347  0.2827  0.4484
 4593SOL    HW214305   5.472   3.838   2.934 -4.3544  0.7786 -1.2476
 4594SOL     OW14306   6.410   0.931   1.520 -0.3872  0.3152 -0.3092
 4594SOL    HW114307   6.426   0.947   1.427  1.2650 -0.0547 -0.1060
 4594SOL    HW214308   6.316   0.909   1.524 -0.0820 -1.7596 -2.2090
 4595SOL     OW14309   5.589   1.577   4.264  0.2026 -0.0148  0.2252
 4595SOL    HW114310   5.568   1.555   4.355  1.4279 -0.8034  0.3440
 4595SOL    HW214311   5.505   1.605   4.226 -0.2828  0.5461  1.6459
 4596SOL     OW14312   7.462   0.023   0.281  0.2860  0.2546 -0.3207
 4596SOL    HW114313   7.517   0.100   0.292 -1.8766  2.0783 -1.4169
 4596SOL    HW214314   7.451   0.014   0.186  0.4309 -1.3744 -0.2131
 4597SOL     OW14315   4.657   4.354   7.420 -0.1279  0.1866  0.0487
 4597SOL    HW114316   4.653   4.261   7.398 -0.0783  0.2691 -0.3153
 4597SOL    HW214317   4.713   4.392   7.352 -1.9155  0.8712 -1.1257
 4598SOL     OW14318   6.973   7.198   0.895 -0.7596 -0.0974 -0.4033
 4598SOL    HW114319   7.020   7.223   0.974 -2.1441  1.6890 -0.0692
 4598SOL    HW214320   6.906   7.136   0.925  0.6880 -1.9122 -0.7361
 4599SOL     OW14321   0.224   2.593   3.158 -0.1148  0.5310  0.2037
 4599SOL    HW114322   0.238   2.681   3.124  0.2415  0.7621  0.9345
 4599SOL    HW214323   0.275   2.589   3.239 -0.6061 -0.1437  0.4989
 4600SOL     OW14324   0.482   1.973   5.965 -0.0653  0.3046  0.0299
 4600SOL    HW114325   0.505   2.052   6.015  0.1553 -0.7713  1.7106
 4600SOL    HW214326   0.530   1.903   6.008  2.4063 -0.3616 -3.4464
 4601SOL     OW14327   6.283   4.356   6.673 -0.2865  0.0620  0.4444
 4601SOL    HW114328   6.352   4.334   6.734  1.6207  1.6088 -1.0121
 4601SOL    HW214329   6.203   4.324   6.714  1.3928 -3.4155  1.4293
 4602SOL     OW14330   3.415   0.652   4.733 -0.1818 -0.0141  0.0924
 4602SOL    HW114331   3.386   0.726   4.680 -0.3880  1.6368  2.3697
 4602SOL    HW214332   3.505   0.675   4.759  0.7917 -1.9018 -1.3890
 4603SOL     OW14333   0.873   2.818   2.090  0.6637 -0.2464 -0.3755
 4603SOL    HW114334   0.898   2.872   2.015  1.1202 -0.1256 -0.1432
 4603SOL    HW214335   0.851   2.880   2.158  1.9158 -0.3275  0.1327
 4604SOL     OW14336   6.214   5.734   6.582 -0.7196  0.9556 -0.4236
 4604SOL    HW114337   6.165   5.771   6.656 -1.7182  1.8904 -1.5257
 4604SOL    HW214338   6.282   5.799   6.563  0.8673 -0.2155  0.9293
 4605SOL     OW14339   6.826   0.011   0.672 -0.0534  0.0562 -0.2403
 4605SOL    HW114340   6.827   0.043   0.762  0.8323 -1.1063  0.1884
 4605SOL    HW214341   6.736   0.022   0.643 -0.3232  0.5310  0.7610
 4606SOL     OW14342   3.705   6.006   5.312 -0.2969 -0.3565  0.3347
 4606SOL    HW114343   3.794   5.999   5.277 -1.0522  1.9865 -2.4569
 4606SOL    HW214344   3.698   6.098   5.339 -2.0168 -0.3297 -0.1173
 4607SOL     OW14345   2.194   6.708   6.520  0.8779 -0.1238 -0.0113
 4607SOL    HW114346   2.238   6.665   6.593 -0.2141  0.1719  0.8435
 4607SOL    HW214347   2.265   6.752   6.472  1.6416 -0.5055  0.7353
 4608SOL     OW14348   2.414   2.451   0.256 -0.4005 -0.6582  0.6586
 4608SOL    HW114349   2.378   2.374   0.213 -0.1476 -1.6441  2.1551
 4608SOL    HW214350   2.506   2.452   0.230 -1.0924  1.2373 -2.2638
 4609SOL     OW14351   7.525   0.803   0.877 -0.1080 -0.0856 -0.0812
 4609SOL    HW114352   7.561   0.835   0.794 -2.4188 -0.6835 -1.3906
 4609SOL    HW214353   7.558   0.865   0.943  1.0924  0.8917 -1.5445
 4610SOL     OW14354   5.584   0.604   2.534 -0.0728 -0.7042 -0.4820
 4610SOL    HW114355   5.609   0.668   2.467  0.1345  0.1699  0.4022
 4610SOL    HW214356   5.514   0.647   2.583 -0.9238 -1.7427 -0.7533
 4611SOL     OW14357   3.646   4.202   6.400 -0.5161 -0.1465  0.4912
 4611SOL    HW114358   3.621   4.132   6.339 -0.6275  0.8916 -0.6873
 4611SOL    HW214359   3.728   4.237   6.364  0.7202 -1.0366  2.2473
 4612SOL     OW14360   3.230   0.200   6.717 -0.5254 -0.3570  1.0158
 4612SOL    HW114361   3.239   0.156   6.632 -1.3374  0.6313  0.3892
 4612SOL    HW214362   3.211   0.130   6.778 -0.5106 -1.0282  0.2676
 4613SOL     OW14363   3.200   5.368   7.016 -0.2060  0.4814  0.1608
 4613SOL    HW114364   3.237   5.447   7.056  0.4573 -0.0616  0.6451
 4613SOL    HW214365   3.262   5.299   7.038  0.0628  0.1111 -1.6030
 4614SOL     OW14366   1.552   7.287   6.972 -0.0612 -0.2838 -0.2482
 4614SOL    HW114367   1.606   7.310   7.048 -0.5083  0.6238 -0.1907
 4614SOL    HW214368   1.614   7.258   6.906  0.3753 -0.6316  0.3074
 4615SOL     OW14369   4.162   0.498   0.290 -0.4314  0.3273 -0.2095
 4615SOL    HW114370   4.177   0.442   0.366  0.3075 -0.8731 -1.2066
 4615SOL    HW214371   4.139   0.437   0.220  0.7130  1.2329 -1.4149
 4616SOL     OW14372   1.756   0.303   3.407  0.2805 -0.0104 -0.6551
 4616SOL    HW114373   1.785   0.222   3.449  2.2707 -1.1393 -3.8445
 4616SOL    HW214374   1.825   0.366   3.426  0.4298 -0.0899 -0.9162
 4617SOL     OW14375   0.780   3.347   4.965 -0.1007  0.2817  0.4664
 4617SOL    HW114376   0.853   3.376   5.019  0.1410  1.0071 -0.2277
 4617SOL    HW214377   0.801   3.379   4.877 -1.1732  0.3812  0.2292
 4618SOL     OW14378   0.391   7.072   3.131  0.5356  0.0077  0.4072
 4618SOL    HW114379   0.318   7.017   3.157 -1.2481  1.7493 -0.6914
 4618SOL    HW214380   0.367   7.160   3.161  1.7092  0.8022 -0.8716
 4619SOL     OW14381   4.010   0.506   4.949  0.3136  0.1852 -0.1240
 4619SOL    HW114382   4.066   0.480   4.876  1.5992 -0.2367  0.9713
 4619SOL    HW214383   4.069   0.514   5.024 -0.5948  2.6505  0.4614
 4620SOL     OW14384   6.079   4.522   3.243  0.1101  0.2820  0.1188
 4620SOL    HW114385   6.137   4.576   3.295  1.6812 -1.5764  0.4323
 4620SOL    HW214386   6.088   4.555   3.154 -0.8543  2.0383  0.6411
 4621SOL     OW14387   4.032   1.743   3.659  0.0410  0.2573 -0.1061
 4621SOL    HW114388   3.990   1.808   3.716 -0.9181  1.3264 -1.9553
 4621SOL    HW214389   3.964   1.677   3.644  0.5577 -0.4679  0.5964
 4622SOL     OW14390   3.234   6.927   7.025  0.0670  0.3251  0.2656
 4622SOL    HW114391   3.306   6.929   6.962  0.3949  0.1857  0.6296
 4622SOL    HW214392   3.250   7.002   7.081  0.5816 -0.3551  1.0536
 4623SOL     OW14393   0.461   6.226   2.956  0.2432  0.1919 -0.1043
 4623SOL    HW114394   0.492   6.304   2.910 -2.6447  1.0198 -0.9306
 4623SOL    HW214395   0.430   6.258   3.040 -0.9541 -0.0137 -0.4425
 4624SOL     OW14396   6.042   3.275   3.013 -0.3654 -0.1745 -0.3057
 4624SOL    HW114397   5.952   3.243   3.003 -0.4971  0.7785 -2.8256
 4624SOL    HW214398   6.096   3.196   3.004 -0.8827 -0.5352 -0.3299
 4625SOL     OW14399   4.484   2.953   1.419 -0.5109  0.7631 -0.3662
 4625SOL    HW114400   4.463   3.045   1.438  0.0237  0.9790 -0.8228
 4625SOL    HW214401   4.432   2.932   1.342  0.9641  1.3277 -1.5595
 4626SOL     OW14402   3.205   2.910   4.484 -0.0365  0.1180 -0.0739
 4626SOL    HW114403   3.181   2.999   4.458  1.3153  0.1326 -1.4338
 4626SOL    HW214404   3.121   2.863   4.489 -0.6631  1.1111 -0.7653
 4627SOL     OW14405   2.145   6.658   0.462 -0.1450 -0.1947  0.1090
 4627SOL    HW114406   2.134   6.651   0.557 -0.1245  2.4493  0.3842
 4627SOL    HW214407   2.055   6.664   0.429 -0.1539 -1.1843 -0.0531
 4628SOL     OW14408   3.960   1.790   4.652 -0.4151  0.2401  0.1452
 4628SOL    HW114409   4.022   1.739   4.704 -0.2784  0.1741 -0.0846
 4628SOL    HW214410   3.978   1.881   4.675  1.9488  0.4788 -2.3048
 4629SOL     OW14411   1.175   4.524   1.139 -0.0912  0.0752  0.1672
 4629SOL    HW114412   1.108   4.491   1.199 -0.8864 -0.5517 -1.0317
 4629SOL    HW214413   1.251   4.467   1.155  0.0939  0.6097  1.3266
 4630SOL     OW14414   0.172   2.303   4.240 -0.0468  0.9216  0.5788
 4630SOL    HW114415   0.175   2.384   4.188  2.5380  0.6416  0.1340
 4630SOL    HW214416   0.252   2.256   4.215 -0.2408 -0.6308  2.6399
 4631SOL     OW14417   6.207   0.090   1.153 -0.2645 -0.4435 -0.0797
 4631SOL    HW114418   6.116   0.086   1.181 -0.1690  0.8230  0.5053
 4631SOL    HW214419   6.203   0.085   1.057 -0.8405 -1.5916 -0.0064
 4632SOL     OW14420   4.766   3.479   3.963  0.3135  0.1905 -0.2452
 4632SOL    HW114421   4.829   3.450   4.029  0.7952  1.1533 -0.2690
 4632SOL    HW214422   4.794   3.434   3.883 -0.1252 -0.7852  0.1294
 4633SOL     OW14423   1.854   6.824   0.238 -0.8248  0.1053 -0.1602
 4633SOL    HW114424   1.925   6.878   0.204 -0.4447 -0.6124 -0.5402
 4633SOL    HW214425   1.822   6.871   0.315  0.2188  0.3260  0.1521
 4634SOL     OW14426   5.895   0.415   1.980 -0.1455  0.0799  0.2984
 4634SOL    HW114427   5.979   0.370   1.994 -0.7838 -1.2135  0.1190
 4634SOL    HW214428   5.834   0.345   1.956 -0.8241  1.2612 -1.5852
 4635SOL     OW14429   6.549   3.564   2.278  0.1394  0.4368 -0.4502
 4635SOL    HW114430   6.635   3.522   2.275  0.2470  0.6581 -0.4970
 4635SOL    HW214431   6.568   3.658   2.277 -0.0688  0.4981  0.4229
 4636SOL     OW14432   2.363   0.092   0.401  0.2413  0.4476  0.5173
 4636SOL    HW114433   2.443   0.134   0.432  0.8642 -0.8301  0.7012
 4636SOL    HW214434   2.371   0.001   0.428 -0.7764  0.0480 -0.4203
 4637SOL     OW14435   0.127   5.503   1.357 -0.4115 -0.3362  0.4959
 4637SOL    HW114436   0.113   5.521   1.450 -1.8047  1.8050 -0.0644
 4637SOL    HW214437   0.087   5.417   1.343 -2.6697  0.4998  1.3761
 4638SOL     OW14438   4.752   1.333   5.529 -0.6102 -0.0623 -0.1911
 4638SOL    HW114439   4.809   1.402   5.495 -1.0438  0.0652 -0.6893
 4638SOL    HW214440   4.677   1.333   5.469 -1.1722 -0.1659  0.5016
 4639SOL     OW14441   1.133   4.420   6.748  0.1214  0.0970 -0.8196
 4639SOL    HW114442   1.228   4.431   6.758  0.5645 -1.9387 -2.1859
 4639SOL    HW214443   1.098   4.435   6.836  1.5909  1.7106 -0.4624
 4640SOL     OW14444   1.711   4.961   0.787  0.1732 -0.0906 -0.0809
 4640SOL    HW114445   1.668   5.003   0.712 -0.3911  0.3536  0.4814
 4640SOL    HW214446   1.648   4.969   0.859 -0.3986 -2.8213 -0.1826
 4641SOL     OW14447   0.396   6.821   1.661 -0.2747  0.4791  0.1373
 4641SOL    HW114448   0.463   6.770   1.706 -0.5574 -0.5610 -0.5700
 4641SOL    HW214449   0.406   6.910   1.695  0.9816  0.1959  0.5683
 4642SOL     OW14450   0.116   5.177   0.836  0.6017  0.1297  0.3113
 4642SOL    HW114451   0.187   5.202   0.895 -0.2201 -0.3031  1.5260
 4642SOL    HW214452   0.036   5.198   0.885 -0.1068 -1.9009  0.0994
 4643SOL     OW14453   3.503   0.362   4.964 -0.0127  0.1098 -0.6914
 4643SOL    HW114454   3.592   0.397   4.967 -0.1295  0.3649 -0.0045
 4643SOL    HW214455   3.451   0.424   5.015 -0.3284 -0.7462  0.0671
 4644SOL     OW14456   1.689   6.411   5.284  0.3121 -0.1201  0.1548
 4644SOL    HW114457   1.655   6.322   5.272  0.7725 -0.0931 -1.6004
 4644SOL    HW214458   1.758   6.401   5.349 -0.6983 -0.7610  1.1652
 4645SOL     OW14459   4.765   0.876   7.257 -0.0029  0.7266 -0.0776
 4645SOL    HW114460   4.806   0.959   7.236 -0.2713  1.2197  1.2259
 4645SOL    HW214461   4.837   0.813   7.259  0.1502  0.8424 -1.4118
 4646SOL     OW14462   3.881   3.917   0.691 -0.6011 -0.4695 -0.3806
 4646SOL    HW114463   3.883   3.984   0.623 -0.5828 -0.0335  0.0429
 4646SOL    HW214464   3.791   3.917   0.723 -1.5512 -3.0076 -2.6537
 4647SOL     OW14465   0.924   4.777   6.940  0.2551  0.2247  0.0353
 4647SOL    HW114466   0.994   4.777   6.874  1.1635 -1.8915  0.9032
 4647SOL    HW214467   0.955   4.717   7.008 -1.1554  1.4470  1.8674
 4648SOL     OW14468   0.713   0.618   2.602  0.3482 -0.0605 -0.2658
 4648SOL    HW114469   0.754   0.624   2.688  1.1858  0.0046 -0.6592
 4648SOL    HW214470   0.708   0.524   2.584  0.4542 -0.0663 -0.2687
 4649SOL     OW14471   5.298   1.118   0.376  0.5141  0.0348 -0.3531
 4649SOL    HW114472   5.368   1.161   0.427  0.0457 -1.4367  1.6935
 4649SOL    HW214473   5.272   1.183   0.311  1.8524  1.6833  0.6574
 4650SOL     OW14474   5.084   5.306   4.744 -0.3266 -0.6599  0.0373
 4650SOL    HW114475   5.041   5.225   4.772  2.6293 -2.0666  0.9285
 4650SOL    HW214476   5.094   5.356   4.825  1.4948 -1.3264  0.2762
 4651SOL     OW14477   0.711   2.988   6.752  0.8846 -0.0508 -0.5248
 4651SOL    HW114478   0.719   2.940   6.835 -0.1750  1.0023  0.2107
 4651SOL    HW214479   0.679   2.922   6.690  0.7797 -0.6306  0.1249
 4652SOL     OW14480   4.405   6.711   5.529  0.8382  0.4282 -0.3213
 4652SOL    HW114481   4.339   6.742   5.467  1.2275 -0.1014 -1.0196
 4652SOL    HW214482   4.473   6.779   5.529 -0.3039  1.6569  1.4399
 4653SOL     OW14483   5.455   1.076   1.853  0.5410  0.7128 -0.9046
 4653SOL    HW114484   5.486   1.011   1.790 -1.4345  0.6003 -1.8310
 4653SOL    HW214485   5.375   1.111   1.814  0.4739  2.2603  0.5205
 4654SOL     OW14486   0.809   6.219   0.766  0.2204 -0.3839 -0.1524
 4654SOL    HW114487   0.859   6.140   0.742  0.2616 -0.1096 -1.0255
 4654SOL    HW214488   0.821   6.277   0.691 -1.1314 -0.1702 -0.2126
 4655SOL     OW14489   2.144   0.160   7.330  0.1996  0.7342 -0.1778
 4655SOL    HW114490   2.153   0.079   7.280 -2.8831 -0.9021  1.6041
 4655SOL    HW214491   2.127   0.228   7.265 -0.4882 -0.6920 -1.5422
 4656SOL     OW14492   2.334   6.177   3.633 -0.6203 -0.4380  0.5086
 4656SOL    HW114493   2.327   6.126   3.553  0.2546  0.1769  0.0260
 4656SOL    HW214494   2.299   6.119   3.701 -2.0757 -0.6939 -0.4079
 4657SOL     OW14495   5.293   5.319   3.254  0.1392 -0.1831 -0.0773
 4657SOL    HW114496   5.209   5.320   3.209  0.6911 -0.7932 -1.1675
 4657SOL    HW214497   5.349   5.263   3.200  1.4270  0.7096  0.2731
 4658SOL     OW14498   1.677   2.245   2.130 -0.5108  0.4274 -0.2195
 4658SOL    HW114499   1.689   2.222   2.038 -0.6803 -0.6223  0.0083
 4658SOL    HW214500   1.673   2.340   2.131  0.4417  0.4918 -1.1863
 4659SOL     OW14501   4.134   6.444   0.580  0.0704  0.4382 -0.1987
 4659SOL    HW114502   4.106   6.412   0.666  1.0830  0.3156  0.0933
 4659SOL    HW214503   4.164   6.533   0.596  0.7095  0.2483 -0.3412
 4660SOL     OW14504   0.891   7.072   4.208  0.1251 -0.3953  0.1656
 4660SOL    HW114505   0.824   7.112   4.154  0.7615  0.3304 -0.1106
 4660SOL    HW214506   0.914   7.140   4.272 -0.0642 -0.9648  0.8463
 4661SOL     OW14507   0.402   5.029   1.581  0.3858  0.1773 -0.3969
 4661SOL    HW114508   0.367   5.111   1.615  0.0650 -0.2523  0.3404
 4661SOL    HW214509   0.377   4.963   1.647 -0.7039 -0.7816 -1.7082
 4662SOL     OW14510   4.610   3.528   0.452 -0.4140  0.0321  0.2723
 4662SOL    HW114511   4.628   3.617   0.485 -1.0105  0.2502  0.0272
 4662SOL    HW214512   4.521   3.534   0.417 -1.0455 -1.0436  1.6036
 4663SOL     OW14513   5.463   3.022   2.787  0.2371 -0.1250 -0.1702
 4663SOL    HW114514   5.551   3.056   2.805  0.5229 -0.8990 -0.0159
 4663SOL    HW214515   5.404   3.093   2.809  0.7845  0.1064  0.5758
 4664SOL     OW14516   6.296   5.599   1.729  0.4092  0.1108 -0.1868
 4664SOL    HW114517   6.356   5.528   1.706 -1.1543 -1.0486 -0.8763
 4664SOL    HW214518   6.338   5.644   1.802  1.6611 -1.2414 -0.0401
 4665SOL     OW14519   3.949   1.879   0.157 -0.2452 -0.4624 -0.1586
 4665SOL    HW114520   3.900   1.815   0.105  0.1984 -0.7150 -0.2740
 4665SOL    HW214521   3.976   1.832   0.235 -2.1165  0.3023  1.0240
 4666SOL     OW14522   7.538   6.352   5.018 -0.0055  0.2046  0.8478
 4666SOL    HW114523   7.595   6.406   5.072 -1.2824  2.1968  0.3250
 4666SOL    HW214524   7.516   6.277   5.073  0.1858  1.2517  2.4193
 4667SOL     OW14525   6.326   3.058   6.828 -0.0555  0.1061 -0.2030
 4667SOL    HW114526   6.281   3.139   6.852  0.5169  0.3304  0.1533
 4667SOL    HW214527   6.380   3.082   6.752 -0.5968 -0.1828 -0.6859
 4668SOL     OW14528   4.491   7.547   2.615  0.4880 -0.7453 -0.1814
 4668SOL    HW114529   4.544   7.559   2.693  0.7698 -0.9185 -0.3427
 4668SOL    HW214530   4.531   7.604   2.549 -0.8242  0.7776  0.2928
 4669SOL     OW14531   1.567   4.584   1.327  0.2370 -0.0422  0.2032
 4669SOL    HW114532   1.536   4.662   1.374 -1.9490 -0.9406  0.3751
 4669SOL    HW214533   1.656   4.571   1.359  0.0371  1.3910  1.4702
 4670SOL     OW14534   5.203   2.701   7.013 -0.3889 -0.0541 -0.0989
 4670SOL    HW114535   5.168   2.785   6.981 -2.9340 -1.3902 -1.1287
 4670SOL    HW214536   5.147   2.635   6.972  1.7142 -2.3090  0.4518
 4671SOL     OW14537   4.414   2.726   6.058  0.0785  0.0673 -0.1561
 4671SOL    HW114538   4.490   2.756   6.109 -0.2250 -0.2158  0.4778
 4671SOL    HW214539   4.339   2.741   6.116 -0.1419 -1.3572 -0.0438
 4672SOL     OW14540   3.350   0.556   5.059  0.3244  0.2669 -0.2552
 4672SOL    HW114541   3.353   0.615   4.984 -1.2178  1.1117  0.2939
 4672SOL    HW214542   3.349   0.614   5.135 -1.6012 -0.3800  0.2893
 4673SOL     OW14543   0.021   5.295   5.021  0.3501 -0.6043  0.2111
 4673SOL    HW114544   0.073   5.230   4.974 -0.1540 -2.2604  1.8358
 4673SOL    HW214545   0.037   5.276   5.114 -1.3557  0.3159  0.7366
 4674SOL     OW14546   1.466   6.332   5.425  0.0986  0.2963  0.0938
 4674SOL    HW114547   1.540   6.380   5.463  0.8720  1.0823 -2.2703
 4674SOL    HW214548   1.506   6.258   5.380 -0.7881 -0.5743  0.7119
 4675SOL     OW14549   7.534   0.288   5.104  0.1515  0.2271  0.4908
 4675SOL    HW114550   7.578   0.288   5.019 -0.7238  1.6250  0.0221
 4675SOL    HW214551   7.572   0.363   5.150 -0.4426  0.3608  0.7630
 4676SOL     OW14552   2.681   5.217   3.388  0.1454  0.2201 -0.1320
 4676SOL    HW114553   2.639   5.216   3.474 -1.2717 -0.7451 -0.7934
 4676SOL    HW214554   2.634   5.283   3.338  0.3776  0.1605 -0.4339
 4677SOL     OW14555   6.507   7.021   1.816  0.5031 -0.4770 -0.2215
 4677SOL    HW114556   6.591   7.008   1.861  1.4229  2.0687 -1.0208
 4677SOL    HW214557   6.442   6.980   1.873  2.0613 -0.8407  1.3801
 4678SOL     OW14558   2.173   1.031   4.976 -0.4596  0.1218  0.0602
 4678SOL    HW114559   2.148   1.123   4.985 -0.6538  0.2031 -1.1316
 4678SOL    HW214560   2.097   0.989   4.937 -1.0997 -0.9631  2.3322
 4679SOL     OW14561   6.176   7.518   0.913 -0.2594 -0.7616 -0.3464
 4679SOL    HW114562   6.136   7.436   0.938 -0.5612  0.0623  2.1528
 4679SOL    HW214563   6.105   7.569   0.874 -0.6945 -0.7547  0.4440
 4680SOL     OW14564   6.432   7.278   2.159 -0.3898  0.5803 -0.5152
 4680SOL    HW114565   6.380   7.306   2.083 -1.4463  1.0654  0.3622
 4680SOL    HW214566   6.472   7.359   2.192  0.3298  0.3219 -0.7287
 4681SOL     OW14567   0.124   6.983   3.194 -0.2992 -0.4460  0.1363
 4681SOL    HW114568   0.095   6.897   3.164 -1.2981 -0.4331  1.0130
 4681SOL    HW214569   0.058   7.010   3.257 -0.6533  1.4876 -0.9770
 4682SOL     OW14570   0.171   0.694   3.153  0.2509  0.1712 -0.1950
 4682SOL    HW114571   0.215   0.636   3.092  0.1348  1.0079 -1.1082
 4682SOL    HW214572   0.228   0.770   3.160  0.9795 -0.5054  1.8958
 4683SOL     OW14573   7.039   5.466   2.431  0.7710  0.2735  0.4516
 4683SOL    HW114574   7.073   5.397   2.374  1.3286 -0.2640  1.4128
 4683SOL    HW214575   7.097   5.464   2.508 -0.3752  0.5156  1.3445
 4684SOL     OW14576   7.337   1.078   3.709 -0.1204  0.1632 -0.3768
 4684SOL    HW114577   7.275   1.085   3.782 -0.3982 -1.1179 -0.4809
 4684SOL    HW214578   7.421   1.105   3.747 -0.0139 -1.6160  0.7732
 4685SOL     OW14579   3.946   0.863   5.546  0.5046  0.6272 -0.1014
 4685SOL    HW114580   3.914   0.860   5.456  0.3611 -0.5735 -0.0341
 4685SOL    HW214581   3.958   0.956   5.565  1.9337  0.8445 -1.8542
 4686SOL     OW14582   3.440   2.155   4.994  0.0515  0.3389 -0.3451
 4686SOL    HW114583   3.498   2.097   4.943  0.2967  1.2129 -1.0829
 4686SOL    HW214584   3.446   2.239   4.950 -0.0615  1.0157  0.9006
 4687SOL     OW14585   0.015   6.479   0.189  0.3543  0.5726  0.0735
 4687SOL    HW114586   0.077   6.453   0.121  0.0488 -1.4284  0.5119
 4687SOL    HW214587  -0.051   6.531   0.142  0.3216 -0.4875 -1.1014
 4688SOL     OW14588   3.635   1.021   4.508 -0.7297 -0.4993 -0.4979
 4688SOL    HW114589   3.689   1.023   4.587 -1.9108 -0.0181  0.3186
 4688SOL    HW214590   3.545   1.014   4.540 -1.6561  3.6566 -1.5453
 4689SOL     OW14591   1.984   1.945   2.156  0.2484 -0.0512 -0.6064
 4689SOL    HW114592   2.026   1.874   2.205  0.7497  0.3676 -0.4220
 4689SOL    HW214593   1.975   1.911   2.067  0.5216 -0.3328 -0.5263
 4690SOL     OW14594   4.178   7.416   0.986 -0.0874  0.2042 -0.1462
 4690SOL    HW114595   4.226   7.341   0.951 -0.1739  0.5686 -1.0636
 4690SOL    HW214596   4.090   7.382   1.002 -0.0183  0.0054 -0.1796
 4691SOL     OW14597   6.301   2.745   5.351  0.1296  0.3890  0.2083
 4691SOL    HW114598   6.277   2.801   5.278  1.4182 -0.2535 -0.7476
 4691SOL    HW214599   6.225   2.749   5.410  0.4440  3.7166  0.6039
 4692SOL     OW14600   6.108   4.681   1.754  0.3205  0.3355 -0.1361
 4692SOL    HW114601   6.053   4.748   1.795 -2.3111 -0.6442 -1.7929
 4692SOL    HW214602   6.094   4.602   1.807  0.6230  0.2486 -0.1864
 4693SOL     OW14603   4.573   2.599   6.760 -0.3606 -0.4934 -0.0239
 4693SOL    HW114604   4.564   2.507   6.736 -0.2747 -0.5267  0.0709
 4693SOL    HW214605   4.522   2.608   6.840  0.1790 -0.6110  0.3383
 4694SOL     OW14606   5.944   3.576   1.087 -0.5599  0.0261  0.0052
 4694SOL    HW114607   6.015   3.570   1.023 -0.0880 -0.9370  0.5947
 4694SOL    HW214608   5.864   3.574   1.036 -0.1800 -0.0508 -0.5914
 4695SOL     OW14609   6.447   1.575   1.430  0.0872 -0.2622  0.0851
 4695SOL    HW114610   6.464   1.628   1.352  0.2376  3.2350  2.2829
 4695SOL    HW214611   6.362   1.535   1.414 -1.0256  2.3103 -0.9781
 4696SOL     OW14612   3.468   4.628   5.660  1.1964 -0.1050 -0.1645
 4696SOL    HW114613   3.408   4.674   5.602  1.3189 -1.7886 -1.7379
 4696SOL    HW214614   3.554   4.637   5.619  1.3900 -0.8300  0.0559
 4697SOL     OW14615   2.703   6.408   2.056 -0.8587 -0.5245 -0.4444
 4697SOL    HW114616   2.710   6.361   2.139  0.3512  0.4625  0.0542
 4697SOL    HW214617   2.654   6.487   2.078  0.1953  0.1528 -0.4500
 4698SOL     OW14618   0.795   3.105   5.954 -0.0423  0.4230 -0.2035
 4698SOL    HW114619   0.839   3.134   5.874 -0.1483  0.4255 -0.2610
 4698SOL    HW214620   0.705   3.138   5.946 -0.0311  0.4934 -0.0450
 4699SOL     OW14621   6.526   0.654   5.153 -0.1079 -0.0013 -0.4142
 4699SOL    HW114622   6.607   0.620   5.191 -1.0289 -1.1010  0.6512
 4699SOL    HW214623   6.486   0.703   5.225  0.1768  1.5892 -1.3058
 4700SOL     OW14624   3.501   2.434   5.927 -0.2289 -0.2394 -0.0332
 4700SOL    HW114625   3.455   2.517   5.916 -4.2454 -2.1962  0.2400
 4700SOL    HW214626   3.490   2.413   6.020  1.8020 -0.5979  0.1741
 4701SOL     OW14627   7.166   4.675   0.345  0.4811  0.4388 -0.0845
 4701SOL    HW114628   7.110   4.653   0.420  0.0585  1.5153 -0.0683
 4701SOL    HW214629   7.216   4.595   0.329  0.2110  0.0232  1.0221
 4702SOL     OW14630   0.606   0.909   3.588 -0.0455 -0.1981  0.0878
 4702SOL    HW114631   0.611   1.000   3.562 -1.3250 -0.6949 -2.1205
 4702SOL    HW214632   0.533   0.872   3.537  0.6748 -2.5354  0.5925
 4703SOL     OW14633   4.695   0.859   0.340 -0.4193 -0.6293  0.2895
 4703SOL    HW114634   4.629   0.822   0.283  1.5163  0.8938 -3.2597
 4703SOL    HW214635   4.761   0.790   0.349 -1.3707 -1.3963  2.1127
 4704SOL     OW14636   7.059   1.446   4.925 -0.5277  0.1201  0.3568
 4704SOL    HW114637   7.129   1.478   4.982 -0.6468 -0.5675  0.8964
 4704SOL    HW214638   7.046   1.517   4.862 -0.7941  1.1486  1.5376
 4705SOL     OW14639   2.059   1.302   5.068 -0.3507 -0.0980 -0.1440
 4705SOL    HW114640   1.965   1.292   5.081 -0.1562 -1.6999  0.1549
 4705SOL    HW214641   2.093   1.322   5.156 -0.3713  0.1413 -0.1905
 4706SOL     OW14642   4.874   0.553   1.900 -0.3061  0.1015 -0.4723
 4706SOL    HW114643   4.872   0.553   1.996  1.5927  1.2667 -0.3965
 4706SOL    HW214644   4.946   0.494   1.877 -1.6833 -1.3489 -1.2772
 4707SOL     OW14645   3.209   4.558   0.241  0.0151  0.1006  0.0117
 4707SOL    HW114646   3.187   4.652   0.241 -0.3901  0.0119 -0.1364
 4707SOL    HW214647   3.131   4.517   0.202  0.1484 -0.3069  0.1821
 4708SOL     OW14648   6.534   0.362   0.903  0.0323 -0.0190  0.3249
 4708SOL    HW114649   6.500   0.356   0.813 -0.1394  1.8021  0.2421
 4708SOL    HW214650   6.611   0.305   0.903 -0.6013 -0.9113 -0.6548
 4709SOL     OW14651   7.314   4.815   6.791 -0.6972  0.2386 -0.3146
 4709SOL    HW114652   7.343   4.816   6.883 -2.7828 -0.2465  0.4237
 4709SOL    HW214653   7.339   4.728   6.760  1.6437  1.0335 -0.8408
 4710SOL     OW14654   6.563   4.197   3.098  0.2502 -0.0713  0.4177
 4710SOL    HW114655   6.568   4.206   3.002  0.7226  0.3951  0.4827
 4710SOL    HW214656   6.644   4.152   3.122 -0.0816 -0.6088  0.5580
 4711SOL     OW14657   0.834   6.949   7.082  0.5470  0.9543  0.3973
 4711SOL    HW114658   0.824   6.997   7.164  0.0967  0.1607  0.8176
 4711SOL    HW214659   0.787   7.001   7.017 -1.1543  0.3799  1.1313
 4712SOL     OW14660   5.283   4.615   7.341 -0.2976  0.2500 -0.1573
 4712SOL    HW114661   5.309   4.614   7.249  1.0067 -0.1808  0.2040
 4712SOL    HW214662   5.254   4.526   7.359 -0.2431  0.2521 -0.0591
 4713SOL     OW14663   2.366   7.200   3.033  0.7084 -0.1447 -0.5890
 4713SOL    HW114664   2.388   7.128   2.974  2.5024 -0.4842  0.4412
 4713SOL    HW214665   2.352   7.158   3.118 -0.2078  0.5283 -0.3890
 4714SOL     OW14666   4.951   2.830   4.477  0.4486  0.1227 -0.1294
 4714SOL    HW114667   4.862   2.825   4.442  0.2286  2.8536 -0.1708
 4714SOL    HW214668   4.941   2.867   4.564  1.4779 -0.8027  0.4044
 4715SOL     OW14669   1.468   5.559   7.044 -0.0691  0.5091  0.3006
 4715SOL    HW114670   1.514   5.594   6.968 -1.3649  0.5666 -0.5043
 4715SOL    HW214671   1.482   5.623   7.113  2.4012 -0.2768  0.6161
 4716SOL     OW14672   0.064   1.799   1.446 -0.2318 -0.5862 -0.2834
 4716SOL    HW114673   0.023   1.727   1.495  0.0180 -0.3955  0.2062
 4716SOL    HW214674   0.142   1.759   1.408 -0.1715 -0.6131 -0.1335
 4717SOL     OW14675   3.935   3.035   2.532 -0.5652  0.1509  0.2246
 4717SOL    HW114676   4.029   3.037   2.551 -0.3088  0.3852 -0.9591
 4717SOL    HW214677   3.896   3.095   2.595 -0.1579 -1.2021  1.8366
 4718SOL     OW14678   0.530   3.866   0.634 -0.6711  0.3666  0.2059
 4718SOL    HW114679   0.532   3.907   0.721 -2.1461  1.3210 -0.1639
 4718SOL    HW214680   0.609   3.897   0.590 -0.0384  0.0738  1.1162
 4719SOL     OW14681   1.138   0.231   6.415 -0.2030  0.8100  0.4107
 4719SOL    HW114682   1.103   0.269   6.334  0.9055 -0.4909 -0.7231
 4719SOL    HW214683   1.074   0.164   6.440 -1.3959  2.3037  1.5898
 4720SOL     OW14684   0.732   0.096   5.035  0.0327 -0.4400  0.2512
 4720SOL    HW114685   0.673   0.037   4.987  0.6925 -0.5800 -0.4049
 4720SOL    HW214686   0.674   0.163   5.071 -0.4222  0.0333 -1.2782
 4721SOL     OW14687   0.604   4.631   3.277  0.5267 -0.0148  0.5398
 4721SOL    HW114688   0.597   4.674   3.362 -0.4244  1.0040 -0.0249
 4721SOL    HW214689   0.515   4.633   3.241  0.2537 -3.0241  0.7176
 4722SOL     OW14690   6.001   3.217   3.541  0.1191  0.3808 -0.4294
 4722SOL    HW114691   5.925   3.213   3.482 -0.4894 -2.2053  0.4342
 4722SOL    HW214692   5.964   3.241   3.626  0.5317  0.7945 -0.3619
 4723SOL     OW14693   7.061   6.398   3.101  0.2945  0.0465 -0.2291
 4723SOL    HW114694   7.029   6.487   3.089 -1.3119 -0.0456  2.4808
 4723SOL    HW214695   7.000   6.359   3.164  1.4600 -2.6944 -0.6506
 4724SOL     OW14696   7.193   1.608   0.369  0.3396  0.1569  0.6468
 4724SOL    HW114697   7.218   1.541   0.305 -1.2513  0.7392 -0.6388
 4724SOL    HW214698   7.276   1.638   0.406  1.2123 -1.0603 -0.2461
 4725SOL     OW14699   3.674   3.940   7.444  0.3041  0.0955  0.5490
 4725SOL    HW114700   3.613   4.012   7.462 -1.0978 -0.5921 -1.1509
 4725SOL    HW214701   3.685   3.941   7.349  1.7296 -0.8074  0.6747
 4726SOL     OW14702   3.237   7.123   6.674  0.8367  0.1673 -0.4590
 4726SOL    HW114703   3.296   7.048   6.664  0.7025 -0.1167  0.7034
 4726SOL    HW214704   3.288   7.188   6.722 -0.1034 -0.5255  1.6075
 4727SOL     OW14705   0.369   2.673   1.496  0.1450 -0.0667 -0.4064
 4727SOL    HW114706   0.341   2.636   1.580  3.0300 -0.0411  0.6662
 4727SOL    HW214707   0.405   2.599   1.448 -1.8799 -0.1734 -1.9225
 4728SOL     OW14708   3.157   6.843   6.239  0.3874 -0.3398 -0.3731
 4728SOL    HW114709   3.102   6.917   6.214 -1.3245 -1.7205 -0.9879
 4728SOL    HW214710   3.136   6.828   6.331 -2.3370 -2.3702 -1.1817
 4729SOL     OW14711   2.628   6.178   1.503  0.1849  0.3123 -0.0525
 4729SOL    HW114712   2.556   6.171   1.565  0.3156  1.4055  0.2240
 4729SOL    HW214713   2.591   6.147   1.420 -1.1408  2.4624 -0.3266
 4730SOL     OW14714   6.560   5.772   4.785  0.5117  0.2235 -0.4072
 4730SOL    HW114715   6.592   5.687   4.816 -0.8668 -0.3024 -0.3582
 4730SOL    HW214716   6.631   5.806   4.730  0.6411 -1.4578 -1.3395
 4731SOL     OW14717   7.316   3.745   0.877  0.1495  0.0480  0.5227
 4731SOL    HW114718   7.370   3.719   0.802  0.0279 -0.3106  0.5603
 4731SOL    HW214719   7.380   3.763   0.946  0.3152  1.1247  0.1219
 4732SOL     OW14720   6.319   1.224   4.875 -0.0435 -0.0688  0.1662
 4732SOL    HW114721   6.358   1.262   4.953  0.1962 -1.1268  0.5822
 4732SOL    HW214722   6.393   1.211   4.815  0.4126 -2.4968  1.1277
 4733SOL     OW14723   1.914   0.547   5.230  0.0097  0.0635  0.6516
 4733SOL    HW114724   1.939   0.527   5.320  1.4638  2.0556  0.7675
 4733SOL    HW214725   1.841   0.488   5.211  0.7710 -1.5939  2.5333
 4734SOL     OW14726   5.591   0.886   0.480  0.8517  0.0442  0.2968
 4734SOL    HW114727   5.671   0.929   0.509  1.5301 -0.5391 -0.6737
 4734SOL    HW214728   5.618   0.832   0.406 -0.5268  0.2165 -0.3602
 4735SOL     OW14729   1.103   1.144   1.703 -0.2362 -0.5159 -0.5530
 4735SOL    HW114730   1.135   1.232   1.720 -1.6777  0.1971 -1.3218
 4735SOL    HW214731   1.169   1.086   1.742 -0.7700  0.8975  2.8031
 4736SOL     OW14732   6.645   0.217   6.101  0.0535 -0.1993 -0.5131
 4736SOL    HW114733   6.579   0.149   6.100 -0.8387  0.6165  0.6023
 4736SOL    HW214734   6.719   0.180   6.053  0.3567 -2.7320  1.7008
 4737SOL     OW14735   6.222   4.043   3.218 -0.6680 -0.3470  0.6230
 4737SOL    HW114736   6.279   4.079   3.286  0.1709  0.2715 -0.3553
 4737SOL    HW214737   6.135   4.077   3.239  0.0123  2.0623 -0.0320
 4738SOL     OW14738   6.558   2.800   3.370 -0.8554 -0.1044 -0.0603
 4738SOL    HW114739   6.463   2.808   3.370 -0.9189 -0.3720  2.0170
 4738SOL    HW214740   6.589   2.870   3.427  0.1525 -0.4315 -0.1793
 4739SOL     OW14741   3.799   3.292   1.847  0.3559  0.0096 -0.2711
 4739SOL    HW114742   3.763   3.211   1.883 -1.5359  0.8795 -0.1240
 4739SOL    HW214743   3.868   3.316   1.909 -0.4383 -0.4114  0.7978
 4740SOL     OW14744   4.325   2.873   4.738 -0.2942  0.3926  0.6329
 4740SOL    HW114745   4.317   2.778   4.730 -0.6631  0.3354  1.5120
 4740SOL    HW214746   4.238   2.906   4.715 -1.0038  0.3045  2.9328
 4741SOL     OW14747   1.071   5.251   7.222 -0.3355 -0.7161  0.1690
 4741SOL    HW114748   0.999   5.242   7.159 -2.4943 -0.1041  2.3625
 4741SOL    HW214749   1.142   5.291   7.172 -1.7565 -0.6584 -1.9467
 4742SOL     OW14750   1.336   7.105   6.049  0.0713  0.7146 -0.4661
 4742SOL    HW114751   1.366   7.017   6.024  1.3846  0.8843  0.4541
 4742SOL    HW214752   1.409   7.163   6.028 -0.2560  1.3977  0.2315
 4743SOL     OW14753   3.677   0.061   7.192 -0.3722  0.5977  0.3288
 4743SOL    HW114754   3.770   0.079   7.204 -0.1292  0.2817 -0.9509
 4743SOL    HW214755   3.664  -0.027   7.227  0.2024 -0.0788 -1.0645
 4744SOL     OW14756   2.413   7.100   5.547 -0.2365  0.0084  0.1166
 4744SOL    HW114757   2.351   7.140   5.486 -0.4636 -0.3578  0.1047
 4744SOL    HW214758   2.394   7.141   5.631  0.4061  0.8770 -0.1458
 4745SOL     OW14759   3.392   6.923   5.211  0.0392  0.1364  0.7080
 4745SOL    HW114760   3.358   6.841   5.175  1.8385 -0.6003  0.5894
 4745SOL    HW214761   3.469   6.943   5.157 -0.4998  2.0749  0.5584
 4746SOL     OW14762   0.682   3.548   7.039  0.2470 -0.0180  0.0513
 4746SOL    HW114763   0.704   3.526   7.130 -1.1098 -0.2308  0.3484
 4746SOL    HW214764   0.673   3.463   6.995  1.2599  0.0863 -0.3986
 4747SOL     OW14765   0.002   2.503   3.496 -0.0649 -0.5634 -0.0002
 4747SOL    HW114766  -0.025   2.513   3.405 -0.1492 -0.4384  0.0372
 4747SOL    HW214767  -0.057   2.437   3.531  0.1529 -0.8173 -0.1116
 4748SOL     OW14768   5.430   4.938   0.136 -0.2491  0.3372 -0.2561
 4748SOL    HW114769   5.479   4.859   0.160 -1.5030 -0.4396 -0.1330
 4748SOL    HW214770   5.471   5.008   0.186  0.5032 -0.3498  0.1091
 4749SOL     OW14771   0.584   7.103   5.188  0.2860  0.0475  0.3970
 4749SOL    HW114772   0.528   7.029   5.213  0.3039  0.0684  0.4977
 4749SOL    HW214773   0.531   7.180   5.206 -0.3183  0.0248 -1.1261
 4750SOL     OW14774   4.692   5.072   6.748  0.2519 -0.3499  0.4535
 4750SOL    HW114775   4.603   5.037   6.743  0.0104  0.4108 -1.5388
 4750SOL    HW214776   4.732   5.025   6.820 -1.7980 -0.6384  1.4767
 4751SOL     OW14777   2.672   5.841   1.412 -0.3657  0.1171  0.0528
 4751SOL    HW114778   2.686   5.868   1.503 -0.8289  0.3180  0.0670
 4751SOL    HW214779   2.746   5.784   1.392 -0.4745 -0.2560  0.6886
 4752SOL     OW14780   5.237   2.178   1.268  0.8098 -0.0790 -0.2563
 4752SOL    HW114781   5.197   2.155   1.352  1.7510  0.7500  0.4411
 4752SOL    HW214782   5.170   2.229   1.223  0.9252  1.0531  0.7833
 4753SOL     OW14783   6.173   6.339   6.694  0.0128 -0.8812 -0.2594
 4753SOL    HW114784   6.219   6.369   6.616  1.0156 -0.5274  0.4493
 4753SOL    HW214785   6.164   6.417   6.749  0.1324 -1.3041  0.3776
 4754SOL     OW14786   0.487   4.573   2.746  0.0668 -0.0689 -0.5591
 4754SOL    HW114787   0.451   4.649   2.702  0.2490  1.0585  1.1631
 4754SOL    HW214788   0.487   4.504   2.679 -2.7326  0.6081 -1.3730
 4755SOL     OW14789   6.403   1.589   7.365  0.0878 -0.5600  0.0344
 4755SOL    HW114790   6.496   1.577   7.385 -0.1184 -1.3220  0.5720
 4755SOL    HW214791   6.403   1.630   7.279  0.9343 -0.0188  0.2795
 4756SOL     OW14792   0.479   2.038   1.244  0.4208  0.0131  0.0290
 4756SOL    HW114793   0.385   2.036   1.262  0.3119  0.1234 -0.5120
 4756SOL    HW214794   0.500   2.130   1.230  0.5954 -0.0175  0.0803
 4757SOL     OW14795   1.844   4.081   7.251 -0.0330  0.0565  0.1317
 4757SOL    HW114796   1.798   4.021   7.310  1.3156 -0.0665  1.0885
 4757SOL    HW214797   1.891   4.024   7.190  0.1570  0.1592  0.1810
 4758SOL     OW14798   2.465   5.216   3.974  0.2401  0.1320 -0.1231
 4758SOL    HW114799   2.516   5.190   4.050 -0.9827 -0.3355  0.5469
 4758SOL    HW214800   2.414   5.139   3.951 -1.3718  1.0733  0.2048
 4759SOL     OW14801   1.502   5.755   1.369 -0.1902  0.6302 -0.0827
 4759SOL    HW114802   1.429   5.809   1.402 -0.9293  0.6927 -1.7373
 4759SOL    HW214803   1.581   5.803   1.395 -0.7862  1.4749  0.2043
 4760SOL     OW14804   2.596   2.379   4.145 -0.2424  0.2832 -0.6573
 4760SOL    HW114805   2.607   2.367   4.050 -0.5145  1.0052 -0.7899
 4760SOL    HW214806   2.506   2.354   4.163  0.2396 -1.3087 -0.3225
 4761SOL     OW14807   7.194   1.627   0.956  0.2729  0.2937  0.6712
 4761SOL    HW114808   7.151   1.616   0.871  0.1762 -1.2904  0.9059
 4761SOL    HW214809   7.276   1.578   0.949 -0.3129 -0.9234  1.8780
 4762SOL     OW14810   1.587   0.186   3.921 -0.1242  0.0733 -0.4359
 4762SOL    HW114811   1.652   0.241   3.875  0.4989  0.4671  0.8793
 4762SOL    HW214812   1.626   0.170   4.007 -1.5734 -0.0869  0.2084
 4763SOL     OW14813   2.145   5.982   2.869 -0.2899  0.5166  0.2931
 4763SOL    HW114814   2.091   6.048   2.912 -0.1916  1.0707 -0.4073
 4763SOL    HW214815   2.232   5.994   2.907 -0.5995 -0.2537  1.2874
 4764SOL     OW14816   7.069   2.558   3.925  0.3367 -0.3433  0.7861
 4764SOL    HW114817   7.076   2.653   3.937 -0.7490  0.1311 -1.6929
 4764SOL    HW214818   6.981   2.536   3.955  0.6499 -0.6128  1.5232
 4765SOL     OW14819   4.457   1.894   0.602 -0.5604 -0.1522  0.3871
 4765SOL    HW114820   4.425   1.984   0.596  1.3925  0.5355 -0.5152
 4765SOL    HW214821   4.552   1.901   0.595 -0.3959 -2.3636 -0.7289
 4766SOL     OW14822   0.591   0.625   6.762 -0.1185 -0.1512  0.4862
 4766SOL    HW114823   0.650   0.556   6.733 -1.9358 -2.1680  1.3225
 4766SOL    HW214824   0.620   0.645   6.851  0.6892  0.5298  0.0839
 4767SOL     OW14825   2.974   1.624   5.827  0.3297 -0.8107 -0.4485
 4767SOL    HW114826   3.024   1.548   5.856  1.4437 -0.0056 -0.1779
 4767SOL    HW214827   3.029   1.664   5.759 -0.8095 -0.9182 -1.4778
 4768SOL     OW14828   3.252   6.671   0.477  0.2252  0.0216 -0.0903
 4768SOL    HW114829   3.160   6.651   0.495  0.8036 -0.8746  2.1922
 4768SOL    HW214830   3.249   6.753   0.427 -1.8092  0.2395  0.3066
 4769SOL     OW14831   4.418   4.213   3.943  0.2836 -0.0198 -0.0267
 4769SOL    HW114832   4.392   4.123   3.963  0.1127 -0.4272 -1.8320
 4769SOL    HW214833   4.335   4.258   3.925  0.4718 -0.0214 -0.9663
 4770SOL     OW14834   0.097   5.098   7.111 -0.6781 -0.0212 -0.1090
 4770SOL    HW114835   0.094   5.129   7.201 -0.8727 -0.7300  0.1379
 4770SOL    HW214836   0.026   5.145   7.067  0.4233  1.5175 -0.3046
 4771SOL     OW14837   4.225   5.022   7.295  0.1562  0.0671  0.2357
 4771SOL    HW114838   4.292   4.957   7.314 -0.2294 -0.4547 -0.1416
 4771SOL    HW214839   4.149   4.970   7.267  0.3778  0.7158 -1.7431
 4772SOL     OW14840   3.775   7.107   0.200 -0.2982  0.4402  0.4353
 4772SOL    HW114841   3.826   7.185   0.177  0.3192  0.1235  0.7133
 4772SOL    HW214842   3.824   7.034   0.161 -1.2163  0.2342 -0.3896
 4773SOL     OW14843   0.478   0.251   2.541 -0.1790 -0.1381 -0.3354
 4773SOL    HW114844   0.473   0.159   2.514  1.1509 -0.1900 -0.4414
 4773SOL    HW214845   0.468   0.300   2.459 -0.5390 -0.1791 -0.3216
 4774SOL     OW14846   0.523   5.218   4.347  0.3971  0.2536  0.0704
 4774SOL    HW114847   0.430   5.242   4.348 -0.2947 -1.8038 -2.5836
 4774SOL    HW214848   0.561   5.272   4.279  1.4521  1.7479  1.7554
 4775SOL     OW14849   1.493   1.032   7.360 -0.3116 -0.4920  0.5138
 4775SOL    HW114850   1.513   1.103   7.421 -1.7859 -0.6614  1.2405
 4775SOL    HW214851   1.464   0.959   7.416 -1.2019 -0.8281 -0.3422
 4776SOL     OW14852   1.891   6.916   2.208 -0.6968 -0.5551  0.2661
 4776SOL    HW114853   1.807   6.894   2.170  0.5710 -0.3355 -2.9958
 4776SOL    HW214854   1.948   6.842   2.186  0.3463 -0.0142  1.0204
 4777SOL     OW14855   5.712   3.461   2.441  0.4330  0.0147  0.1583
 4777SOL    HW114856   5.721   3.390   2.377 -0.5298 -1.2204  1.3400
 4777SOL    HW214857   5.641   3.515   2.406  0.1138 -0.4838  0.0234
 4778SOL     OW14858   2.875   4.884   1.478  0.5373 -0.1401  0.0153
 4778SOL    HW114859   2.855   4.976   1.465  1.7919  0.1012 -0.2594
 4778SOL    HW214860   2.812   4.855   1.544  0.3678  0.9931  0.3652
 4779SOL     OW14861   2.944   4.160   5.219  0.2782 -0.8344 -0.1657
 4779SOL    HW114862   2.927   4.211   5.140  0.8506 -1.2491 -0.5634
 4779SOL    HW214863   2.860   4.158   5.265  0.0456 -0.2427 -0.5547
 4780SOL     OW14864   1.471   3.579   1.461  0.4050 -0.4151 -0.3494
 4780SOL    HW114865   1.545   3.519   1.456  0.3452 -0.4944 -0.2853
 4780SOL    HW214866   1.397   3.525   1.490  0.0019 -0.6196 -1.6705
 4781SOL     OW14867   5.240   2.792   5.147  0.7015 -0.4319  0.1501
 4781SOL    HW114868   5.244   2.883   5.119  1.0439 -0.8817 -1.3953
 4781SOL    HW214869   5.226   2.796   5.241  1.5012  1.2151  0.2374
 4782SOL     OW14870   5.269   7.493   7.429 -0.2353  0.2244  0.2174
 4782SOL    HW114871   5.300   7.409   7.464 -1.9924 -0.9657 -0.9328
 4782SOL    HW214872   5.261   7.550   7.506 -0.1133 -1.0402  1.1857
 4783SOL     OW14873   5.531   2.566   5.763 -0.6169  0.5860 -0.1391
 4783SOL    HW114874   5.610   2.583   5.712  1.1856 -0.8562  1.9613
 4783SOL    HW214875   5.506   2.653   5.796  0.5729  0.9813 -0.2051
 4784SOL     OW14876   4.841   3.523   0.318  0.4696  0.0686  0.1835
 4784SOL    HW114877   4.883   3.605   0.344  1.0579 -0.3854  0.6585
 4784SOL    HW214878   4.760   3.521   0.368  0.9571 -0.1486  0.9817
 4785SOL     OW14879   5.569   3.779   4.191 -0.5365  0.2859 -0.3664
 4785SOL    HW114880   5.594   3.792   4.282  2.1619 -0.1143 -0.9856
 4785SOL    HW214881   5.563   3.684   4.181 -0.5776  0.3203 -0.6912
 4786SOL     OW14882   5.506   1.606   1.644 -0.3453  0.3283 -0.1695
 4786SOL    HW114883   5.434   1.543   1.642 -0.6108  0.5115  2.0410
 4786SOL    HW214884   5.489   1.661   1.720  2.1610  0.3309  0.4835
 4787SOL     OW14885   4.410   4.008   7.299  0.1915 -0.3597 -0.2211
 4787SOL    HW114886   4.390   3.968   7.383 -0.3488  1.9924  0.8682
 4787SOL    HW214887   4.358   4.089   7.298  2.6651  1.3492 -1.3583
 4788SOL     OW14888   2.027   6.154   7.226 -0.0057 -0.1330  0.8353
 4788SOL    HW114889   2.006   6.240   7.190  2.3340 -0.8392 -2.6559
 4788SOL    HW214890   2.111   6.167   7.271  2.1056 -1.0246 -2.5245
 4789SOL     OW14891   0.964   3.519   4.267 -0.1305  0.5320 -0.8503
 4789SOL    HW114892   0.987   3.429   4.290 -0.1270  0.6399 -0.4291
 4789SOL    HW214893   0.871   3.516   4.245 -0.6102  0.7556  0.9760
 4790SOL     OW14894   1.216   4.366   2.638  0.1758 -0.7207  0.9426
 4790SOL    HW114895   1.175   4.451   2.653  0.8715 -0.5545  1.9737
 4790SOL    HW214896   1.143   4.308   2.613 -0.3158  0.1381  0.3203
 4791SOL     OW14897   3.513   2.202   3.030  0.4256  0.6146 -0.4894
 4791SOL    HW114898   3.571   2.127   3.036  1.3566  1.4143  1.0170
 4791SOL    HW214899   3.563   2.267   2.980  0.0067  0.6091 -0.9326
 4792SOL     OW14900   4.329   5.688   3.179  0.4147 -0.0214  0.8030
 4792SOL    HW114901   4.328   5.729   3.265  3.9519  0.9235  0.5461
 4792SOL    HW214902   4.368   5.602   3.193  3.1027  0.9527  0.0138
 4793SOL     OW14903   5.259   5.706   4.434 -0.0559 -0.6397 -0.0574
 4793SOL    HW114904   5.339   5.748   4.402 -0.7025  1.0784  0.4108
 4793SOL    HW214905   5.288   5.651   4.507  0.9090 -1.4679 -1.0360
 4794SOL     OW14906   5.103   5.811   1.005 -0.0094 -0.2822 -0.6615
 4794SOL    HW114907   5.043   5.837   0.935 -1.5072 -1.5171  0.0865
 4794SOL    HW214908   5.162   5.885   1.015 -0.7697  0.5724 -2.1295
 4795SOL     OW14909   1.824   3.189   4.942 -0.3188 -0.0551 -0.0509
 4795SOL    HW114910   1.759   3.184   4.871 -0.4841  0.3249  0.0687
 4795SOL    HW214911   1.886   3.255   4.912 -0.4557  0.1944  0.2120
 4796SOL     OW14912   4.960   0.738   0.416  0.5829 -0.0533 -0.4045
 4796SOL    HW114913   4.980   0.708   0.327 -0.0221 -2.5790  0.2138
 4796SOL    HW214914   5.042   0.776   0.447  1.2190 -0.4199 -1.5596
 4797SOL     OW14915   2.779   3.886   3.236 -0.3095  0.3507 -0.0433
 4797SOL    HW114916   2.727   3.814   3.273  0.2215  0.0114  0.0434
 4797SOL    HW214917   2.770   3.957   3.300 -0.2745  0.1317  0.2061
 4798SOL     OW14918   6.650   6.141   1.158  0.2934  1.0319  0.0828
 4798SOL    HW114919   6.683   6.105   1.076 -0.4770  0.5534 -0.0314
 4798SOL    HW214920   6.687   6.084   1.226  0.7343  1.2791  0.0519
 4799SOL     OW14921   6.272   0.566   7.378 -0.2239 -0.0430  0.4849
 4799SOL    HW114922   6.291   0.627   7.450 -2.2654  1.8137 -0.4469
 4799SOL    HW214923   6.244   0.622   7.306  0.7519 -1.9357 -1.4499
 4800SOL     OW14924   2.782   1.481   5.267 -0.2627  0.5360 -0.0107
 4800SOL    HW114925   2.810   1.500   5.356 -0.6840  3.5440 -0.4219
 4800SOL    HW214926   2.723   1.406   5.276  0.0109  0.5205  2.1719
 4801SOL     OW14927   1.512   0.261   2.525 -0.4596 -0.5535 -0.1263
 4801SOL    HW114928   1.437   0.308   2.488 -1.6266 -1.7786  0.5726
 4801SOL    HW214929   1.473   0.201   2.589  0.8828 -2.8146 -1.3066
 4802SOL     OW14930   3.760   6.086   4.467 -0.6295 -0.2811  0.1694
 4802SOL    HW114931   3.852   6.066   4.485 -0.3134  0.8898 -0.0768
 4802SOL    HW214932   3.712   6.043   4.538  0.1297 -0.6168  0.4933
 4803SOL     OW14933   6.106   5.158   7.164  0.2267  0.5141  0.5894
 4803SOL    HW114934   6.064   5.157   7.078  1.4315  0.4279 -0.0040
 4803SOL    HW214935   6.034   5.142   7.225 -1.1032  3.0278 -0.1871
 4804SOL     OW14936   3.002   3.694   0.245  0.0882  0.2202 -0.1048
 4804SOL    HW114937   3.004   3.783   0.209 -0.6593  0.4163  0.3283
 4804SOL    HW214938   3.083   3.654   0.213  0.7585  1.2627  0.2232
 4805SOL     OW14939   5.622   6.530   4.898 -0.3340 -0.5689  0.1563
 4805SOL    HW114940   5.685   6.458   4.904  1.4058  0.6753 -1.6457
 4805SOL    HW214941   5.539   6.491   4.922  0.4432 -3.3582 -1.2118
 4806SOL     OW14942   0.823   0.098   3.774  0.4308  0.6741 -0.3507
 4806SOL    HW114943   0.767   0.027   3.742 -0.9286  0.7027  1.8110
 4806SOL    HW214944   0.904   0.088   3.723 -0.2453 -1.5417 -1.1321
 4807SOL     OW14945   3.049   1.001   6.794 -0.4632 -0.5171  0.0433
 4807SOL    HW114946   3.055   0.969   6.884 -2.0707 -1.6983 -0.2355
 4807SOL    HW214947   2.986   1.074   6.799  0.8702  0.6729  0.1562
 4808SOL     OW14948   7.229   4.109   6.082  0.2859 -0.5024 -0.3490
 4808SOL    HW114949   7.155   4.163   6.055  0.5368  1.5912  2.6711
 4808SOL    HW214950   7.189   4.027   6.112 -0.8007  0.3765  0.7143
 4809SOL     OW14951   0.215   2.000   1.302  0.0281 -0.3021 -0.1839
 4809SOL    HW114952   0.121   1.982   1.296  0.2284 -1.7585  0.5665
 4809SOL    HW214953   0.226   2.037   1.390 -0.1104  1.9593 -1.0471
 4810SOL     OW14954   5.012   3.917   3.235  0.0917  0.2377  0.0381
 4810SOL    HW114955   5.019   4.009   3.209 -1.3356  0.1270 -0.8466
 4810SOL    HW214956   4.946   3.916   3.304  2.7552  0.3175  2.7897
 4811SOL     OW14957   0.244   5.520   0.155  0.2591 -0.4097  0.1480
 4811SOL    HW114958   0.177   5.452   0.160  0.9839 -1.1506 -0.0550
 4811SOL    HW214959   0.195   5.602   0.163 -0.6554 -0.9373  0.1258
 4812SOL     OW14960   0.315   0.167   4.331  0.1742 -0.1825  0.2328
 4812SOL    HW114961   0.312   0.244   4.274 -0.6953  1.8654  2.8173
 4812SOL    HW214962   0.294   0.201   4.418 -0.5618 -3.4403  1.4832
 4813SOL     OW14963   6.530   0.419   1.914  0.2223 -0.9479 -0.2635
 4813SOL    HW114964   6.566   0.444   1.828  0.3590 -1.4932 -0.3722
 4813SOL    HW214965   6.460   0.482   1.930  1.4607  0.3941  0.1244
 4814SOL     OW14966   6.008   1.468   4.321 -0.2354 -0.1024 -0.2305
 4814SOL    HW114967   5.988   1.558   4.346  0.1885  0.1733 -0.8667
 4814SOL    HW214968   5.966   1.415   4.389 -0.6874  0.5611  0.0218
 4815SOL     OW14969   6.357   2.394   6.047  0.1785 -0.2384 -0.6938
 4815SOL    HW114970   6.290   2.459   6.067  0.2181 -0.7169  1.2991
 4815SOL    HW214971   6.436   2.445   6.028 -0.1692  0.3086 -0.6921
 4816SOL     OW14972   0.944   7.118   6.549  0.1249  0.6010  0.1614
 4816SOL    HW114973   0.916   7.059   6.619  0.0890  0.1114 -0.2615
 4816SOL    HW214974   1.004   7.179   6.592  0.6147 -0.0999  0.4886
 4817SOL     OW14975   2.739   1.922   2.149 -0.0606  0.3182 -0.1671
 4817SOL    HW114976   2.778   1.836   2.129 -0.0852  0.5415 -1.2738
 4817SOL    HW214977   2.675   1.904   2.218  0.1482 -0.5112 -0.1777
 4818SOL     OW14978   4.388   1.325   2.349 -0.2670  0.1988  0.3592
 4818SOL    HW114979   4.310   1.272   2.333 -0.0381 -0.6570  1.8552
 4818SOL    HW214980   4.371   1.367   2.433  0.1493  1.4280 -0.1512
 4819SOL     OW14981   1.612   2.694   3.098  0.1126  0.1941  0.1250
 4819SOL    HW114982   1.577   2.680   3.010  0.4007 -0.9916  0.1922
 4819SOL    HW214983   1.694   2.741   3.084  0.2351 -0.1316 -0.2400
 4820SOL     OW14984   3.565   7.372   7.322  0.2452  0.4927 -0.5039
 4820SOL    HW114985   3.611   7.305   7.372  0.1599  0.5906 -0.2960
 4820SOL    HW214986   3.482   7.384   7.369  0.6929  1.4861  0.0419
 4821SOL     OW14987   3.459   5.328   3.303  0.0991  0.0613  0.2017
 4821SOL    HW114988   3.416   5.364   3.226 -1.2403  0.1145  0.9501
 4821SOL    HW214989   3.449   5.233   3.295  0.2160  0.0511  0.1689
 4822SOL     OW14990   7.397   4.927   1.372  0.4700 -0.3631  0.1430
 4822SOL    HW114991   7.463   4.954   1.436  1.8647 -0.8011 -1.0432
 4822SOL    HW214992   7.416   4.980   1.295 -0.8330 -0.2377 -0.1045
 4823SOL     OW14993   3.636   5.250   6.851  0.3904  0.2283  0.1099
 4823SOL    HW114994   3.557   5.293   6.818  0.2831 -0.2351 -0.2389
 4823SOL    HW214995   3.706   5.279   6.792 -0.1111 -2.0738 -1.7618
 4824SOL     OW14996   4.605   0.777   3.767 -0.2184  0.7446  0.4902
 4824SOL    HW114997   4.595   0.683   3.752 -2.8359  0.9038  0.6517
 4824SOL    HW214998   4.637   0.783   3.857  0.2255  0.0154  0.3904
 4825SOL     OW14999   1.673   2.906   7.308  0.5608  0.6760 -0.0659
 4825SOL    HW115000   1.673   2.972   7.377  0.9352  1.1975 -0.5561
 4825SOL    HW215001   1.704   2.827   7.352 -1.0119  0.4948  0.8106
 4826SOL     OW15002   1.627   4.814   2.796 -0.0147  0.8336 -0.0888
 4826SOL    HW115003   1.575   4.799   2.717  1.1527 -1.5981 -0.4676
 4826SOL    HW215004   1.717   4.795   2.770  0.3348 -0.6260  1.9655
 4827SOL     OW15005   2.189   6.492   4.069 -0.6748  0.4613  0.0183
 4827SOL    HW115006   2.146   6.407   4.068 -0.0562  0.1171  1.2489
 4827SOL    HW215007   2.261   6.484   4.006  1.2161 -0.9566  2.1939
 4828SOL     OW15008   7.086   3.432   0.992  0.4652  0.3019 -0.3488
 4828SOL    HW115009   7.149   3.362   1.006  1.0257  0.9750  0.6046
 4828SOL    HW215010   7.003   3.397   1.024  0.8511  0.2585  0.6176
 4829SOL     OW15011   3.556   3.188   6.481  0.4172 -0.2824 -0.3783
 4829SOL    HW115012   3.508   3.263   6.516  0.4920 -1.2581  1.9846
 4829SOL    HW215013   3.613   3.225   6.414  0.9154  1.8884  1.1429
 4830SOL     OW15014   4.241   3.804   5.256 -0.1015 -0.1844 -0.1161
 4830SOL    HW115015   4.174   3.830   5.193  0.8551 -0.1247 -1.1434
 4830SOL    HW215016   4.318   3.855   5.232  0.1525  0.2198  1.4394
 4831SOL     OW15017   5.138   4.663   0.017  0.8142 -0.3388 -0.4725
 4831SOL    HW115018   5.133   4.755   0.041 -1.8429 -0.3773 -0.5816
 4831SOL    HW215019   5.187   4.662  -0.066  1.8688  0.8022  0.0999
 4832SOL     OW15020   1.799   0.794   1.340 -0.0406  0.3372 -0.4130
 4832SOL    HW115021   1.871   0.751   1.293  0.8366  2.2936 -0.9329
 4832SOL    HW215022   1.733   0.725   1.349 -0.1690 -0.2786 -4.2496
 4833SOL     OW15023   4.125   1.978   0.438 -0.5030  0.2963  0.0036
 4833SOL    HW115024   4.181   2.053   0.458 -0.9857  1.2257 -1.8960
 4833SOL    HW215025   4.168   1.935   0.364 -1.8189  0.5555 -0.9586
 4834SOL     OW15026   5.169   5.083   5.339  0.2737 -0.1689  0.4136
 4834SOL    HW115027   5.242   5.037   5.297  2.3008  2.9322  0.1829
 4834SOL    HW215028   5.198   5.095   5.430 -1.7406 -2.2067  1.4184
 4835SOL     OW15029   7.074   0.773   6.497 -0.3481  0.8852  0.0593
 4835SOL    HW115030   7.137   0.702   6.512 -1.6590 -0.0903  1.2217
 4835SOL    HW215031   7.089   0.800   6.406  2.1551  1.1447  0.4809
 4836SOL     OW15032   3.556   6.154   7.468 -0.2342  0.7336 -0.0063
 4836SOL    HW115033   3.576   6.213   7.540  1.3518 -1.1324  1.1874
 4836SOL    HW215034   3.481   6.103   7.500  0.4318 -0.0535  0.3385
 4837SOL     OW15035   6.896   1.868   3.068  0.1911  0.0668 -0.2862
 4837SOL    HW115036   6.958   1.813   3.117 -0.9345  0.7815  2.0733
 4837SOL    HW215037   6.924   1.957   3.087 -0.2910  0.3632 -0.9669
 4838SOL     OW15038   1.767   3.271   0.658  0.0256 -0.2469 -0.2640
 4838SOL    HW115039   1.846   3.234   0.619  0.4223  0.6356 -0.3280
 4838SOL    HW215040   1.748   3.214   0.733  1.4975  0.2773  0.5543
 4839SOL     OW15041   2.495   3.676   0.155  0.1948  0.3234 -0.2288
 4839SOL    HW115042   2.587   3.650   0.166 -0.4750 -1.8126  0.9728
 4839SOL    HW215043   2.476   3.729   0.232  0.3938  0.7478 -0.4665
 4840SOL     OW15044   4.357   2.998   5.857  0.2886  0.0564 -0.0863
 4840SOL    HW115045   4.450   3.019   5.861  0.2934  0.1729 -0.7119
 4840SOL    HW215046   4.354   2.905   5.837  0.2623 -0.1600  0.8459
 4841SOL     OW15047   3.930   5.438   1.026 -0.0430  0.0815 -0.1052
 4841SOL    HW115048   4.014   5.459   1.068  0.6299 -1.4102 -0.6172
 4841SOL    HW215049   3.904   5.354   1.065 -1.0896  0.3187 -0.2628
 4842SOL     OW15050   1.502   1.848   1.659 -0.2420  0.0377  0.2820
 4842SOL    HW115051   1.494   1.771   1.714 -0.7450  0.7796  1.2756
 4842SOL    HW215052   1.493   1.815   1.570 -0.5394 -1.0316  0.6954
 4843SOL     OW15053   2.588   6.373   5.384  0.4795  0.1050 -0.8851
 4843SOL    HW115054   2.496   6.353   5.402  0.9997 -2.9149 -1.1857
 4843SOL    HW215055   2.587   6.463   5.351 -2.3738  0.0735 -1.0941
 4844SOL     OW15056   1.430   6.188   6.825 -1.0805 -0.0350  0.0207
 4844SOL    HW115057   1.387   6.184   6.739 -0.6682 -0.4036 -0.1708
 4844SOL    HW215058   1.460   6.279   6.833 -1.9558  0.2499  0.1910
 4845SOL     OW15059   5.540   1.196   6.837 -0.1109  0.0350 -0.3259
 4845SOL    HW115060   5.541   1.105   6.867  1.6789 -0.2815 -1.1903
 4845SOL    HW215061   5.450   1.225   6.849 -0.3317 -1.2849  1.6261
 4846SOL     OW15062   2.552   7.489   1.723 -0.3378 -0.4398  0.2487
 4846SOL    HW115063   2.488   7.503   1.654 -0.6374  1.6360  0.8859
 4846SOL    HW215064   2.622   7.552   1.704  0.6038 -1.3238  0.6588
 4847SOL     OW15065   4.943   0.983   2.249 -0.0700 -0.1276 -0.1532
 4847SOL    HW115066   4.961   0.913   2.311 -2.0397 -1.0228 -0.5241
 4847SOL    HW215067   4.853   0.967   2.219  0.7801  0.2035 -3.3018
 4848SOL     OW15068   0.189   1.292   4.024  0.2568 -0.2552  0.5605
 4848SOL    HW115069   0.111   1.317   3.975  1.4973 -0.0733 -1.4516
 4848SOL    HW215070   0.169   1.316   4.115 -1.9204 -0.0595  0.0932
 4849SOL     OW15071   4.776   4.247   4.005 -0.4931  0.0625  0.2657
 4849SOL    HW115072   4.757   4.196   4.084  0.3910 -0.3158  0.2428
 4849SOL    HW215073   4.752   4.188   3.933  0.9490 -0.5196  0.2330
 4850SOL     OW15074   1.368   6.225   1.886 -0.2766  0.2602 -0.1539
 4850SOL    HW115075   1.329   6.139   1.901  0.3359  0.0347  0.2271
 4850SOL    HW215076   1.294   6.284   1.876 -0.7089 -0.2310  0.0940
 4851SOL     OW15077   5.347   6.407   3.128 -0.2603 -0.1489  0.1602
 4851SOL    HW115078   5.348   6.375   3.038  1.3371 -1.1856  0.5015
 4851SOL    HW215079   5.379   6.497   3.122  0.1184 -0.3085 -0.2988
 4852SOL     OW15080   5.831   7.216   5.256 -0.3253  0.1546  0.0154
 4852SOL    HW115081   5.833   7.231   5.351  1.2847 -0.7579  0.1494
 4852SOL    HW215082   5.764   7.277   5.224 -0.4095  0.9743  1.6468
 4853SOL     OW15083   6.531   4.208   0.410 -0.1915 -0.0359 -0.0072
 4853SOL    HW115084   6.616   4.176   0.381 -0.6058 -0.2600 -1.0472
 4853SOL    HW215085   6.535   4.207   0.505  1.2579  0.7611 -0.0401
 4854SOL     OW15086   2.474   4.535   2.312 -0.1728 -0.0076 -0.1872
 4854SOL    HW115087   2.436   4.622   2.301  2.3189  0.9762 -1.8408
 4854SOL    HW215088   2.528   4.542   2.391  1.6776  0.6662 -1.4525
 4855SOL     OW15089   4.958   0.509   7.520 -0.0391 -0.2250  0.1204
 4855SOL    HW115090   5.015   0.546   7.453  1.1488  0.7558  1.5945
 4855SOL    HW215091   4.958   0.415   7.504  3.0209 -0.4292  0.7574
 4856SOL     OW15092   4.202   4.853   6.750 -0.3791  0.2751  0.6801
 4856SOL    HW115093   4.215   4.817   6.662 -0.1271  0.1376  0.7728
 4856SOL    HW215094   4.118   4.816   6.779  0.4163 -1.1730  1.2356
 4857SOL     OW15095   6.953   7.043   1.499 -0.2478  0.4475 -0.1441
 4857SOL    HW115096   7.004   7.052   1.579 -0.1587 -0.7286 -0.0447
 4857SOL    HW215097   6.871   7.088   1.517  0.3066  1.3920  0.0910
 4858SOL     OW15098   4.071   2.953   6.249  0.9854 -0.0384  0.6281
 4858SOL    HW115099   4.125   3.023   6.212  0.8715  0.1114  0.7471
 4858SOL    HW215100   3.981   2.977   6.226  0.7131  1.0638  2.6410
 4859SOL     OW15101   7.073   2.729   0.822 -0.9512 -0.0643  0.0045
 4859SOL    HW115102   7.119   2.707   0.903 -0.3943  0.7603 -0.0819
 4859SOL    HW215103   6.995   2.673   0.823 -0.7829 -0.2984  0.9446
 4860SOL     OW15104   0.716   6.967   4.389  0.4574 -0.1228 -0.2953
 4860SOL    HW115105   0.792   7.007   4.346  0.3793 -0.3543 -0.6630
 4860SOL    HW215106   0.643   7.026   4.369  0.6487  0.4263  0.5831
 4861SOL     OW15107   3.224   1.970   5.041 -0.1615  0.6435  0.7422
 4861SOL    HW115108   3.254   1.882   5.019 -1.5458  0.2514  0.2414
 4861SOL    HW215109   3.291   2.028   5.006  0.6189 -0.1970  0.8031
 4862SOL     OW15110   4.356   2.293   6.430 -0.0793 -0.0638 -0.1263
 4862SOL    HW115111   4.391   2.280   6.342 -0.5582  0.1391 -0.3497
 4862SOL    HW215112   4.292   2.223   6.441 -0.4941  0.2979 -0.1924
 4863SOL     OW15113   4.732   2.119   4.774 -0.5157 -0.5487  0.2548
 4863SOL    HW115114   4.645   2.099   4.738 -0.4004  1.0383 -0.9866
 4863SOL    HW215115   4.792   2.063   4.725 -0.7986 -1.5468  1.0186
 4864SOL     OW15116   1.393   4.388   1.242 -0.7531 -0.2336 -0.0025
 4864SOL    HW115117   1.444   4.458   1.282  0.8864 -1.0347 -0.6103
 4864SOL    HW215118   1.454   4.344   1.182 -2.4454 -0.5601 -1.5951
 4865SOL     OW15119   1.417   2.345   5.404  0.5253 -0.6420 -0.1234
 4865SOL    HW115120   1.468   2.411   5.451  0.8459 -0.6436 -0.4627
 4865SOL    HW215121   1.383   2.392   5.328 -0.3200 -0.5355  0.3136
 4866SOL     OW15122   6.321   0.121   4.437  0.8169 -1.0882 -0.3170
 4866SOL    HW115123   6.311   0.167   4.521  0.3827  0.4181 -1.1575
 4866SOL    HW215124   6.261   0.047   4.443 -1.1217  0.3996 -0.2198
 4867SOL     OW15125   2.406   0.849   2.559  0.1328  0.2238  0.8888
 4867SOL    HW115126   2.465   0.780   2.591  0.5341  0.1809  0.0840
 4867SOL    HW215127   2.435   0.866   2.470 -2.7273 -1.6676 -0.5361
 4868SOL     OW15128   0.447   7.172   5.734  0.0361 -0.0709 -0.4566
 4868SOL    HW115129   0.387   7.116   5.683  0.3881 -1.1308  0.2752
 4868SOL    HW215130   0.423   7.156   5.825  1.3121 -0.3708 -0.1604
 4869SOL     OW15131   0.487   3.743   0.033 -0.1351 -0.0575 -0.2821
 4869SOL    HW115132   0.566   3.688   0.032 -1.5643 -2.2323 -1.0365
 4869SOL    HW215133   0.505   3.811  -0.032  1.2698 -0.2764 -0.1597
 4870SOL     OW15134   2.872   2.461   3.480  0.1022 -0.5842  0.1009
 4870SOL    HW115135   2.951   2.447   3.428  1.1273 -0.7226  1.6200
 4870SOL    HW215136   2.859   2.377   3.525 -1.7741 -1.0518 -1.2120
 4871SOL     OW15137   7.179   0.810   4.610  0.3546  0.1349 -0.1560
 4871SOL    HW115138   7.170   0.746   4.539  0.2450  0.1276 -0.1346
 4871SOL    HW215139   7.237   0.877   4.574  0.1137  0.2502 -0.3343
 4872SOL     OW15140   1.473   2.924   0.952 -0.0601 -0.2555  0.4650
 4872SOL    HW115141   1.432   2.897   1.034  0.5765  0.7318  1.1308
 4872SOL    HW215142   1.403   2.968   0.904 -0.4552 -0.8990  0.4234
 4873SOL     OW15143   1.625   5.495   0.793 -0.0593  0.2507  0.3570
 4873SOL    HW115144   1.560   5.428   0.815 -1.9045  1.9684  0.4032
 4873SOL    HW215145   1.658   5.525   0.878  0.2344 -0.0836  0.3631
 4874SOL     OW15146   1.462   0.654   5.416 -0.1144 -0.6175  0.3271
 4874SOL    HW115147   1.536   0.697   5.372  0.3774 -0.1850  1.5319
 4874SOL    HW215148   1.471   0.562   5.392  0.2754 -0.4283 -0.2872
 4875SOL     OW15149   1.745   7.495   0.764 -0.3893 -0.1694 -0.3972
 4875SOL    HW115150   1.764   7.589   0.776  0.2037 -0.2591 -0.5774
 4875SOL    HW215151   1.797   7.452   0.831 -0.5372 -0.3812 -0.4180
 4876SOL     OW15152   6.646   2.771   2.475 -0.4373  0.4054 -0.2695
 4876SOL    HW115153   6.705   2.704   2.438 -1.0535 -0.6617  0.6180
 4876SOL    HW215154   6.598   2.725   2.543  0.8372  2.3527  2.0779
 4877SOL     OW15155   4.817   7.031   1.994  0.2108  0.0443  0.5656
 4877SOL    HW115156   4.795   7.042   1.901  0.3285  1.0330  0.6523
 4877SOL    HW215157   4.893   7.088   2.007  0.2322 -0.1410  1.2602
 4878SOL     OW15158   1.941   2.990   3.902 -0.3280  0.5731  0.0277
 4878SOL    HW115159   1.859   3.019   3.862 -0.7131  0.0431  0.4118
 4878SOL    HW215160   1.916   2.966   3.992  0.2714  0.5200  0.1823
 4879SOL     OW15161   1.920   6.023   1.593 -0.0976 -0.4441 -0.3147
 4879SOL    HW115162   1.995   6.077   1.570 -0.3788 -0.3645 -1.0863
 4879SOL    HW215163   1.956   5.951   1.644  0.3896  0.0370  0.0242
 4880SOL     OW15164   0.491   5.370   1.268 -0.0441  0.5574  0.4952
 4880SOL    HW115165   0.441   5.289   1.277 -0.0296  0.3590 -0.9709
 4880SOL    HW215166   0.520   5.390   1.357 -0.0487 -1.0430  0.8875
 4881SOL     OW15167   7.346   6.130   1.973 -0.2892 -0.2941 -0.0875
 4881SOL    HW115168   7.264   6.159   2.012 -1.6601 -0.0814 -2.9374
 4881SOL    HW215169   7.393   6.087   2.046 -1.9404  1.4045  2.1150
 4882SOL     OW15170   6.777   7.348   1.145  0.0703 -0.3191 -0.1477
 4882SOL    HW115171   6.754   7.383   1.231 -0.8545  0.2036 -0.5895
 4882SOL    HW215172   6.872   7.338   1.147 -0.0059 -1.0381  1.1977
 4883SOL     OW15173   4.813   0.531   3.600  0.2890  0.1215 -0.1014
 4883SOL    HW115174   4.730   0.543   3.553 -0.3642  0.5085  1.1020
 4883SOL    HW215175   4.829   0.437   3.596  0.4825  0.1912 -1.4579
 4884SOL     OW15176   0.126   3.979   0.047  0.3814 -0.0224 -0.0055
 4884SOL    HW115177   0.196   4.029   0.006  1.3372 -2.1489 -1.1732
 4884SOL    HW215178   0.084   3.932  -0.026 -2.0365  0.8833  0.7223
 4885SOL     OW15179   4.454   4.323   6.456  0.1434 -1.0017  0.0501
 4885SOL    HW115180   4.434   4.399   6.510 -0.6566 -0.9838 -0.2565
 4885SOL    HW215181   4.454   4.249   6.517  0.5043 -0.8101  0.2812
 4886SOL     OW15182   4.170   0.718   1.940 -0.0623 -0.2503 -0.2253
 4886SOL    HW115183   4.108   0.784   1.909  0.1112  1.0171  1.8769
 4886SOL    HW215184   4.127   0.634   1.923 -1.3034  0.4962 -0.9278
 4887SOL     OW15185   3.010   6.627   3.307  0.4307  0.8080 -0.0295
 4887SOL    HW115186   2.934   6.618   3.249 -0.1252 -0.3178  0.8529
 4887SOL    HW215187   3.048   6.712   3.282 -0.6219  1.0105 -1.0523
 4888SOL     OW15188   4.288   7.450   1.255  0.6902  0.7710 -0.1711
 4888SOL    HW115189   4.315   7.440   1.164  0.8139  1.4715 -0.2204
 4888SOL    HW215190   4.243   7.534   1.257  1.6194  1.2699  0.6184
 4889SOL     OW15191   6.720   0.400   0.656 -0.6911  0.2604  0.4062
 4889SOL    HW115192   6.655   0.329   0.648 -1.3980  1.0667 -1.7560
 4889SOL    HW215193   6.804   0.356   0.646 -1.0234 -0.5129  0.9109
 4890SOL     OW15194   2.434   3.463   5.782 -0.1277  0.2561 -0.3182
 4890SOL    HW115195   2.422   3.516   5.861  0.2257  0.5124 -0.4346
 4890SOL    HW215196   2.395   3.378   5.803 -0.9152  0.6284 -0.2049
 4891SOL     OW15197   3.760   1.742   0.558 -0.3760  0.6692  0.3547
 4891SOL    HW115198   3.767   1.660   0.607  0.8719  0.9818  0.7300
 4891SOL    HW215199   3.834   1.794   0.588  0.1717  1.0561 -1.5315
 4892SOL     OW15200   3.309   1.884   3.318  0.2007  0.4399  0.4636
 4892SOL    HW115201   3.319   1.790   3.310  0.5645  0.1940  2.8620
 4892SOL    HW215202   3.375   1.910   3.383  0.1675  2.3709 -0.1841
 4893SOL     OW15203   6.441   3.538   3.071 -0.0717  0.2541 -0.0860
 4893SOL    HW115204   6.357   3.521   3.028 -0.8334  0.2563  1.3316
 4893SOL    HW215205   6.426   3.619   3.120  0.1177 -0.7611  1.7270
 4894SOL     OW15206   2.719   6.860   4.149 -0.4089  0.5397 -0.2951
 4894SOL    HW115207   2.788   6.920   4.123 -0.7032  0.2320 -1.9212
 4894SOL    HW215208   2.742   6.777   4.106 -0.3322 -0.3487  1.3943
 4895SOL     OW15209   3.759   5.629   5.571 -0.2366 -0.0494  0.2267
 4895SOL    HW115210   3.719   5.715   5.572 -1.3263 -0.5373  0.2374
 4895SOL    HW215211   3.703   5.576   5.628 -0.7122 -1.2323 -1.2634
 4896SOL     OW15212   0.316   5.879   0.389  0.0675  0.1037  0.5041
 4896SOL    HW115213   0.396   5.857   0.340  0.0986 -0.2954  0.7248
 4896SOL    HW215214   0.308   5.973   0.380  1.1593  0.3020  1.3648
 4897SOL     OW15215   2.282   2.482   2.343  0.1560  0.4242  0.6840
 4897SOL    HW115216   2.367   2.454   2.310  0.1084  2.7449 -1.7679
 4897SOL    HW215217   2.302   2.536   2.419  0.7799  0.2309  0.6647
 4898SOL     OW15218   2.510   6.482   4.271  0.6136  0.3923  0.1396
 4898SOL    HW115219   2.600   6.516   4.273  0.5390  0.7625 -1.2494
 4898SOL    HW215220   2.496   6.459   4.179 -0.8082  0.5739  0.2918
 4899SOL     OW15221   5.430   1.865   7.228  0.3717  0.3535 -0.7032
 4899SOL    HW115222   5.467   1.882   7.141 -0.1512 -0.4137 -1.0818
 4899SOL    HW215223   5.398   1.950   7.257  2.3052  1.0378 -0.4081
 4900SOL     OW15224   6.122   1.389   2.807  0.3099  0.2932  0.0660
 4900SOL    HW115225   6.197   1.440   2.838  0.9926 -0.1337 -0.8644
 4900SOL    HW215226   6.050   1.452   2.808  0.3988  0.4507  1.9812
 4901SOL     OW15227   0.923   0.469   3.412 -0.1919 -0.5871  0.8709
 4901SOL    HW115228   1.002   0.522   3.406 -0.6176  0.0539  0.8902
 4901SOL    HW215229   0.863   0.520   3.466 -0.8706 -0.7498  0.2915
 4902SOL     OW15230   1.068   4.289   4.153  0.1615 -0.3629  0.2722
 4902SOL    HW115231   1.120   4.213   4.178 -0.7875 -0.3529  2.4381
 4902SOL    HW215232   1.126   4.364   4.167  0.0344 -0.4549  1.3396
 4903SOL     OW15233   3.558   4.872   0.416 -0.5069  0.2337  0.3585
 4903SOL    HW115234   3.645   4.882   0.454 -1.1266  0.4070  1.8366
 4903SOL    HW215235   3.572   4.873   0.322  1.0908  0.1793  0.5690
 4904SOL     OW15236   0.372   7.455   0.956 -0.1481  0.1591 -0.1506
 4904SOL    HW115237   0.301   7.392   0.941  1.8463 -2.2171 -0.2938
 4904SOL    HW215238   0.400   7.438   1.046  1.4996 -0.3801 -0.7305
 4905SOL     OW15239   4.866   0.457   3.966 -0.0609 -0.0221 -0.8767
 4905SOL    HW115240   4.886   0.364   3.975  1.0941  0.3609  1.0121
 4905SOL    HW215241   4.814   0.478   4.043  1.8574  1.3993  0.1170
 4906SOL     OW15242   4.531   7.290   2.034  0.1556  0.2392  0.6667
 4906SOL    HW115243   4.500   7.250   1.953  0.4045 -0.1284  0.7513
 4906SOL    HW215244   4.517   7.224   2.101  0.8575  0.1676  0.7545
 4907SOL     OW15245   4.365   4.530   0.918  0.3213 -0.2747 -0.5893
 4907SOL    HW115246   4.374   4.538   1.013 -0.4397 -1.7592 -0.3728
 4907SOL    HW215247   4.330   4.615   0.890 -1.9031 -0.6751  0.8009
 4908SOL     OW15248   1.701   2.034   1.610  0.4784 -0.6024 -0.3743
 4908SOL    HW115249   1.653   2.097   1.556  1.3004  0.7177  0.3530
 4908SOL    HW215250   1.636   1.969   1.636 -1.3655  1.7990  1.6750
 4909SOL     OW15251   5.663   6.195   1.783 -0.0668 -0.1852  0.7565
 4909SOL    HW115252   5.717   6.248   1.841 -0.5073 -0.1670  1.1629
 4909SOL    HW215253   5.635   6.255   1.714  1.0727 -0.3885  0.0960
 4910SOL     OW15254   2.413   2.852   0.481  0.1263 -0.5281  0.1020
 4910SOL    HW115255   2.490   2.855   0.423 -0.4982 -1.9561 -0.8693
 4910SOL    HW215256   2.358   2.784   0.443 -2.1985  1.2643  0.0843
 4911SOL     OW15257   2.761   2.260   2.735  0.5526  0.1154  0.4548
 4911SOL    HW115258   2.800   2.172   2.738  2.5957  0.8611 -1.5295
 4911SOL    HW215259   2.689   2.253   2.673 -1.7640 -0.9418  3.0816
 4912SOL     OW15260   6.022   2.349   1.785 -0.1383  0.5963 -0.1944
 4912SOL    HW115261   6.028   2.292   1.863  0.7381 -1.7886 -1.8824
 4912SOL    HW215262   6.105   2.395   1.782 -0.6401  1.6225  0.8942
 4913SOL     OW15263   0.929   4.696   1.371  0.3771 -0.3696 -0.5017
 4913SOL    HW115264   0.848   4.728   1.412  0.2674 -1.1891 -0.0429
 4913SOL    HW215265   0.999   4.728   1.428  0.1277 -3.2572  1.6777
 4914SOL     OW15266   1.813   5.330   5.861  0.1595 -0.1573 -0.1367
 4914SOL    HW115267   1.824   5.385   5.939  0.3239  0.7729 -0.8099
 4914SOL    HW215268   1.851   5.380   5.790 -0.2947 -0.8556 -0.8905
 4915SOL     OW15269   1.875   2.039   2.717 -0.2462 -0.0981  0.3882
 4915SOL    HW115270   1.965   2.046   2.750 -0.0741  0.4089 -0.1620
 4915SOL    HW215271   1.825   2.004   2.790 -0.0193  1.6808  1.4375
 4916SOL     OW15272   4.386   4.414   2.357 -0.1388  0.0136  0.6463
 4916SOL    HW115273   4.475   4.417   2.322 -0.8504  0.4387 -1.2312
 4916SOL    HW215274   4.372   4.321   2.377  0.3171 -0.2433 -0.1786
 4917SOL     OW15275   3.802   3.873   4.163  0.3319 -0.3271  0.9231
 4917SOL    HW115276   3.854   3.902   4.088 -2.0536 -0.3502 -0.8472
 4917SOL    HW215277   3.810   3.777   4.162  1.0635 -0.2788  1.3177
 4918SOL     OW15278   4.679   7.415   0.377 -0.6594 -0.0732 -0.5296
 4918SOL    HW115279   4.698   7.339   0.323 -0.4197 -0.1230 -0.3777
 4918SOL    HW215280   4.756   7.471   0.368 -0.6841 -0.0114 -0.3617
 4919SOL     OW15281   1.696   2.589   6.360 -0.1845  0.3687  0.3014
 4919SOL    HW115282   1.775   2.634   6.328  1.7893 -2.3089  1.0135
 4919SOL    HW215283   1.671   2.638   6.438  0.6531  1.3778 -0.0333
 4920SOL     OW15284   1.027   1.406   0.686  0.0523  0.6357  0.1627
 4920SOL    HW115285   1.045   1.336   0.749 -0.4123 -0.0177 -0.4116
 4920SOL    HW215286   1.084   1.478   0.713 -0.3725  0.4926  1.5235
 4921SOL     OW15287   4.997   1.685   2.750  0.1427  0.1494 -0.8961
 4921SOL    HW115288   4.948   1.609   2.721  1.2128 -1.0714  0.3428
 4921SOL    HW215289   4.967   1.701   2.840  1.1636  0.0952 -0.5334
 4922SOL     OW15290   5.720   0.225   1.960  0.0231 -0.6582 -0.6040
 4922SOL    HW115291   5.639   0.208   1.912  0.2010 -0.9908 -0.7928
 4922SOL    HW215292   5.783   0.164   1.922  0.5805  0.1688 -1.0103
 4923SOL     OW15293   4.494   1.603   6.213  0.5421 -0.1601  0.1251
 4923SOL    HW115294   4.456   1.647   6.137 -1.4547 -0.8525  0.6483
 4923SOL    HW215295   4.552   1.668   6.252  1.3205  0.3384 -1.7520
 4924SOL     OW15296   1.246   2.717   5.646  0.1036 -0.1204  0.2706
 4924SOL    HW115297   1.255   2.807   5.677  1.2765 -0.2971  0.4961
 4924SOL    HW215298   1.318   2.670   5.688 -0.3450 -1.1187 -0.0414
 4925SOL     OW15299   0.774   6.853   4.656  0.5041 -0.5321  0.5636
 4925SOL    HW115300   0.832   6.783   4.684 -1.0809 -1.8987  0.5532
 4925SOL    HW215301   0.795   6.866   4.564  1.7374 -0.0144  0.8947
 4926SOL     OW15302   1.203   6.951   5.285 -0.0308 -0.1643  0.1931
 4926SOL    HW115303   1.238   6.864   5.269 -1.4191 -0.7372  0.0874
 4926SOL    HW215304   1.148   6.941   5.363  0.3570  0.7871  0.6098
 4927SOL     OW15305   6.641   7.000   7.428  0.1893  0.5533  0.4515
 4927SOL    HW115306   6.693   7.022   7.505 -0.2650 -1.4010  1.3694
 4927SOL    HW215307   6.640   6.905   7.425  0.4880  0.5424 -2.2175
 4928SOL     OW15308   1.039   6.720   2.667  1.1268 -0.1209  0.2978
 4928SOL    HW115309   0.973   6.659   2.635 -0.1319  1.3805 -0.0438
 4928SOL    HW215310   1.064   6.684   2.753 -1.8708  0.4646  1.5615
 4929SOL     OW15311   0.834   3.831   1.690  0.1215 -0.2223  0.1667
 4929SOL    HW115312   0.898   3.769   1.656  0.8733  0.2157  0.7514
 4929SOL    HW215313   0.752   3.806   1.648  0.2903 -1.9402  0.7931
 4930SOL     OW15314   5.844   1.230   5.552  0.1511  0.5152 -0.6386
 4930SOL    HW115315   5.860   1.155   5.494 -0.0507 -1.3486  1.5487
 4930SOL    HW215316   5.756   1.260   5.527 -0.0452 -0.4048 -1.1294
 4931SOL     OW15317   4.190   5.805   6.461  0.0970  0.1172 -0.1156
 4931SOL    HW115318   4.269   5.760   6.492 -0.3773  0.1648  1.1963
 4931SOL    HW215319   4.154   5.747   6.394  0.7925 -0.2866 -0.1532
 4932SOL     OW15320   3.686   3.842   4.614 -0.1624  0.1264 -0.4254
 4932SOL    HW115321   3.760   3.798   4.571 -0.1997 -0.5539  0.1676
 4932SOL    HW215322   3.636   3.882   4.543  0.7048  0.4847 -0.8467
 4933SOL     OW15323   6.273   6.778   1.167 -0.2731  0.0085 -0.1173
 4933SOL    HW115324   6.261   6.830   1.247  0.2251  1.4922 -0.9807
 4933SOL    HW215325   6.188   6.736   1.154 -0.8749  1.0638  0.2887
 4934SOL     OW15326   3.124   1.971   1.976  0.0772 -0.2415  0.1045
 4934SOL    HW115327   3.150   1.882   2.001  0.9470 -0.1068 -0.2709
 4934SOL    HW215328   3.086   2.009   2.055 -1.7647 -1.4664 -0.1423
 4935SOL     OW15329   5.336   6.146   1.881 -0.6173  0.3466 -0.3464
 4935SOL    HW115330   5.264   6.141   1.818  0.2037  2.5375 -1.5642
 4935SOL    HW215331   5.310   6.217   1.940 -1.1771 -1.3974  1.6341
 4936SOL     OW15332   3.968   7.414   2.934  0.1034 -0.3290 -0.1150
 4936SOL    HW115333   4.027   7.489   2.930 -1.3799  1.0510  1.7717
 4936SOL    HW215334   3.888   7.444   2.889  0.3623 -1.7634 -1.6461
 4937SOL     OW15335   3.541   1.885   3.831  0.2631 -0.0294 -0.1881
 4937SOL    HW115336   3.599   1.938   3.776  1.1342  0.5900  1.2379
 4937SOL    HW215337   3.580   1.891   3.918 -1.4957 -0.3189  0.6621
 4938SOL     OW15338   2.957   6.022   5.883 -0.4749  0.0590  0.2553
 4938SOL    HW115339   2.893   6.093   5.876 -0.5561  0.0027  0.4324
 4938SOL    HW215340   3.018   6.052   5.950 -1.2412 -0.6050  1.2707
 4939SOL     OW15341   2.265   6.911   6.937 -0.2262  0.1096 -0.2711
 4939SOL    HW115342   2.340   6.931   6.881 -1.5623  0.7204 -1.9259
 4939SOL    HW215343   2.217   6.994   6.943 -0.2192  0.0211  1.6968
 4940SOL     OW15344   7.156   2.645   4.261 -0.8063 -0.3509  0.1470
 4940SOL    HW115345   7.123   2.721   4.309 -0.0530  1.2172 -1.6864
 4940SOL    HW215346   7.243   2.671   4.232 -0.2030 -2.2473  0.1308
 4941SOL     OW15347   5.110   3.237   6.818  0.9760  0.1515  0.2687
 4941SOL    HW115348   5.098   3.146   6.792 -0.3253  0.0620  1.0793
 4941SOL    HW215349   5.049   3.286   6.763  1.8613  0.5849 -0.3510
 4942SOL     OW15350   5.908   4.314   4.214 -0.1438 -0.3109  0.6615
 4942SOL    HW115351   5.870   4.229   4.238  1.1515 -0.7481  1.2227
 4942SOL    HW215352   5.956   4.342   4.291 -2.1976  1.9628  1.2729
 4943SOL     OW15353   7.099   5.196   5.750  0.8016  0.2997 -0.2571
 4943SOL    HW115354   7.118   5.138   5.824  0.0283  0.9174  0.4446
 4943SOL    HW215355   7.055   5.271   5.790  1.8132  1.3900 -1.1492
 4944SOL     OW15356   3.032   0.572   2.752  0.0820 -0.0551  0.1136
 4944SOL    HW115357   3.018   0.484   2.785 -1.8454  0.5770  1.1625
 4944SOL    HW215358   3.049   0.561   2.659  0.2558 -1.5449  0.3064
 4945SOL     OW15359   6.819   2.276   4.389 -0.1043 -0.0279  0.0201
 4945SOL    HW115360   6.875   2.351   4.371 -0.2857 -0.1356 -1.0510
 4945SOL    HW215361   6.812   2.231   4.305  1.5931 -2.3556  0.9928
 4946SOL     OW15362   6.972   0.479   3.120 -0.1653 -0.1144 -0.6448
 4946SOL    HW115363   6.964   0.402   3.065  0.3480 -0.0456 -0.8233
 4946SOL    HW215364   6.895   0.532   3.098 -0.8140 -0.8107 -0.1249
 4947SOL     OW15365   3.828   5.271   2.613 -0.1015  0.1558  0.5040
 4947SOL    HW115366   3.902   5.257   2.555  0.1979  0.0565  0.9059
 4947SOL    HW215367   3.810   5.184   2.651 -0.0952  0.2782  0.7933
 4948SOL     OW15368   1.366   6.821   0.880  0.0469  0.2847  0.5712
 4948SOL    HW115369   1.410   6.877   0.816  0.1337 -0.4335 -0.0025
 4948SOL    HW215370   1.300   6.773   0.829  0.6576 -0.8910  0.8532
 4949SOL     OW15371   3.305   5.934   4.535 -0.2728 -0.1076  0.2719
 4949SOL    HW115372   3.229   5.877   4.519 -0.1593 -0.0943 -0.3475
 4949SOL    HW215373   3.363   5.916   4.461 -0.1135  0.6140  0.2169
 4950SOL     OW15374   2.578   1.764   5.730  0.5598  0.0236  0.9160
 4950SOL    HW115375   2.627   1.776   5.649  1.8309  1.7617  1.8598
 4950SOL    HW215376   2.527   1.845   5.740 -2.7491 -1.7664 -0.0919
 4951SOL     OW15377   1.488   5.697   4.564 -0.1817 -0.2063 -0.1203
 4951SOL    HW115378   1.476   5.646   4.644  1.0197 -0.6211 -0.1880
 4951SOL    HW215379   1.459   5.785   4.587  0.4021 -0.2559  0.8448
 4952SOL     OW15380   2.669   6.891   5.208 -0.1344 -0.1264  0.2107
 4952SOL    HW115381   2.669   6.906   5.114  0.7785  0.9503  0.3494
 4952SOL    HW215382   2.660   6.979   5.246  1.1511 -0.3391  1.0966
 4953SOL     OW15383   1.137   5.015   6.892  0.6393  0.6257  0.3574
 4953SOL    HW115384   1.135   4.922   6.870  0.1332  0.7317 -0.0631
 4953SOL    HW215385   1.056   5.030   6.940  2.7842 -0.1566  4.7578
 4954SOL     OW15386   2.238   3.548   7.374 -0.5269  0.0245 -0.0393
 4954SOL    HW115387   2.151   3.587   7.383 -1.1748 -0.8401 -2.0643
 4954SOL    HW215388   2.261   3.520   7.463 -2.6171 -0.3932  0.4192
 4955SOL     OW15389   2.180   6.907   4.012 -0.4966 -0.9269 -0.4366
 4955SOL    HW115390   2.137   6.822   4.026 -5.2089  1.4870  2.6753
 4955SOL    HW215391   2.264   6.899   4.057 -0.6125 -3.9910 -0.5689
 4956SOL     OW15392   3.264   1.171   2.091 -0.0036  0.1362 -0.4761
 4956SOL    HW115393   3.357   1.193   2.079 -0.5069  3.3009  0.4838
 4956SOL    HW215394   3.219   1.221   2.024 -1.1562  0.0045  0.1728
 4957SOL     OW15395   6.931   3.510   1.637 -0.4255  0.1424  0.1166
 4957SOL    HW115396   6.844   3.508   1.597 -1.2293  3.3885  1.4091
 4957SOL    HW215397   6.966   3.596   1.614  1.7996 -0.4556  1.0049
 4958SOL     OW15398   0.616   4.280   3.683 -0.1725  0.1907 -0.2829
 4958SOL    HW115399   0.609   4.226   3.604 -2.5732  0.7387 -0.5171
 4958SOL    HW215400   0.592   4.368   3.654  1.9567  1.0965  0.4657
 4959SOL     OW15401   4.229   0.858   3.687  0.2018 -0.0077  0.3865
 4959SOL    HW115402   4.314   0.891   3.657 -0.0046 -1.6759 -2.3741
 4959SOL    HW215403   4.244   0.765   3.704 -0.4865  0.2362  2.6189
 4960SOL     OW15404   2.564   4.766   3.072  0.2367  0.3036 -0.4413
 4960SOL    HW115405   2.473   4.795   3.076 -0.4839 -0.9107 -3.9506
 4960SOL    HW215406   2.573   4.704   3.144 -1.4351  1.0773  0.4879
 4961SOL     OW15407   4.348   0.581   4.538 -0.0775 -0.1742 -0.1054
 4961SOL    HW115408   4.369   0.527   4.462  1.9557 -0.4142  0.5516
 4961SOL    HW215409   4.413   0.651   4.536  0.0568 -0.2237  1.4104
 4962SOL     OW15410   1.337   2.391   4.191 -0.3149 -0.4016 -0.3373
 4962SOL    HW115411   1.412   2.335   4.170 -0.2406 -0.7719  0.7990
 4962SOL    HW215412   1.261   2.338   4.168 -0.2992 -1.7507  2.2394
 4963SOL     OW15413   3.486   5.873   1.208 -0.0422 -0.6838  0.3519
 4963SOL    HW115414   3.547   5.946   1.195 -1.2075  0.2700  0.0229
 4963SOL    HW215415   3.535   5.809   1.259  1.1263  0.1864  0.3588
 4964SOL     OW15416   2.308   4.690   2.650 -0.0787 -0.1358 -0.9352
 4964SOL    HW115417   2.289   4.718   2.560 -0.5055  0.3610 -0.6957
 4964SOL    HW215418   2.327   4.771   2.697 -1.5223 -0.1896 -0.1890
 4965SOL     OW15419   3.781   5.710   0.288  0.3113 -0.3841 -0.1716
 4965SOL    HW115420   3.748   5.797   0.267 -0.5617 -0.6474  0.0684
 4965SOL    HW215421   3.854   5.726   0.348 -1.3011  0.1071  1.7497
 4966SOL     OW15422   1.664   5.404   7.552 -0.0334  0.2077 -0.0415
 4966SOL    HW115423   1.691   5.458   7.478  0.5021 -2.0354 -1.5663
 4966SOL    HW215424   1.589   5.355   7.519 -1.2146  0.7660  1.6747
 4967SOL     OW15425   2.638   1.875   1.150  0.1537 -0.0529 -0.5858
 4967SOL    HW115426   2.674   1.787   1.162 -0.7560 -0.4283 -0.4722
 4967SOL    HW215427   2.568   1.881   1.215 -0.8014  0.1782 -1.5993
 4968SOL     OW15428   0.355   0.565   3.675 -0.0450  0.4806 -0.1124
 4968SOL    HW115429   0.270   0.542   3.713 -0.2817 -0.9183 -1.3913
 4968SOL    HW215430   0.334   0.612   3.595  0.4256  1.7233  0.4742
 4969SOL     OW15431   4.082   0.730   3.295 -0.2456 -0.0492  0.5142
 4969SOL    HW115432   4.093   0.763   3.205  0.5471  1.5013  1.1402
 4969SOL    HW215433   4.149   0.662   3.303  1.5441  1.6574  0.7391
 4970SOL     OW15434   1.142   5.093   3.139 -0.2915 -0.7929 -0.3325
 4970SOL    HW115435   1.133   5.073   3.046 -0.0165 -0.1230 -0.5121
 4970SOL    HW215436   1.203   5.027   3.172 -0.7380 -1.3079 -0.5268
 4971SOL     OW15437   0.116   0.142   6.830 -0.9412 -0.3685 -0.0639
 4971SOL    HW115438   0.023   0.140   6.806 -0.8730  0.8704 -0.4923
 4971SOL    HW215439   0.156   0.200   6.765  0.1643 -1.0040  0.0341
 4972SOL     OW15440   1.772   2.658   0.898 -0.5987  0.0586 -0.2242
 4972SOL    HW115441   1.718   2.617   0.830 -0.9004 -0.0209  0.0598
 4972SOL    HW215442   1.709   2.686   0.965 -0.2345 -0.5843  0.3935
 4973SOL     OW15443   0.719   0.816   4.912 -0.8013  0.2258  0.0354
 4973SOL    HW115444   0.721   0.799   4.818  1.4258 -1.4732  0.3086
 4973SOL    HW215445   0.805   0.854   4.931 -1.1266  0.3046  1.4144
 4974SOL     OW15446   5.682   4.704   4.266 -0.5565  0.2372 -0.2996
 4974SOL    HW115447   5.632   4.776   4.226 -1.7897  0.3341  1.3270
 4974SOL    HW215448   5.752   4.748   4.314 -0.5259  0.2663 -0.3700
 4975SOL     OW15449   0.687   4.177   3.135  0.3864  0.3861 -0.0727
 4975SOL    HW115450   0.718   4.266   3.147  0.1945  0.3183  1.0203
 4975SOL    HW215451   0.681   4.141   3.223  1.3220 -1.0021 -0.5283
 4976SOL     OW15452   2.564   4.611   6.386 -0.3985  0.6521  0.5964
 4976SOL    HW115453   2.473   4.581   6.388 -0.0692 -0.4365  0.0465
 4976SOL    HW215454   2.610   4.552   6.446  0.1580  0.3967 -0.0651
 4977SOL     OW15455   5.648   5.853   6.145 -0.2951 -0.2731  0.4819
 4977SOL    HW115456   5.615   5.872   6.057 -1.6327 -0.9677  0.8120
 4977SOL    HW215457   5.629   5.760   6.158 -1.1482  0.0767  1.9208
 4978SOL     OW15458   5.483   0.491   4.158 -0.0832  0.1812 -0.6448
 4978SOL    HW115459   5.477   0.587   4.157 -1.7193  0.1492 -3.0898
 4978SOL    HW215460   5.567   0.473   4.116 -0.5651  0.6038 -1.8697
 4979SOL     OW15461   3.879   0.658   7.198 -0.0567 -0.4826  0.0529
 4979SOL    HW115462   3.795   0.651   7.151  0.0768 -4.2528  0.0324
 4979SOL    HW215463   3.936   0.595   7.154  1.2605 -1.4784  2.9461
 4980SOL     OW15464   2.211   2.476   4.683  0.1694 -0.0371 -0.2261
 4980SOL    HW115465   2.168   2.476   4.768 -0.4314 -1.7514 -0.4989
 4980SOL    HW215466   2.288   2.420   4.695  0.9803  1.0135 -0.4004
 4981SOL     OW15467   0.396   3.390   7.185 -0.2756  0.0651  0.0814
 4981SOL    HW115468   0.364   3.480   7.184  1.5735  0.7547  0.2856
 4981SOL    HW215469   0.376   3.358   7.273 -1.3454  0.1039 -0.1370
 4982SOL     OW15470   7.040   2.130   4.624 -0.2469 -0.5542 -0.5757
 4982SOL    HW115471   7.051   2.144   4.529  1.5507 -0.4513 -0.3946
 4982SOL    HW215472   7.081   2.046   4.641 -0.4505 -0.5169  0.1325
 4983SOL     OW15473   1.442   4.586   7.315  0.1224 -0.5911  0.2098
 4983SOL    HW115474   1.530   4.548   7.322  0.2793 -0.0245  1.6411
 4983SOL    HW215475   1.425   4.624   7.401 -1.8814 -1.4095  0.2215
 4984SOL     OW15476   1.822   4.490   5.207  0.1698 -0.3026  0.2280
 4984SOL    HW115477   1.782   4.475   5.293  2.4235 -0.3384  1.3311
 4984SOL    HW215478   1.791   4.417   5.153  0.1191 -1.2674  1.5344
 4985SOL     OW15479   4.604   6.238   1.446  0.2435 -0.5454  0.0403
 4985SOL    HW115480   4.628   6.226   1.354  1.0688 -0.2200  0.2013
 4985SOL    HW215481   4.533   6.302   1.444 -0.4745 -1.3316 -0.4359
 4986SOL     OW15482   0.454   7.201   6.090  0.3757  0.5019 -0.0095
 4986SOL    HW115483   0.535   7.159   6.064  0.4645  0.1243  0.8489
 4986SOL    HW215484   0.477   7.253   6.167 -0.5482 -1.1011  1.4217
 4987SOL     OW15485   2.107   5.406   1.695  0.2048 -0.0638 -0.4276
 4987SOL    HW115486   2.138   5.442   1.778  0.7381 -0.2359 -0.5515
 4987SOL    HW215487   2.121   5.477   1.632 -2.2929  0.9443  0.0047
 4988SOL     OW15488   0.564   3.409   4.454 -0.1058 -0.2095  0.4490
 4988SOL    HW115489   0.557   3.341   4.387  0.6233  2.2684 -2.3703
 4988SOL    HW215490   0.477   3.447   4.460 -0.1808 -0.4508  0.9758
 4989SOL     OW15491   6.510   4.741   0.873  0.6008 -0.1635  0.5153
 4989SOL    HW115492   6.554   4.746   0.788 -0.8979  0.6461 -0.2562
 4989SOL    HW215493   6.547   4.813   0.924  0.3812  0.3272 -0.0139
 4990SOL     OW15494   3.051   5.516   0.289  0.0516  0.5825  0.3918
 4990SOL    HW115495   3.019   5.484   0.205 -1.1734 -0.0770  1.0737
 4990SOL    HW215496   3.020   5.451   0.352 -0.0660  1.6652  1.4860
 4991SOL     OW15497   5.499   5.932   6.381  0.1465  0.1933 -0.2438
 4991SOL    HW115498   5.559   5.934   6.456 -0.0291 -4.3110  0.3126
 4991SOL    HW215499   5.552   5.899   6.309 -1.1761 -2.6396 -0.0663
 4992SOL     OW15500   4.509   2.090   2.830 -0.6284 -0.0424  0.3109
 4992SOL    HW115501   4.542   2.073   2.741  1.6072  2.3535  0.5500
 4992SOL    HW215502   4.586   2.077   2.886 -1.2250  1.3097  1.5064
 4993SOL     OW15503   0.821   0.217   6.593 -0.0904 -0.2211 -0.3658
 4993SOL    HW115504   0.797   0.132   6.556 -0.4941 -0.5548  0.6370
 4993SOL    HW215505   0.740   0.249   6.634  0.8741 -0.9492  2.2984
 4994SOL     OW15506   6.931   5.892   0.822  0.3371 -0.4476  0.2280
 4994SOL    HW115507   7.020   5.865   0.844  0.0382 -0.3958  1.5638
 4994SOL    HW215508   6.920   5.977   0.864 -0.3291 -0.4240  0.0210
 4995SOL     OW15509   7.477   7.297   7.524 -0.1091 -0.0185  0.5960
 4995SOL    HW115510   7.459   7.203   7.528 -1.4539  0.2294  0.9946
 4995SOL    HW215511   7.532   7.308   7.447 -1.2408 -0.9661 -0.3833
 4996SOL     OW15512   0.735   4.055   6.471 -0.1856 -0.6446 -0.2002
 4996SOL    HW115513   0.782   4.017   6.546  2.5714  1.6344 -0.5961
 4996SOL    HW215514   0.804   4.087   6.413 -2.0857  4.3466 -0.1905
 4997SOL     OW15515   0.196   5.127   3.956  0.7778 -0.0090 -0.1296
 4997SOL    HW115516   0.147   5.068   4.014 -0.0036  0.9342  0.2079
 4997SOL    HW215517   0.176   5.096   3.868  0.9863 -0.7056  0.0614
 4998SOL     OW15518   5.554   4.560   2.000  0.0388  0.1938  0.0421
 4998SOL    HW115519   5.526   4.633   2.056  1.9483  0.4169  0.8090
 4998SOL    HW215520   5.505   4.484   2.033  0.5668  0.4775  1.5771
 4999SOL     OW15521   1.457   4.571   2.427 -0.6374  0.2483  0.1388
 4999SOL    HW115522   1.371   4.578   2.468  0.0452 -0.3516  1.7570
 4999SOL    HW215523   1.447   4.499   2.365 -1.4793  0.6358 -0.1946
 5000SOL     OW15524   7.149   4.219   0.258 -0.0041  0.1868  0.2350
 5000SOL    HW115525   7.160   4.201   0.352 -0.6409  0.5941  0.3997
 5000SOL    HW215526   7.176   4.311   0.248 -0.6548  0.3740  0.1627
 5001SOL     OW15527   5.862   4.402   0.158  0.5371  0.7162 -0.2800
 5001SOL    HW115528   5.902   4.461   0.093 -1.4610  0.7144 -1.6112
 5001SOL    HW215529   5.827   4.330   0.107  1.3721 -0.7679  1.1544
 5002SOL     OW15530   0.755   3.341   4.613 -0.2586  0.2017 -0.1009
 5002SOL    HW115531   0.847   3.369   4.612  0.3302 -1.6461 -1.4743
 5002SOL    HW215532   0.715   3.388   4.540 -0.0196 -0.1904 -0.4856
 5003SOL     OW15533   0.207   3.042   6.941 -0.8080  0.2069 -0.6106
 5003SOL    HW115534   0.269   2.991   6.889  0.5068 -1.4478  2.3525
 5003SOL    HW215535   0.125   2.992   6.937 -0.1700 -0.9769  0.4008
 5004SOL     OW15536   4.101   1.340   5.374  0.2516  0.0129  0.2357
 5004SOL    HW115537   4.132   1.368   5.288  1.7362  0.1557  0.7884
 5004SOL    HW215538   4.063   1.253   5.359  0.2066  0.1801 -0.6199
 5005SOL     OW15539   3.857   1.988   1.883  0.8544  0.2982 -0.1211
 5005SOL    HW115540   3.767   1.966   1.906  0.8951 -1.8192 -1.6520
 5005SOL    HW215541   3.888   2.043   1.955 -1.0896 -0.3912  1.3139
 5006SOL     OW15542   2.520   3.292   2.994  0.5069 -0.7604  0.3071
 5006SOL    HW115543   2.608   3.266   3.022  0.2223 -0.2931  1.6966
 5006SOL    HW215544   2.525   3.292   2.898  2.3607  0.3971  0.3524
 5007SOL     OW15545   4.929   4.069   6.296  0.2550 -0.5107  0.3664
 5007SOL    HW115546   4.971   4.039   6.376  0.5414 -1.7587 -0.2262
 5007SOL    HW215547   4.940   4.164   6.297  1.0871 -0.6017  1.3357
 5008SOL     OW15548   5.844   2.215   1.307  0.1071  0.1200 -0.2022
 5008SOL    HW115549   5.762   2.171   1.287  0.0555  0.5762 -1.0100
 5008SOL    HW215550   5.858   2.198   1.401 -1.2225  0.5698  0.0901
 5009SOL     OW15551   0.384   2.615   5.451  0.0509 -0.1371  0.4982
 5009SOL    HW115552   0.388   2.678   5.524 -1.6994  0.4149  0.1470
 5009SOL    HW215553   0.450   2.549   5.473  0.2532  0.5503  2.0788
 5010SOL     OW15554   0.975   0.551   7.369 -0.4940  0.2247 -0.0839
 5010SOL    HW115555   0.978   0.606   7.447  1.0423 -1.1927  0.9366
 5010SOL    HW215556   0.960   0.463   7.403  0.8799 -0.5240 -1.3031
 5011SOL     OW15557   2.785   6.310   7.339 -0.3585 -0.0788 -0.3733
 5011SOL    HW115558   2.756   6.233   7.387 -0.8907  0.3074 -0.0646
 5011SOL    HW215559   2.859   6.343   7.388 -1.1059  0.5080  0.3939
 5012SOL     OW15560   1.421   4.181   0.329 -0.0858  0.2354  0.1311
 5012SOL    HW115561   1.486   4.241   0.367  0.9118 -0.3990 -0.5229
 5012SOL    HW215562   1.376   4.145   0.405  0.2743  0.7472  0.6037
 5013SOL     OW15563   1.206   1.893   2.420  0.0713 -0.1658 -0.0208
 5013SOL    HW115564   1.147   1.932   2.355  1.1542  0.0228 -0.9302
 5013SOL    HW215565   1.284   1.948   2.417  1.4382 -2.0509 -0.9578
 5014SOL     OW15566   6.479   6.601   5.027  0.1822 -0.2452  0.5621
 5014SOL    HW115567   6.463   6.685   5.072 -1.7352 -1.1727  1.7360
 5014SOL    HW215568   6.425   6.606   4.948  0.0779 -0.3609  0.6260
 5015SOL     OW15569   4.860   3.824   5.697 -0.3380  0.3780 -0.3058
 5015SOL    HW115570   4.765   3.827   5.689 -0.5319 -0.6526  1.1472
 5015SOL    HW215571   4.883   3.904   5.744 -0.5050  0.5575 -0.5315
 5016SOL     OW15572   6.206   4.899   3.900 -0.3193  0.4186 -0.2998
 5016SOL    HW115573   6.277   4.840   3.876 -0.4319  0.1501  0.0314
 5016SOL    HW215574   6.126   4.853   3.872 -0.5417 -0.3991  1.5536
 5017SOL     OW15575   4.387   5.444   4.175 -0.4464 -0.2598 -0.8547
 5017SOL    HW115576   4.345   5.377   4.230  2.8672 -0.5481  1.6245
 5017SOL    HW215577   4.445   5.394   4.117 -0.1573  0.3448 -1.0941
 5018SOL     OW15578   2.400   4.012   0.108  0.5208  0.4954  0.3566
 5018SOL    HW115579   2.402   4.039   0.016  1.9057 -1.4003 -0.2036
 5018SOL    HW215580   2.335   3.941   0.111  1.1643 -0.0864  0.6512
 5019SOL     OW15581   4.402   3.604   0.278  0.1444  0.0470 -0.6291
 5019SOL    HW115582   4.425   3.694   0.255 -1.3373  0.2327 -1.4955
 5019SOL    HW215583   4.323   3.613   0.331 -0.3689 -0.7729 -1.2450
 5020SOL     OW15584   0.749   1.330   5.467  0.9450  0.2173 -0.2929
 5020SOL    HW115585   0.794   1.294   5.391  0.4943  3.0327 -2.0297
 5020SOL    HW215586   0.657   1.332   5.441  0.5327 -0.3447  1.0425
 5021SOL     OW15587   4.034   3.790   3.095 -0.3419  0.3217 -0.2160
 5021SOL    HW115588   4.062   3.723   3.157 -1.3083 -0.6472 -0.7847
 5021SOL    HW215589   4.090   3.775   3.018  0.5745  1.2602  0.2334
 5022SOL     OW15590   5.758   1.562   4.720 -0.7581 -0.1331  0.0801
 5022SOL    HW115591   5.707   1.567   4.801 -1.2856  2.0315 -0.3328
 5022SOL    HW215592   5.849   1.555   4.750 -1.0433 -0.7357  0.8386
 5023SOL     OW15593   5.530   0.312   2.151  0.2245 -0.6447  0.5349
 5023SOL    HW115594   5.616   0.275   2.131  0.7095  0.2010  0.9679
 5023SOL    HW215595   5.474   0.236   2.165  0.3733 -1.2594 -1.7517
 5024SOL     OW15596   0.251   7.001   7.204  0.2873  0.4922 -0.0835
 5024SOL    HW115597   0.286   7.045   7.126 -0.5238  1.1104 -0.1079
 5024SOL    HW215598   0.328   6.963   7.246  0.9091  1.3033 -0.4619
 5025SOL     OW15599   6.799   6.401   1.071 -0.5726  0.1629 -0.2173
 5025SOL    HW115600   6.721   6.346   1.075 -0.7798  0.3153 -1.6078
 5025SOL    HW215601   6.773   6.477   1.018  1.1032 -0.8710 -2.7219
 5026SOL     OW15602   0.732   1.664   1.144  0.1539  0.1234 -0.2106
 5026SOL    HW115603   0.780   1.597   1.095 -0.4171  0.4370 -1.2122
 5026SOL    HW215604   0.648   1.671   1.099  0.3141  1.7365 -0.3083
 5027SOL     OW15605   4.271   4.209   4.579  0.4178  0.2272 -0.3222
 5027SOL    HW115606   4.246   4.297   4.549 -0.6679 -0.4065 -1.3652
 5027SOL    HW215607   4.209   4.151   4.536  0.1673 -0.9427  1.5165
 5028SOL     OW15608   1.604   3.465   6.419 -0.0966 -1.1454  0.7222
 5028SOL    HW115609   1.538   3.510   6.473  0.7833 -0.8838  1.5982
 5028SOL    HW215610   1.577   3.373   6.420  0.2585 -1.2558  2.1610
 5029SOL     OW15611   3.566   4.501   2.068  0.1485  0.7788 -0.0736
 5029SOL    HW115612   3.527   4.588   2.062 -0.5708  0.5707  1.0902
 5029SOL    HW215613   3.658   4.514   2.048  0.2352  1.9814  0.9934
 5030SOL     OW15614   0.254   7.041   3.547 -0.0007  0.2333 -0.5455
 5030SOL    HW115615   0.342   7.035   3.585 -0.1424 -1.1465 -0.3718
 5030SOL    HW215616   0.212   7.112   3.595  0.1354 -0.8505  1.2846
 5031SOL     OW15617   3.685   6.457   0.331  0.0070 -0.2969 -0.0508
 5031SOL    HW115618   3.715   6.523   0.269 -1.6998 -0.9460 -1.6715
 5031SOL    HW215619   3.760   6.443   0.389  0.5339  2.7926  0.1923
 5032SOL     OW15620   2.506   4.583   0.515  0.1911 -0.1804  0.1349
 5032SOL    HW115621   2.467   4.496   0.507  0.5770 -0.5473  1.8793
 5032SOL    HW215622   2.431   4.641   0.526 -0.0830 -0.2263 -1.2386
 5033SOL     OW15623   6.731   3.590   3.616  0.1441 -0.8596 -0.2572
 5033SOL    HW115624   6.750   3.658   3.679 -0.9778  0.6577 -1.4653
 5033SOL    HW215625   6.676   3.527   3.664  0.3256 -0.3820  0.5892
 5034SOL     OW15626   2.206   4.413   3.798 -0.2544  0.0165  0.0513
 5034SOL    HW115627   2.153   4.432   3.875 -0.7764  0.8767 -0.5049
 5034SOL    HW215628   2.269   4.485   3.794  0.3306 -0.4778  0.1467
 5035SOL     OW15629   5.156   5.740   0.251  0.7502  0.1663 -0.0808
 5035SOL    HW115630   5.100   5.685   0.197 -0.0471  0.6618  0.2364
 5035SOL    HW215631   5.207   5.792   0.189  1.5287 -0.9248 -0.3861
 5036SOL     OW15632   5.349   0.501   6.979  0.1978 -0.2854 -0.2475
 5036SOL    HW115633   5.398   0.451   7.044  0.5134 -0.0784 -0.3245
 5036SOL    HW215634   5.277   0.443   6.954 -0.0270 -0.3028  0.4087
 5037SOL     OW15635   4.440   0.078   6.887  0.4005 -0.1502  0.2556
 5037SOL    HW115636   4.401   0.105   6.971 -1.2954  0.0652 -0.5619
 5037SOL    HW215637   4.500   0.149   6.865 -1.9483  1.7026 -0.5073
 5038SOL     OW15638   2.289   6.259   5.425 -0.5907  0.3938 -0.5775
 5038SOL    HW115639   2.259   6.296   5.508 -2.3666 -0.8203 -0.6282
 5038SOL    HW215640   2.209   6.231   5.381  0.3045  0.9372 -2.7014
 5039SOL     OW15641   7.088   6.640   2.188 -0.5301 -0.4633  0.0710
 5039SOL    HW115642   7.101   6.715   2.246 -0.1349 -0.1894 -0.3652
 5039SOL    HW215643   7.136   6.662   2.109 -0.1988 -1.2960  0.0315
 5040SOL     OW15644   5.822   4.036   4.239 -0.3142 -0.3153  0.0137
 5040SOL    HW115645   5.742   4.051   4.188  0.9313  0.0787 -1.9084
 5040SOL    HW215646   5.843   3.944   4.224 -0.3916 -0.4240  0.5402
 5041SOL     OW15647   1.812   0.033   6.855 -0.3168 -0.3345 -0.2139
 5041SOL    HW115648   1.801  -0.014   6.772  2.4182 -1.0370 -0.3029
 5041SOL    HW215649   1.794   0.124   6.833  0.8515 -0.4197 -1.7875
 5042SOL     OW15650   6.775   3.821   0.574 -0.4581 -0.4025 -0.3342
 5042SOL    HW115651   6.849   3.819   0.635 -1.0414 -0.4397  0.3803
 5042SOL    HW215652   6.816   3.814   0.487  0.5289  1.5422 -0.0770
 5043SOL     OW15653   3.704   4.747   5.562  0.0088  0.0154 -0.6627
 5043SOL    HW115654   3.782   4.783   5.605  0.4305  0.3141 -1.6478
 5043SOL    HW215655   3.739   4.696   5.489 -0.6580 -1.1465 -0.1794
 5044SOL     OW15656   2.258   7.100   3.265 -0.2555  0.2907  0.1820
 5044SOL    HW115657   2.226   7.027   3.212  1.5426 -2.5086  2.6295
 5044SOL    HW215658   2.194   7.109   3.335  0.0962  0.2300  0.5189
 5045SOL     OW15659   1.238   2.454   6.041  0.0368  0.4939 -0.2715
 5045SOL    HW115660   1.304   2.519   6.064 -0.3618  1.4645 -1.7550
 5045SOL    HW215661   1.253   2.436   5.949 -2.4838  1.6549 -0.9920
 5046SOL     OW15662   5.753   5.549   1.684  0.2422 -0.3488 -0.5467
 5046SOL    HW115663   5.767   5.618   1.619  0.3552 -0.8566 -1.0742
 5046SOL    HW215664   5.829   5.492   1.674 -0.9509 -1.8026 -1.7211
 5047SOL     OW15665   0.972   3.517   2.126  0.6930  0.5335  0.3425
 5047SOL    HW115666   0.898   3.578   2.128 -0.9761 -1.2748 -1.4808
 5047SOL    HW215667   1.028   3.549   2.055  0.0666  0.2612 -0.2895
 5048SOL     OW15668   3.475   6.160   2.130  0.7253  0.2308 -1.0785
 5048SOL    HW115669   3.560   6.128   2.160  0.6508  0.1227 -0.9826
 5048SOL    HW215670   3.470   6.132   2.038 -0.5019 -2.4350 -0.2617
 5049SOL     OW15671   0.930   5.387   6.099 -0.2255  0.6569 -0.3519
 5049SOL    HW115672   1.012   5.423   6.065 -0.0120 -0.9518 -1.6233
 5049SOL    HW215673   0.958   5.315   6.157 -0.7050  1.3772  0.8223
 5050SOL     OW15674   5.809   3.155   1.533  0.0471 -0.4578 -0.0827
 5050SOL    HW115675   5.859   3.094   1.479  0.6029  0.3676 -0.5237
 5050SOL    HW215676   5.876   3.209   1.577 -0.4344  0.7374 -0.7711
 5051SOL     OW15677   6.432   6.827   2.799  0.4838  0.5964  0.3661
 5051SOL    HW115678   6.338   6.834   2.818  0.3315  2.6525 -0.8284
 5051SOL    HW215679   6.465   6.916   2.811  2.3960 -0.1622  1.1408
 5052SOL     OW15680   7.228   6.968   7.126  0.1452  0.2496 -0.1029
 5052SOL    HW115681   7.252   6.928   7.043 -0.5388  0.0443 -0.2113
 5052SOL    HW215682   7.262   7.058   7.120  0.4150  0.1269 -0.4541
 5053SOL     OW15683   4.197   0.961   6.034  0.0365  0.5933 -0.8379
 5053SOL    HW115684   4.156   1.016   6.100 -0.7232  0.0355 -0.8279
 5053SOL    HW215685   4.151   0.982   5.953  1.4534  1.8139 -1.3759
 5054SOL     OW15686   5.089   6.641   1.415 -0.3821 -0.1970 -0.5541
 5054SOL    HW115687   5.144   6.565   1.435 -2.0694 -1.2520  0.3145
 5054SOL    HW215688   5.080   6.686   1.499 -2.7850 -1.4129 -0.0847
 5055SOL     OW15689   3.447   3.301   0.159 -0.2100  0.5271 -0.1389
 5055SOL    HW115690   3.421   3.367   0.094  0.7602  0.6015 -0.4619
 5055SOL    HW215691   3.445   3.218   0.110 -0.8240  0.3884  0.1076
 5056SOL     OW15692   4.017   3.708   2.271  0.4237 -0.5387 -0.4711
 5056SOL    HW115693   4.012   3.649   2.346  0.0021 -0.2609 -0.2748
 5056SOL    HW215694   4.103   3.692   2.233  0.0298 -1.8300 -0.8773
 5057SOL     OW15695   5.954   2.785   3.905  0.0512  0.3966  0.4331
 5057SOL    HW115696   5.926   2.817   3.990  2.0752  1.9193  0.5794
 5057SOL    HW215697   5.909   2.841   3.842  0.9360  1.3223  0.6054
 5058SOL     OW15698   7.317   3.519   1.232  0.1005  0.2330  0.3124
 5058SOL    HW115699   7.290   3.466   1.158  0.2103 -2.1053  1.8364
 5058SOL    HW215700   7.413   3.518   1.229  0.1337 -0.7637  1.0133
 5059SOL     OW15701   2.537   5.964   3.487 -0.0225  0.0298 -0.5846
 5059SOL    HW115702   2.561   6.012   3.407 -0.8391  1.2872 -0.0935
 5059SOL    HW215703   2.619   5.958   3.536  0.1204  0.8423 -0.7044
 5060SOL     OW15704   1.592   4.288   3.465  0.8966 -0.1910  0.4242
 5060SOL    HW115705   1.639   4.218   3.510 -0.1715 -0.4366  1.2043
 5060SOL    HW215706   1.568   4.250   3.381  2.4275  0.0815 -0.1670
 5061SOL     OW15707   3.713   6.831   1.529  0.4257 -0.2193 -0.2545
 5061SOL    HW115708   3.712   6.781   1.611 -0.5151 -1.3726 -0.9341
 5061SOL    HW215709   3.644   6.790   1.475 -0.4333  1.8501 -0.8318
 5062SOL     OW15710   3.633   7.061   0.429  0.1021  0.3957 -0.0721
 5062SOL    HW115711   3.683   7.065   0.347  0.3287  0.1399  0.0556
 5062SOL    HW215712   3.636   7.151   0.463 -0.8127  0.7397 -0.8323
 5063SOL     OW15713   0.351   1.471   0.060  0.3388  0.2361  0.0056
 5063SOL    HW115714   0.348   1.565   0.039  0.3600  0.3182  0.3601
 5063SOL    HW215715   0.260   1.443   0.055  0.5279 -0.1838 -2.0867
 5064SOL     OW15716   3.810   3.492   0.698  0.0553 -0.4384 -0.0152
 5064SOL    HW115717   3.890   3.544   0.710 -0.2916 -0.2434  1.6069
 5064SOL    HW215718   3.824   3.414   0.751 -2.3119  1.3262  3.5592
 5065SOL     OW15719   0.450   5.664   0.286  0.0335 -0.6382 -0.0156
 5065SOL    HW115720   0.523   5.675   0.225  2.9601  0.1099  3.3092
 5065SOL    HW215721   0.392   5.602   0.242  3.1221 -2.0506 -2.5117
 5066SOL     OW15722   4.931   3.009   0.898 -0.5748  0.4988 -0.2890
 5066SOL    HW115723   5.022   2.994   0.923 -0.2305  0.8653 -1.2484
 5066SOL    HW215724   4.928   2.986   0.805 -1.0143  2.2250 -0.7364
 5067SOL     OW15725   4.940   5.497   6.627  0.3473 -0.0282  0.1278
 5067SOL    HW115726   4.868   5.538   6.579 -2.0253 -1.0959  2.5091
 5067SOL    HW215727   5.019   5.528   6.583 -1.5109  1.6710 -2.2855
 5068SOL     OW15728   4.957   4.845   5.630  0.3007 -0.5425 -0.9202
 5068SOL    HW115729   4.862   4.837   5.620  0.1972 -1.2440  0.4628
 5068SOL    HW215730   4.988   4.755   5.644  1.0509 -0.2137 -0.4022
 5069SOL     OW15731   2.964   4.075   1.671 -0.0599 -0.2895 -0.4191
 5069SOL    HW115732   2.921   4.123   1.741  0.1528  0.8579 -1.0518
 5069SOL    HW215733   3.056   4.069   1.698  0.0151  0.1204 -0.5769
 5070SOL     OW15734   5.974   5.991   1.902  0.2326 -0.2545  0.0527
 5070SOL    HW115735   5.974   6.018   1.810  0.6416 -2.3278 -0.5911
 5070SOL    HW215736   5.974   5.896   1.900  2.0668 -0.3828  2.2019
 5071SOL     OW15737   4.728   6.276   0.444 -0.1847  0.6439  0.2028
 5071SOL    HW115738   4.744   6.187   0.413  0.4792  0.4083  1.1935
 5071SOL    HW215739   4.697   6.266   0.534  1.4175  1.4441  0.8985
 5072SOL     OW15740   3.498   0.057   5.715  0.0297 -0.0507  0.2939
 5072SOL    HW115741   3.447   0.123   5.762 -1.6653 -1.5623  0.6896
 5072SOL    HW215742   3.442   0.030   5.643  1.0283 -0.4907 -0.3432
 5073SOL     OW15743   4.231   6.899   1.135 -0.5311  1.0301  0.0659
 5073SOL    HW115744   4.227   6.873   1.227  0.7983  2.3908  0.5381
 5073SOL    HW215745   4.256   6.819   1.089 -2.5264 -0.0057  0.6750
 5074SOL     OW15746   2.763   2.861   4.106 -0.1828  0.2366  0.0144
 5074SOL    HW115747   2.723   2.802   4.170 -0.5234  0.8884  0.4129
 5074SOL    HW215748   2.719   2.945   4.120  0.2426  0.5679 -0.5942
 5075SOL     OW15749   4.089   6.939   1.647  0.0383 -0.0541  0.1238
 5075SOL    HW115750   4.149   6.981   1.586  0.5417  0.5473  1.0080
 5075SOL    HW215751   4.010   6.992   1.643  0.0689 -0.0192 -0.0190
 5076SOL     OW15752   6.998   4.912   4.140  0.0083  0.0217 -0.2767
 5076SOL    HW115753   6.910   4.926   4.174 -0.0142 -0.1066 -0.2843
 5076SOL    HW215754   7.045   4.868   4.211  0.0169 -0.0684 -0.3375
 5077SOL     OW15755   3.817   3.543   0.037 -0.3846 -0.2104 -0.2135
 5077SOL    HW115756   3.854   3.490   0.108 -1.1744  1.1835  1.3012
 5077SOL    HW215757   3.893   3.566  -0.017  0.3780 -0.5677  0.6677
 5078SOL     OW15758   3.159   5.588   6.461 -0.4592 -0.1119  0.1126
 5078SOL    HW115759   3.129   5.558   6.547 -0.6798 -0.7848 -0.1889
 5078SOL    HW215760   3.188   5.678   6.476  1.0160 -0.7235  1.2324
 5079SOL     OW15761   0.683   3.600   2.622  0.7615  0.1243  0.0037
 5079SOL    HW115762   0.607   3.625   2.674  0.6679  0.0873 -0.1167
 5079SOL    HW215763   0.756   3.648   2.662  0.9822 -1.1347  1.1964
 5080SOL     OW15764   0.345   3.567   4.942  0.0559 -0.2031  0.1957
 5080SOL    HW115765   0.424   3.555   4.889 -0.0980 -0.3286 -0.0080
 5080SOL    HW215766   0.273   3.546   4.882 -0.0695 -1.5670  0.7968
 5081SOL     OW15767   5.240   6.068   4.007  0.3118 -0.0241  0.0977
 5081SOL    HW115768   5.283   6.037   4.087 -0.4471 -1.5571 -0.0534
 5081SOL    HW215769   5.168   6.006   3.993 -0.2462  0.8737 -1.1668
 5082SOL     OW15770   2.663   7.302   6.760 -0.4885  0.0560  0.3880
 5082SOL    HW115771   2.642   7.285   6.852  0.0673 -0.2350  0.4610
 5082SOL    HW215772   2.758   7.294   6.754 -0.1675  2.7820  0.3467
 5083SOL     OW15773   2.920   3.333   4.983 -0.1832 -0.3448  0.2901
 5083SOL    HW115774   2.923   3.411   5.038 -0.5356  0.0487 -0.2371
 5083SOL    HW215775   2.833   3.334   4.944 -0.3019 -1.1799  0.5286
 5084SOL     OW15776   0.924   1.104   1.192 -0.4089 -0.2985  0.0567
 5084SOL    HW115777   0.946   1.052   1.115 -0.5713 -1.8437  1.0087
 5084SOL    HW215778   0.974   1.064   1.263  1.4645  2.4321  0.4229
 5085SOL     OW15779   1.136   0.469   5.964  0.1247 -0.2447  0.2656
 5085SOL    HW115780   1.117   0.562   5.947  0.7181 -0.3288 -0.8975
 5085SOL    HW215781   1.151   0.466   6.059 -1.4322  0.5556  0.5891
 5086SOL     OW15782   0.001   0.160   0.717 -0.0983  0.1147 -0.6538
 5086SOL    HW115783  -0.002   0.188   0.808  0.0861  0.8150 -0.8560
 5086SOL    HW215784   0.089   0.184   0.687  0.2020 -1.0346 -0.7360
 5087SOL     OW15785   5.053   3.619   5.207  0.4779  0.6010 -0.0056
 5087SOL    HW115786   5.017   3.553   5.148  0.3247 -1.1773  1.9524
 5087SOL    HW215787   4.981   3.638   5.267  0.2466  3.2394 -1.0060
 5088SOL     OW15788   3.572   1.526   2.325  0.2229 -0.1799 -0.5371
 5088SOL    HW115789   3.642   1.519   2.389  0.8489 -0.0756 -1.2024
 5088SOL    HW215790   3.614   1.510   2.241 -0.5099  0.0907 -0.9665
 5089SOL     OW15791   6.686   3.876   1.872  0.0308 -0.4684 -0.3565
 5089SOL    HW115792   6.781   3.886   1.876  0.0865 -1.0300 -0.1206
 5089SOL    HW215793   6.652   3.965   1.874  0.5221 -0.2933  0.4640
 5090SOL     OW15794   5.599   6.517   3.441  0.3084  0.6108  0.2818
 5090SOL    HW115795   5.526   6.461   3.416 -0.9069  2.1205  0.2802
 5090SOL    HW215796   5.677   6.470   3.411 -0.5402 -1.6255  1.3643
 5091SOL     OW15797   2.781   3.515   4.768 -0.5033 -0.4878  0.1321
 5091SOL    HW115798   2.689   3.488   4.765 -0.4421 -0.7485  0.4385
 5091SOL    HW215799   2.779   3.610   4.765 -0.8318 -0.4609  0.8759
 5092SOL     OW15800   4.562   0.472   2.482  0.3573  0.2826 -0.0609
 5092SOL    HW115801   4.506   0.456   2.406 -0.0642  2.2639 -0.2223
 5092SOL    HW215802   4.642   0.508   2.445  0.8119 -0.2957  0.3435
 5093SOL     OW15803   0.968   5.353   3.868  0.5824  0.4156  0.6071
 5093SOL    HW115804   0.998   5.322   3.954 -0.0296 -0.5277  0.4848
 5093SOL    HW215805   0.898   5.416   3.889  0.3149  0.0575  0.7930
 5094SOL     OW15806   7.491   6.805   4.592 -0.2649  0.4758 -0.2818
 5094SOL    HW115807   7.457   6.769   4.511  0.9409  0.6643 -0.8876
 5094SOL    HW215808   7.548   6.737   4.628 -0.3568  0.6074  0.1273
 5095SOL     OW15809   4.014   1.130   5.571  0.7939 -0.0201 -0.1626
 5095SOL    HW115810   3.952   1.202   5.562  0.4374  0.1982  2.9921
 5095SOL    HW215811   4.098   1.173   5.588  0.5635 -0.2622  1.8243
 5096SOL     OW15812   2.916   4.042   5.595  0.3312 -0.3587  0.6709
 5096SOL    HW115813   2.855   4.104   5.554  1.2197  0.4826  0.5842
 5096SOL    HW215814   2.967   4.096   5.656  1.6152 -0.8528  0.0770
 5097SOL     OW15815   2.815   2.721   3.585  0.0894 -0.0783  0.4636
 5097SOL    HW115816   2.828   2.649   3.523 -0.2934 -0.0466  0.3422
 5097SOL    HW215817   2.735   2.698   3.632 -0.8115  0.9136 -0.5157
 5098SOL     OW15818   2.937   0.803   2.887  0.0189 -1.0901 -0.1965
 5098SOL    HW115819   2.883   0.757   2.952 -1.1860 -0.5139 -0.7669
 5098SOL    HW215820   2.979   0.732   2.837  0.5971 -1.5381  0.8908
 5099SOL     OW15821   0.223   6.430   6.824  0.2572 -0.2143  0.0607
 5099SOL    HW115822   0.221   6.483   6.745  1.2688  0.4879  0.4904
 5099SOL    HW215823   0.306   6.452   6.866 -0.2109 -0.6564  1.2627
 5100SOL     OW15824   2.480   4.925   4.465 -0.1648 -0.1835  0.1857
 5100SOL    HW115825   2.386   4.930   4.448 -0.3610 -0.7673  1.0144
 5100SOL    HW215826   2.494   4.982   4.541  0.4732  1.3415 -1.0189
 5101SOL     OW15827   6.385   0.663   0.445  0.0665 -0.0204 -0.5371
 5101SOL    HW115828   6.324   0.713   0.390  0.2075  1.6649  0.7485
 5101SOL    HW215829   6.468   0.711   0.438  0.5604 -0.8081 -0.2360
 5102SOL     OW15830   6.802   5.775   3.265 -0.6294  0.0674  0.3009
 5102SOL    HW115831   6.879   5.826   3.240 -0.6154 -0.0182  0.1679
 5102SOL    HW215832   6.778   5.808   3.352 -1.7171  1.5742 -0.5455
 5103SOL     OW15833   5.555   1.175   0.439  0.5417 -0.1479  0.3491
 5103SOL    HW115834   5.555   1.214   0.351  0.6923 -0.4718  0.2023
 5103SOL    HW215835   5.559   1.081   0.423 -0.3980 -0.2509  0.6945
 5104SOL     OW15836   4.674   1.973   3.718  0.2955 -0.3536 -0.3045
 5104SOL    HW115837   4.615   1.962   3.644  0.5026  0.6744 -0.6365
 5104SOL    HW215838   4.672   1.889   3.764  0.3793 -1.0967 -1.6267
 5105SOL     OW15839   0.542   2.047   6.927  0.1021 -0.7238  0.2687
 5105SOL    HW115840   0.567   2.022   7.015  0.4357  0.2027  0.4524
 5105SOL    HW215841   0.489   1.974   6.895 -0.0362 -1.0588  1.2363
 5106SOL     OW15842   2.959   6.140   2.057  0.0208  0.4789  0.0948
 5106SOL    HW115843   2.921   6.062   2.019 -0.6808 -1.2079  3.8496
 5106SOL    HW215844   3.049   6.115   2.078  0.8418  1.8354 -1.5809
 5107SOL     OW15845   1.730   5.248   3.400 -0.2559 -0.2173 -0.0398
 5107SOL    HW115846   1.743   5.230   3.307 -0.6411  0.8443 -0.3096
 5107SOL    HW215847   1.684   5.171   3.433 -3.8224  1.0149 -1.6180
 5108SOL     OW15848   0.924   6.913   5.789  0.3660 -0.7015 -1.0690
 5108SOL    HW115849   0.911   6.900   5.883  0.6568 -0.6776 -1.0242
 5108SOL    HW215850   0.909   6.827   5.750 -1.1605 -0.4240 -1.1638
 5109SOL     OW15851   0.110   5.500   1.638 -0.2669 -0.1527 -0.3653
 5109SOL    HW115852   0.107   5.570   1.703  0.5838  0.3691 -0.8630
 5109SOL    HW215853   0.043   5.438   1.666 -0.6760  0.6054  0.3801
 5110SOL     OW15854   2.107   5.714   2.329  0.0454  0.1221 -0.5665
 5110SOL    HW115855   2.047   5.714   2.255 -1.8492  0.4491  0.9081
 5110SOL    HW215856   2.074   5.783   2.387  0.9294 -0.7231  1.0142
 5111SOL     OW15857   3.579   0.282   1.773  1.0491  0.3948 -0.6159
 5111SOL    HW115858   3.666   0.277   1.812  0.9156  0.4322 -0.3119
 5111SOL    HW215859   3.523   0.316   1.843  0.3978 -1.4714 -0.1517
 5112SOL     OW15860   7.512   6.124   2.999 -0.0934 -0.1904  0.0324
 5112SOL    HW115861   7.556   6.196   2.952 -0.2320  0.5316  0.9823
 5112SOL    HW215862   7.422   6.153   3.009 -0.5751 -1.2305 -1.0103
 5113SOL     OW15863   1.484   3.690   5.916  0.2285 -0.3582  0.6749
 5113SOL    HW115864   1.409   3.710   5.860  0.6836  0.7420  0.4291
 5113SOL    HW215865   1.450   3.695   6.005  0.0182  0.2606  0.5687
 5114SOL     OW15866   2.598   2.577   1.304  0.3334 -0.1126  0.8472
 5114SOL    HW115867   2.652   2.574   1.382  2.5481 -2.1124 -0.6193
 5114SOL    HW215868   2.648   2.631   1.242  0.5563 -1.6740 -0.4036
 5115SOL     OW15869   6.212   2.109   2.409  0.9079  0.2345  0.6528
 5115SOL    HW115870   6.136   2.100   2.466 -0.1299  1.0571 -0.5541
 5115SOL    HW215871   6.269   2.171   2.455  1.2116 -0.8934  1.8817
 5116SOL     OW15872   5.039   5.678   1.637 -1.0441  0.4398  0.2915
 5116SOL    HW115873   4.989   5.759   1.648  0.5469  1.4143  0.7670
 5116SOL    HW215874   5.079   5.663   1.722  0.9084  0.7290 -0.5243
 5117SOL     OW15875   3.375   3.492   7.550 -0.3356  0.0356 -0.6278
 5117SOL    HW115876   3.320   3.475   7.474  0.8839  1.8200 -2.0124
 5117SOL    HW215877   3.452   3.536   7.514  0.7164  0.1185  1.5536
 5118SOL     OW15878   1.075   6.871   6.710 -0.2605  0.0971 -0.1291
 5118SOL    HW115879   1.123   6.813   6.770 -0.8532 -0.1008  0.1758
 5118SOL    HW215880   1.088   6.832   6.624  0.8199  0.5318 -0.1725
 5119SOL     OW15881   7.241   0.495   3.962 -0.2884  0.1811  0.3452
 5119SOL    HW115882   7.240   0.408   3.924 -0.1883 -0.2353  1.2561
 5119SOL    HW215883   7.156   0.503   4.006 -1.5299  1.6802 -2.1349
 5120SOL     OW15884   0.138   3.612   4.181 -0.1229  0.0156  0.2739
 5120SOL    HW115885   0.048   3.617   4.211 -0.3168 -0.6189 -0.1663
 5120SOL    HW215886   0.182   3.554   4.243  0.4259  1.6342  1.4695
 5121SOL     OW15887   3.060   1.675   4.235 -0.1215  0.1242 -0.3908
 5121SOL    HW115888   2.974   1.677   4.195  0.2579 -0.2940 -1.2604
 5121SOL    HW215889   3.043   1.679   4.329 -0.9584  2.9340 -0.5834
 5122SOL     OW15890   4.701   6.256   3.491  0.3946 -0.4316  0.3181
 5122SOL    HW115891   4.662   6.270   3.577  1.0999 -1.8254  0.9028
 5122SOL    HW215892   4.732   6.342   3.464  1.1915 -0.1615  1.9922
 5123SOL     OW15893   6.333   1.476   6.701 -0.6851 -0.4763  0.5244
 5123SOL    HW115894   6.356   1.472   6.608 -1.4384 -2.2794  0.3673
 5123SOL    HW215895   6.256   1.532   6.704  0.1307  0.7015  0.2735
 5124SOL     OW15896   0.062   6.639   4.735  0.3067 -0.1574 -0.4418
 5124SOL    HW115897   0.058   6.549   4.701  1.3534 -0.8419  1.0977
 5124SOL    HW215898  -0.006   6.641   4.803 -0.9117  0.8011 -1.6234
 5125SOL     OW15899   5.443   1.057   2.129 -0.8371 -0.2259 -0.7769
 5125SOL    HW115900   5.467   1.037   2.039 -2.5177  0.5891 -1.4574
 5125SOL    HW215901   5.387   0.984   2.155 -0.7628 -0.2119 -0.5808
 5126SOL     OW15902   0.163   2.568   7.127 -0.1578 -0.7641  0.1830
 5126SOL    HW115903   0.113   2.629   7.073  0.7820  0.3588  0.5268
 5126SOL    HW215904   0.180   2.493   7.070  0.6163  0.2894 -1.0429
 5127SOL     OW15905   4.156   4.796   0.125  0.2692  0.2834 -0.2426
 5127SOL    HW115906   4.077   4.848   0.110  1.3042  1.7429 -0.9772
 5127SOL    HW215907   4.124   4.711   0.155 -1.5183  1.3154  0.9749
 5128SOL     OW15908   1.621   4.027   5.911  0.2717  0.3223  0.4685
 5128SOL    HW115909   1.700   3.974   5.916 -1.6144 -2.5782  2.4417
 5128SOL    HW215910   1.588   4.013   5.822  0.1049 -1.4478  0.7824
 5129SOL     OW15911   6.306   5.783   1.394  0.0485  0.5179  0.0212
 5129SOL    HW115912   6.293   5.877   1.386 -0.5788  0.4676  0.4180
 5129SOL    HW215913   6.221   5.749   1.424  0.3499 -0.1382  0.1520
 5130SOL     OW15914   2.759   5.803   3.544  0.6399  0.0906 -0.5469
 5130SOL    HW115915   2.741   5.712   3.519 -1.2948  0.2107  0.2743
 5130SOL    HW215916   2.836   5.797   3.601  0.3273 -1.0962 -0.2119
 5131SOL     OW15917   4.876   4.322   2.666  0.7120  0.7081 -0.2797
 5131SOL    HW115918   4.868   4.227   2.675  1.0227  0.8147  1.2210
 5131SOL    HW215919   4.904   4.335   2.575 -0.4403 -0.5573 -0.8445
 5132SOL     OW15920   4.070   4.279   0.657 -0.2413  0.7684  0.3230
 5132SOL    HW115921   4.152   4.322   0.683 -0.0616  1.0637 -0.7167
 5132SOL    HW215922   4.098   4.205   0.603 -0.6959  1.8832 -1.5130
 5133SOL     OW15923   7.174   1.738   3.222 -0.9491  0.0634 -0.2877
 5133SOL    HW115924   7.216   1.803   3.278  0.3473 -0.3617 -0.7344
 5133SOL    HW215925   7.220   1.745   3.138 -2.2938  0.1100 -1.0503
 5134SOL     OW15926   6.300   0.088   6.691 -0.1514  0.2431  0.0226
 5134SOL    HW115927   6.248   0.143   6.633 -0.3897  1.5929  1.4509
 5134SOL    HW215928   6.346   0.027   6.633  1.0231  2.6704 -1.7542
 5135SOL     OW15929   7.068   1.245   2.428  0.3958  0.3410  0.1205
 5135SOL    HW115930   7.135   1.246   2.360 -0.2264 -2.6682 -0.6951
 5135SOL    HW215931   7.023   1.329   2.419  1.8814  1.0206 -1.5548
 5136SOL     OW15932   6.998   7.168   6.112 -0.1903  0.1228 -0.2533
 5136SOL    HW115933   6.923   7.220   6.087 -1.0143 -0.9855 -0.1721
 5136SOL    HW215934   6.961   7.094   6.161  0.8406 -0.9870 -1.0762
 5137SOL     OW15935   2.664   7.339   7.444 -0.6498 -0.1991  0.4899
 5137SOL    HW115936   2.699   7.296   7.523 -1.4096 -1.5973  0.1057
 5137SOL    HW215937   2.577   7.368   7.469 -1.0226 -0.9407  0.0937
 5138SOL     OW15938   2.775   6.562   4.243  0.5092  0.1801  0.5640
 5138SOL    HW115939   2.828   6.640   4.262 -0.3764  0.9223  0.0633
 5138SOL    HW215940   2.784   6.550   4.148  0.5331 -0.2437  0.6204
 5139SOL     OW15941   4.662   2.725   1.486  0.1050 -0.6326  0.2285
 5139SOL    HW115942   4.586   2.784   1.482 -0.7116 -1.6013  0.9277
 5139SOL    HW215943   4.702   2.732   1.400 -2.6045 -2.4479 -1.3182
 5140SOL     OW15944   3.958   3.304   1.169 -0.3710  0.3698 -0.1861
 5140SOL    HW115945   3.984   3.246   1.240  0.5274 -1.0371 -1.6134
 5140SOL    HW215946   3.868   3.279   1.149 -0.9779  1.4440  1.0655
 5141SOL     OW15947   0.948   4.466   2.966  0.3842  0.4546  0.3277
 5141SOL    HW115948   0.916   4.404   3.032 -0.2264  1.0129  0.5651
 5141SOL    HW215949   0.881   4.464   2.897 -0.0995  1.5125  0.7526
 5142SOL     OW15950   1.052   5.655   1.520  0.2027  0.1822  0.2112
 5142SOL    HW115951   1.075   5.585   1.459  1.2486 -0.1383  0.9493
 5142SOL    HW215952   0.971   5.625   1.561  0.8162 -0.7728  0.7643
 5143SOL     OW15953   6.099   2.790   0.037  0.6031  0.0510 -0.5159
 5143SOL    HW115954   6.158   2.846  -0.012  1.4880 -0.2026  0.2311
 5143SOL    HW215955   6.155   2.746   0.101 -0.0287 -1.7637 -1.1434
 5144SOL     OW15956   7.294   1.234   5.998 -0.0623  0.1979  0.5870
 5144SOL    HW115957   7.303   1.146   5.963 -1.2910 -0.3463  1.5922
 5144SOL    HW215958   7.267   1.222   6.089  0.4156  1.6104  0.9435
 5145SOL     OW15959   1.202   4.117   0.529  0.1411 -0.5217  0.4656
 5145SOL    HW115960   1.161   4.190   0.575 -2.3595 -0.4481 -1.6412
 5145SOL    HW215961   1.133   4.082   0.473  2.4289 -1.7989 -1.7880
 5146SOL     OW15962   7.113   4.187   6.953 -0.7341 -0.2223  0.1085
 5146SOL    HW115963   7.071   4.257   6.903  0.6155 -0.7084 -1.8261
 5146SOL    HW215964   7.205   4.190   6.926 -0.4381 -2.0512  0.7802
 5147SOL     OW15965   5.454   2.077   4.193  0.3432  0.6117 -0.6935
 5147SOL    HW115966   5.541   2.047   4.219  0.5520  0.1435 -1.8995
 5147SOL    HW215967   5.458   2.086   4.098 -0.7462  1.1682 -0.7049
 5148SOL     OW15968   1.426   0.491   2.969 -0.0154 -0.1181 -0.0696
 5148SOL    HW115969   1.516   0.459   2.977 -0.3601 -1.2322 -0.4247
 5148SOL    HW215970   1.434   0.568   2.913  0.4943 -1.5434 -2.1068
 5149SOL     OW15971   7.017   6.489   1.843 -0.2210  0.7586  0.0866
 5149SOL    HW115972   7.039   6.409   1.891 -0.4416  1.3512  1.2058
 5149SOL    HW215973   7.081   6.553   1.873  1.4817  0.4484 -2.5633
 5150SOL     OW15974   6.883   5.996   5.564  0.1096  0.0080  0.1446
 5150SOL    HW115975   6.834   5.991   5.482 -0.6011 -1.0237  0.6181
 5150SOL    HW215976   6.861   5.916   5.611  1.2686  0.1184  0.9327
 5151SOL     OW15977   3.168   1.916   0.763 -0.4861  0.4027  0.1184
 5151SOL    HW115978   3.166   1.978   0.690  0.5220 -0.0458 -0.3117
 5151SOL    HW215979   3.198   1.968   0.838  1.4358  0.2636 -0.4797
 5152SOL     OW15980   7.341   4.273   7.513  0.8378 -0.2163 -0.5042
 5152SOL    HW115981   7.262   4.248   7.465  1.3101 -1.8062 -0.5016
 5152SOL    HW215982   7.344   4.214   7.588  0.5861  1.6669  1.0612
 5153SOL     OW15983   1.796   3.156   2.539  0.0736  0.1426  0.6869
 5153SOL    HW115984   1.818   3.074   2.495  0.6878  0.2028  0.8712
 5153SOL    HW215985   1.709   3.179   2.505  0.1938 -0.2243  0.1140
 5154SOL     OW15986   3.467   5.069   3.894 -0.1998  0.3181  0.0347
 5154SOL    HW115987   3.518   5.009   3.948 -0.3053 -0.0164 -0.2315
 5154SOL    HW215988   3.433   5.014   3.823  1.8671  1.1717 -1.7399
 5155SOL     OW15989   6.562   4.683   6.719  0.0367 -0.3479 -0.6728
 5155SOL    HW115990   6.539   4.774   6.697  0.6993 -0.1959 -0.7550
 5155SOL    HW215991   6.655   4.687   6.741 -0.1832 -0.8089  0.4217
 5156SOL     OW15992   5.768   2.152   5.907 -0.0114  0.2232  0.1644
 5156SOL    HW115993   5.736   2.087   5.969 -1.5115  0.5286 -0.2342
 5156SOL    HW215994   5.830   2.104   5.852  0.7835 -0.2252  1.4032
 5157SOL     OW15995   6.576   6.660   4.496  0.0610 -0.2230  0.4545
 5157SOL    HW115996   6.610   6.727   4.556 -0.9507  0.5427  0.2114
 5157SOL    HW215997   6.654   6.623   4.455  0.6904  0.2451  1.1861
 5158SOL     OW15998   7.489   4.145   1.495 -0.1039 -0.0772  0.1820
 5158SOL    HW115999   7.479   4.058   1.458 -0.0674 -0.1965  0.4543
 5158SOL    HW216000   7.468   4.135   1.588 -1.2967  0.4434 -0.0124
 5159SOL     OW16001   1.098   6.173   4.637 -0.0759 -0.1068  0.1132
 5159SOL    HW116002   1.151   6.251   4.618 -0.1279 -0.2251 -0.5474
 5159SOL    HW216003   1.114   6.115   4.562 -0.4469 -0.5158  0.3476
 5160SOL     OW16004   2.660   5.618   3.023 -0.5132 -0.5231 -0.2059
 5160SOL    HW116005   2.592   5.559   2.989  0.7269 -1.4038 -1.2803
 5160SOL    HW216006   2.615   5.701   3.036 -1.2059 -0.0927 -4.0312
 5161SOL     OW16007   2.449   3.756   7.249 -0.0651 -0.6947  0.1652
 5161SOL    HW116008   2.410   3.735   7.333  0.0031 -2.9291 -0.2925
 5161SOL    HW216009   2.387   3.815   7.207 -0.5229 -0.2690  1.4061
 5162SOL     OW16010   0.055   1.428   7.371 -0.0056 -0.1212  0.0049
 5162SOL    HW116011  -0.028   1.392   7.339 -0.2269 -1.3103  1.7335
 5162SOL    HW216012   0.109   1.438   7.293 -0.6231 -2.4797 -0.8281
 5163SOL     OW16013   3.188   4.277   5.308 -0.3348  0.4757  0.1113
 5163SOL    HW116014   3.112   4.240   5.263 -0.2780  0.8578 -0.3064
 5163SOL    HW216015   3.263   4.246   5.258 -0.2943  1.2988 -0.3630
 5164SOL     OW16016   2.978   6.588   1.164  0.2519  0.5591  0.3527
 5164SOL    HW116017   3.033   6.556   1.093 -0.5742  1.0496 -0.5368
 5164SOL    HW216018   2.989   6.684   1.162 -0.3436  0.6352  0.3965
 5165SOL     OW16019   6.319   3.722   1.571 -0.1587 -0.1584  0.3019
 5165SOL    HW116020   6.408   3.754   1.584  0.5017 -1.6782 -0.2835
 5165SOL    HW216021   6.282   3.718   1.660 -0.2235  1.9236  0.4342
 5166SOL     OW16022   2.165   3.722   4.095 -0.6312 -0.0103 -0.2134
 5166SOL    HW116023   2.130   3.748   4.009 -1.7398 -1.8904 -0.3986
 5166SOL    HW216024   2.242   3.670   4.075 -0.9115 -0.4823 -0.0824
 5167SOL     OW16025   3.233   3.661   2.097 -0.1072  0.1756 -0.1711
 5167SOL    HW116026   3.269   3.695   2.179 -0.2164  2.3642 -0.9772
 5167SOL    HW216027   3.306   3.612   2.057  0.2878  0.0537  0.6830
 5168SOL     OW16028   2.631   1.725   5.223  0.3362  0.2851 -0.2923
 5168SOL    HW116029   2.685   1.646   5.235  1.9798  1.2674 -0.8623
 5168SOL    HW216030   2.571   1.702   5.153  0.2374 -0.7172  0.0935
 5169SOL     OW16031   2.233   5.389   3.247  0.5511 -0.0852  0.8373
 5169SOL    HW116032   2.249   5.436   3.329  0.4881 -0.1845  0.9081
 5169SOL    HW216033   2.165   5.440   3.203  1.4952  0.6892  0.2413
 5170SOL     OW16034   4.445   0.336   3.635 -0.7390  0.2890  1.0187
 5170SOL    HW116035   4.445   0.243   3.660  0.1415  0.4058  1.5159
 5170SOL    HW216036   4.486   0.337   3.548 -0.4484  0.2354  1.1521
 5171SOL     OW16037   4.883   0.771   6.442 -0.5148 -0.1586 -0.1610
 5171SOL    HW116038   4.952   0.710   6.467 -1.1314 -1.0941 -0.6681
 5171SOL    HW216039   4.881   0.767   6.346  0.2352  1.5909 -0.3034
 5172SOL     OW16040   4.880   4.845   4.553 -0.3405 -0.1462 -0.3704
 5172SOL    HW116041   4.958   4.894   4.577 -1.6616  1.8971  0.0540
 5172SOL    HW216042   4.865   4.867   4.461 -0.7132 -0.0254 -0.2861
 5173SOL     OW16043   6.883   3.203   1.978 -0.1665 -0.2976  0.8465
 5173SOL    HW116044   6.808   3.184   2.034  0.7930  1.3121  2.8355
 5173SOL    HW216045   6.889   3.129   1.918 -2.3789 -1.2025  1.6631
 5174SOL     OW16046   2.314   6.027   4.552  0.1588 -0.0439 -0.3374
 5174SOL    HW116047   2.271   5.944   4.530 -1.4303  0.4056  0.8779
 5174SOL    HW216048   2.360   6.053   4.472 -2.5017 -0.1597 -2.0016
 5175SOL     OW16049   2.265   1.387   1.021  0.6396  0.1188 -0.3482
 5175SOL    HW116050   2.188   1.434   0.991 -0.2918 -0.7487  0.6254
 5175SOL    HW216051   2.290   1.332   0.946 -1.0894 -1.3128  0.0725
 5176SOL     OW16052   7.249   5.468   2.639 -0.0462  0.0906 -0.5495
 5176SOL    HW116053   7.175   5.523   2.665 -0.7313 -0.8484 -0.4415
 5176SOL    HW216054   7.268   5.416   2.717  0.8489  0.4476 -0.5249
 5177SOL     OW16055   3.455   0.435   5.655  0.2083 -0.3486  0.3847
 5177SOL    HW116056   3.420   0.490   5.584 -1.0454  0.2318  1.4011
 5177SOL    HW216057   3.538   0.403   5.621  1.9718  3.6282  0.3389
 5178SOL     OW16058   4.817   2.171   5.058  0.3055 -0.3076  0.5302
 5178SOL    HW116059   4.793   2.135   4.972  0.3427 -0.7198  0.6881
 5178SOL    HW216060   4.818   2.266   5.045 -1.7731 -0.2358  0.6000
 5179SOL     OW16061   1.598   1.438   7.544 -0.0464  0.3692 -0.3115
 5179SOL    HW116062   1.551   1.357   7.561  1.2110 -0.4109 -0.3965
 5179SOL    HW216063   1.592   1.486   7.626  0.9918 -0.7793  0.4818
 5180SOL     OW16064   4.924   5.228   3.606  0.2698 -0.2025  0.2520
 5180SOL    HW116065   4.868   5.182   3.669 -1.4429  1.6434  0.1850
 5180SOL    HW216066   4.871   5.234   3.527  2.0737 -1.7439 -1.1546
 5181SOL     OW16067   2.593   3.925   1.263 -0.8166  0.2933 -0.1140
 5181SOL    HW116068   2.588   3.837   1.226 -1.3935  0.3009 -0.0636
 5181SOL    HW216069   2.588   3.983   1.187 -1.4668  0.2981 -0.0743
 5182SOL     OW16070   2.332   0.978   1.247  0.2151 -0.7581  0.8675
 5182SOL    HW116071   2.302   1.004   1.334 -0.8773 -1.0441  0.6008
 5182SOL    HW216072   2.255   0.990   1.191  0.7581 -1.0512  0.0386
 5183SOL     OW16073   1.560   5.685   4.003 -0.0291 -0.5558  0.2643
 5183SOL    HW116074   1.538   5.729   3.922  1.9578 -0.5603 -0.3312
 5183SOL    HW216075   1.495   5.616   4.012 -0.3003 -0.5218 -1.3015
 5184SOL     OW16076   3.266   4.026   2.859  0.3488  0.1774  0.5964
 5184SOL    HW116077   3.250   3.962   2.929 -1.9310  0.8540  0.7601
 5184SOL    HW216078   3.179   4.054   2.832  1.2642  2.4717 -0.1909
 5185SOL     OW16079   4.137   0.354   1.687  0.0307  0.2695 -0.6480
 5185SOL    HW116080   4.104   0.410   1.758 -1.3030 -0.5971 -0.5432
 5185SOL    HW216081   4.202   0.298   1.729  0.0962  0.5557 -0.3621
 5186SOL     OW16082   3.270   0.309   1.139 -0.5343 -0.1494 -0.3016
 5186SOL    HW116083   3.240   0.386   1.090  1.8718  1.2782  0.2977
 5186SOL    HW216084   3.258   0.236   1.079 -3.7937  0.4700 -0.5647
 5187SOL     OW16085   1.060   3.334   1.556 -0.0540  0.9683 -0.3427
 5187SOL    HW116086   0.995   3.278   1.597  0.9356 -0.0876 -0.1674
 5187SOL    HW216087   1.057   3.310   1.463  3.3300 -2.6828  0.2271
 5188SOL     OW16088   0.771   4.757   1.151 -0.0360  0.5152  0.2579
 5188SOL    HW116089   0.686   4.715   1.159 -0.6134  1.6188  0.1774
 5188SOL    HW216090   0.829   4.706   1.207 -1.2167  0.9281  1.9562
 5189SOL     OW16091   0.466   3.520   3.881  0.3977  0.5149 -0.2525
 5189SOL    HW116092   0.460   3.496   3.974  1.4637 -0.8261 -0.4887
 5189SOL    HW216093   0.421   3.449   3.835  0.2771  0.9311 -0.7782
 5190SOL     OW16094   0.841   6.442   4.641 -0.5749  0.4919  0.1636
 5190SOL    HW116095   0.888   6.523   4.660 -0.4130  0.1560  1.2225
 5190SOL    HW216096   0.759   6.472   4.600 -0.8747  1.2393  1.2579
 5191SOL     OW16097   4.438   6.640   4.155  0.3560 -0.0193 -0.2635
 5191SOL    HW116098   4.389   6.636   4.072  0.2193  0.7347 -0.2325
 5191SOL    HW216099   4.530   6.639   4.129  0.3137  0.3357 -0.4417
 5192SOL     OW16100   4.912   6.417   4.734  0.2582 -0.5022 -0.2074
 5192SOL    HW116101   4.975   6.387   4.798  1.4146  0.9699 -0.5918
 5192SOL    HW216102   4.965   6.451   4.662 -0.9926 -0.6272 -1.2313
 5193SOL     OW16103   3.818   1.644   2.410 -0.1172 -0.3155 -0.8568
 5193SOL    HW116104   3.744   1.695   2.378 -0.3175 -0.9679 -1.4714
 5193SOL    HW216105   3.853   1.695   2.482 -1.5253 -0.2674 -0.1776
 5194SOL     OW16106   6.567   2.017   2.801  0.0030  0.7148  0.1425
 5194SOL    HW116107   6.502   1.950   2.783 -1.0236  1.6740  0.1695
 5194SOL    HW216108   6.599   1.996   2.889 -0.5854  0.4758  0.3067
 5195SOL     OW16109   5.243   5.483   0.615  0.3543 -0.0990  0.5015
 5195SOL    HW116110   5.264   5.504   0.524 -0.3855  0.0920  0.3683
 5195SOL    HW216111   5.322   5.508   0.664 -0.0071  1.7633  0.1797
 5196SOL     OW16112   4.971   5.582   5.777 -0.1846  0.4584 -0.3002
 5196SOL    HW116113   4.876   5.587   5.774 -0.3410 -0.5803  1.4899
 5196SOL    HW216114   4.991   5.559   5.868  1.8738  2.5287 -0.1200
 5197SOL     OW16115   2.397   0.380   2.028 -0.0503 -0.5307 -0.5359
 5197SOL    HW116116   2.398   0.472   2.001  0.1238 -1.0904 -2.6468
 5197SOL    HW216117   2.453   0.377   2.106  0.6919  1.0123 -0.9631
 5198SOL     OW16118   4.031   4.907   2.589  0.2161 -0.3570 -0.3992
 5198SOL    HW116119   4.055   4.982   2.534  2.2510  0.2550  1.2249
 5198SOL    HW216120   4.051   4.934   2.678 -1.1755 -2.0326  0.4956
 5199SOL     OW16121   2.356   3.584   5.522  0.2100 -0.2637  0.0688
 5199SOL    HW116122   2.345   3.561   5.614  0.0641  0.3217  0.2058
 5199SOL    HW216123   2.280   3.546   5.478 -1.6867  2.4302  0.7596
 5200SOL     OW16124   6.682   6.802   6.440 -0.4928 -0.3516 -0.2562
 5200SOL    HW116125   6.632   6.721   6.435 -0.7709 -0.1788 -0.3129
 5200SOL    HW216126   6.734   6.794   6.520 -1.2435 -0.1774  0.2630
 5201SOL     OW16127   6.164   5.422   6.036  0.4123  0.1446 -0.2181
 5201SOL    HW116128   6.158   5.329   6.056  1.2761 -0.5257 -2.7552
 5201SOL    HW216129   6.103   5.463   6.098  0.7497 -1.9374  1.6358
 5202SOL     OW16130   0.331   6.441   0.825  0.1015  0.1235 -0.3233
 5202SOL    HW116131   0.262   6.437   0.891 -0.4395 -0.4152 -0.8914
 5202SOL    HW216132   0.410   6.411   0.870 -0.4848 -1.3028 -0.1778
 5203SOL     OW16133   5.931   7.499   3.072 -0.2134  0.0093  0.3719
 5203SOL    HW116134   5.870   7.441   3.118 -0.9823  0.4032 -0.1536
 5203SOL    HW216135   5.876   7.557   3.020  0.5852  0.7498  0.3338
 5204SOL     OW16136   3.694   0.480   2.985 -0.6512 -0.0712  0.1806
 5204SOL    HW116137   3.764   0.478   2.920 -0.0260  0.8835  0.8021
 5204SOL    HW216138   3.739   0.475   3.069 -1.4507 -1.4291  0.5713
 5205SOL     OW16139   4.837   0.731   4.377  0.5002 -0.0327 -0.2755
 5205SOL    HW116140   4.902   0.678   4.423  1.2750  1.3376  0.2692
 5205SOL    HW216141   4.871   0.739   4.288 -0.7488 -2.2642 -1.0433
 5206SOL     OW16142   7.471   2.853   4.984  0.1490 -0.7774  0.4894
 5206SOL    HW116143   7.538   2.909   5.023 -0.6915 -0.0732  0.9555
 5206SOL    HW216144   7.521   2.789   4.933  1.1599  0.1187  0.2959
 5207SOL     OW16145   2.342   1.325   6.002  0.1345  0.1718  0.0328
 5207SOL    HW116146   2.303   1.306   6.087 -0.5471 -0.5963 -0.4345
 5207SOL    HW216147   2.311   1.254   5.945 -1.1385  1.7654 -1.3878
 5208SOL     OW16148   3.178   1.197   3.532 -0.2260 -0.5570 -0.0473
 5208SOL    HW116149   3.181   1.131   3.601 -0.3988 -0.2918  0.2216
 5208SOL    HW216150   3.133   1.271   3.573 -3.8855 -1.7071 -1.5263
 5209SOL     OW16151   0.077   3.022   1.321 -0.0035 -0.1830  0.7934
 5209SOL    HW116152  -0.001   2.999   1.373  0.3330  1.0197  1.8862
 5209SOL    HW216153   0.116   2.938   1.299 -1.8721 -0.8465 -0.2182
 5210SOL     OW16154   5.688   0.800   2.360  0.0759 -0.5274  0.2607
 5210SOL    HW116155   5.779   0.773   2.368  0.0291 -1.1688 -1.0745
 5210SOL    HW216156   5.687   0.862   2.287 -0.3331  0.6500  1.2343
 5211SOL     OW16157   5.481   0.483   3.581  0.3701 -0.0184 -0.1368
 5211SOL    HW116158   5.436   0.563   3.609  0.4830 -0.6280  1.9407
 5211SOL    HW216159   5.463   0.419   3.650  0.0186 -1.9351 -1.8869
 5212SOL     OW16160   2.585   6.145   2.033 -0.3767  0.1837  0.3424
 5212SOL    HW116161   2.605   6.147   2.127  0.3393 -0.2641  0.1981
 5212SOL    HW216162   2.612   6.232   2.002  0.2062  0.0153  0.3796
 5213SOL     OW16163   2.156   4.985   4.673  0.5023  0.1894  0.0149
 5213SOL    HW116164   2.218   5.049   4.708  0.4764  0.5453 -0.5914
 5213SOL    HW216165   2.141   4.924   4.746  1.1443  0.4105  0.3340
 5214SOL     OW16166   0.209   4.410   3.899  0.2201 -0.2417  0.0457
 5214SOL    HW116167   0.225   4.315   3.899 -2.2686 -0.7247 -0.5331
 5214SOL    HW216168   0.269   4.444   3.831  0.3850 -1.5536 -0.5021
 5215SOL     OW16169   4.006   7.050   2.541 -0.0585  0.5098  0.2927
 5215SOL    HW116170   4.022   7.144   2.540  1.0055  0.3738 -1.7257
 5215SOL    HW216171   4.059   7.017   2.614 -0.1243  1.4118  0.7558
 5216SOL     OW16172   4.119   6.506   5.999  0.1699  0.2235  0.1144
 5216SOL    HW116173   4.129   6.572   5.930  0.5814 -1.4159 -1.4460
 5216SOL    HW216174   4.064   6.438   5.960  0.7450 -0.9369  1.2532
 5217SOL     OW16175   5.786   2.329   5.042 -0.3536  0.3065  0.1480
 5217SOL    HW116176   5.706   2.308   5.090  0.7963 -2.1631  1.1456
 5217SOL    HW216177   5.767   2.306   4.951 -0.6846 -0.6278  0.4413
 5218SOL     OW16178   1.203   4.887   0.848 -0.0570 -0.2716  0.2141
 5218SOL    HW116179   1.144   4.832   0.899  0.0448  0.2324  0.8947
 5218SOL    HW216180   1.192   4.857   0.758 -0.2230 -1.1940  0.5309
 5219SOL     OW16181   0.750   1.053   7.351 -0.4865  0.0971 -0.3120
 5219SOL    HW116182   0.730   1.127   7.408 -0.2672 -1.8899  2.5460
 5219SOL    HW216183   0.836   1.073   7.315 -0.9368  1.7322 -0.5716
 5220SOL     OW16184   3.433   5.661   1.014 -0.3387 -0.7996  0.2959
 5220SOL    HW116185   3.344   5.685   0.990  0.3435 -0.4237 -2.1030
 5220SOL    HW216186   3.462   5.731   1.073 -0.8927  0.3055 -0.7095
 5221SOL     OW16187   1.404   4.471   3.849  0.1093 -0.2177 -0.0520
 5221SOL    HW116188   1.446   4.385   3.841 -1.0128 -0.7749 -0.2916
 5221SOL    HW216189   1.476   4.533   3.859  0.9644 -1.1402 -0.3257
 5222SOL     OW16190   0.144   2.371   7.314 -0.3051 -0.0240 -0.2004
 5222SOL    HW116191   0.205   2.321   7.260 -1.1031 -0.0067 -1.1404
 5222SOL    HW216192   0.135   2.455   7.269  0.8503  0.9194  1.2441
 5223SOL     OW16193   5.698   2.868   3.981 -0.2277  0.2584  0.2420
 5223SOL    HW116194   5.689   2.895   4.073 -0.8186  0.3193  0.1691
 5223SOL    HW216195   5.694   2.772   3.984 -0.8671  0.2792  0.2212
 5224SOL     OW16196   7.429   0.173   3.216  0.5864 -0.2736 -0.6172
 5224SOL    HW116197   7.405   0.264   3.231  0.9438 -0.4503  1.2727
 5224SOL    HW216198   7.353   0.134   3.173 -0.3258  0.4655  0.2991
 5225SOL     OW16199   5.534   6.731   6.615  0.0247 -0.2087 -0.3600
 5225SOL    HW116200   5.511   6.787   6.689 -1.5332 -0.1902 -0.8255
 5225SOL    HW216201   5.607   6.776   6.573  0.7871 -0.1137  1.0310
 5226SOL     OW16202   2.411   2.591   1.647 -0.3502 -0.0749 -0.2927
 5226SOL    HW116203   2.344   2.625   1.587  2.0974  1.9649 -2.0808
 5226SOL    HW216204   2.464   2.532   1.593 -0.3323 -1.2179  0.9365
 5227SOL     OW16205   3.772   2.962   6.480  0.4655 -0.7721 -0.3509
 5227SOL    HW116206   3.773   3.052   6.514  1.3567 -1.2682  1.0210
 5227SOL    HW216207   3.778   2.973   6.385  0.2770  0.6254 -0.2252
 5228SOL     OW16208   0.206   5.545   7.036 -0.2607 -0.0699 -0.1574
 5228SOL    HW116209   0.221   5.498   6.954 -1.7503  0.5574 -0.8174
 5228SOL    HW216210   0.265   5.502   7.099 -1.0555 -2.3790 -0.8843
 5229SOL     OW16211   2.037   4.779   0.141 -0.2097  0.3416  0.0303
 5229SOL    HW116212   2.124   4.784   0.180 -1.2593  1.0743  2.4330
 5229SOL    HW216213   1.994   4.707   0.186 -0.0986 -1.7663 -2.9398
 5230SOL     OW16214   5.992   3.217   6.808 -0.2254  0.4470  0.1678
 5230SOL    HW116215   6.084   3.241   6.805 -0.7598  2.7741  0.6938
 5230SOL    HW216216   5.948   3.294   6.844 -2.4148 -0.5050 -0.3028
 5231SOL     OW16217   2.861   0.650   3.093  0.0358  0.0012  0.4737
 5231SOL    HW116218   2.904   0.670   3.176  0.2483 -1.7924  0.8364
 5231SOL    HW216219   2.790   0.591   3.116 -0.0523 -0.3257 -0.5915
 5232SOL     OW16220   5.000   0.356   0.526  0.0800  0.3909  0.0285
 5232SOL    HW116221   4.905   0.358   0.519  0.1657 -0.2130 -1.5895
 5232SOL    HW216222   5.021   0.427   0.587 -1.2572  1.8984 -1.2058
 5233SOL     OW16223   1.621   1.147   5.193 -0.0880  0.4737  0.1570
 5233SOL    HW116224   1.540   1.177   5.152  0.3340  0.3951 -0.7534
 5233SOL    HW216225   1.591   1.086   5.261 -0.7551 -1.0793 -1.4312
 5234SOL     OW16226   1.745   1.512   4.364  0.3389  0.1932  0.3484
 5234SOL    HW116227   1.784   1.584   4.414 -0.8138  1.1822 -0.1206
 5234SOL    HW216228   1.715   1.553   4.283 -0.7843 -0.7319  0.2812
 5235SOL     OW16229   3.960   0.441   0.831 -0.0299 -0.0567  0.0437
 5235SOL    HW116230   3.992   0.411   0.917 -1.6280  0.2006  0.7666
 5235SOL    HW216231   4.035   0.430   0.773  0.5542 -1.9535  1.0724
 5236SOL     OW16232   0.140   2.149   5.227  0.5568  0.0243 -0.0929
 5236SOL    HW116233   0.132   2.157   5.132 -0.1081 -1.5707 -0.1995
 5236SOL    HW216234   0.223   2.104   5.241  1.1788  1.2035  0.1630
 5237SOL     OW16235   2.411   6.132   1.700  0.1554 -0.2298 -0.2795
 5237SOL    HW116236   2.329   6.163   1.661  0.4783 -1.1613 -1.7420
 5237SOL    HW216237   2.405   6.037   1.697  2.0195 -0.3699 -2.1070
 5238SOL     OW16238   1.462   3.217   5.936  0.1650  0.1235 -0.2380
 5238SOL    HW116239   1.380   3.176   5.965  0.6325 -0.3308  0.4535
 5238SOL    HW216240   1.433   3.288   5.878 -0.8032  1.0143  1.2558
 5239SOL     OW16241   5.749   2.856   5.309 -0.2265  0.0617 -0.3360
 5239SOL    HW116242   5.679   2.866   5.245  1.7948 -0.2695 -2.7694
 5239SOL    HW216243   5.716   2.791   5.370 -3.2028  2.1218  0.4948
 5240SOL     OW16244   2.018   7.016   3.754 -0.3713  0.8284  0.0275
 5240SOL    HW116245   1.969   6.934   3.752  0.9492 -0.0735 -4.3637
 5240SOL    HW216246   2.097   6.996   3.804 -0.4516 -0.3642 -0.2918
 5241SOL     OW16247   1.857   2.437   0.298 -0.1295  0.3355 -0.5558
 5241SOL    HW116248   1.790   2.444   0.366  1.1609  1.8449  0.6204
 5241SOL    HW216249   1.862   2.343   0.279 -1.4284  0.0302  0.4761
 5242SOL     OW16250   3.291   0.108   5.172 -0.4311  0.1821 -0.4224
 5242SOL    HW116251   3.236   0.101   5.093 -0.1481  1.4039 -0.7584
 5242SOL    HW216252   3.252   0.181   5.221 -0.7880 -0.7600  0.7374
 5243SOL     OW16253   3.888   1.854   7.273 -0.5338 -0.2229  0.7885
 5243SOL    HW116254   3.963   1.811   7.233  0.1971  2.3352 -0.8193
 5243SOL    HW216255   3.827   1.868   7.201 -0.3806  2.0677  1.0378
 5244SOL     OW16256   2.732   4.535   4.980 -0.5945 -0.6822  0.1292
 5244SOL    HW116257   2.778   4.617   4.963 -1.5575 -0.5878 -2.5820
 5244SOL    HW216258   2.677   4.554   5.056  0.7813  0.4789  0.8774
 5245SOL     OW16259   5.893   1.472   7.149  0.5107 -0.0900  0.2200
 5245SOL    HW116260   5.871   1.381   7.129 -0.8916 -0.0557  1.4115
 5245SOL    HW216261   5.927   1.507   7.067  1.2568 -1.7300 -0.2111
 5246SOL     OW16262   2.885   1.899   3.118 -0.3718 -0.2658  0.4939
 5246SOL    HW116263   2.870   1.939   3.204  2.2156 -1.2806  1.5427
 5246SOL    HW216264   2.933   1.965   3.069  0.8370 -0.7483  0.9795
 5247SOL     OW16265   0.899   5.012   0.115  0.2241  0.6855  0.2518
 5247SOL    HW116266   0.892   5.107   0.119  0.8511  0.6828  2.5177
 5247SOL    HW216267   0.830   4.980   0.173 -0.2788 -0.2929 -0.8358
 5248SOL     OW16268   3.017   4.094   2.694  0.1686 -0.1910  0.6269
 5248SOL    HW116269   2.973   4.108   2.610 -0.1286  2.7185  1.1612
 5248SOL    HW216270   2.993   4.005   2.719 -2.3912 -0.0091 -0.8652
 5249SOL     OW16271   6.898   6.924   6.240  0.6568  0.1042  0.1390
 5249SOL    HW116272   6.839   6.893   6.309  0.9226 -1.5572 -0.3259
 5249SOL    HW216273   6.985   6.916   6.277  0.9455 -2.3650 -0.8354
 5250SOL     OW16274   6.408   5.792   1.975  0.0528 -0.5905 -0.1211
 5250SOL    HW116275   6.400   5.882   2.009  1.4118 -0.8502  1.0189
 5250SOL    HW216276   6.360   5.739   2.038 -0.1979 -0.7305 -0.4317
 5251SOL     OW16277   0.072   3.081   6.038 -0.3702  0.0154 -0.4299
 5251SOL    HW116278   0.001   3.065   5.976 -0.3450 -0.2198 -0.4005
 5251SOL    HW216279   0.089   2.995   6.077 -1.2324  0.3843  0.8122
 5252SOL     OW16280   1.306   4.418   5.055 -0.2593 -0.1879 -0.1119
 5252SOL    HW116281   1.212   4.434   5.049  0.0047  1.5053 -0.3349
 5252SOL    HW216282   1.320   4.337   5.007 -1.5094 -0.1231 -0.6264
 5253SOL     OW16283   5.287   2.306   3.749 -0.3291 -0.0243  0.0377
 5253SOL    HW116284   5.314   2.381   3.802 -0.5801 -1.7112  2.7385
 5253SOL    HW216285   5.292   2.338   3.659  0.1489  3.0192  1.0135
 5254SOL     OW16286   4.840   1.840   7.199  0.4150  0.5403 -0.7890
 5254SOL    HW116287   4.831   1.924   7.243 -1.3495  1.1137 -2.1566
 5254SOL    HW216288   4.927   1.842   7.159  1.7633  0.3004  1.9255
 5255SOL     OW16289   1.114   2.156   1.497  0.2785 -0.5047  0.4765
 5255SOL    HW116290   1.168   2.230   1.524 -0.3104 -0.6727  2.2407
 5255SOL    HW216291   1.163   2.079   1.524 -0.2188 -0.6844  0.8941
 5256SOL     OW16292   3.414   5.081   0.230 -0.0632  0.3571  0.2493
 5256SOL    HW116293   3.431   5.026   0.154  0.0285  0.0361  0.4992
 5256SOL    HW216294   3.410   5.170   0.196  0.9091  0.3140  0.0072
 5257SOL     OW16295   7.562   3.292   5.688 -0.0205 -0.1511  0.5289
 5257SOL    HW116296   7.609   3.307   5.770  0.1952 -0.8993  0.5430
 5257SOL    HW216297   7.537   3.200   5.691  0.4367 -0.3125 -0.4878
 5258SOL     OW16298   4.570   3.424   4.145 -0.4727  0.6205 -0.8357
 5258SOL    HW116299   4.635   3.449   4.080  0.1775 -0.6996 -0.7473
 5258SOL    HW216300   4.543   3.336   4.118  1.3663 -0.8981  1.7334
 5259SOL     OW16301   1.483   7.517   3.313 -0.1553  0.1536  0.2127
 5259SOL    HW116302   1.390   7.531   3.326 -0.6945 -1.3864 -1.5523
 5259SOL    HW216303   1.501   7.433   3.355  0.8127  1.1090  1.8289
 5260SOL     OW16304   1.256   2.072   5.900 -0.2139 -0.1212  0.3158
 5260SOL    HW116305   1.308   2.016   5.842 -1.5695 -1.1710  0.0550
 5260SOL    HW216306   1.182   2.101   5.846  0.7163  2.4046  0.2871
 5261SOL     OW16307   1.037   2.163   0.310 -0.7871  0.2648 -0.1726
 5261SOL    HW116308   1.045   2.251   0.271 -0.2868  0.4594  0.3525
 5261SOL    HW216309   0.945   2.141   0.300 -1.1280  1.2690  0.5613
 5262SOL     OW16310   3.472   2.880   2.151  0.5263 -0.1856 -0.5353
 5262SOL    HW116311   3.384   2.840   2.153  0.3663  0.2010  0.3684
 5262SOL    HW216312   3.506   2.857   2.064 -0.2356 -0.8410 -0.6763
 5263SOL     OW16313   7.498   2.331   2.026 -0.2007 -0.0702  0.3821
 5263SOL    HW116314   7.498   2.253   1.970 -0.4188 -0.2689  0.6539
 5263SOL    HW216315   7.474   2.403   1.968  2.0984  0.1628 -0.3771
 5264SOL     OW16316   6.839   5.186   6.031 -0.4156 -0.2118  0.6210
 5264SOL    HW116317   6.899   5.127   6.076  1.6544 -0.0120 -1.6942
 5264SOL    HW216318   6.882   5.272   6.036 -1.9701  0.5718  1.4094
 5265SOL     OW16319   4.345   4.201   2.095 -0.1074 -0.3650 -0.0584
 5265SOL    HW116320   4.354   4.216   2.001  0.1777 -1.3183 -0.1979
 5265SOL    HW216321   4.435   4.201   2.129  0.0524 -2.9021 -0.2914
 5266SOL     OW16322   5.232   2.345   6.396 -0.2125  0.2218  0.0582
 5266SOL    HW116323   5.160   2.351   6.458  0.1786 -0.7144  0.6174
 5266SOL    HW216324   5.305   2.311   6.448  0.1472 -0.4860 -0.9009
 5267SOL     OW16325   2.906   6.379   1.327 -0.5222  0.2357  0.5051
 5267SOL    HW116326   2.961   6.372   1.405  0.6704  1.3850 -0.1901
 5267SOL    HW216327   2.953   6.439   1.269  0.1389 -2.7153 -2.3295
 5268SOL     OW16328   2.329   5.526   1.367  0.1865  0.9287 -0.0473
 5268SOL    HW116329   2.372   5.513   1.451 -0.8767  1.3676  0.5831
 5268SOL    HW216330   2.394   5.501   1.302  1.2162  1.1380  0.8902
 5269SOL     OW16331   4.706   7.301   3.850  0.1133  0.6240  0.1985
 5269SOL    HW116332   4.778   7.241   3.830 -0.3831  0.1336 -0.1591
 5269SOL    HW216333   4.745   7.388   3.842  0.8937  0.3521  0.9327
 5270SOL     OW16334   0.071   5.653   4.443 -0.5610  0.3624  0.3693
 5270SOL    HW116335   0.092   5.738   4.404 -0.9251  0.6501  0.7998
 5270SOL    HW216336   0.114   5.654   4.528 -0.3493  0.0088  0.2722
 5271SOL     OW16337   6.722   5.492   6.013 -0.6758 -0.3354 -0.5823
 5271SOL    HW116338   6.632   5.460   6.022 -1.3019  1.3485 -0.6257
 5271SOL    HW216339   6.739   5.538   6.094 -0.5926  1.0801 -1.3767
 5272SOL     OW16340   3.620   6.678   6.913  0.6082  0.5168 -0.1625
 5272SOL    HW116341   3.610   6.686   6.818  3.5924  0.8648 -0.5320
 5272SOL    HW216342   3.661   6.592   6.926  1.7526  1.1651  0.6417
 5273SOL     OW16343   1.387   0.341   6.719  0.4082  0.2890 -0.1531
 5273SOL    HW116344   1.418   0.351   6.629 -0.2715 -1.2704 -0.6020
 5273SOL    HW216345   1.391   0.429   6.756  0.6130  0.9785 -1.7344
 5274SOL     OW16346   0.420   4.189   2.898  0.2786  0.2468  0.5431
 5274SOL    HW116347   0.443   4.106   2.939 -0.8384 -0.9816 -1.1702
 5274SOL    HW216348   0.326   4.199   2.914 -0.0200  0.1189 -0.9689
 5275SOL     OW16349   4.778   1.698   3.443 -0.3621  0.0761  0.2294
 5275SOL    HW116350   4.761   1.780   3.396 -1.1592  0.4014  1.0635
 5275SOL    HW216351   4.873   1.697   3.456 -0.2815  0.5893 -0.2871
 5276SOL     OW16352   4.456   1.010   6.099  0.4137  0.5194 -0.3672
 5276SOL    HW116353   4.369   0.983   6.072  0.6168  1.2097 -1.8027
 5276SOL    HW216354   4.505   1.021   6.017  1.1896  2.3102  0.2762
 5277SOL     OW16355   6.760   5.579   2.418  0.1090  0.0599 -0.1114
 5277SOL    HW116356   6.846   5.536   2.421  0.4688  0.8340  0.9408
 5277SOL    HW216357   6.765   5.636   2.342  0.8014  0.6411  0.3569
 5278SOL     OW16358   6.382   3.220   3.445 -0.0405 -0.1410 -0.5480
 5278SOL    HW116359   6.320   3.159   3.487 -0.0647 -1.3545 -2.2429
 5278SOL    HW216360   6.354   3.306   3.475 -1.0161 -0.8380  0.6763
 5279SOL     OW16361   5.563   2.824   4.641  0.1542  0.0486  0.5010
 5279SOL    HW116362   5.591   2.826   4.732  0.2049 -1.4984  0.5507
 5279SOL    HW216363   5.492   2.760   4.639 -1.1950  1.5038 -0.2111
 5280SOL     OW16364   0.961   4.576   0.593  0.0340  0.1621 -0.3160
 5280SOL    HW116365   1.025   4.647   0.597  0.9689 -0.5327 -1.7806
 5280SOL    HW216366   0.915   4.590   0.510  0.7689 -1.3261 -1.0250
 5281SOL     OW16367   4.651   1.793   6.308  0.3017  0.3805 -0.9555
 5281SOL    HW116368   4.581   1.850   6.338  1.3587  2.0468 -1.4801
 5281SOL    HW216369   4.694   1.843   6.237  2.7193 -0.0287  0.1020
 5282SOL     OW16370   1.353   3.687   6.484  0.8017  0.2239 -0.2702
 5282SOL    HW116371   1.264   3.717   6.464  1.1876  0.6521 -1.4098
 5282SOL    HW216372   1.361   3.701   6.578 -1.2309 -2.2619  0.3811
 5283SOL     OW16373   0.544   6.136   4.671 -0.7293  0.3184  0.4760
 5283SOL    HW116374   0.640   6.143   4.672 -0.5478 -1.7603  1.1930
 5283SOL    HW216375   0.515   6.204   4.732  0.2080  1.5176 -0.3556
 5284SOL     OW16376   2.882   6.091   1.583 -0.7992 -0.5714 -0.1027
 5284SOL    HW116377   2.813   6.126   1.527 -2.3349 -0.0809  1.9708
 5284SOL    HW216378   2.850   6.104   1.672  1.5490 -1.2633  0.9303
 5285SOL     OW16379   1.022   1.949   6.264 -0.7879 -0.0346 -0.2111
 5285SOL    HW116380   1.005   1.981   6.352 -0.9650  0.7763 -0.5356
 5285SOL    HW216381   1.107   1.986   6.240 -0.1675 -1.2262  0.0624
 5286SOL     OW16382   6.767   1.115   0.774  0.4482  0.2574  0.0783
 5286SOL    HW116383   6.740   1.193   0.823  0.1610 -0.6829  1.4752
 5286SOL    HW216384   6.734   1.042   0.826 -2.0316 -0.8378 -2.6959
 5287SOL     OW16385   1.816   3.567   4.640  0.1120  0.0185 -0.3092
 5287SOL    HW116386   1.882   3.556   4.709 -0.6446 -1.4154  0.2184
 5287SOL    HW216387   1.833   3.495   4.579  0.3851  0.9183 -1.3348
 5288SOL     OW16388   4.449   5.257   1.978  0.1609  0.1779 -0.0330
 5288SOL    HW116389   4.392   5.321   1.935  0.7859  0.6696 -0.1352
 5288SOL    HW216390   4.528   5.306   2.000 -0.1275 -0.0665  1.6761
 5289SOL     OW16391   7.044   3.570   7.388  0.5857  0.0971 -0.0649
 5289SOL    HW116392   7.078   3.549   7.301  1.4665  2.4821 -0.3688
 5289SOL    HW216393   7.120   3.603   7.436 -0.0709 -0.3867  1.3605
 5290SOL     OW16394   0.469   5.044   5.421 -0.4101  0.4521 -0.6198
 5290SOL    HW116395   0.434   5.025   5.508 -1.7628  1.7616 -0.8503
 5290SOL    HW216396   0.551   5.090   5.438 -0.8174  0.9713 -0.0308
 5291SOL     OW16397   3.406   2.560   1.452 -0.2188  0.2701 -0.3438
 5291SOL    HW116398   3.494   2.574   1.416 -0.2719  1.9436  0.0991
 5291SOL    HW216399   3.390   2.635   1.508 -1.8385 -0.1401 -0.1845
 5292SOL     OW16400   4.871   3.450   7.101  0.5459  0.3582  0.3119
 5292SOL    HW116401   4.818   3.372   7.117 -0.1020  0.8312  0.5063
 5292SOL    HW216402   4.807   3.521   7.090  1.0648  0.5922 -1.4280
 5293SOL     OW16403   2.526   2.753   3.295  0.6626 -0.3769 -0.0169
 5293SOL    HW116404   2.574   2.670   3.298 -1.1590 -1.5198 -0.6997
 5293SOL    HW216405   2.536   2.789   3.384  0.4131 -1.9847  0.7029
 5294SOL     OW16406   2.129   5.473   7.265 -0.8023  0.0442  0.5114
 5294SOL    HW116407   2.186   5.462   7.189 -1.4045 -2.3743  0.3136
 5294SOL    HW216408   2.182   5.446   7.339 -1.2332 -0.9553  0.4816
 5295SOL     OW16409   4.898   0.196   3.989  0.1662  0.4242  0.1800
 5295SOL    HW116410   4.845   0.142   4.046 -0.4511 -0.1095 -0.8690
 5295SOL    HW216411   4.986   0.158   3.993  0.1827  0.5412  0.9432
 5296SOL     OW16412   4.439   0.907   2.813 -0.1308  0.1677 -0.0833
 5296SOL    HW116413   4.450   0.817   2.779  1.3767  0.2448  0.1213
 5296SOL    HW216414   4.455   0.963   2.737  0.4441  0.2799  0.1122
 5297SOL     OW16415   7.252   4.513   6.929  1.1128  0.1044  0.2509
 5297SOL    HW116416   7.256   4.450   7.001  0.3367 -0.9273 -0.5726
 5297SOL    HW216417   7.342   4.546   6.920  1.4522 -0.6226  0.9187
 5298SOL     OW16418   0.927   3.730   2.762 -0.0983 -0.2117  0.7324
 5298SOL    HW116419   0.972   3.804   2.722  0.4424  0.4870  2.5164
 5298SOL    HW216420   0.996   3.682   2.808 -0.6558 -1.0831  0.7002
 5299SOL     OW16421   1.713   3.906   7.397  0.0700 -0.3167  0.3621
 5299SOL    HW116422   1.720   3.829   7.454  0.9528 -1.3674 -1.0944
 5299SOL    HW216423   1.626   3.900   7.359  0.7163 -1.6008 -1.0360
 5300SOL     OW16424   5.896   4.614   2.336 -0.0200  0.2616  0.5346
 5300SOL    HW116425   5.985   4.581   2.349 -0.9172 -2.2256  1.0118
 5300SOL    HW216426   5.874   4.588   2.246 -0.9053 -0.9686  1.0685
 5301SOL     OW16427   3.257   3.491   2.788 -0.5438  0.3913 -0.3543
 5301SOL    HW116428   3.226   3.466   2.702  0.2608 -1.9620 -0.0400
 5301SOL    HW216429   3.346   3.524   2.773 -0.7220  0.7975 -0.5175
 5302SOL     OW16430   7.128   0.738   7.105  0.2903  0.0375  0.2238
 5302SOL    HW116431   7.187   0.686   7.050  1.0388  0.3859  0.6667
 5302SOL    HW216432   7.187   0.794   7.155 -0.5477  3.0329 -1.8931
 5303SOL     OW16433   4.873   2.661   5.917 -0.0891  0.4131  0.2164
 5303SOL    HW116434   4.839   2.750   5.914 -0.2397  0.3740  0.6786
 5303SOL    HW216435   4.954   2.668   5.967  0.6251  0.5148 -0.9233
 5304SOL     OW16436   5.536   6.859   4.987  0.3031 -0.2411  0.6322
 5304SOL    HW116437   5.562   6.808   5.063  0.4484 -2.1031 -0.5994
 5304SOL    HW216438   5.442   6.844   4.978  0.4306 -0.7376 -0.0132
 5305SOL     OW16439   2.072   6.287   0.737 -0.4702 -0.4360 -0.0282
 5305SOL    HW116440   1.992   6.247   0.703 -0.2107 -0.4132 -0.6716
 5305SOL    HW216441   2.108   6.221   0.796 -1.2335 -0.2388  0.6976
 5306SOL     OW16442   3.411   3.705   1.492  0.7432  0.1411 -0.3365
 5306SOL    HW116443   3.473   3.633   1.496  0.6289  0.0108 -0.8782
 5306SOL    HW216444   3.436   3.754   1.414 -0.5432 -0.5716 -1.2335
 5307SOL     OW16445   3.735   5.912   6.266 -0.2046  0.2799 -0.6115
 5307SOL    HW116446   3.718   5.836   6.320  1.9444 -0.4712 -0.8914
 5307SOL    HW216447   3.733   5.986   6.326 -1.7423 -0.0404 -0.2375
 5308SOL     OW16448   1.924   3.901   2.810  0.7339 -0.2814 -0.4591
 5308SOL    HW116449   1.954   3.815   2.779  0.9050 -0.5211  0.3557
 5308SOL    HW216450   1.906   3.888   2.903 -3.5699 -0.6563 -1.1155
 5309SOL     OW16451   3.469   5.545   7.085  0.0338 -0.1363 -0.5442
 5309SOL    HW116452   3.434   5.561   6.997 -0.6679  2.4227  0.1226
 5309SOL    HW216453   3.552   5.594   7.087  0.1225 -0.3012  0.1769
 5310SOL     OW16454   6.096   0.729   2.602  0.1263  0.0178 -0.4444
 5310SOL    HW116455   6.115   0.803   2.661  0.9545  0.3239 -1.0845
 5310SOL    HW216456   6.164   0.665   2.621  0.0728 -0.1137 -0.6913
 5311SOL     OW16457   7.067   2.121   2.197 -0.1138  0.1402  0.6277
 5311SOL    HW116458   7.082   2.135   2.104 -1.6448 -1.6970  0.0477
 5311SOL    HW216459   6.999   2.184   2.220 -0.1801  0.1653  0.3629
 5312SOL     OW16460   4.838   0.478   2.395  0.3753 -0.7148  0.2091
 5312SOL    HW116461   4.914   0.516   2.439  0.3353 -0.5072  0.1014
 5312SOL    HW216462   4.865   0.470   2.303 -0.4061  1.2005 -0.2314
 5313SOL     OW16463   2.349   5.857   0.553  0.3082  0.6236  0.2736
 5313SOL    HW116464   2.262   5.856   0.592  0.4289  0.9222  0.5533
 5313SOL    HW216465   2.359   5.945   0.516  0.4783  0.5816  0.2144
 5314SOL     OW16466   2.782   5.741   7.525  0.4509  0.0674 -0.4478
 5314SOL    HW116467   2.796   5.818   7.471  1.5639  0.1042 -0.1321
 5314SOL    HW216468   2.870   5.711   7.548  0.0252 -0.9205 -0.0387
 5315SOL     OW16469   3.867   4.768   0.285  1.0132  0.2373  0.5912
 5315SOL    HW116470   3.857   4.680   0.249  0.5275 -0.3973  2.1792
 5315SOL    HW216471   3.905   4.819   0.213  0.7693 -1.1141 -0.5503
 5316SOL     OW16472   5.790   2.702   3.640  0.0255  0.0553  0.1886
 5316SOL    HW116473   5.768   2.781   3.689 -0.4538 -0.2559  0.4871
 5316SOL    HW216474   5.753   2.630   3.692  3.5260 -0.7281  1.8356
 5317SOL     OW16475   6.901   6.199   5.235 -0.0945 -0.1803 -0.5659
 5317SOL    HW116476   6.813   6.163   5.242  0.2797 -1.0874 -0.4955
 5317SOL    HW216477   6.907   6.261   5.308  0.4950 -2.6293  1.6299
 5318SOL     OW16478   1.103   6.148   6.386  0.3704  0.6042  0.3044
 5318SOL    HW116479   1.012   6.140   6.415  0.2051  1.0986 -0.0713
 5318SOL    HW216480   1.104   6.110   6.298  0.7097 -0.1841  0.6424
 5319SOL     OW16481   3.843   2.710   1.082 -0.2434  0.7472 -0.2147
 5319SOL    HW116482   3.846   2.717   1.178 -1.2213 -0.3724 -0.0823
 5319SOL    HW216483   3.932   2.728   1.054  0.0683  1.0332  0.9207
 5320SOL     OW16484   5.341   1.308   3.068 -0.1500  0.4436  0.1142
 5320SOL    HW116485   5.337   1.255   2.988  1.6293  0.9939 -0.3819
 5320SOL    HW216486   5.368   1.246   3.136 -0.7725  0.1632  0.1150
 5321SOL     OW16487   2.113   5.341   6.892 -0.1844  0.2091 -0.1647
 5321SOL    HW116488   2.195   5.313   6.931 -0.7746  1.7384  2.3996
 5321SOL    HW216489   2.122   5.436   6.882 -1.9418  0.5705  1.1023
 5322SOL     OW16490   5.720   5.379   6.028  0.3537 -0.6158 -0.6290
 5322SOL    HW116491   5.774   5.435   6.084  1.1192 -1.2325 -0.7410
 5322SOL    HW216492   5.723   5.421   5.942 -1.0600  0.4948 -0.1793
 5323SOL     OW16493   5.472   0.326   7.525  0.1875 -0.0051 -0.0643
 5323SOL    HW116494   5.465   0.341   7.431 -1.1596 -0.9039 -0.1384
 5323SOL    HW216495   5.547   0.267   7.534 -0.9651 -1.6848 -0.8424
 5324SOL     OW16496   2.616   1.314   2.625  0.6146 -0.5688  0.2716
 5324SOL    HW116497   2.621   1.222   2.599 -0.9753 -1.1053  1.6361
 5324SOL    HW216498   2.536   1.319   2.677 -0.5123  2.0661 -1.5454
 5325SOL     OW16499   3.983   1.551   6.792 -0.2425  0.1824  0.2214
 5325SOL    HW116500   3.894   1.528   6.819 -0.6813  1.3425 -0.1906
 5325SOL    HW216501   3.986   1.529   6.699  0.3396 -1.0811  0.5158
 5326SOL     OW16502   2.652   0.950   1.444 -0.1461 -0.0338 -0.3540
 5326SOL    HW116503   2.694   0.970   1.360 -0.8056  1.8498 -0.2900
 5326SOL    HW216504   2.577   1.011   1.448 -0.8355 -0.9184  1.0627
 5327SOL     OW16505   2.495   7.111   7.340  0.7936  0.8339 -0.2289
 5327SOL    HW116506   2.418   7.099   7.285  0.2461  0.4895  0.5928
 5327SOL    HW216507   2.567   7.074   7.289  0.2921  0.4775 -0.6932
 5328SOL     OW16508   0.847   3.092   3.900  0.1566 -0.2645  0.3446
 5328SOL    HW116509   0.859   3.162   3.835 -1.1166 -1.2492 -1.0027
 5328SOL    HW216510   0.936   3.063   3.920  0.5889  0.0461 -0.9906
 5329SOL     OW16511   3.756   4.765   5.285 -0.4945 -0.1155  0.3927
 5329SOL    HW116512   3.698   4.840   5.293 -1.3174 -0.9484  3.9476
 5329SOL    HW216513   3.844   4.803   5.277 -1.0585  1.1813  0.1508
 5330SOL     OW16514   6.784   5.670   0.495  0.2343 -0.1070 -0.5259
 5330SOL    HW116515   6.763   5.627   0.412 -0.7411 -0.1461 -0.2719
 5330SOL    HW216516   6.879   5.665   0.502  0.2328 -1.0979 -1.1080
 5331SOL     OW16517   3.111   5.026   3.620  0.7801 -0.1125  0.0733
 5331SOL    HW116518   3.034   4.976   3.594  0.9669 -0.3671  0.0073
 5331SOL    HW216519   3.094   5.115   3.589 -1.7105  1.1549  4.1802
 5332SOL     OW16520   4.278   6.307   4.733  0.0008  0.3208  0.7532
 5332SOL    HW116521   4.189   6.284   4.707  0.4342 -0.3885 -0.1767
 5332SOL    HW216522   4.334   6.257   4.673  1.0239  0.5581  1.4865
 5333SOL     OW16523   7.002   2.721   5.364 -0.3655 -0.2964  0.5584
 5333SOL    HW116524   7.074   2.670   5.400  1.2720  1.6445  0.2096
 5333SOL    HW216525   6.981   2.678   5.280  1.0875 -0.3217  0.1829
 5334SOL     OW16526   4.263   2.859   6.910  0.4708 -0.5788 -0.1480
 5334SOL    HW116527   4.261   2.791   6.977  1.2286 -1.3612 -0.8968
 5334SOL    HW216528   4.279   2.812   6.828 -2.6420  0.0925 -1.2771
 5335SOL     OW16529   6.351   0.027   3.867  0.4926 -0.1788  0.0881
 5335SOL    HW116530   6.351   0.001   3.959  2.2126 -1.2896 -0.1691
 5335SOL    HW216531   6.401  -0.042   3.823 -0.9252 -0.0632 -1.8137
 5336SOL     OW16532   0.982   1.925   6.893 -0.1533 -0.2573  0.0117
 5336SOL    HW116533   0.892   1.937   6.924 -0.0443  1.5503 -0.2223
 5336SOL    HW216534   1.029   2.000   6.928  1.0206 -0.6115 -0.7482
 5337SOL     OW16535   2.560   2.727   3.705 -0.1565 -0.3425 -0.3397
 5337SOL    HW116536   2.544   2.637   3.678 -0.7134 -0.7500  1.2104
 5337SOL    HW216537   2.552   2.725   3.801  0.8015  1.1612 -0.1898
 5338SOL     OW16538   7.209   1.147   6.239 -0.1918 -0.2277  0.2156
 5338SOL    HW116539   7.196   1.052   6.241  0.6736 -0.3746  2.6439
 5338SOL    HW216540   7.157   1.179   6.313 -0.4195  1.2094 -0.5319
 5339SOL     OW16541   4.452   5.717   6.601  0.2871 -0.5395 -0.3116
 5339SOL    HW116542   4.447   5.708   6.697 -2.2396 -0.7193 -0.3841
 5339SOL    HW216543   4.529   5.666   6.576  3.3679  2.5847  1.8875
 5340SOL     OW16544   0.375   6.246   2.352 -0.0238  0.1211 -0.3301
 5340SOL    HW116545   0.311   6.175   2.359 -0.1760  0.3853  1.8426
 5340SOL    HW216546   0.404   6.244   2.261 -0.6873 -2.1386 -0.5536
 5341SOL     OW16547   6.834   3.335   1.111  0.5994 -0.1283 -0.1381
 5341SOL    HW116548   6.756   3.286   1.086  0.7885 -0.3666 -0.2649
 5341SOL    HW216549   6.882   3.277   1.170  0.4724  0.1850  0.2753
 5342SOL     OW16550   0.549   3.002   0.003 -0.1387 -0.1242  0.4872
 5342SOL    HW116551   0.558   3.067   0.072  4.4492 -1.9468  1.9755
 5342SOL    HW216552   0.532   2.919   0.049  0.3621 -0.9572 -0.7635
 5343SOL     OW16553   5.045   1.614   4.208 -0.3619 -0.3385  0.5087
 5343SOL    HW116554   5.028   1.708   4.221 -0.0392 -0.0947 -0.6668
 5343SOL    HW216555   5.057   1.606   4.113  0.8211 -1.3765  0.7342
 5344SOL     OW16556   2.805   5.773   5.106  0.4841  0.1610  0.1907
 5344SOL    HW116557   2.749   5.716   5.159 -1.1332  1.0533 -0.4831
 5344SOL    HW216558   2.745   5.839   5.071  1.8100  0.6076 -1.3402
 5345SOL     OW16559   6.159   1.499   5.037 -0.3408  0.1068 -0.1843
 5345SOL    HW116560   6.197   1.460   5.116  0.2080 -0.5574 -0.7708
 5345SOL    HW216561   6.091   1.437   5.010  0.3423 -0.3108 -0.9587
 5346SOL     OW16562   1.391   1.699   3.705 -0.3592  0.4873  0.1844
 5346SOL    HW116563   1.442   1.729   3.630 -0.9526 -1.6783 -1.1858
 5346SOL    HW216564   1.443   1.628   3.742  0.0480  1.7014  2.0537
 5347SOL     OW16565   4.033   4.562   6.052  0.1715  0.0020 -0.3217
 5347SOL    HW116566   4.125   4.573   6.028  0.5469  1.0232  1.4143
 5347SOL    HW216567   3.985   4.584   5.972  1.2729  4.8251 -0.0251
 5348SOL     OW16568   3.907   5.203   1.248  0.0768  0.0732 -0.1605
 5348SOL    HW116569   3.909   5.277   1.309  1.6227  0.9535 -1.2122
 5348SOL    HW216570   3.975   5.144   1.279 -0.2248 -0.2611 -0.1226
 5349SOL     OW16571   5.644   4.544   6.370 -0.1656  0.7409  0.1961
 5349SOL    HW116572   5.588   4.506   6.437  0.8421  2.3082  2.0275
 5349SOL    HW216573   5.728   4.499   6.379 -0.4889 -0.2181 -1.2072
 5350SOL     OW16574   4.568   2.645   4.537 -0.2047  0.0331  0.5052
 5350SOL    HW116575   4.597   2.716   4.479  0.3253 -0.9534 -0.4783
 5350SOL    HW216576   4.611   2.567   4.502 -1.4614 -0.9258  1.0375
 5351SOL     OW16577   0.398   2.893   5.275  0.1823  0.6961  0.3100
 5351SOL    HW116578   0.348   2.824   5.232 -1.5426  1.5705  0.8111
 5351SOL    HW216579   0.456   2.847   5.336 -0.1898 -0.3550 -0.1142
 5352SOL     OW16580   1.899   4.054   0.351 -0.9044 -0.1740 -0.6878
 5352SOL    HW116581   1.895   3.978   0.293  2.2579 -0.9624 -0.0693
 5352SOL    HW216582   1.905   4.016   0.439 -0.5410  0.8158 -0.2785
 5353SOL     OW16583   3.050   3.118   0.046  0.3021 -0.0209  0.3205
 5353SOL    HW116584   3.132   3.075   0.072  0.8949  1.4456  0.9749
 5353SOL    HW216585   3.063   3.136  -0.047  0.7913  0.3314  0.4511
 5354SOL     OW16586   2.247   6.922   0.673 -0.1082 -0.1737 -0.1557
 5354SOL    HW116587   2.298   6.864   0.616  1.2686  0.2438  0.6123
 5354SOL    HW216588   2.195   6.975   0.612 -0.0967 -1.0369 -0.9379
 5355SOL     OW16589   0.819   7.089   0.844 -0.4430  0.5632 -0.6290
 5355SOL    HW116590   0.897   7.085   0.899  0.2415 -0.0209 -1.6242
 5355SOL    HW216591   0.784   7.000   0.844 -0.3288  0.5117 -1.2873
 5356SOL     OW16592   0.592   2.728   1.800 -0.3707  0.3806 -0.4869
 5356SOL    HW116593   0.647   2.697   1.872 -0.4071 -1.9862 -1.4049
 5356SOL    HW216594   0.515   2.766   1.843  0.6777  1.1753  0.7390
 5357SOL     OW16595   0.681   4.115   5.618  0.0952 -0.3420 -0.4759
 5357SOL    HW116596   0.667   4.020   5.608 -1.5452 -0.0191 -1.5873
 5357SOL    HW216597   0.693   4.146   5.528  0.5720  0.5231 -0.1199
 5358SOL     OW16598   0.994   5.526   4.866 -0.3093 -0.0197  0.0283
 5358SOL    HW116599   1.017   5.434   4.860 -0.6569 -0.0489 -1.2080
 5358SOL    HW216600   0.942   5.543   4.787  1.4490  1.7200 -0.8561
 5359SOL     OW16601   5.630   1.472   3.655 -0.0609  0.4756  0.1134
 5359SOL    HW116602   5.629   1.380   3.683  1.3094  0.0815 -1.0203
 5359SOL    HW216603   5.596   1.470   3.565 -0.7002  1.1889  0.3290
 5360SOL     OW16604   1.347   2.393   2.966 -0.1547  0.4839 -0.5098
 5360SOL    HW116605   1.363   2.386   3.060 -0.3077  2.4093 -0.2990
 5360SOL    HW216606   1.387   2.475   2.941  1.7814 -0.9858 -2.6043
 5361SOL     OW16607   6.495   1.985   1.207 -0.1682 -0.2475 -0.0264
 5361SOL    HW116608   6.524   2.055   1.265  1.1741 -0.3565 -0.5307
 5361SOL    HW216609   6.553   1.911   1.228 -0.2537 -0.5708 -0.8891
 5362SOL     OW16610   1.242   2.331   0.819 -0.4590 -0.2149 -0.1936
 5362SOL    HW116611   1.321   2.293   0.858  0.3557  0.4586 -1.1230
 5362SOL    HW216612   1.218   2.271   0.749 -0.8604 -0.4928  0.1794
 5363SOL     OW16613   7.520   5.500   2.094  0.3750  0.3818  0.7204
 5363SOL    HW116614   7.489   5.578   2.140  0.3481 -0.1949  1.7050
 5363SOL    HW216615   7.440   5.451   2.075  0.4654  0.1477  0.9401
 5364SOL     OW16616   2.975   3.579   2.452 -0.0655 -0.2274  0.2881
 5364SOL    HW116617   3.047   3.637   2.425  0.0444 -1.1327 -1.4701
 5364SOL    HW216618   2.907   3.594   2.387 -0.2777 -1.6136  0.1778
 5365SOL     OW16619   3.813   5.270   3.705 -0.1387  0.1729 -0.0312
 5365SOL    HW116620   3.849   5.338   3.763 -0.5659 -0.6648  1.2508
 5365SOL    HW216621   3.798   5.195   3.762  0.2123 -0.9793 -1.4027
 5366SOL     OW16622   6.177   1.081   4.493  0.5097  0.1209  0.1350
 5366SOL    HW116623   6.205   1.139   4.422 -0.9707 -0.6140 -1.1024
 5366SOL    HW216624   6.178   1.137   4.571  0.1215  1.5552 -0.8365
 5367SOL     OW16625   5.348   5.567   0.380  0.1679 -0.6071 -0.4228
 5367SOL    HW116626   5.300   5.624   0.320  0.3935  1.6406  1.4210
 5367SOL    HW216627   5.424   5.619   0.408  1.2440 -2.4001  0.1916
 5368SOL     OW16628   6.558   3.590   0.206 -0.1032 -0.0903  0.2123
 5368SOL    HW116629   6.471   3.623   0.226  0.3576  1.1832  0.2450
 5368SOL    HW216630   6.563   3.589   0.111  0.2468  1.0170  0.2046
 5369SOL     OW16631   2.904   4.045   0.342  0.1767  0.2258 -0.0953
 5369SOL    HW116632   2.827   4.086   0.382  2.2077  3.8663  0.5883
 5369SOL    HW216633   2.923   3.970   0.398 -2.4125 -0.3512  0.1134
 5370SOL     OW16634   2.870   0.666   7.511 -0.5457  0.6351 -0.5555
 5370SOL    HW116635   2.943   0.604   7.513 -0.9317  0.1806 -0.3941
 5370SOL    HW216636   2.864   0.699   7.601 -1.9007 -0.9551 -0.0053
 5371SOL     OW16637   2.084   6.315   2.736  0.3161 -0.5079  0.0967
 5371SOL    HW116638   2.044   6.257   2.801  0.6351 -1.2814 -0.3806
 5371SOL    HW216639   2.011   6.353   2.688  0.1005 -0.4020  0.5010
 5372SOL     OW16640   2.653   0.921   1.711  0.2338 -0.7341 -0.0007
 5372SOL    HW116641   2.596   0.845   1.724 -1.7589  0.6921  0.0807
 5372SOL    HW216642   2.646   0.941   1.617 -1.5913  0.9897  0.4234
 5373SOL     OW16643   2.541   5.470   4.759  0.3092 -0.2105  0.2653
 5373SOL    HW116644   2.498   5.391   4.727 -0.4159  0.1620  0.2835
 5373SOL    HW216645   2.608   5.489   4.693 -0.9600  0.3700 -0.9117
 5374SOL     OW16646   2.307   2.772   2.958 -0.7956 -0.0820  0.2469
 5374SOL    HW116647   2.399   2.783   2.933 -0.9464  0.5322 -0.0539
 5374SOL    HW216648   2.283   2.685   2.926 -0.3606 -0.1935  0.2146
 5375SOL     OW16649   7.432   6.856   6.281 -0.0394  0.3344  0.3813
 5375SOL    HW116650   7.403   6.918   6.214  1.7207  1.0957  0.2858
 5375SOL    HW216651   7.374   6.780   6.270 -0.3648  0.8070 -1.4088
 5376SOL     OW16652   2.174   1.326   2.826  0.5352 -0.2229  0.3224
 5376SOL    HW116653   2.164   1.263   2.897  0.1711  0.2966  0.7379
 5376SOL    HW216654   2.267   1.349   2.826  0.6740 -0.7573  0.1590
 5377SOL     OW16655   0.296   7.444   6.483 -0.0918 -0.0672 -0.8189
 5377SOL    HW116656   0.206   7.476   6.483  0.1782  0.7777  0.5039
 5377SOL    HW216657   0.339   7.493   6.412 -0.0681  1.4628  0.1996
 5378SOL     OW16658   6.965   5.435   1.986  0.0469  0.0093 -0.1042
 5378SOL    HW116659   6.926   5.464   1.904 -0.1045  0.7204  0.2205
 5378SOL    HW216660   7.028   5.503   2.009  0.9212 -0.7338 -0.2081
 5379SOL     OW16661   6.638   4.106   1.717  0.6649 -0.0400 -0.2318
 5379SOL    HW116662   6.701   4.137   1.652  0.5564  3.1053  0.9936
 5379SOL    HW216663   6.617   4.183   1.769 -0.2986 -2.1009  2.7050
 5380SOL     OW16664   2.814   2.371   1.308  0.1988  0.2733 -0.1519
 5380SOL    HW116665   2.811   2.466   1.320 -0.1163  0.1385  0.8933
 5380SOL    HW216666   2.904   2.347   1.331  0.4046  0.3656 -0.8394
 5381SOL     OW16667   5.455   0.806   0.884 -0.0251  0.1327  0.1653
 5381SOL    HW116668   5.472   0.713   0.893  0.2484  0.2263  0.6582
 5381SOL    HW216669   5.425   0.817   0.794  0.5065 -0.3395 -0.0681
 5382SOL     OW16670   7.559   3.651   2.333 -0.8157 -0.1283 -0.2017
 5382SOL    HW116671   7.543   3.745   2.334 -1.0579 -0.1668 -0.4258
 5382SOL    HW216672   7.506   3.618   2.260 -0.8443 -0.4575 -0.0334
 5383SOL     OW16673   0.104   7.523   1.869  0.4060 -0.3734 -0.1672
 5383SOL    HW116674   0.055   7.553   1.793  0.2722  0.0814  0.0892
 5383SOL    HW216675   0.137   7.437   1.845 -0.7440 -0.8021 -0.2401
 5384SOL     OW16676   1.924   2.783   6.304  0.5713  0.1050  0.2924
 5384SOL    HW116677   1.907   2.808   6.213 -0.1278 -2.7946 -0.4558
 5384SOL    HW216678   2.019   2.783   6.311  0.6232  0.9817 -0.2108
 5385SOL     OW16679   5.500   5.460   0.889  0.2582  0.4643 -0.1255
 5385SOL    HW116680   5.554   5.422   0.820  1.3197 -0.0780  0.9694
 5385SOL    HW216681   5.519   5.554   0.885 -0.5904  0.6084 -1.3150
 5386SOL     OW16682   3.401   7.127   4.921 -0.3640 -0.1697 -0.4575
 5386SOL    HW116683   3.444   7.163   4.999 -1.1150 -2.6362  1.2248
 5386SOL    HW216684   3.468   7.073   4.880 -0.2073  0.5129 -1.1278
 5387SOL     OW16685   5.768   7.480   4.654  0.4703 -0.7872  0.8855
 5387SOL    HW116686   5.826   7.405   4.643  2.0567  0.6841 -1.6854
 5387SOL    HW216687   5.684   7.451   4.619  0.8286 -1.6325  0.7068
 5388SOL     OW16688   7.419   6.554   6.654 -0.3854 -0.4155 -0.4840
 5388SOL    HW116689   7.496   6.610   6.667  0.5496 -1.3115 -1.9030
 5388SOL    HW216690   7.451   6.481   6.600 -2.3272 -0.5872 -1.4807
 5389SOL     OW16691   6.879   1.703   2.343  0.5112  0.2154  0.0021
 5389SOL    HW116692   6.862   1.614   2.374  0.5453  0.1398 -0.1961
 5389SOL    HW216693   6.848   1.759   2.414 -0.1001  0.0635 -0.1387
 5390SOL     OW16694   4.106   2.399   0.176 -0.0830 -0.0750 -0.5034
 5390SOL    HW116695   4.202   2.405   0.172 -0.0688 -0.3045 -0.5280
 5390SOL    HW216696   4.088   2.305   0.166 -0.3279  0.0044 -0.7987
 5391SOL     OW16697   0.087   0.682   4.122 -0.2173 -0.7085  0.9691
 5391SOL    HW116698   0.035   0.668   4.043 -0.3565 -1.9174  1.2599
 5391SOL    HW216699   0.133   0.599   4.136  0.0416 -0.4059  1.9837
 5392SOL     OW16700   1.902   2.629   1.231  0.0489  0.4041  0.3754
 5392SOL    HW116701   1.849   2.702   1.198 -0.9483 -0.3592  0.2508
 5392SOL    HW216702   1.850   2.551   1.212  1.8380 -0.5245 -1.0390
 5393SOL     OW16703   5.506   7.359   0.379  0.1165  0.2269  0.0583
 5393SOL    HW116704   5.416   7.373   0.407  0.1826 -0.4849  0.6493
 5393SOL    HW216705   5.549   7.319   0.455  0.7373 -0.1313 -0.4718
 5394SOL     OW16706   2.865   4.333   3.328  0.1717  0.5975  0.1915
 5394SOL    HW116707   2.956   4.306   3.315  0.9912  1.5738  3.1617
 5394SOL    HW216708   2.826   4.261   3.378  0.6851  2.0001  2.8393
 5395SOL     OW16709   6.146   2.632   0.959 -0.6790 -0.3321 -0.2477
 5395SOL    HW116710   6.178   2.584   1.035 -0.9816 -0.1480 -0.0013
 5395SOL    HW216711   6.223   2.644   0.904 -0.4896 -0.6071 -0.0456
 5396SOL     OW16712   4.600   2.269   3.335 -0.0016  0.3618 -0.2153
 5396SOL    HW116713   4.603   2.257   3.430  2.2689 -0.5649 -0.3610
 5396SOL    HW216714   4.691   2.270   3.308 -0.6137 -0.4606 -2.5244
 5397SOL     OW16715   1.336   0.396   7.492 -0.4602  0.0470 -0.1699
 5397SOL    HW116716   1.261   0.405   7.551 -2.5683  1.9915 -2.9193
 5397SOL    HW216717   1.393   0.470   7.514  0.4336 -1.0380  1.4423
 5398SOL     OW16718   6.842   4.978   7.516 -0.4002 -0.0442  0.3436
 5398SOL    HW116719   6.768   4.923   7.541  1.0873 -1.4730  1.8177
 5398SOL    HW216720   6.876   5.012   7.599  1.7740 -1.0535 -0.0569
 5399SOL     OW16721   0.080   2.070   7.358 -0.2192  0.5892 -0.0321
 5399SOL    HW116722   0.148   2.126   7.396 -1.5232  1.2054  1.5171
 5399SOL    HW216723   0.055   2.114   7.277 -0.1193  1.4184  0.3738
 5400SOL     OW16724   4.770   7.084   1.679  0.3078  0.2089 -0.1763
 5400SOL    HW116725   4.699   7.062   1.619 -0.1357  2.2739 -0.4899
 5400SOL    HW216726   4.850   7.073   1.628 -0.0361  1.4788 -1.0261
 5401SOL     OW16727   5.680   2.053   2.785  0.8156  0.1106 -0.2657
 5401SOL    HW116728   5.642   1.995   2.719  0.0057 -0.1223  0.3950
 5401SOL    HW216729   5.733   1.995   2.839  1.3803  0.2817 -0.6251
 5402SOL     OW16730   3.472   4.438   1.432 -0.6847 -0.9207 -0.3682
 5402SOL    HW116731   3.520   4.513   1.468  0.3870 -0.3910 -2.7169
 5402SOL    HW216732   3.424   4.403   1.507  0.6081  0.6830  1.3273
 5403SOL     OW16733   3.054   4.231   7.361  0.3703  0.6049 -0.5182
 5403SOL    HW116734   2.972   4.197   7.397 -0.9010  0.3694 -3.3807
 5403SOL    HW216735   3.073   4.174   7.287  3.3659  0.4609  0.2283
 5404SOL     OW16736   1.004   4.169   3.912  0.7441  0.1863 -0.2543
 5404SOL    HW116737   1.091   4.180   3.873  1.1710  3.4098  1.2234
 5404SOL    HW216738   1.014   4.203   4.001 -2.6703  3.8980 -0.9922
 5405SOL     OW16739   4.368   5.888   1.628 -0.0797 -0.5461 -0.0096
 5405SOL    HW116740   4.362   5.974   1.668  0.2188 -0.2464 -0.5868
 5405SOL    HW216741   4.292   5.882   1.571  0.1394 -0.4772 -0.3136
 5406SOL     OW16742   3.387   2.899   5.819  0.0575 -0.4719  0.0489
 5406SOL    HW116743   3.354   2.809   5.827  0.7284 -0.8529 -1.1905
 5406SOL    HW216744   3.435   2.899   5.736 -0.7023  1.2743 -0.4256
 5407SOL     OW16745   2.771   5.146   0.030  0.0156 -0.1205  0.3142
 5407SOL    HW116746   2.778   5.109  -0.058  0.3425 -0.1559  0.3561
 5407SOL    HW216747   2.819   5.085   0.086  0.0685  0.0655  0.4718
 5408SOL     OW16748   2.689   6.205   3.421 -0.4740 -0.1791  0.1481
 5408SOL    HW116749   2.647   6.178   3.340  2.5461 -1.9052 -0.9743
 5408SOL    HW216750   2.765   6.256   3.394  0.5463 -0.6934  1.8620
 5409SOL     OW16751   1.517   6.057   0.183 -0.0530 -0.5404 -0.1727
 5409SOL    HW116752   1.590   6.049   0.244 -0.0880 -0.3331 -0.1014
 5409SOL    HW216753   1.484   5.968   0.173  0.8132 -0.7957 -0.9553
 5410SOL     OW16754   2.191   1.772   4.915 -0.4618  0.2316 -0.1133
 5410SOL    HW116755   2.125   1.811   4.972 -0.7865  0.5961 -0.7141
 5410SOL    HW216756   2.140   1.734   4.843 -0.1020 -0.7488  0.1376
 5411SOL     OW16757   0.892   6.495   7.425 -0.4851  0.0868 -0.0641
 5411SOL    HW116758   0.798   6.503   7.440 -0.3593  0.3366  0.6316
 5411SOL    HW216759   0.915   6.410   7.463 -0.0887  0.9092  1.6857
 5412SOL     OW16760   5.144   2.629   4.480  0.6528 -0.8606 -0.3540
 5412SOL    HW116761   5.108   2.552   4.526 -0.4255 -0.7944 -1.0537
 5412SOL    HW216762   5.071   2.691   4.477  0.6499 -0.9026 -2.2432
 5413SOL     OW16763   3.938   5.180   4.258  0.2165  0.0888 -0.3548
 5413SOL    HW116764   3.973   5.214   4.340 -1.5905 -0.2723  0.6303
 5413SOL    HW216765   3.844   5.196   4.263 -0.2811 -2.0460 -1.2920
 5414SOL     OW16766   2.144   2.220   7.548 -0.3242 -0.1070  0.4598
 5414SOL    HW116767   2.048   2.216   7.545 -0.3554  0.5863  0.1832
 5414SOL    HW216768   2.164   2.314   7.541  0.4705 -0.3681 -3.6560
 5415SOL     OW16769   4.340   3.668   2.123 -0.1510  0.2038  0.4722
 5415SOL    HW116770   4.393   3.722   2.181  1.0635  1.4745 -1.6751
 5415SOL    HW216771   4.389   3.586   2.115  1.0056  0.9666 -0.6419
 5416SOL     OW16772   3.790   5.328   5.941  0.0790 -0.1595  0.2291
 5416SOL    HW116773   3.834   5.344   5.858 -0.9975  0.9843 -0.1441
 5416SOL    HW216774   3.717   5.389   5.942 -0.2785 -0.5676  1.7605
 5417SOL     OW16775   2.321   6.837   0.122 -0.0662 -0.3860 -0.1390
 5417SOL    HW116776   2.293   6.838   0.214  0.3885  1.9557  0.0331
 5417SOL    HW216777   2.380   6.762   0.116 -0.7733 -1.0974  1.2448
 5418SOL     OW16778   7.327   5.638   6.631 -0.3221  0.5063 -0.8528
 5418SOL    HW116779   7.233   5.654   6.645 -0.1596  0.9692 -0.2444
 5418SOL    HW216780   7.363   5.723   6.609  0.3146  0.7991  1.0766
 5419SOL     OW16781   7.015   2.446   0.342  0.9436  0.1704  0.2937
 5419SOL    HW116782   7.098   2.446   0.294  1.2358  1.4599  0.7560
 5419SOL    HW216783   6.973   2.528   0.318  0.8146  0.5590  1.7384
 5420SOL     OW16784   4.932   7.021   7.048 -0.2371 -0.1892  0.0389
 5420SOL    HW116785   5.027   7.028   7.062 -0.3191  1.9674 -0.1379
 5420SOL    HW216786   4.924   7.007   6.953 -0.0995  0.5704 -0.0936
 5421SOL     OW16787   2.547   6.585   3.384  0.5586  0.4904  0.3597
 5421SOL    HW116788   2.540   6.544   3.470  1.1614 -0.1262  0.1236
 5421SOL    HW216789   2.641   6.588   3.366  0.4323  0.5277 -0.3226
 5422SOL     OW16790   0.997   5.991   3.750  0.0872  0.4008 -0.1413
 5422SOL    HW116791   0.909   6.010   3.780  0.8443  2.3420  1.0056
 5422SOL    HW216792   1.030   5.927   3.813 -0.6812 -0.8336 -0.9521
 5423SOL     OW16793   3.068   5.335   7.504  0.0221 -0.5683 -0.2686
 5423SOL    HW116794   3.133   5.265   7.507  2.5638  1.6101  1.3163
 5423SOL    HW216795   3.028   5.334   7.591 -0.6059 -0.6438 -0.5574
 5424SOL     OW16796   0.547   5.412   1.779 -0.3855 -0.2471 -0.1338
 5424SOL    HW116797   0.518   5.493   1.821  1.1020 -0.1073  0.6916
 5424SOL    HW216798   0.608   5.373   1.842  2.4315  0.2754 -2.3330
 5425SOL     OW16799   2.128   0.310   0.645  0.2262  0.1646  0.2356
 5425SOL    HW116800   2.093   0.315   0.734  0.6136  1.3851  0.3236
 5425SOL    HW216801   2.221   0.332   0.653  0.9044 -2.2441 -0.1167
 5426SOL     OW16802   1.138   5.526   1.296 -0.0585  0.1420  0.3517
 5426SOL    HW116803   1.189   5.578   1.233 -0.5679 -1.0956 -1.1490
 5426SOL    HW216804   1.198   5.455   1.322 -0.4526 -0.3893 -0.1654
 5427SOL     OW16805   4.570   0.526   2.095 -0.6195 -1.0124 -0.1942
 5427SOL    HW116806   4.595   0.523   2.002  1.1421 -1.2511  0.2481
 5427SOL    HW216807   4.574   0.618   2.118  0.5630 -1.0932  0.0151
 5428SOL     OW16808   2.009   5.504   3.731 -0.1755 -0.1529  0.5728
 5428SOL    HW116809   1.936   5.502   3.793 -0.8610  0.5677 -0.1761
 5428SOL    HW216810   2.087   5.510   3.785 -0.7873  1.0937  1.3753
 5429SOL     OW16811   1.280   2.563   6.487  0.2390  0.0121 -0.5726
 5429SOL    HW116812   1.191   2.591   6.506  0.6853  1.7534 -0.9322
 5429SOL    HW216813   1.269   2.480   6.440 -1.0616 -1.4409  2.0626
 5430SOL     OW16814   5.955   7.468   2.763  0.3824  0.0051 -0.4577
 5430SOL    HW116815   5.998   7.475   2.678  1.0120 -0.1612 -0.1595
 5430SOL    HW216816   6.022   7.429   2.820  0.4250  1.3482  0.4369
 5431SOL     OW16817   7.098   3.634   4.663 -0.1802 -0.5740 -0.0144
 5431SOL    HW116818   7.179   3.631   4.714 -0.1044  1.0920  0.0318
 5431SOL    HW216819   7.071   3.726   4.667 -0.8080 -0.6169 -1.9906
 5432SOL     OW16820   6.540   4.637   7.404  0.7242 -0.1108  0.7009
 5432SOL    HW116821   6.575   4.715   7.360 -0.0961 -0.3408 -0.4202
 5432SOL    HW216822   6.515   4.579   7.332 -1.2807 -0.2430  1.4417
 5433SOL     OW16823   1.015   3.924   0.851  0.0763 -0.0945 -0.0015
 5433SOL    HW116824   0.964   4.002   0.871  0.9438  0.3531  0.4922
 5433SOL    HW216825   1.025   3.926   0.756  0.4130  0.5927  0.0448
 5434SOL     OW16826   5.760   3.585   7.307 -0.3740  0.0838 -0.2242
 5434SOL    HW116827   5.736   3.508   7.256 -1.1746  0.5142 -0.5029
 5434SOL    HW216828   5.798   3.549   7.388  1.0939 -0.6017 -1.1782
 5435SOL     OW16829   2.593   4.073   6.298  0.2887  0.8136  0.5371
 5435SOL    HW116830   2.642   4.013   6.243 -0.4546 -1.0156  1.7860
 5435SOL    HW216831   2.652   4.148   6.310  1.6102 -0.0475 -0.3197
 5436SOL     OW16832   6.279   2.828   3.387  0.5021  0.1048  0.0995
 5436SOL    HW116833   6.211   2.784   3.335  1.8240 -0.3445 -1.3027
 5436SOL    HW216834   6.230   2.884   3.447 -1.1167 -0.3992 -0.6865
 5437SOL     OW16835   4.467   2.141   4.592 -0.2973 -0.1037 -0.1157
 5437SOL    HW116836   4.531   2.149   4.522  0.5005 -0.6647  0.5295
 5437SOL    HW216837   4.438   2.231   4.609 -0.4768  0.0413 -1.1177
 5438SOL     OW16838   4.089   5.592   3.500  0.4344 -0.1987  0.1025
 5438SOL    HW116839   4.121   5.657   3.438 -0.4948 -0.8074 -1.0589
 5438SOL    HW216840   4.164   5.535   3.515  0.2954 -0.9314 -1.6805
 5439SOL     OW16841   0.672   3.439   5.915  0.1538  0.0448  0.1236
 5439SOL    HW116842   0.660   3.472   6.004 -1.2383  0.2271 -0.1034
 5439SOL    HW216843   0.767   3.433   5.904  0.3489 -0.1451  1.6704
 5440SOL     OW16844   4.539   7.444   3.168 -0.2047 -0.1726  0.6170
 5440SOL    HW116845   4.577   7.377   3.110  0.2568  2.3438 -2.2508
 5440SOL    HW216846   4.614   7.490   3.204 -0.3630  1.8822 -1.4347
 5441SOL     OW16847   7.166   6.305   1.093 -0.0207 -0.2873 -0.1075
 5441SOL    HW116848   7.130   6.222   1.123 -1.1729 -0.7396 -2.4829
 5441SOL    HW216849   7.251   6.283   1.055 -0.1728 -0.3324 -0.4250
 5442SOL     OW16850   2.203   1.560   3.361  0.1406  0.1512 -0.2922
 5442SOL    HW116851   2.185   1.496   3.429  0.6587 -2.0879 -2.1365
 5442SOL    HW216852   2.292   1.539   3.331  0.0887  1.3456 -1.3563
 5443SOL     OW16853   7.221   6.057   2.832  0.2110  0.4399  0.4676
 5443SOL    HW116854   7.190   6.079   2.744 -1.1925  0.0601  0.8529
 5443SOL    HW216855   7.240   6.142   2.873  0.1416  0.6497  0.0733
 5444SOL     OW16856   6.545   1.693   2.609  0.1801  0.1202  0.1456
 5444SOL    HW116857   6.578   1.619   2.660 -0.5886 -1.1040 -1.0575
 5444SOL    HW216858   6.619   1.752   2.601  0.8518 -0.5746  1.0329
 5445SOL     OW16859   4.562   4.362   0.103  0.0399 -0.2071 -0.3361
 5445SOL    HW116860   4.578   4.270   0.123  0.3696  0.0061  0.3988
 5445SOL    HW216861   4.592   4.372   0.012  0.3286 -0.7365 -0.3044
 5446SOL     OW16862   5.353   0.110   2.172 -0.2676 -0.5429  0.1837
 5446SOL    HW116863   5.379   0.068   2.089 -1.2936  0.4587 -0.6686
 5446SOL    HW216864   5.261   0.087   2.183 -0.0231 -1.0653  1.3302
 5447SOL     OW16865   2.138   2.756   3.890  0.6699 -0.4000 -0.1005
 5447SOL    HW116866   2.114   2.824   3.953  0.4279 -1.0987  0.5786
 5447SOL    HW216867   2.207   2.796   3.837 -0.3139  0.8042 -0.5306
 5448SOL     OW16868   2.618   1.383   4.490  0.0229  0.4302  0.2839
 5448SOL    HW116869   2.578   1.299   4.469 -1.1718  1.1576 -0.4746
 5448SOL    HW216870   2.602   1.396   4.583  0.1868 -0.1685  0.3942
 5449SOL     OW16871   2.269   6.568   2.112  0.6113 -0.0632 -0.2181
 5449SOL    HW116872   2.325   6.598   2.183  0.9229  0.0051 -0.4901
 5449SOL    HW216873   2.203   6.637   2.102 -0.1141 -0.5926  0.7442
 5450SOL     OW16874   1.199   4.090   4.262 -0.1633 -0.2578  0.3904
 5450SOL    HW116875   1.246   4.007   4.257  1.9799  0.9210 -0.5657
 5450SOL    HW216876   1.231   4.132   4.342 -2.3065 -0.8758  1.6632
 5451SOL     OW16877   4.285   6.268   6.174  0.1863  0.0261 -0.3553
 5451SOL    HW116878   4.372   6.270   6.213  0.9266  0.9645 -1.9442
 5451SOL    HW216879   4.299   6.298   6.084 -1.5051 -1.5167 -1.1910
 5452SOL     OW16880   3.041   2.063   2.980 -0.1334  0.7939  0.3392
 5452SOL    HW116881   3.027   2.158   2.982  2.4972  1.2486  1.2287
 5452SOL    HW216882   3.134   2.052   2.999  0.2386 -1.8716 -2.3274
 5453SOL     OW16883   1.235   3.253   0.478  0.4115 -0.1335  0.1288
 5453SOL    HW116884   1.316   3.302   0.461  0.4183 -0.0799  0.3123
 5453SOL    HW216885   1.194   3.244   0.393  1.1325 -1.0770 -0.1443
 5454SOL     OW16886   6.492   2.027   6.906  0.2789  0.1495  0.3455
 5454SOL    HW116887   6.446   1.945   6.889 -1.0428  0.7996  0.6357
 5454SOL    HW216888   6.452   2.090   6.846  1.6309  0.4942 -0.2383
 5455SOL     OW16889   1.588   0.453   7.190 -0.3341  0.3732  0.0367
 5455SOL    HW116890   1.501   0.488   7.172 -0.7015  0.0948  1.1643
 5455SOL    HW216891   1.610   0.402   7.112 -1.7593 -0.6310  0.2326
 5456SOL     OW16892   6.427   5.932   5.162  0.0867  0.4222 -0.0164
 5456SOL    HW116893   6.367   5.974   5.101 -0.6406 -0.6311 -0.0453
 5456SOL    HW216894   6.374   5.866   5.207  0.5599  1.2806  1.8909
 5457SOL     OW16895   3.408   6.965   5.886  0.0254 -0.6366 -0.8670
 5457SOL    HW116896   3.494   6.952   5.846 -0.1440 -2.3255 -0.7614
 5457SOL    HW216897   3.390   6.883   5.931 -1.6986 -0.3597 -0.9696
 5458SOL     OW16898   4.062   3.316   4.690  0.4924  0.8910 -0.4498
 5458SOL    HW116899   3.990   3.358   4.737 -1.3034  0.3346 -2.5163
 5458SOL    HW216900   4.135   3.377   4.698 -0.6985  2.2804  0.3435
 5459SOL     OW16901   2.531   0.496   6.211  0.3942 -0.2732  0.3721
 5459SOL    HW116902   2.625   0.507   6.201  0.1843  1.5314  0.0842
 5459SOL    HW216903   2.514   0.519   6.303  0.0688  0.9247  0.0318
 5460SOL     OW16904   6.799   0.266   1.679 -0.5605  0.3603  0.4552
 5460SOL    HW116905   6.781   0.360   1.668  2.5622  1.1684  1.4255
 5460SOL    HW216906   6.837   0.259   1.766 -0.9899 -1.9126  0.5127
 5461SOL     OW16907   6.823   6.355   3.300 -0.4253  0.0217  0.0778
 5461SOL    HW116908   6.778   6.419   3.355 -2.2587 -1.4388  0.3929
 5461SOL    HW216909   6.856   6.290   3.362  2.1159  0.9733 -0.1619
 5462SOL     OW16910   4.902   0.009   1.560  0.6171  0.0059 -0.4491
 5462SOL    HW116911   4.939   0.056   1.635  0.6914  2.6386 -1.9873
 5462SOL    HW216912   4.849   0.075   1.515  0.1154 -1.6324 -2.4062
 5463SOL     OW16913   6.486   6.485   1.803 -0.2666  0.2547  0.0171
 5463SOL    HW116914   6.500   6.392   1.786  0.5893  0.5943 -1.3065
 5463SOL    HW216915   6.574   6.521   1.813 -0.6088  0.8434  1.0238
 5464SOL     OW16916   4.179   3.028   3.571 -0.0868  0.2081  0.2512
 5464SOL    HW116917   4.164   2.961   3.504  0.1633  0.5905 -0.1890
 5464SOL    HW216918   4.097   3.030   3.621 -0.1959 -0.2360  0.0955
 5465SOL     OW16919   3.449   4.715   1.271 -0.4899  0.3005  0.0549
 5465SOL    HW116920   3.391   4.643   1.297 -0.9428  0.2149 -1.1453
 5465SOL    HW216921   3.472   4.695   1.180 -0.0777  1.3223 -0.0728
 5466SOL     OW16922   1.854   2.156   5.518 -0.1678 -0.1679  0.7652
 5466SOL    HW116923   1.921   2.115   5.463  1.6001  1.3305  1.6862
 5466SOL    HW216924   1.867   2.116   5.604  0.3508  0.9401  1.2212
 5467SOL     OW16925   4.903   1.275   1.324 -0.2111 -0.2107  0.8534
 5467SOL    HW116926   4.878   1.314   1.241 -0.0902  1.5449  1.5913
 5467SOL    HW216927   4.999   1.270   1.320 -0.2539 -0.9773  0.5510
 5468SOL     OW16928   0.731   0.560   4.530  0.4227  0.2034 -0.0987
 5468SOL    HW116929   0.680   0.505   4.471 -0.1199  0.0539  0.4920
 5468SOL    HW216930   0.796   0.501   4.568  0.5515  0.2230 -0.2866
 5469SOL     OW16931   1.063   5.774   4.336  0.1306  0.0256  0.2618
 5469SOL    HW116932   1.155   5.753   4.320 -0.5862 -2.9935 -0.3559
 5469SOL    HW216933   1.057   5.781   4.431  1.3910  2.7365  0.2432
 5470SOL     OW16934   4.566   5.750   1.433 -0.4163 -0.0031 -0.5120
 5470SOL    HW116935   4.528   5.832   1.464  2.8867  1.2885  0.5147
 5470SOL    HW216936   4.634   5.730   1.497  1.4443 -1.4722 -2.8158
 5471SOL     OW16937   7.164   0.482   5.937 -0.2339  0.3466 -0.4163
 5471SOL    HW116938   7.225   0.426   5.889 -0.2146 -0.2852  0.3219
 5471SOL    HW216939   7.201   0.487   6.026  0.1547  2.1266 -0.6460
 5472SOL     OW16940   0.282   1.735   1.934  0.5641  0.1278 -0.6611
 5472SOL    HW116941   0.367   1.740   1.977  0.2140 -1.1683  0.2606
 5472SOL    HW216942   0.219   1.733   2.006 -0.1897  0.0597 -1.3055
 5473SOL     OW16943   0.424   1.730   5.339 -0.3247  0.0241  0.1946
 5473SOL    HW116944   0.467   1.806   5.380  1.8779 -1.9402  1.8373
 5473SOL    HW216945   0.431   1.661   5.404 -4.5885 -1.0221 -0.1908
 5474SOL     OW16946   5.604   2.927   2.461 -0.5564 -0.5427  0.2893
 5474SOL    HW116947   5.539   2.907   2.528  0.7913 -1.0872  1.4923
 5474SOL    HW216948   5.559   2.984   2.399 -2.5407 -1.9022  0.3858
 5475SOL     OW16949   3.501   2.254   1.440 -0.0622  0.4326  0.7473
 5475SOL    HW116950   3.454   2.317   1.493 -0.3933 -0.7712  1.9418
 5475SOL    HW216951   3.594   2.276   1.451 -0.1869  0.9044  0.8720
 5476SOL     OW16952   1.377   7.217   7.481 -0.2756  0.6648  0.2264
 5476SOL    HW116953   1.321   7.181   7.551 -0.5250  0.9056  0.1532
 5476SOL    HW216954   1.444   7.150   7.467 -0.5585  0.3619  0.3060
 5477SOL     OW16955   6.283   5.723   7.477  0.2368 -0.0742  0.0210
 5477SOL    HW116956   6.366   5.685   7.449  0.4536 -0.2130  0.8250
 5477SOL    HW216957   6.284   5.813   7.443  1.2185  0.2922  0.9591
 5478SOL     OW16958   2.545   3.520   1.888  0.1683  0.5518  0.9446
 5478SOL    HW116959   2.616   3.455   1.889 -1.3676 -1.2480  0.1799
 5478SOL    HW216960   2.508   3.515   1.977  0.3223  0.7121  1.0189
 5479SOL     OW16961   4.734   6.572   4.094 -0.1234  0.1119  0.1425
 5479SOL    HW116962   4.692   6.501   4.046 -0.7748  0.4534  0.2051
 5479SOL    HW216963   4.727   6.547   4.186 -2.6042  1.3985  0.3932
 5480SOL     OW16964   7.113   3.490   7.117 -0.0169 -0.4370 -0.2002
 5480SOL    HW116965   7.078   3.401   7.107  0.2530 -0.5776  0.0773
 5480SOL    HW216966   7.070   3.541   7.049  0.9748 -1.1087 -1.3660
 5481SOL     OW16967   5.787   6.835   7.309 -0.0554 -0.3213  0.1371
 5481SOL    HW116968   5.707   6.825   7.360 -0.0861  1.1504  0.4313
 5481SOL    HW216969   5.856   6.843   7.375  0.2253 -0.7614 -0.1010
 5482SOL     OW16970   6.101   0.365   7.467  0.3313  0.1808  0.1534
 5482SOL    HW116971   6.156   0.331   7.537  0.2474 -0.4872 -0.0976
 5482SOL    HW216972   6.156   0.430   7.423  0.8229 -0.2688  0.0902
 5483SOL     OW16973   5.206   3.930   0.934 -0.1121 -0.3720  0.3463
 5483SOL    HW116974   5.226   3.981   1.012 -0.1943  1.3389 -0.6939
 5483SOL    HW216975   5.201   3.994   0.863  1.0814 -1.9795 -1.3086
 5484SOL     OW16976   5.566   1.485   2.510  0.0225 -0.6232  0.6594
 5484SOL    HW116977   5.569   1.573   2.472 -0.5355 -0.3616  1.1918
 5484SOL    HW216978   5.561   1.426   2.435 -1.6701 -0.0915  0.3091
 5485SOL     OW16979   6.933   1.424   3.046  0.9307  0.3645 -0.2947
 5485SOL    HW116980   6.928   1.517   3.024 -0.4603  0.4028  0.1034
 5485SOL    HW216981   6.976   1.384   2.970  1.3837  1.2912 -0.5443
 5486SOL     OW16982   0.197   5.207   3.433  0.6285 -0.2917  0.5337
 5486SOL    HW116983   0.189   5.302   3.446  0.1060 -0.1677 -0.5993
 5486SOL    HW216984   0.279   5.184   3.477  1.1404  0.8092  0.1975
 5487SOL     OW16985   3.151   2.692   6.103 -0.0320 -0.3668 -0.2063
 5487SOL    HW116986   3.088   2.764   6.100  1.1941  0.7871  0.6531
 5487SOL    HW216987   3.102   2.620   6.144 -0.4052  0.9564  1.8174
 5488SOL     OW16988   3.294   6.771   4.859  0.5266  0.7807 -0.7880
 5488SOL    HW116989   3.364   6.741   4.916  1.4675  1.9392 -1.2911
 5488SOL    HW216990   3.337   6.830   4.797 -0.4993 -0.2583 -2.5508
 5489SOL     OW16991   4.922   6.630   0.596 -0.3934  0.2189  0.1277
 5489SOL    HW116992   4.929   6.726   0.600  0.9263  0.1412  0.3712
 5489SOL    HW216993   4.897   6.604   0.684  0.1173  0.2899  0.2947
 5490SOL     OW16994   1.775   0.641   0.013 -0.1089  0.2487 -0.3009
 5490SOL    HW116995   1.867   0.618   0.027 -0.0736  0.6390  0.1482
 5490SOL    HW216996   1.777   0.733  -0.012 -0.2445 -0.2041 -2.1287
 5491SOL     OW16997   6.982   1.967   4.976 -0.0480  0.0148 -0.7242
 5491SOL    HW116998   6.983   1.999   4.886  1.9098  0.0387 -0.7300
 5491SOL    HW216999   7.042   2.025   5.023  0.1922 -0.9753  0.2390
 5492SOL     OW17000   5.769   3.804   7.521  0.7817  0.3624 -0.4873
 5492SOL    HW117001   5.759   3.755   7.439  0.3682  1.3044 -1.0138
 5492SOL    HW217002   5.863   3.803   7.538  0.7629 -0.8415 -0.3337
 5493SOL     OW17003   5.267   3.957   1.885  0.2416  0.2916 -0.0516
 5493SOL    HW117004   5.352   3.951   1.928  0.6625  1.4738 -0.6697
 5493SOL    HW217005   5.256   4.050   1.867 -2.0995  0.4684  1.8178
 5494SOL     OW17006   3.614   6.953   3.147 -0.0162  0.5733  0.7188
 5494SOL    HW117007   3.574   6.932   3.063  2.1651  1.6217 -0.6785
 5494SOL    HW217008   3.602   6.874   3.199  1.6182 -1.5355 -1.8374
 5495SOL     OW17009   4.742   7.447   4.423 -0.5600  0.6261  0.0344
 5495SOL    HW117010   4.817   7.478   4.474 -0.9763 -0.1148  1.1411
 5495SOL    HW217011   4.746   7.352   4.430 -0.8917  0.5303 -0.9598
 5496SOL     OW17012   2.692   7.131   3.444  0.0591  0.9393  0.0448
 5496SOL    HW117013   2.605   7.146   3.481 -0.0382 -1.4223  0.9545
 5496SOL    HW217014   2.753   7.173   3.505 -0.3289  0.4292  0.7966
 5497SOL     OW17015   2.756   5.912   3.259 -0.1214 -0.9233  0.3355
 5497SOL    HW117016   2.831   5.883   3.208 -0.1392  0.1278 -0.3192
 5497SOL    HW217017   2.778   5.890   3.350  2.1277  1.5765  0.5235
 5498SOL     OW17018   5.967   0.189   0.981  0.2108  0.2262  0.2177
 5498SOL    HW117019   6.008   0.189   0.895  0.1657  2.0253  0.1542
 5498SOL    HW217020   5.909   0.112   0.981  1.0408 -0.4128 -0.9276
 5499SOL     OW17021   3.505   1.497   2.946  0.4932 -0.3113  0.9411
 5499SOL    HW117022   3.416   1.528   2.929 -0.2173 -2.4865  0.3406
 5499SOL    HW217023   3.558   1.576   2.947 -1.0076  0.8819 -1.6245
 5500SOL     OW17024   7.435   6.042   6.797  0.5597 -0.5089 -0.6361
 5500SOL    HW117025   7.500   6.095   6.843 -2.2471  2.2510  0.4881
 5500SOL    HW217026   7.417   5.969   6.856  1.2680 -0.2771 -0.1183
 5501SOL     OW17027   0.814   6.794   1.620 -0.0898  0.2868 -0.1688
 5501SOL    HW117028   0.745   6.790   1.554  0.0892  1.9489 -0.4977
 5501SOL    HW217029   0.835   6.887   1.628 -1.2366  0.3886  3.4188
 5502SOL     OW17030   3.270   0.014   7.053 -0.1457 -0.4481 -0.0489
 5502SOL    HW117031   3.192   0.023   6.998 -1.5161 -0.9702  1.7343
 5502SOL    HW217032   3.242   0.042   7.140  1.0852 -2.5037  1.0887
 5503SOL     OW17033   4.112   7.300   4.073 -0.5241  0.3727 -0.2029
 5503SOL    HW117034   4.077   7.371   4.018 -2.2563  0.2289  0.6760
 5503SOL    HW217035   4.067   7.221   4.043 -0.0259 -0.0382  0.1155
 5504SOL     OW17036   0.374   1.036   6.772 -0.9671  0.3714  0.3019
 5504SOL    HW117037   0.394   0.993   6.688  1.5971  1.3468  0.3367
 5504SOL    HW217038   0.374   0.965   6.836 -1.4221 -0.1653 -0.2711
 5505SOL     OW17039   3.570   1.039   4.187  0.1055 -0.5854  0.4763
 5505SOL    HW117040   3.621   0.990   4.251 -1.1665 -1.2310  1.0331
 5505SOL    HW217041   3.632   1.059   4.117  1.3224 -0.5826  1.5197
 5506SOL     OW17042   0.721   0.289   3.955  0.2304  0.2671  0.3218
 5506SOL    HW117043   0.783   0.361   3.942  2.3346 -1.0329  2.2244
 5506SOL    HW217044   0.734   0.232   3.880 -1.4400  1.7527 -1.1903
 5507SOL     OW17045   2.030   1.394   0.619 -0.4060  0.4318  0.3776
 5507SOL    HW117046   1.942   1.388   0.658 -1.5254  1.8284 -1.7272
 5507SOL    HW217047   2.028   1.332   0.546  0.8211 -0.4066  1.0198
 5508SOL     OW17048   4.518   0.727   7.316  0.0072 -0.2129  0.2177
 5508SOL    HW117049   4.595   0.676   7.292 -0.2122  0.9906 -3.6134
 5508SOL    HW217050   4.543   0.818   7.301 -1.7314  0.2965  0.1435
 5509SOL     OW17051   2.047   4.027   5.430 -0.1598  0.4617 -0.0616
 5509SOL    HW117052   1.982   3.965   5.396  0.9350  0.3516 -2.1226
 5509SOL    HW217053   2.097   3.977   5.494 -1.0738  0.0738  0.3616
 5510SOL     OW17054   7.430   0.072   1.091 -0.3337  0.5317  0.4725
 5510SOL    HW117055   7.481  -0.009   1.097 -0.1180  0.7578  1.9020
 5510SOL    HW217056   7.493   0.138   1.061 -0.1890  0.4607  0.6232
 5511SOL     OW17057   6.842   5.779   3.727 -0.1602  0.0332 -0.2523
 5511SOL    HW117058   6.877   5.695   3.756  0.9789  0.6840  0.3248
 5511SOL    HW217059   6.905   5.810   3.662 -0.4430  0.5601 -0.2845
 5512SOL     OW17060   7.541   5.254   5.646  0.1981  0.0754  0.1358
 5512SOL    HW117061   7.454   5.246   5.606  0.2613  0.3403 -0.0551
 5512SOL    HW217062   7.579   5.333   5.606  1.3804 -1.1942 -1.3705
 5513SOL     OW17063   0.856   5.290   5.829  0.4580  0.6918  0.2897
 5513SOL    HW117064   0.816   5.360   5.777  1.0486  0.2944 -0.7237
 5513SOL    HW217065   0.919   5.335   5.885  0.5636  1.0242 -0.0854
 5514SOL     OW17066   0.497   3.172   0.212 -0.4064  0.2401 -0.2668
 5514SOL    HW117067   0.402   3.175   0.216 -0.4119  0.7303 -0.5675
 5514SOL    HW217068   0.525   3.260   0.239  0.0230 -0.3289  1.1904
 5515SOL     OW17069   3.161   1.521   7.077 -0.1095 -0.1591 -0.2938
 5515SOL    HW117070   3.213   1.522   6.997  0.5980 -3.7367 -0.0521
 5515SOL    HW217071   3.070   1.518   7.046  0.1759 -3.6856 -1.2304
 5516SOL     OW17072   3.326   1.047   2.811  0.4227  0.3908  0.5661
 5516SOL    HW117073   3.382   1.124   2.821  0.6512  0.3582 -0.3405
 5516SOL    HW217074   3.355   0.987   2.879  2.2097 -0.0415 -0.5344
 5517SOL     OW17075   3.662   4.351   4.253 -0.1768  0.1059  0.1273
 5517SOL    HW117076   3.608   4.273   4.247  0.5228 -0.6307  2.5555
 5517SOL    HW217077   3.725   4.342   4.181 -1.6724 -0.2338 -1.2026
 5518SOL     OW17078   1.039   2.237   6.418  0.0400  0.3328  0.3052
 5518SOL    HW117079   1.020   2.309   6.479 -1.7374 -1.1862  1.6577
 5518SOL    HW217080   1.090   2.175   6.469  0.9455  0.2637 -0.6438
 5519SOL     OW17081   1.438   2.559   3.322 -0.1572  0.3462 -0.9275
 5519SOL    HW117082   1.511   2.567   3.261  0.6975 -2.6704 -0.4931
 5519SOL    HW217083   1.417   2.649   3.347  2.6947  1.3879 -1.8769
 5520SOL     OW17084   3.876   7.311   3.758 -0.1777  0.7143 -0.4160
 5520SOL    HW117085   3.823   7.383   3.724  1.5921  1.5481 -1.5572
 5520SOL    HW217086   3.812   7.244   3.783 -1.7370  1.2536 -2.6422
 5521SOL     OW17087   2.910   4.254   6.524 -0.3239  0.1548 -0.8906
 5521SOL    HW117088   2.865   4.228   6.444 -0.1190 -1.7062 -0.4466
 5521SOL    HW217089   2.962   4.178   6.549 -1.5520  0.0746  1.8367
 5522SOL     OW17090   3.416   3.717   2.307 -0.3067 -0.3975 -0.3293
 5522SOL    HW117091   3.477   3.651   2.340 -0.3139 -0.3843 -0.2894
 5522SOL    HW217092   3.473   3.785   2.270 -0.3037 -0.4985 -0.5107
 5523SOL     OW17093   1.397   3.413   5.760 -0.1265  0.1756 -0.0100
 5523SOL    HW117094   1.491   3.431   5.756 -0.0270 -0.2611  0.3280
 5523SOL    HW217095   1.372   3.400   5.669  0.4392 -1.1722  0.0081
 5524SOL     OW17096   7.255   1.684   1.343 -0.1060  0.2539 -0.1068
 5524SOL    HW117097   7.265   1.651   1.253  2.3209 -1.0164  0.5463
 5524SOL    HW217098   7.263   1.606   1.398 -0.4724  1.1524  1.2745
 5525SOL     OW17099   6.082   7.322   6.562 -0.1980 -0.1438  0.5415
 5525SOL    HW117100   6.173   7.294   6.570 -0.0512  0.4397  0.9774
 5525SOL    HW217101   6.052   7.283   6.480  0.4817 -0.2510  0.3395
 5526SOL     OW17102   5.141   0.049   0.256  0.0465  0.0469  0.6604
 5526SOL    HW117103   5.163   0.112   0.325 -1.1145  0.6217  0.5266
 5526SOL    HW217104   5.161   0.095   0.175  0.0877 -0.1048  0.5847
 5527SOL     OW17105   4.235   2.802   2.660 -0.0374 -0.1464  0.1223
 5527SOL    HW117106   4.179   2.781   2.735  0.4126  1.7606  1.0401
 5527SOL    HW217107   4.242   2.897   2.660 -1.4593  0.1278 -3.4164
 5528SOL     OW17108   4.173   5.931   5.696  0.1323  0.2213 -0.3019
 5528SOL    HW117109   4.197   5.989   5.768  0.3894  1.0920 -1.0575
 5528SOL    HW217110   4.088   5.895   5.721 -0.1706  1.1507  0.0783
 5529SOL     OW17111   1.982   0.517   5.876  0.2841  0.8091  0.3006
 5529SOL    HW117112   2.033   0.437   5.865  0.7510  1.0138  0.8946
 5529SOL    HW217113   2.043   0.579   5.918  0.2712  1.8435 -1.1416
 5530SOL     OW17114   2.806   1.115   4.661 -0.2054 -0.4411 -0.0659
 5530SOL    HW117115   2.750   1.039   4.647 -1.0573  0.3699 -1.3121
 5530SOL    HW217116   2.894   1.085   4.636 -0.5370 -1.0169 -0.5755
 5531SOL     OW17117   4.121   1.978   0.882 -0.1971 -0.8306  0.2592
 5531SOL    HW117118   4.056   1.977   0.953 -1.1104  0.1549 -0.5326
 5531SOL    HW217119   4.180   2.051   0.904 -0.4244 -0.5851  0.0629
 5532SOL     OW17120   5.643   5.341   7.352 -0.4709  0.0713 -0.1965
 5532SOL    HW117121   5.589   5.358   7.429 -1.8281 -0.9324 -0.8792
 5532SOL    HW217122   5.693   5.262   7.374  1.7319  1.6527  0.8952
 5533SOL     OW17123   6.872   1.525   0.866  0.0265 -0.5774  0.8265
 5533SOL    HW117124   6.910   1.578   0.796 -1.0477 -0.1259  0.5527
 5533SOL    HW217125   6.945   1.476   0.902  0.8344  0.1844  0.2689
 5534SOL     OW17126   2.337   2.843   5.775  0.4277  0.4238 -0.4296
 5534SOL    HW117127   2.293   2.890   5.705 -1.1867 -0.6836 -0.1957
 5534SOL    HW217128   2.421   2.816   5.737 -0.0210  0.6594 -1.6145
 5535SOL     OW17129   5.178   7.314   6.738  0.0895  0.1749  0.8125
 5535SOL    HW117130   5.150   7.344   6.652  3.6042  2.7377  0.3167
 5535SOL    HW217131   5.192   7.220   6.728 -0.1660  0.3154 -1.2553
 5536SOL     OW17132   2.866   6.075   7.513 -0.0201 -0.0034  0.4104
 5536SOL    HW117133   2.885   6.031   7.430 -1.7710  0.9720 -0.5692
 5536SOL    HW217134   2.949   6.072   7.561  1.5464  0.8369 -2.0420
 5537SOL     OW17135   1.470   6.045   0.747 -0.2165 -0.6918  0.6912
 5537SOL    HW117136   1.503   5.959   0.773 -0.6692 -0.8246  0.8331
 5537SOL    HW217137   1.435   6.031   0.660 -0.1139 -0.6035  0.6356
 5538SOL     OW17138   0.078   3.023   2.906 -0.2183  0.7120  0.1848
 5538SOL    HW117139   0.125   3.077   2.970 -0.2985  1.0450 -0.0337
 5538SOL    HW217140   0.147   2.972   2.863 -0.3648 -1.2245  2.0921
 5539SOL     OW17141   1.069   6.785   3.005  0.3125 -0.2173  0.2326
 5539SOL    HW117142   1.097   6.804   3.095 -0.3579  0.6178  0.2757
 5539SOL    HW217143   1.043   6.693   3.007 -0.9037  0.1193  1.2251
 5540SOL     OW17144   3.298   4.062   5.097  0.3086  0.1527 -0.0623
 5540SOL    HW117145   3.277   3.985   5.150  1.3743  0.0619  0.2476
 5540SOL    HW217146   3.344   4.028   5.021  0.1556  0.4297 -0.2854
 5541SOL     OW17147   1.814   5.795   5.315 -0.2965 -0.6541 -0.3816
 5541SOL    HW117148   1.808   5.796   5.220 -2.4804  3.0104 -0.4029
 5541SOL    HW217149   1.888   5.853   5.334 -1.5931  0.9152  0.0765
 5542SOL     OW17150   6.011   2.604   5.255 -0.3692  0.3057 -0.6231
 5542SOL    HW117151   6.035   2.604   5.347  1.0539 -1.2323 -0.9434
 5542SOL    HW217152   6.048   2.685   5.220 -0.6929  0.7669  0.0759
 5543SOL     OW17153   7.216   3.790   0.527 -0.1553 -0.2942 -0.3543
 5543SOL    HW117154   7.297   3.763   0.570  0.7519  2.0930 -0.3535
 5543SOL    HW217155   7.158   3.816   0.598  0.2599  0.8620 -0.4009
 5544SOL     OW17156   2.071   0.900   0.867  0.2777 -0.0260 -0.2877
 5544SOL    HW117157   2.160   0.891   0.831  0.3937 -1.5143  0.2928
 5544SOL    HW217158   2.084   0.937   0.954  0.0880  2.3448 -1.1880
 5545SOL     OW17159   3.767   6.130   2.729 -0.4677  0.3908 -0.2445
 5545SOL    HW117160   3.708   6.122   2.654 -0.5268  3.1247 -0.6159
 5545SOL    HW217161   3.709   6.137   2.805 -0.4395 -1.2500 -0.0425
 5546SOL     OW17162   2.133   7.192   6.925 -0.1981  0.0311  0.1480
 5546SOL    HW117163   2.184   7.228   6.852 -0.9048  2.0326  0.5822
 5546SOL    HW217164   2.179   7.223   7.003 -1.2579  0.6346  0.5402
 5547SOL     OW17165   0.955   5.852   1.254 -0.8066 -0.2796  0.4827
 5547SOL    HW117166   1.019   5.864   1.324 -0.6343 -0.5587  0.3736
 5547SOL    HW217167   1.007   5.857   1.173 -1.2054  1.5189  0.3018
 5548SOL     OW17168   2.356   1.899   3.209 -0.1242  0.0628 -0.9744
 5548SOL    HW117169   2.359   1.853   3.125 -1.9992 -1.7555 -0.1435
 5548SOL    HW217170   2.329   1.988   3.186  0.7118 -0.0171 -2.3956
 5549SOL     OW17171   6.222   2.163   6.194  0.3844  0.2244 -0.1118
 5549SOL    HW117172   6.299   2.195   6.146  1.2583 -3.0693 -1.1223
 5549SOL    HW217173   6.154   2.155   6.127  0.4641 -0.8403 -0.0776
 5550SOL     OW17174   1.376   4.448   4.744  0.1129  0.2797 -0.1050
 5550SOL    HW117175   1.420   4.532   4.754  1.3340 -0.2447 -0.8722
 5550SOL    HW217176   1.313   4.463   4.673 -0.2818  0.7578  0.3311
 5551SOL     OW17177   4.532   3.396   0.085  0.1516 -0.1733 -0.7504
 5551SOL    HW117178   4.503   3.449   0.158 -1.2889  0.8031 -1.9655
 5551SOL    HW217179   4.628   3.394   0.092  0.2776  2.7048 -0.7285
 5552SOL     OW17180   1.855   4.699   7.041 -0.2648  0.0755 -0.2467
 5552SOL    HW117181   1.818   4.736   6.961  0.9299  0.5478 -0.6037
 5552SOL    HW217182   1.945   4.731   7.043 -0.1243 -0.3356  1.0352
 5553SOL     OW17183   4.258   4.473   4.496 -0.2866  0.6806  0.1879
 5553SOL    HW117184   4.195   4.545   4.488  1.4009  2.2627  0.4248
 5553SOL    HW217185   4.320   4.502   4.563  0.2168 -1.1974  0.5967
 5554SOL     OW17186   3.445   3.203   5.992 -0.4824 -0.7070 -0.2428
 5554SOL    HW117187   3.510   3.163   6.049  0.5780 -1.8345 -2.1255
 5554SOL    HW217188   3.496   3.251   5.927 -1.5868 -0.2871 -0.8363
 5555SOL     OW17189   2.128   1.162   7.415  0.3581  0.0526  0.2046
 5555SOL    HW117190   2.041   1.157   7.376  0.3324  0.1619  0.2482
 5555SOL    HW217191   2.152   1.071   7.431 -0.0656  0.0519  0.8921
 5556SOL     OW17192   0.692   5.819   7.450  0.1287 -0.4233 -0.2777
 5556SOL    HW117193   0.781   5.845   7.474  1.8004 -3.8666 -1.9503
 5556SOL    HW217194   0.666   5.881   7.382  0.4428  1.6644  1.3834
 5557SOL     OW17195   0.422   7.008   2.597  0.1131  0.2124  0.8183
 5557SOL    HW117196   0.446   7.043   2.683  3.5453 -1.5078  0.7409
 5557SOL    HW217197   0.475   7.059   2.535  0.0773 -0.6331  0.0718
 5558SOL     OW17198   3.631   4.721   3.139  0.3485  0.1001  0.4627
 5558SOL    HW117199   3.618   4.632   3.107  0.3061 -0.1125  1.0733
 5558SOL    HW217200   3.591   4.722   3.226 -0.5819  0.9966  0.0489
 5559SOL     OW17201   3.746   4.277   0.105  0.2402  0.2053 -0.4368
 5559SOL    HW117202   3.811   4.235   0.048  1.8069 -1.2375  2.1945
 5559SOL    HW217203   3.662   4.243   0.074  1.0136 -0.5241 -1.8632
 5560SOL     OW17204   6.642   3.199   4.077 -0.2290  0.1460  1.0295
 5560SOL    HW117205   6.678   3.220   4.163  0.7239  0.9943  0.4524
 5560SOL    HW217206   6.717   3.169   4.026 -0.2450  2.0024 -0.2262
 5561SOL     OW17207   6.182   1.471   1.426  0.3285 -0.2385  1.3471
 5561SOL    HW117208   6.182   1.510   1.514  0.4512  1.1074  0.7629
 5561SOL    HW217209   6.124   1.527   1.375  1.0740 -0.3996  0.3058
 5562SOL     OW17210   3.124   4.469   5.049 -0.1076 -0.3486 -0.0622
 5562SOL    HW117211   3.066   4.402   5.013 -0.2218 -1.1792  1.5604
 5562SOL    HW217212   3.209   4.426   5.055 -0.4712 -0.9036  2.2762
 5563SOL     OW17213   2.280   2.160   3.582 -0.1553 -0.1821 -0.3601
 5563SOL    HW117214   2.188   2.174   3.604 -0.8902 -3.3901 -0.9040
 5563SOL    HW217215   2.300   2.229   3.519 -2.0868  0.7381 -0.0629
 5564SOL     OW17216   2.928   3.783   5.422 -0.2207  0.5632  0.4632
 5564SOL    HW117217   2.916   3.821   5.509 -1.9865 -1.2480  1.0928
 5564SOL    HW217218   2.922   3.689   5.436  0.5364  0.1731 -1.4986
 5565SOL     OW17219   3.068   5.271   3.084 -0.4591 -0.4574  0.0246
 5565SOL    HW117220   3.000   5.206   3.100 -0.0058 -1.0050 -0.2496
 5565SOL    HW217221   3.075   5.276   2.989 -0.0464 -0.4713  0.0542
 5566SOL     OW17222   6.579   0.145   0.113  0.4501 -0.2228  0.6118
 5566SOL    HW117223   6.583   0.104   0.026  1.9563 -1.4377  1.2035
 5566SOL    HW217224   6.524   0.222   0.101  1.5527  0.2794 -1.6736
 5567SOL     OW17225   4.951   5.285   7.060  0.5585  0.5289  0.3578
 5567SOL    HW117226   5.000   5.367   7.053  0.6163  0.4795  0.1754
 5567SOL    HW217227   4.918   5.269   6.971  1.9360 -0.4976 -0.0023
 5568SOL     OW17228   1.404   6.624   2.586 -0.4693  0.6025  0.1030
 5568SOL    HW117229   1.395   6.706   2.634 -0.8260  0.0312  1.0337
 5568SOL    HW217230   1.419   6.558   2.654  0.6367  0.0095 -0.6787
 5569SOL     OW17231   0.133   2.928   1.038 -0.1258  0.1823  0.2397
 5569SOL    HW117232   0.222   2.895   1.047 -0.2308 -0.4538 -0.9010
 5569SOL    HW217233   0.102   2.937   1.128  0.7109 -0.6225  0.6270
 5570SOL     OW17234   0.444   4.167   1.869 -0.7789  0.1582 -0.5365
 5570SOL    HW117235   0.441   4.146   1.776  0.0522  0.8862 -0.7346
 5570SOL    HW217236   0.370   4.226   1.883  1.0783  2.8663 -1.4872
 5571SOL     OW17237   4.487   4.484   6.884 -0.1833 -0.3073  0.4140
 5571SOL    HW117238   4.560   4.540   6.858 -2.2025  2.2218 -0.2201
 5571SOL    HW217239   4.471   4.506   6.976 -0.8846  0.0937  0.2075
 5572SOL     OW17240   0.158   4.550   3.387  0.4294  0.0879  0.4682
 5572SOL    HW117241   0.133   4.465   3.424 -2.9785 -0.2943 -2.1810
 5572SOL    HW217242   0.246   4.537   3.353  1.4481 -1.1709  3.2426
 5573SOL     OW17243   2.034   4.572   3.975 -0.2602 -0.0340  0.2230
 5573SOL    HW117244   1.983   4.633   4.029  0.2648  1.4351 -0.8844
 5573SOL    HW217245   2.022   4.604   3.886  0.4704 -1.2491 -0.3263
 5574SOL     OW17246   1.059   7.412   0.659 -0.5517 -0.5243  1.0093
 5574SOL    HW117247   1.100   7.399   0.573 -0.2080 -0.5501  1.1790
 5574SOL    HW217248   0.975   7.366   0.652 -1.5799  1.3785 -0.1115
 5575SOL     OW17249   3.541   6.744   1.786  0.0115 -0.6534 -0.8420
 5575SOL    HW117250   3.530   6.839   1.783  0.3317 -0.5493  0.5094
 5575SOL    HW217251   3.556   6.724   1.879 -0.1708 -2.0393 -1.0817
 5576SOL     OW17252   5.714   3.270   2.253  0.1676  0.2182  0.0986
 5576SOL    HW117253   5.643   3.208   2.270  1.0740 -0.8909 -0.0306
 5576SOL    HW217254   5.703   3.294   2.161  1.4801 -2.0509 -0.7450
 5577SOL     OW17255   5.147   6.745   1.658 -0.0755 -0.5979 -0.0737
 5577SOL    HW117256   5.213   6.815   1.660  0.5027 -1.1248 -0.4624
 5577SOL    HW217257   5.089   6.766   1.731 -0.3430  0.7003 -0.6391
 5578SOL     OW17258   2.773   2.330   0.326  0.3883 -0.1211 -0.4795
 5578SOL    HW117259   2.734   2.265   0.267 -0.0613  0.8530 -1.2930
 5578SOL    HW217260   2.813   2.278   0.396 -1.9581 -1.2271  0.1632
 5579SOL     OW17261   1.250   6.724   6.865  0.0194  0.0112 -0.2184
 5579SOL    HW117262   1.279   6.716   6.774 -3.4676  1.0010 -1.5900
 5579SOL    HW217263   1.323   6.767   6.910  1.7545 -0.2669 -2.5704
 5580SOL     OW17264   5.865   6.800   5.672  0.1530 -0.0084 -0.3062
 5580SOL    HW117265   5.948   6.821   5.629 -0.7275 -0.0372 -2.1129
 5580SOL    HW217266   5.802   6.861   5.634 -0.9357 -0.9570 -0.0733
 5581SOL     OW17267   0.593   1.739   6.833  0.2220 -0.0050 -0.0908
 5581SOL    HW117268   0.542   1.758   6.912  0.1981  0.2923 -0.1771
 5581SOL    HW217269   0.620   1.648   6.844 -0.9668 -0.4099 -0.4013
 5582SOL     OW17270   1.387   2.520   0.186 -0.1444  0.4271  0.2907
 5582SOL    HW117271   1.349   2.464   0.118 -1.6387  0.9599  0.6589
 5582SOL    HW217272   1.440   2.584   0.138 -1.5039  1.0425 -0.4160
 5583SOL     OW17273   1.405   3.351   0.796  0.5448  0.1256  0.2318
 5583SOL    HW117274   1.312   3.339   0.812  0.6603  0.5546  1.3746
 5583SOL    HW217275   1.417   3.332   0.703 -0.6265 -0.2126  0.1353
 5584SOL     OW17276   1.435   5.276   1.906 -0.1994 -0.1010 -0.4615
 5584SOL    HW117277   1.520   5.286   1.948 -0.4970  0.1172  0.0990
 5584SOL    HW217278   1.398   5.364   1.906  0.9909  0.5365 -3.8303
 5585SOL     OW17279   0.429   1.084   0.338 -0.4210  0.0302  0.1142
 5585SOL    HW117280   0.428   1.179   0.338  3.2142  0.1893 -0.1959
 5585SOL    HW217281   0.393   1.060   0.253  0.0737  1.2063 -0.4461
 5586SOL     OW17282   5.606   4.953   6.981 -0.4425  0.0332  0.2928
 5586SOL    HW117283   5.571   4.916   7.062 -2.3070  1.1761  0.0539
 5586SOL    HW217284   5.608   5.047   6.997 -0.3170  0.2285 -0.8138
 5587SOL     OW17285   2.003   4.355   2.595  0.5060  0.2182 -0.2281
 5587SOL    HW117286   1.997   4.262   2.618 -0.0523  0.4472  0.6097
 5587SOL    HW217287   1.913   4.386   2.599  0.6352  0.6916 -0.9732
 5588SOL     OW17288   2.296   0.604   5.298  0.5317  0.4039 -0.1066
 5588SOL    HW117289   2.321   0.609   5.206  1.3323 -1.9321 -0.0806
 5588SOL    HW217290   2.295   0.510   5.318 -3.2958  0.5408  1.3118
 5589SOL     OW17291   2.759   0.637   0.400 -0.3007 -0.8394  0.4275
 5589SOL    HW117292   2.841   0.594   0.425 -0.2778 -0.1173  1.7086
 5589SOL    HW217293   2.784   0.699   0.332  0.3826 -0.0376  1.3834
 5590SOL     OW17294   6.010   2.815   2.242  0.2179 -0.4491  0.1837
 5590SOL    HW117295   5.986   2.786   2.330 -0.6307  2.0732  0.8730
 5590SOL    HW217296   6.104   2.833   2.247 -0.1355  1.3180  1.1374
 5591SOL     OW17297   1.259   5.049   3.515 -0.6892 -0.6972  0.1232
 5591SOL    HW117298   1.222   5.090   3.593  0.1114 -1.9399  1.2017
 5591SOL    HW217299   1.215   4.964   3.509 -2.3018  0.1967 -2.0522
 5592SOL     OW17300   3.586   3.283   3.280 -0.0900  0.2306  0.3316
 5592SOL    HW117301   3.627   3.269   3.195  0.2078 -1.7652  0.7419
 5592SOL    HW217302   3.658   3.302   3.340 -0.3678  2.4136  0.0506
 5593SOL     OW17303   6.363   7.247   3.700  0.0004 -0.0805  0.6204
 5593SOL    HW117304   6.443   7.289   3.668  0.0099  0.6144  1.4972
 5593SOL    HW217305   6.292   7.304   3.670  0.1153  1.7141  3.3597
 5594SOL     OW17306   0.368   0.778   5.466 -0.7949 -0.5513 -0.2560
 5594SOL    HW117307   0.309   0.852   5.455 -0.6305 -0.2814  0.6247
 5594SOL    HW217308   0.441   0.812   5.518  0.8192 -0.5198 -2.4030
 5595SOL     OW17309   5.846   5.747   1.235  0.1008  0.1331 -0.1966
 5595SOL    HW117310   5.755   5.770   1.215  0.3873  1.5711  0.0566
 5595SOL    HW217311   5.856   5.659   1.199 -0.9009  0.6023 -1.7440
 5596SOL     OW17312   3.570   5.244   0.811  0.5960  0.0630 -0.5854
 5596SOL    HW117313   3.567   5.274   0.902  2.0241  0.6525 -0.7082
 5596SOL    HW217314   3.636   5.300   0.770 -0.1620 -0.0668 -2.0448
 5597SOL     OW17315   3.156   4.530   0.979 -0.3876 -0.2511 -0.4806
 5597SOL    HW117316   3.236   4.529   1.031 -1.5680  1.5631  1.5685
 5597SOL    HW217317   3.184   4.509   0.890  1.9802 -1.8897  0.5477
 5598SOL     OW17318   2.950   7.283   7.129 -0.5396  0.2335  0.7099
 5598SOL    HW117319   2.970   7.376   7.119 -0.1084  0.0632 -0.0805
 5598SOL    HW217320   2.987   7.242   7.051 -1.6577 -0.4665  0.5274
 5599SOL     OW17321   2.792   0.833   6.845  0.0395 -0.2112  0.2802
 5599SOL    HW117322   2.820   0.893   6.776  1.2979 -1.0723  0.0064
 5599SOL    HW217323   2.846   0.855   6.920 -1.2929  0.6871  1.0161
 5600SOL     OW17324   0.540   3.589   5.291  0.6401 -0.3219 -0.0020
 5600SOL    HW117325   0.469   3.551   5.240  0.2230  0.5513 -0.0891
 5600SOL    HW217326   0.557   3.525   5.360 -0.5182 -0.3514  0.2698
 5601SOL     OW17327   6.280   4.998   5.064 -0.2841  0.0129  0.1750
 5601SOL    HW117328   6.205   4.939   5.068 -0.8406  0.7501  1.5086
 5601SOL    HW217329   6.260   5.066   5.128  0.3985  1.5922 -1.2251
 5602SOL     OW17330   6.228   4.029   1.027 -0.1873 -0.2237 -0.0829
 5602SOL    HW117331   6.297   4.038   0.962 -2.1602  1.9876 -2.0467
 5602SOL    HW217332   6.190   3.943   1.010  1.4514 -1.0871  0.4445
 5603SOL     OW17333   5.684   0.369   5.302 -0.7447 -0.5202 -0.0780
 5603SOL    HW117334   5.639   0.352   5.219 -0.3920  2.0907 -0.8922
 5603SOL    HW217335   5.652   0.455   5.329  0.9080 -0.2816  1.2833
 5604SOL     OW17336   7.263   0.548   6.513 -0.0487  0.0375 -0.0700
 5604SOL    HW117337   7.261   0.546   6.608  0.7312  0.3045 -0.0420
 5604SOL    HW217338   7.340   0.496   6.490 -0.3081 -0.1352 -0.5623
 5605SOL     OW17339   2.305   6.193   3.305  0.1209  0.4929  0.0028
 5605SOL    HW117340   2.234   6.137   3.272  0.0216  0.5042  0.2008
 5605SOL    HW217341   2.381   6.136   3.307  0.5106  0.8872 -1.7531
 5606SOL     OW17342   0.386   2.818   0.978  0.2245  0.4511  0.2652
 5606SOL    HW117343   0.444   2.866   0.919 -0.8747 -0.6478 -1.8505
 5606SOL    HW217344   0.444   2.772   1.038  1.3662  2.3855  0.7125
 5607SOL     OW17345   4.976   5.364   1.172  0.8748 -0.0303  0.2307
 5607SOL    HW117346   5.045   5.412   1.127 -0.6965 -0.4643 -2.9398
 5607SOL    HW217347   4.993   5.272   1.151  0.3158 -0.3063  0.9276
 5608SOL     OW17348   5.937   7.241   4.180  0.3208  0.1868  0.4633
 5608SOL    HW117349   5.984   7.202   4.106  1.5043  0.5083  1.0274
 5608SOL    HW217350   5.847   7.212   4.169  0.6789 -0.5860 -0.5563
 5609SOL     OW17351   7.070   5.701   4.609  0.2135 -0.1293  0.0038
 5609SOL    HW117352   7.119   5.629   4.570 -0.8946  0.2038 -2.1388
 5609SOL    HW217353   7.052   5.761   4.537 -0.2815  1.5209  1.4135
 5610SOL     OW17354   2.745   5.306   6.635  0.3223  0.0516 -0.0450
 5610SOL    HW117355   2.681   5.330   6.702 -0.1324  0.9357 -0.7727
 5610SOL    HW217356   2.745   5.210   6.636 -1.2819  0.0111 -0.2557
 5611SOL     OW17357   3.973   3.276   5.449 -0.0446 -0.6735  0.2391
 5611SOL    HW117358   3.928   3.220   5.511  0.1120  2.2581  3.2752
 5611SOL    HW217359   3.913   3.349   5.434  1.5712  0.7107  0.2135
 5612SOL     OW17360   6.685   1.909   4.744  0.4477 -0.5213  0.3510
 5612SOL    HW117361   6.695   1.846   4.815 -0.1863  0.8947  1.7604
 5612SOL    HW217362   6.713   1.992   4.782  2.8281 -0.1315 -1.9113
 5613SOL     OW17363   4.142   6.693   1.505 -0.2860  0.5065  0.3892
 5613SOL    HW117364   4.159   6.608   1.547 -2.6270  1.0203  2.5920
 5613SOL    HW217365   4.106   6.747   1.575 -0.6842  2.7253 -1.4403
 5614SOL     OW17366   6.152   1.114   2.476 -0.0389  0.1380  0.1983
 5614SOL    HW117367   6.175   1.186   2.418 -0.2849  0.8347  0.9524
 5614SOL    HW217368   6.234   1.093   2.522 -0.3437  1.0855  1.2116
 5615SOL     OW17369   0.702   5.908   3.650  0.6919  0.9418 -0.7502
 5615SOL    HW117370   0.649   5.908   3.570  0.0422  1.1907 -0.3298
 5615SOL    HW217371   0.686   5.993   3.689  1.1997  0.9108 -0.4779
 5616SOL     OW17372   4.159   1.009   6.713  0.3251 -0.2710  0.3170
 5616SOL    HW117373   4.154   1.088   6.659  1.6081 -0.2217  0.2350
 5616SOL    HW217374   4.105   0.945   6.667 -1.3717  0.7507  0.7847
 5617SOL     OW17375   3.305   3.455   4.288  0.2971 -0.3610  0.2432
 5617SOL    HW117376   3.271   3.543   4.276 -1.0719 -0.8739  0.1153
 5617SOL    HW217377   3.283   3.433   4.379 -0.1754 -0.8857  0.0087
 5618SOL     OW17378   1.579   0.589   5.017 -0.5493  0.3995  0.2598
 5618SOL    HW117379   1.611   0.614   5.104 -0.6465 -0.7819  0.6604
 5618SOL    HW217380   1.486   0.573   5.030 -0.5697  0.2526 -0.0619
 5619SOL     OW17381   1.550   3.206   4.394  0.1257 -0.6722 -1.0400
 5619SOL    HW117382   1.625   3.212   4.453 -1.0600 -1.1645  0.6148
 5619SOL    HW217383   1.557   3.283   4.338  0.8116  0.3754  0.4119
 5620SOL     OW17384   5.412   2.120   3.921 -0.6491 -0.5192 -0.2898
 5620SOL    HW117385   5.371   2.159   3.844 -0.9347  1.0458  0.6046
 5620SOL    HW217386   5.502   2.103   3.894 -1.5073 -2.9714 -1.9258
 5621SOL     OW17387   0.429   6.711   0.155 -0.0054  0.1113  0.4919
 5621SOL    HW117388   0.377   6.792   0.154 -2.1015 -1.1549  1.0606
 5621SOL    HW217389   0.416   6.675   0.242 -0.5040 -1.6724 -0.2678
 5622SOL     OW17390   3.120   3.916   5.299 -0.1658  0.1470 -0.1933
 5622SOL    HW117391   3.045   3.862   5.324  0.6884  0.2557  3.0590
 5622SOL    HW217392   3.081   4.000   5.274 -1.2280 -0.3771 -0.3666
 5623SOL     OW17393   3.756   1.985   6.689  0.9358  0.5116 -0.2868
 5623SOL    HW117394   3.723   2.010   6.603 -1.2045  1.2715  0.7076
 5623SOL    HW217395   3.745   2.062   6.743  2.0862 -0.0117  0.7497
 5624SOL     OW17396   1.775   2.405   4.419 -0.5754  0.1758  0.0460
 5624SOL    HW117397   1.713   2.477   4.405 -0.3611  0.8319  2.2026
 5624SOL    HW217398   1.860   2.441   4.392 -0.7493  0.0461 -0.7138
 5625SOL     OW17399   1.512   4.239   1.606  0.3546 -0.2360 -0.0046
 5625SOL    HW117400   1.585   4.223   1.547 -0.0662  0.6668 -0.7924
 5625SOL    HW217401   1.434   4.219   1.554  0.0160 -1.1304  0.8094
 5626SOL     OW17402   0.763   5.742   0.413 -0.7535 -0.2724  0.0346
 5626SOL    HW117403   0.825   5.789   0.468  0.0640 -1.3117  0.0203
 5626SOL    HW217404   0.794   5.755   0.324 -0.8727 -0.3301 -0.0160
 5627SOL     OW17405   2.364   6.090   3.001  0.4783  0.3161  0.3743
 5627SOL    HW117406   2.414   6.093   3.082 -2.4987  1.5530  2.3017
 5627SOL    HW217407   2.364   6.180   2.969  0.1185  0.1856 -0.0055
 5628SOL     OW17408   3.291   5.921   0.757 -0.0471  0.2491  0.2441
 5628SOL    HW117409   3.384   5.919   0.780 -0.2788  0.7030  1.2781
 5628SOL    HW217410   3.246   5.896   0.837 -0.7911 -1.0476 -0.5495
 5629SOL     OW17411   0.109   1.739   0.771 -0.2968  0.2416 -0.0742
 5629SOL    HW117412   0.161   1.676   0.721 -0.5306 -1.2954  1.5117
 5629SOL    HW217413   0.113   1.707   0.861 -2.0277  1.4249  0.4784
 5630SOL     OW17414   1.268   6.113   1.190 -0.9111  0.3440 -0.1204
 5630SOL    HW117415   1.321   6.193   1.190  0.5228 -0.5640  0.1176
 5630SOL    HW217416   1.201   6.128   1.256  0.9461  0.3585  1.8513
 5631SOL     OW17417   0.519   3.029   2.960  0.1343 -0.0349 -0.1028
 5631SOL    HW117418   0.514   3.043   2.865 -1.4701  0.2312 -0.0095
 5631SOL    HW217419   0.480   2.943   2.974 -0.0779  0.1325  0.3584
 5632SOL     OW17420   6.344   3.995   2.257 -0.2968 -0.0995  0.6872
 5632SOL    HW117421   6.435   3.972   2.274  0.5482  2.3035 -0.2012
 5632SOL    HW217422   6.293   3.927   2.302  1.8988 -1.4797  1.2373
 5633SOL     OW17423   3.993   1.171   0.149 -0.0585  0.1758 -0.0171
 5633SOL    HW117424   3.988   1.129   0.236  1.4554 -0.3869 -0.1612
 5633SOL    HW217425   4.044   1.109   0.096  1.3908  1.7335 -0.5270
 5634SOL     OW17426   7.371   1.518   1.941  0.0166  0.5529  0.2334
 5634SOL    HW117427   7.434   1.562   1.884  0.8121 -0.6784  0.1506
 5634SOL    HW217428   7.293   1.507   1.885  0.2615  0.6996 -0.1453
 5635SOL     OW17429   0.517   1.294   3.830  0.4294 -0.2685 -0.0728
 5635SOL    HW117430   0.447   1.237   3.799  0.2276 -0.4164  0.6384
 5635SOL    HW217431   0.507   1.374   3.778 -0.1923 -0.3288 -0.0548
 5636SOL     OW17432   5.850   0.972   2.911  0.3252 -0.2424 -0.4972
 5636SOL    HW117433   5.843   0.881   2.938 -0.0041 -0.1572 -0.2885
 5636SOL    HW217434   5.944   0.991   2.915  0.2769 -0.1817  0.7992
 5637SOL     OW17435   7.328   5.111   2.539 -0.0470  0.3822 -0.3132
 5637SOL    HW117436   7.236   5.134   2.525  0.0796  0.1717 -1.6011
 5637SOL    HW217437   7.362   5.181   2.596 -1.3449 -0.3302  1.4255
 5638SOL     OW17438   4.296   1.919   3.010 -0.5192  0.8210  0.4306
 5638SOL    HW117439   4.324   1.832   3.038 -0.4794  0.5613 -0.3772
 5638SOL    HW217440   4.371   1.975   3.030 -0.2360  0.5205  0.2371
 5639SOL     OW17441   5.541   2.282   2.800 -0.1967 -0.1251 -0.0921
 5639SOL    HW117442   5.586   2.198   2.793 -1.6062 -0.8065 -1.5675
 5639SOL    HW217443   5.474   2.269   2.866 -0.2584 -0.0795 -0.1457
 5640SOL     OW17444   3.393   5.340   5.926 -0.2702 -0.1976  0.5911
 5640SOL    HW117445   3.322   5.402   5.942 -0.7113 -0.6719  0.4750
 5640SOL    HW217446   3.400   5.290   6.008 -0.0449 -0.1292  0.6151
 5641SOL     OW17447   2.089   2.322   0.493  0.1661 -0.1022  0.5919
 5641SOL    HW117448   2.074   2.307   0.400 -1.2809 -1.0637  0.9482
 5641SOL    HW217449   2.140   2.247   0.523 -1.1026 -0.8383  0.9643
 5642SOL     OW17450   0.428   7.115   2.845  0.0352  0.3124  0.3523
 5642SOL    HW117451   0.401   7.081   2.931  1.1743  0.1134  0.6420
 5642SOL    HW217452   0.385   7.200   2.839  0.3156  0.5382  1.3310
 5643SOL     OW17453   4.220   7.068   1.441 -0.1990 -0.4481 -0.6022
 5643SOL    HW117454   4.301   7.116   1.459 -0.8306  0.2602  0.4510
 5643SOL    HW217455   4.199   7.090   1.351 -0.8948  1.9608  0.0729
 5644SOL     OW17456   2.793   2.620   1.930  0.2860  0.6806  0.1162
 5644SOL    HW117457   2.806   2.615   1.835 -2.0195 -1.6728 -0.1872
 5644SOL    HW217458   2.698   2.610   1.942  0.3384  2.2806  2.6515
 5645SOL     OW17459   6.669   6.040   7.059  0.7092 -0.5076 -0.2268
 5645SOL    HW117460   6.729   5.968   7.081 -1.1054 -1.5272  1.7377
 5645SOL    HW217461   6.618   6.053   7.139  1.6022  3.6908 -0.1396
 5646SOL     OW17462   2.076   5.785   0.739 -0.0886 -0.0673  0.1777
 5646SOL    HW117463   2.075   5.699   0.780  0.4560 -0.4983 -0.6883
 5646SOL    HW217464   1.988   5.796   0.704  0.2490 -0.9504 -1.0354
 5647SOL     OW17465   2.035   4.669   1.183  0.0459  0.2652 -0.4063
 5647SOL    HW117466   1.980   4.746   1.169 -2.0201 -0.6358  1.9323
 5647SOL    HW217467   2.044   4.630   1.096  0.7440  2.7901 -1.5759
 5648SOL     OW17468   5.307   4.715   6.962 -0.3166  0.0559 -0.7019
 5648SOL    HW117469   5.305   4.620   6.953 -1.5471  0.2485 -3.2282
 5648SOL    HW217470   5.378   4.743   6.904 -1.7229  0.7959 -2.1432
 5649SOL     OW17471   1.254   5.413   6.039 -0.3110  0.0333  0.0116
 5649SOL    HW117472   1.298   5.341   6.084 -0.9346 -0.0512  0.4975
 5649SOL    HW217473   1.300   5.420   5.955  1.0143  0.3346  0.7323
 5650SOL     OW17474   0.242   3.585   5.227  0.3337  0.8585 -0.1143
 5650SOL    HW117475   0.259   3.653   5.293  1.1493  0.1588  0.4059
 5650SOL    HW217476   0.249   3.631   5.143  1.1628  1.3686  0.2232
 5651SOL     OW17477   2.035   1.471   5.497 -0.4930 -0.1084  0.1135
 5651SOL    HW117478   2.107   1.425   5.455 -0.5860 -0.9990  0.8942
 5651SOL    HW217479   2.077   1.522   5.567 -0.3429  1.3293 -0.9847
 5652SOL     OW17480   0.401   0.266   6.121 -0.2632 -0.4359  0.8373
 5652SOL    HW117481   0.450   0.286   6.041  2.0734 -2.9255  1.5173
 5652SOL    HW217482   0.326   0.326   6.118  1.0784  1.3283 -1.9047
 5653SOL     OW17483   6.885   1.268   3.603 -0.8134 -0.5813 -0.4637
 5653SOL    HW117484   6.846   1.354   3.590  2.7129  1.3088  0.2373
 5653SOL    HW217485   6.923   1.246   3.518 -0.4239 -0.7370 -0.2507
 5654SOL     OW17486   2.936   2.005   5.743  0.5724 -0.2847 -0.1597
 5654SOL    HW117487   3.004   2.061   5.779  0.8852 -0.5218 -0.3746
 5654SOL    HW217488   2.879   1.984   5.817  0.3323  0.4809 -0.1150
 5655SOL     OW17489   5.673   2.036   3.194 -0.3191 -0.2663 -0.5192
 5655SOL    HW117490   5.747   1.976   3.187  0.5060  0.7052 -0.3242
 5655SOL    HW217491   5.608   2.001   3.134 -0.0421 -1.6095 -0.0670
 5656SOL     OW17492   1.456   1.316   1.031  0.0965  0.5461  0.8624
 5656SOL    HW117493   1.372   1.270   1.033 -0.3156  1.1600 -0.5685
 5656SOL    HW217494   1.459   1.354   0.943  0.9674  2.1963  1.5710
 5657SOL     OW17495   3.375   4.332   5.017 -0.5235  0.6587 -0.2685
 5657SOL    HW117496   3.360   4.237   5.015  0.0353  0.5044  1.3095
 5657SOL    HW217497   3.470   4.341   5.014 -0.2610  0.8929  3.7167
 5658SOL     OW17498   0.288   5.241   5.380  0.2799 -0.0160 -0.3876
 5658SOL    HW117499   0.340   5.162   5.363 -0.3905 -0.5466  0.0025
 5658SOL    HW217500   0.295   5.254   5.474 -1.5738 -1.0090 -0.0799
 5659SOL     OW17501   1.089   5.275   6.276  0.1028  0.1930  0.3066
 5659SOL    HW117502   1.172   5.238   6.246  0.2238  0.1230  0.7279
 5659SOL    HW217503   1.113   5.337   6.345 -0.2309 -0.2085  0.7958
 5660SOL     OW17504   6.676   0.511   1.683 -0.5759 -0.5531  0.0921
 5660SOL    HW117505   6.741   0.562   1.731  0.8643 -1.9017 -0.3585
 5660SOL    HW217506   6.636   0.574   1.623 -0.2622  0.4711  0.9323
 5661SOL     OW17507   2.644   0.165   3.234  0.7460  0.4325  0.0910
 5661SOL    HW117508   2.594   0.142   3.312  1.8541  1.5518  1.1799
 5661SOL    HW217509   2.620   0.100   3.169 -2.1881  0.9744  0.5239
 5662SOL     OW17510   3.459   7.316   6.787  0.7027 -1.0159  0.2131
 5662SOL    HW117511   3.473   7.390   6.728  1.8408 -2.9565 -2.1336
 5662SOL    HW217512   3.467   7.353   6.874  0.2133  1.7842 -0.8231
 5663SOL     OW17513   1.971   5.567   0.491  1.0358  0.1124  0.1103
 5663SOL    HW117514   1.876   5.561   0.504  0.8649  1.8641 -0.1309
 5663SOL    HW217515   2.004   5.481   0.518 -0.4582 -0.0729  1.5219
 5664SOL     OW17516   7.155   4.812   2.603 -0.1729 -0.2095 -0.3140
 5664SOL    HW117517   7.242   4.834   2.571  1.0353  0.0869  2.8450
 5664SOL    HW217518   7.098   4.882   2.572  0.8978  0.1430 -1.5346
 5665SOL     OW17519   5.012   1.239   5.546 -0.3815 -0.1601 -0.5976
 5665SOL    HW117520   5.014   1.145   5.530  1.7388 -0.0978 -0.9887
 5665SOL    HW217521   4.921   1.258   5.568 -0.9707 -2.1921 -1.0999
 5666SOL     OW17522   5.800   1.368   2.960 -0.0568  0.1783  0.6376
 5666SOL    HW117523   5.836   1.383   2.872  0.4282 -1.4260  0.5337
 5666SOL    HW217524   5.806   1.274   2.972 -0.8462  0.2971  2.1032
 5667SOL     OW17525   2.349   6.653   1.871  0.3296 -0.0273  0.1636
 5667SOL    HW117526   2.434   6.624   1.838  0.8602  0.7179  0.8433
 5667SOL    HW217527   2.315   6.578   1.919 -0.3980 -1.0923 -1.9048
 5668SOL     OW17528   3.515   7.396   7.058 -0.0836 -0.1615 -0.1814
 5668SOL    HW117529   3.522   7.343   7.137  0.3130  0.2083  0.0355
 5668SOL    HW217530   3.446   7.459   7.077  0.5666  0.4470  0.1771
 5669SOL     OW17531   4.214   7.018   3.624 -0.0133 -0.2297  0.4371
 5669SOL    HW117532   4.176   7.106   3.630  1.8913  0.8956 -1.9156
 5669SOL    HW217533   4.157   6.963   3.678 -1.4444  2.3744  1.7768
 5670SOL     OW17534   3.512   1.201   2.937  0.6003 -0.3191  0.6019
 5670SOL    HW117535   3.526   1.217   3.030  0.9734 -1.5904  0.7790
 5670SOL    HW217536   3.499   1.288   2.900  0.0209  0.1792  1.9034
 5671SOL     OW17537   3.439   2.597   5.455  0.1508  0.0732 -0.4149
 5671SOL    HW117538   3.420   2.507   5.480  0.7012  0.0209 -0.1879
 5671SOL    HW217539   3.413   2.649   5.531 -0.6335  0.1588 -0.7306
 5672SOL     OW17540   0.063   7.121   1.812  0.1664 -0.8211 -0.4345
 5672SOL    HW117541   0.044   7.181   1.741  0.3147 -1.6279 -1.1656
 5672SOL    HW217542  -0.014   7.065   1.818  0.2270 -0.8692 -0.0717
 5673SOL     OW17543   4.783   6.696   4.723  0.7208 -0.6649  0.5951
 5673SOL    HW117544   4.711   6.728   4.778 -0.9534 -0.3643 -1.6147
 5673SOL    HW217545   4.777   6.601   4.729 -0.0786 -0.6508  0.2261
 5674SOL     OW17546   6.016   0.522   5.047 -0.3503  0.4635 -0.1662
 5674SOL    HW117547   6.069   0.533   4.968 -0.0049  1.2249  0.1586
 5674SOL    HW217548   6.068   0.463   5.102 -0.6583 -0.1792 -0.5683
 5675SOL     OW17549   2.869   3.543   4.043  0.4238 -0.1053  0.6367
 5675SOL    HW117550   2.912   3.624   4.069  1.0381  0.0655 -0.8333
 5675SOL    HW217551   2.779   3.570   4.021 -0.0142 -0.2035  2.1756
 5676SOL     OW17552   6.743   5.235   1.769 -0.1511  0.3155  0.6592
 5676SOL    HW117553   6.720   5.175   1.840  2.1299 -2.2886 -0.5954
 5676SOL    HW217554   6.691   5.205   1.695 -0.8085  1.5270  0.6077
 5677SOL     OW17555   3.291   1.677   3.909 -0.1960 -0.1310 -0.3800
 5677SOL    HW117556   3.383   1.694   3.890 -0.2374  2.4650  1.1963
 5677SOL    HW217557   3.288   1.587   3.942  1.9637  0.1144  0.6161
 5678SOL     OW17558   6.119   5.424   5.551  0.4720 -0.2503  0.1076
 5678SOL    HW117559   6.144   5.477   5.627  0.6892  1.8336 -1.3023
 5678SOL    HW217560   6.058   5.359   5.585 -0.3779  1.3738  1.8829
 5679SOL     OW17561   1.987   4.871   6.711  0.1324 -0.3667  0.6631
 5679SOL    HW117562   1.969   4.964   6.726 -2.6170 -0.0423 -3.0803
 5679SOL    HW217563   1.901   4.829   6.710  0.7926 -1.9738 -2.1872
 5680SOL     OW17564   0.907   6.250   0.005 -0.1256  0.2593 -0.1110
 5680SOL    HW117565   0.977   6.186  -0.001  0.6344  0.7833  2.3712
 5680SOL    HW217566   0.827   6.198   0.012  0.1690 -0.3505 -1.0808
 5681SOL     OW17567   0.455   2.040   7.562  0.1534  0.0741  0.4397
 5681SOL    HW117568   0.420   2.034   7.473 -1.0811  1.4343  0.7930
 5681SOL    HW217569   0.439   2.131   7.588  2.3907  0.2783  1.3084
 5682SOL     OW17570   7.205   5.754   7.417  0.0868 -0.2199  0.1248
 5682SOL    HW117571   7.296   5.771   7.442  0.0272  0.6950 -0.2304
 5682SOL    HW217572   7.188   5.815   7.345 -1.2441  0.7111  1.1591
 5683SOL     OW17573   1.439   6.659   2.302 -0.6866 -0.4699  0.0496
 5683SOL    HW117574   1.393   6.654   2.386 -1.9918 -1.4686 -0.6857
 5683SOL    HW217575   1.449   6.753   2.286 -1.6449 -0.2406  0.6904
 5684SOL     OW17576   0.759   6.323   1.963  0.2178  0.2365  0.4196
 5684SOL    HW117577   0.808   6.316   2.045 -0.6969  1.9556  1.1469
 5684SOL    HW217578   0.722   6.411   1.964 -2.1158 -0.6669 -0.5269
 5685SOL     OW17579   4.459   3.374   6.389 -0.7054 -0.5399  0.0746
 5685SOL    HW117580   4.549   3.349   6.407 -1.1215 -0.8545  1.8895
 5685SOL    HW217581   4.448   3.458   6.432 -1.3853 -0.6874  0.2020
 5686SOL     OW17582   5.428   2.631   3.526  0.0582 -0.3093  0.1144
 5686SOL    HW117583   5.512   2.585   3.527 -0.6052 -1.5981 -0.1040
 5686SOL    HW217584   5.428   2.683   3.607  1.6408  0.8642 -0.5918
 5687SOL     OW17585   4.956   4.442   3.069 -0.0677 -0.1292  0.1239
 5687SOL    HW117586   4.936   4.535   3.061 -2.6927 -0.4440  1.6700
 5687SOL    HW217587   4.927   4.404   2.986  1.3915  0.4111 -0.6790
 5688SOL     OW17588   2.404   1.868   4.431  0.3561 -0.0023 -0.3007
 5688SOL    HW117589   2.396   1.782   4.474 -1.1340  0.6761  0.8841
 5688SOL    HW217590   2.314   1.901   4.428  0.9734  1.7905 -0.1459
 5689SOL     OW17591   0.102   5.275   5.908  0.0537  0.7336  0.5288
 5689SOL    HW117592   0.149   5.348   5.868  0.6594  0.1739  0.1883
 5689SOL    HW217593   0.010   5.290   5.885  0.3404  0.6282 -0.7823
 5690SOL     OW17594   1.933   4.066   0.851 -0.6039  0.1699  0.3579
 5690SOL    HW117595   2.009   4.086   0.905  0.4387 -0.2936 -0.8872
 5690SOL    HW217596   1.899   3.985   0.887 -0.1726  0.0914  0.5952
 5691SOL     OW17597   1.644   2.747   3.709  0.1791 -0.1852  0.4503
 5691SOL    HW117598   1.731   2.777   3.736 -0.4389  2.3313 -0.1167
 5691SOL    HW217599   1.655   2.720   3.618  0.3253  0.3086  0.3214
 5692SOL     OW17600   2.188   0.509   2.825  0.2256  0.5238 -0.3511
 5692SOL    HW117601   2.128   0.537   2.756  0.6178 -0.2523 -1.0270
 5692SOL    HW217602   2.155   0.551   2.904 -0.1575  1.5386 -1.0285
 5693SOL     OW17603   3.109   2.353   0.724  0.3950  0.6192  0.5933
 5693SOL    HW117604   3.197   2.315   0.728  0.5286  0.7317 -0.7404
 5693SOL    HW217605   3.077   2.349   0.814  0.8652 -1.5619  0.7047
 5694SOL     OW17606   7.400   1.345   4.432  0.2442  0.4978  0.5237
 5694SOL    HW117607   7.431   1.311   4.515 -1.1181 -0.8786  0.5037
 5694SOL    HW217608   7.355   1.272   4.390  0.1253  1.4040 -1.0322
 5695SOL     OW17609   5.639   4.320   4.473  0.1447 -0.0247  0.7800
 5695SOL    HW117610   5.666   4.371   4.549  0.5675 -0.1011  0.6835
 5695SOL    HW217611   5.604   4.384   4.411  1.5842  0.2907  0.2532
 5696SOL     OW17612   1.290   3.711   0.598 -0.7871  0.2274  0.0330
 5696SOL    HW117613   1.361   3.673   0.546 -0.0951  0.7227  0.5923
 5696SOL    HW217614   1.328   3.791   0.636 -1.4227  0.1436  0.8835
 5697SOL     OW17615   4.469   0.967   3.624 -0.0489  0.1282  0.0603
 5697SOL    HW117616   4.540   0.923   3.670  1.1706  1.7376 -0.1714
 5697SOL    HW217617   4.468   0.928   3.537  2.2325  1.6830 -0.7593
 5698SOL     OW17618   7.042   1.048   2.926  0.2839 -0.2808 -0.1641
 5698SOL    HW117619   7.114   1.007   2.974  0.3376 -0.4258 -0.3665
 5698SOL    HW217620   7.085   1.095   2.854  0.4746  2.3410  1.5392
 5699SOL     OW17621   1.889   2.335   6.567  1.0411 -0.2092  0.0858
 5699SOL    HW117622   1.932   2.254   6.592  1.1650 -0.1220  0.1575
 5699SOL    HW217623   1.855   2.319   6.479 -0.9625 -1.1363  0.9672
 5700SOL     OW17624   5.332   2.149   7.002  0.6224 -0.2918  0.5318
 5700SOL    HW117625   5.253   2.185   6.962  2.4974  2.7590 -0.7781
 5700SOL    HW217626   5.320   2.162   7.096 -0.5026 -0.0935  0.3711
 5701SOL     OW17627   1.150   2.621   3.766  0.3380  0.4819 -0.3644
 5701SOL    HW117628   1.128   2.712   3.747  0.7422  0.2956 -1.8136
 5701SOL    HW217629   1.235   2.607   3.724 -0.6477 -1.1347 -2.0009
 5702SOL     OW17630   2.837   0.817   4.724 -0.9482  0.0204 -0.2951
 5702SOL    HW117631   2.860   0.756   4.795  0.1276  0.8557  0.1080
 5702SOL    HW217632   2.868   0.775   4.644 -1.1673 -0.4349 -0.1400
 5703SOL     OW17633   4.600   0.155   1.844  0.3305  0.6916  0.0084
 5703SOL    HW117634   4.573   0.072   1.884  2.2916  0.1685  0.3613
 5703SOL    HW217635   4.610   0.136   1.751  1.4533  0.3243  0.1941
 5704SOL     OW17636   5.252   6.177   1.303  0.1242 -0.0700  0.3679
 5704SOL    HW117637   5.203   6.219   1.233 -0.0462 -0.1295  0.4508
 5704SOL    HW217638   5.188   6.120   1.346  0.6421 -1.3821 -0.5303
 5705SOL     OW17639   2.232   2.816   0.004  0.2793  0.3124  0.3481
 5705SOL    HW117640   2.271   2.796   0.089  1.3994 -1.4962 -0.5320
 5705SOL    HW217641   2.307   2.827  -0.055 -0.5012 -0.1843 -0.7668
 5706SOL     OW17642   1.290   2.958   1.178  0.2102  0.5561 -0.1234
 5706SOL    HW117643   1.253   3.040   1.145  0.5818  0.9281  0.3723
 5706SOL    HW217644   1.319   2.979   1.267 -2.0043 -0.7764  0.9907
 5707SOL     OW17645   6.341   6.247   0.769  0.0864 -0.1574 -0.1765
 5707SOL    HW117646   6.311   6.274   0.682  0.5347  0.5371 -0.1214
 5707SOL    HW217647   6.382   6.325   0.806  1.6931 -0.9602 -0.1371
 5708SOL     OW17648   6.659   7.535   5.858  0.2756 -0.3189 -0.4225
 5708SOL    HW117649   6.721   7.607   5.865  0.2351 -0.4165  2.1878
 5708SOL    HW217650   6.655   7.514   5.765  1.5533  1.9237 -1.0445
 5709SOL     OW17651   5.486   0.049   6.851 -0.0320 -0.0520 -0.0866
 5709SOL    HW117652   5.567   0.055   6.801  0.1257 -0.4656  0.1138
 5709SOL    HW217653   5.417   0.060   6.786  0.1687 -0.6275 -0.4070
 5710SOL     OW17654   0.921   1.329   0.152  0.2928 -0.0524 -0.3804
 5710SOL    HW117655   0.915   1.419   0.122 -0.3879 -0.4391 -1.4507
 5710SOL    HW217656   0.866   1.326   0.231 -1.1693  0.0575 -1.3729
 5711SOL     OW17657   5.455   0.078   1.320 -0.3632  0.1748  0.4259
 5711SOL    HW117658   5.517   0.103   1.388 -0.7684 -0.6093  1.0993
 5711SOL    HW217659   5.407   0.004   1.357  0.0796 -0.9145 -1.0943
 5712SOL     OW17660   2.432   2.003   0.463  0.2736  0.0252 -0.2487
 5712SOL    HW117661   2.525   2.018   0.474  0.3172  0.2397 -0.9007
 5712SOL    HW217662   2.411   1.936   0.529  0.7321  0.5093  0.3967
 5713SOL     OW17663   3.638   3.157   2.533  0.0142 -0.2310 -0.2712
 5713SOL    HW117664   3.680   3.225   2.480  1.4900 -0.1635  0.8979
 5713SOL    HW217665   3.564   3.127   2.481  0.5624  0.8315 -1.7128
 5714SOL     OW17666   2.669   3.434   7.265 -0.7703 -0.1425 -0.6010
 5714SOL    HW117667   2.728   3.445   7.191  0.6069  1.1831  0.6293
 5714SOL    HW217668   2.699   3.498   7.330 -2.1220 -1.0259  0.9859
 5715SOL     OW17669   7.084   4.961   3.465  0.1788 -0.0245  0.5287
 5715SOL    HW117670   7.095   5.003   3.551  2.5131 -0.5200  0.5207
 5715SOL    HW217671   7.099   5.032   3.402 -3.3077  0.7903  0.3876
 5716SOL     OW17672   2.375   6.146   1.046 -0.4177 -0.1160  0.3443
 5716SOL    HW117673   2.394   6.098   0.966  0.2719  0.7957 -0.0599
 5716SOL    HW217674   2.444   6.120   1.107 -1.1715 -1.1174  0.8002
 5717SOL     OW17675   1.642   3.979   3.794  0.4343  0.2713  0.0462
 5717SOL    HW117676   1.716   3.979   3.855  0.8083  0.2456 -0.4014
 5717SOL    HW217677   1.647   3.895   3.749  1.0294  0.8599 -1.0388
 5718SOL     OW17678   1.376   1.278   0.368  0.8500  0.0082  0.5962
 5718SOL    HW117679   1.288   1.248   0.346  2.0201 -1.8197 -2.2118
 5718SOL    HW217680   1.398   1.233   0.450  0.1677 -1.7952 -0.1628
 5719SOL     OW17681   5.692   2.047   0.663 -0.4995 -0.6888  0.1091
 5719SOL    HW117682   5.744   2.125   0.685  0.5061 -1.2849 -0.0550
 5719SOL    HW217683   5.655   2.018   0.746  0.4064 -0.9232  0.4430
 5720SOL     OW17684   2.080   6.618   0.076 -0.6010 -0.0619 -0.9350
 5720SOL    HW117685   2.034   6.570   0.007 -1.3614 -0.0653 -0.4427
 5720SOL    HW217686   2.106   6.700   0.035 -0.3365 -0.4042 -1.4514
 5721SOL     OW17687   3.974   7.328   1.611 -0.0709  0.2155 -0.3062
 5721SOL    HW117688   3.885   7.337   1.644 -0.2608 -1.3431 -0.3455
 5721SOL    HW217689   3.965   7.336   1.516  0.0190  1.2547 -0.2457
 5722SOL     OW17690   4.622   5.182   0.688  0.0792 -0.1875 -0.1793
 5722SOL    HW117691   4.705   5.175   0.734 -2.0193 -0.6119  4.0483
 5722SOL    HW217692   4.600   5.092   0.663  0.6228 -0.1221 -0.9450
 5723SOL     OW17693   1.890   6.176   5.746  0.5758 -0.1655 -0.2813
 5723SOL    HW117694   1.891   6.214   5.658 -1.4002  0.6566 -0.0091
 5723SOL    HW217695   1.947   6.233   5.797  0.3787  0.3833 -0.6574
 5724SOL     OW17696   2.200   6.896   4.396 -0.1641  0.0874 -0.3779
 5724SOL    HW117697   2.235   6.818   4.354 -2.0024 -0.8698 -0.1887
 5724SOL    HW217698   2.120   6.916   4.347  0.7892  2.4969 -1.0994
 5725SOL     OW17699   3.937   4.075   6.698  0.2009  0.6312  0.2621
 5725SOL    HW117700   3.989   4.022   6.759 -0.5382 -0.1134  0.2717
 5725SOL    HW217701   4.001   4.129   6.652  1.1771 -1.2530 -0.7192
 5726SOL     OW17702   3.663   6.582   1.072  0.1151  0.1558 -0.1160
 5726SOL    HW117703   3.716   6.576   0.992  0.5454  0.6542  0.1245
 5726SOL    HW217704   3.574   6.597   1.040  0.4532  1.5704 -0.5079
 5727SOL     OW17705   7.382   1.864   4.086 -0.4949  0.2679 -0.2330
 5727SOL    HW117706   7.463   1.856   4.136 -0.0554  0.7592 -0.8459
 5727SOL    HW217707   7.356   1.956   4.096 -1.0083  0.0985  0.0095
 5728SOL     OW17708   1.956   4.767   7.459 -0.0290  0.1183  0.3756
 5728SOL    HW117709   1.973   4.779   7.552 -1.3434  0.5613  0.5885
 5728SOL    HW217710   1.869   4.727   7.456  0.9409 -2.0601 -0.5997
 5729SOL     OW17711   2.121   3.467   5.420  0.2822 -0.1690  0.4087
 5729SOL    HW117712   2.092   3.422   5.341  2.1484 -0.3738 -0.2168
 5729SOL    HW217713   2.110   3.403   5.490 -0.3719 -0.3586  0.1382
 5730SOL     OW17714   1.686   1.614   6.228 -0.5110  0.0838  0.2952
 5730SOL    HW117715   1.735   1.696   6.222 -0.5982  0.0455 -1.5136
 5730SOL    HW217716   1.620   1.621   6.159  0.1846 -1.9578 -0.6546
 5731SOL     OW17717   1.053   3.299   2.492  0.0210 -0.1895  0.1280
 5731SOL    HW117718   1.015   3.258   2.569 -1.9247  1.7734  0.3183
 5731SOL    HW217719   0.981   3.301   2.428  0.5049  1.4318 -0.4120
 5732SOL     OW17720   5.096   7.352   1.444 -0.2888  0.0293 -0.3439
 5732SOL    HW117721   5.075   7.260   1.462 -0.7238 -0.5424 -3.2432
 5732SOL    HW217722   5.035   7.402   1.498 -1.5357 -1.4277 -0.3423
 5733SOL     OW17723   6.814   2.131   0.056 -0.3361 -0.3830 -0.4893
 5733SOL    HW117724   6.848   2.202   0.002  1.3610 -1.2554 -0.6541
 5733SOL    HW217725   6.781   2.067  -0.007  0.9645 -1.0715 -0.5095
 5734SOL     OW17726   1.266   3.424   5.326 -0.2506  0.2343 -0.0252
 5734SOL    HW117727   1.223   3.491   5.379  0.9237 -0.1830  1.5246
 5734SOL    HW217728   1.252   3.342   5.374  0.0315 -0.3185 -0.8570
 5735SOL     OW17729   7.276   2.616   5.038 -0.4270 -0.1562  0.4053
 5735SOL    HW117730   7.263   2.700   5.082 -0.3754 -0.2580  0.6199
 5735SOL    HW217731   7.361   2.585   5.070  0.4494  0.5916 -1.1308
 5736SOL     OW17732   3.063   1.811   3.904  0.0288  0.0030  0.2426
 5736SOL    HW117733   3.049   1.883   3.842 -0.0262  0.7315  1.0879
 5736SOL    HW217734   3.149   1.776   3.881  0.2292  0.5898  0.0731
 5737SOL     OW17735   5.927   0.237   0.450 -0.5635 -0.4321 -0.2118
 5737SOL    HW117736   5.976   0.197   0.378 -0.8609  0.4883 -0.9508
 5737SOL    HW217737   5.849   0.182   0.460 -0.4673 -0.6287 -0.5243
 5738SOL     OW17738   2.469   2.907   1.126  0.6789 -0.4260  0.4314
 5738SOL    HW117739   2.561   2.890   1.103  0.3009 -1.5940 -0.3257
 5738SOL    HW217740   2.454   2.998   1.098  1.5397 -0.3004  0.3460
 5739SOL     OW17741   6.847   6.154   1.530  0.5877  0.0293 -0.0659
 5739SOL    HW117742   6.819   6.088   1.467 -1.7656  1.3198 -0.4635
 5739SOL    HW217743   6.782   6.150   1.600  0.0621  2.2017 -0.3453
 5740SOL     OW17744   3.351   5.857   1.535 -0.4802  0.2888  0.1827
 5740SOL    HW117745   3.413   5.914   1.490 -0.4389  0.5771  0.5987
 5740SOL    HW217746   3.265   5.898   1.519 -0.7055 -0.6463 -1.2330
 5741SOL     OW17747   2.835   4.898   5.954 -0.6131 -0.3821 -0.0818
 5741SOL    HW117748   2.902   4.851   6.004  2.5403  1.2187 -2.4466
 5741SOL    HW217749   2.829   4.984   5.996 -0.7375 -0.3139 -0.2352
 5742SOL     OW17750   5.530   1.495   1.923  0.0495 -0.3213  0.0429
 5742SOL    HW117751   5.471   1.421   1.937  1.5327 -1.5218  0.2167
 5742SOL    HW217752   5.480   1.572   1.953 -1.2123 -1.3405  0.6531
 5743SOL     OW17753   1.774   3.491   2.685  0.2930 -0.2160  0.2247
 5743SOL    HW117754   1.752   3.462   2.596  0.0106 -0.4730  0.3758
 5743SOL    HW217755   1.808   3.412   2.727 -2.6210 -1.0023  1.3665
 5744SOL     OW17756   3.618   3.069   7.136 -0.1983 -0.0889 -0.1315
 5744SOL    HW117757   3.555   3.022   7.082  0.1275 -1.1160  0.3689
 5744SOL    HW217758   3.662   3.001   7.187  1.5632  0.5693 -0.7044
 5745SOL     OW17759   3.514   0.520   6.373 -0.4014 -0.1172 -0.3039
 5745SOL    HW117760   3.479   0.488   6.456 -0.9826 -1.2240 -0.9551
 5745SOL    HW217761   3.492   0.614   6.373 -0.4094 -0.1108  0.7727
 5746SOL     OW17762   3.521   5.853   2.298 -0.4057  0.6235 -0.2080
 5746SOL    HW117763   3.471   5.826   2.375  0.1181 -0.2613 -0.1708
 5746SOL    HW217764   3.571   5.929   2.327  1.1249 -0.7401  0.8562
 5747SOL     OW17765   3.831   3.937   3.040 -0.0905 -0.5062 -0.6292
 5747SOL    HW117766   3.906   3.882   3.061  0.7309  0.5470 -0.7269
 5747SOL    HW217767   3.848   4.019   3.085 -1.7785 -0.6327  0.3281
 5748SOL     OW17768   0.358   4.522   3.567 -0.5162  0.3102  0.0302
 5748SOL    HW117769   0.416   4.543   3.641  1.2432  0.3837 -1.3131
 5748SOL    HW217770   0.331   4.607   3.532  0.1908  0.3032 -0.5533
 5749SOL     OW17771   3.669   4.910   2.313  0.2880 -0.2709 -0.5597
 5749SOL    HW117772   3.634   4.977   2.372 -0.3237 -0.1835 -1.0150
 5749SOL    HW217773   3.670   4.951   2.227 -0.8888 -1.1055 -0.9945
 5750SOL     OW17774   0.007   4.419   0.499 -0.2124  0.4806  0.2119
 5750SOL    HW117775   0.085   4.438   0.551  0.6512  1.6193 -1.4033
 5750SOL    HW217776  -0.058   4.483   0.530 -0.4392 -0.2410  1.3135
 5751SOL     OW17777   5.538   4.481   0.264 -0.4878  0.1616 -0.3177
 5751SOL    HW117778   5.442   4.473   0.264 -0.4905  0.1964 -0.0778
 5751SOL    HW217779   5.565   4.443   0.347 -0.2698 -0.1131 -0.5161
 5752SOL     OW17780   6.503   7.024   4.518 -0.5154  0.3570  0.0133
 5752SOL    HW117781   6.524   6.954   4.580  0.9857  1.6758  1.0711
 5752SOL    HW217782   6.550   7.100   4.551 -2.1243  1.9002 -1.0892
 5753SOL     OW17783   2.283   2.571   0.479 -0.5889 -0.3669  0.4541
 5753SOL    HW117784   2.320   2.553   0.393 -1.9778  0.7045 -0.4182
 5753SOL    HW217785   2.239   2.490   0.505  0.2596 -0.8521  0.4013
 5754SOL     OW17786   0.632   5.379   3.236 -0.6574 -0.3074  0.0512
 5754SOL    HW117787   0.717   5.413   3.205 -0.7910 -1.0674 -1.2379
 5754SOL    HW217788   0.647   5.358   3.328  0.1558  0.8288  0.2135
 5755SOL     OW17789   5.528   0.853   3.531 -0.0240  0.1670  0.2878
 5755SOL    HW117790   5.608   0.892   3.566  1.1349 -0.7543 -1.2180
 5755SOL    HW217791   5.497   0.795   3.600  2.9187 -2.6229 -0.4826
 5756SOL     OW17792   5.602   6.126   2.070  0.9412  0.0863  0.3166
 5756SOL    HW117793   5.628   6.112   2.161  2.5212 -0.5403 -0.2146
 5756SOL    HW217794   5.653   6.201   2.041 -0.9978  1.5578  0.4892
 5757SOL     OW17795   4.430   1.466   6.441 -0.6686 -0.0200  0.2013
 5757SOL    HW117796   4.459   1.377   6.421  0.5012 -0.4343  3.1256
 5757SOL    HW217797   4.450   1.516   6.362 -0.3951 -2.1276 -1.1565
 5758SOL     OW17798   3.996   3.771   1.416 -0.6277 -0.6546  0.2702
 5758SOL    HW117799   3.940   3.768   1.338  0.2899  1.9914 -0.6065
 5758SOL    HW217800   4.072   3.718   1.393 -0.9088 -0.8942 -0.1254
 5759SOL     OW17801   2.685   3.391   5.664  0.1061  0.0955  0.1832
 5759SOL    HW117802   2.591   3.375   5.669  0.3361 -1.5305 -0.0645
 5759SOL    HW217803   2.693   3.475   5.619 -1.2014 -0.3768 -0.9985
 5760SOL     OW17804   4.469   0.763   6.583  0.1648 -0.9254 -0.6764
 5760SOL    HW117805   4.379   0.736   6.598  0.6445 -2.6341 -0.6261
 5760SOL    HW217806   4.469   0.858   6.597 -1.4245 -1.0272  0.2042
 5761SOL     OW17807   7.054   1.021   4.724 -0.1544 -0.5104 -0.0968
 5761SOL    HW117808   7.080   0.947   4.670  0.5819 -0.0257 -0.4218
 5761SOL    HW217809   7.017   0.982   4.804 -0.4523 -1.2191 -0.5753
 5762SOL     OW17810   4.403   7.112   1.844  0.8907  0.3261  0.3268
 5762SOL    HW117811   4.319   7.152   1.821  0.9524  0.6040  0.5816
 5762SOL    HW217812   4.410   7.036   1.786  1.6242  1.7112 -1.4802
 5763SOL     OW17813   3.401   0.383   2.371 -0.6513 -0.2833 -0.7942
 5763SOL    HW117814   3.450   0.350   2.446  1.1704  0.2032 -1.7315
 5763SOL    HW217815   3.385   0.475   2.393 -2.7813 -0.8259  0.2890
 5764SOL     OW17816   4.693   3.503   2.763 -0.4363 -0.0513 -0.4886
 5764SOL    HW117817   4.757   3.575   2.758 -1.4037  0.8134 -0.9406
 5764SOL    HW217818   4.609   3.547   2.773 -0.9341 -1.1874  0.4839
 5765SOL     OW17819   5.229   5.641   3.344  0.4564 -0.1461  0.1047
 5765SOL    HW117820   5.260   5.590   3.269  0.4147  2.2524 -1.6770
 5765SOL    HW217821   5.181   5.578   3.397 -1.0227 -1.6963 -2.7750
 5766SOL     OW17822   3.710   2.753   4.804 -0.0910 -0.0232 -0.4257
 5766SOL    HW117823   3.740   2.828   4.855 -1.5973  0.9596 -0.9127
 5766SOL    HW217824   3.727   2.778   4.713 -0.3214 -0.4074 -0.5756
 5767SOL     OW17825   1.065   7.383   5.734  0.5026 -0.1262  0.0996
 5767SOL    HW117826   1.077   7.310   5.674 -1.9817 -0.1441 -0.4950
 5767SOL    HW217827   1.077   7.345   5.821 -0.3215 -1.1663 -0.2176
 5768SOL     OW17828   5.895   6.299   7.162 -0.0422 -0.6871  0.1060
 5768SOL    HW117829   5.976   6.300   7.214 -0.5124  1.4626  0.9229
 5768SOL    HW217830   5.926   6.295   7.072  1.0157  0.1235  0.4002
 5769SOL     OW17831   5.318   1.782   3.964 -0.0797 -0.7540  0.4168
 5769SOL    HW117832   5.258   1.847   3.999 -2.1394 -3.9814  3.5601
 5769SOL    HW217833   5.304   1.785   3.869 -1.4329  1.9783  0.5970
 5770SOL     OW17834   5.736   5.615   5.353 -0.3408  0.0403  0.2181
 5770SOL    HW117835   5.680   5.611   5.431 -1.1806 -1.4192 -0.4173
 5770SOL    HW217836   5.683   5.660   5.287 -0.3993 -0.4542 -0.0808
 5771SOL     OW17837   2.779   0.946   3.166 -0.1831 -0.1611 -0.1052
 5771SOL    HW117838   2.837   1.015   3.200 -0.7838  0.1592  0.2840
 5771SOL    HW217839   2.839   0.882   3.128  0.5866 -0.7614  1.9385
 5772SOL     OW17840   0.701   3.567   0.011 -0.3217  0.4981 -0.4611
 5772SOL    HW117841   0.738   3.571  -0.077 -0.7991  2.3928 -0.6125
 5772SOL    HW217842   0.722   3.479   0.042 -0.5565 -0.3717 -2.6354
 5773SOL     OW17843   1.856   7.035   2.473  0.5272  0.7743  0.0728
 5773SOL    HW117844   1.889   7.009   2.387  0.6524  0.7067  0.1404
 5773SOL    HW217845   1.767   7.064   2.457  0.4649  0.5190 -0.0403
 5774SOL     OW17846   1.278   7.426   0.817 -0.5648 -0.1692  0.5718
 5774SOL    HW117847   1.195   7.443   0.772 -0.0786  1.3375  0.1897
 5774SOL    HW217848   1.337   7.396   0.747 -0.9908 -2.1325  0.9881
 5775SOL     OW17849   4.622   4.903   4.663 -0.6238 -0.0720 -0.5228
 5775SOL    HW117850   4.712   4.889   4.633 -0.0789  0.9083  0.5412
 5775SOL    HW217851   4.571   4.837   4.618  0.8433 -1.5554 -0.1331
 5776SOL     OW17852   3.432   0.762   3.739  0.5417 -0.0181 -0.0989
 5776SOL    HW117853   3.495   0.690   3.730 -1.4505 -1.6809 -1.6602
 5776SOL    HW217854   3.466   0.831   3.682  1.1951 -0.6984 -0.5503
 5777SOL     OW17855   6.967   7.130   2.322 -0.3234  0.1610 -0.3705
 5777SOL    HW117856   7.001   7.069   2.257 -2.9383 -2.6008  0.6293
 5777SOL    HW217857   6.910   7.189   2.272  0.6151  0.5221 -1.0534
 5778SOL     OW17858   6.805   4.569   6.460 -0.0242  0.1114  0.6104
 5778SOL    HW117859   6.771   4.529   6.540 -0.3383  1.3556  1.1182
 5778SOL    HW217860   6.773   4.512   6.390  1.8379 -2.1012  1.4299
 5779SOL     OW17861   4.986   4.840   5.332  0.3115  0.0861  0.1975
 5779SOL    HW117862   4.891   4.846   5.332  0.3264  0.4615  1.1592
 5779SOL    HW217863   5.010   4.830   5.424  1.2818  1.3144  0.1079
 5780SOL     OW17864   7.553   6.489   4.291 -0.1143 -0.9126  0.7750
 5780SOL    HW117865   7.533   6.398   4.313 -3.2144 -0.3511  0.6508
 5780SOL    HW217866   7.556   6.491   4.195  0.2022 -0.9165  0.7833
 5781SOL     OW17867   0.777   6.928   0.161  0.1015  0.1758 -0.0085
 5781SOL    HW117868   0.767   6.833   0.167 -0.2715  0.2890  1.6436
 5781SOL    HW217869   0.872   6.942   0.154  0.4195 -0.2784  2.3546
 5782SOL     OW17870   4.689   3.796   6.140 -0.2841 -0.4915 -0.2137
 5782SOL    HW117871   4.748   3.743   6.194 -0.3832  0.1189  0.5211
 5782SOL    HW217872   4.625   3.831   6.203  0.7084  1.7945 -0.3721
 5783SOL     OW17873   1.841   1.350   1.044  0.4522 -0.1040 -0.0485
 5783SOL    HW117874   1.769   1.412   1.031  0.9947  0.5243 -0.1398
 5783SOL    HW217875   1.919   1.406   1.052  0.7220 -0.6856  1.6561
 5784SOL     OW17876   3.111   1.397   4.696  0.1807 -0.9432 -0.2343
 5784SOL    HW117877   3.023   1.390   4.660 -0.2650  1.3236  0.2649
 5784SOL    HW217878   3.166   1.417   4.620 -0.3872  1.4624 -0.0835
 5785SOL     OW17879   0.497   4.803   5.253  0.5640  0.1020  0.3913
 5785SOL    HW117880   0.490   4.878   5.312  0.4033 -1.0341  1.8579
 5785SOL    HW217881   0.438   4.737   5.290 -0.2284 -0.3552 -1.5256
 5786SOL     OW17882   1.043   5.682   6.304  0.1206 -0.2698  0.1700
 5786SOL    HW117883   1.052   5.587   6.307 -0.7624 -0.3573  0.7043
 5786SOL    HW217884   1.005   5.704   6.389 -1.1558  0.3764 -0.5322
 5787SOL     OW17885   0.043   4.864   6.089  0.4192  0.2805 -0.2586
 5787SOL    HW117886   0.133   4.893   6.071  0.7489 -1.1162 -1.0829
 5787SOL    HW217887   0.047   4.768   6.080 -1.2946  0.2378 -0.9494
 5788SOL     OW17888   6.525   1.544   1.923  0.4537  0.0771  0.8020
 5788SOL    HW117889   6.489   1.516   1.839 -0.1768  0.1533  1.0394
 5788SOL    HW217890   6.619   1.537   1.912  0.3600 -0.5296  0.2998
 5789SOL     OW17891   3.658   4.744   3.424 -0.9918 -0.3136 -0.3112
 5789SOL    HW117892   3.669   4.838   3.441  0.1525 -0.3885 -0.6125
 5789SOL    HW217893   3.663   4.704   3.511  0.1133 -0.2350 -0.3224
 5790SOL     OW17894   0.877   2.305   0.701 -0.0823  0.1820 -0.1291
 5790SOL    HW117895   0.937   2.237   0.672  0.3196  0.9791 -1.2206
 5790SOL    HW217896   0.930   2.363   0.756 -0.5045 -0.5454  1.0797
 5791SOL     OW17897   5.801   0.658   2.051 -0.3656  0.0166  0.6928
 5791SOL    HW117898   5.834   0.575   2.018 -1.0274 -0.3529  0.9328
 5791SOL    HW217899   5.876   0.699   2.094 -0.2991 -0.9981  1.6075
 5792SOL     OW17900   3.403   2.743   1.108  0.6099 -0.4888 -0.4943
 5792SOL    HW117901   3.470   2.773   1.170 -0.1192  0.0029  0.0622
 5792SOL    HW217902   3.350   2.821   1.090 -0.8337 -1.2437  0.3534
 5793SOL     OW17903   3.603   6.549   0.042 -0.3700  0.1464 -0.3504
 5793SOL    HW117904   3.547   6.612  -0.003  0.5584  1.3356  0.1013
 5793SOL    HW217905   3.554   6.524   0.120 -0.5212  0.7600 -0.2425
 5794SOL     OW17906   5.537   1.060   0.924  0.2005 -0.4179  0.6495
 5794SOL    HW117907   5.448   1.093   0.932  0.0988 -0.4312 -0.3365
 5794SOL    HW217908   5.527   0.967   0.906  0.3733 -0.2674 -0.2973
 5795SOL     OW17909   0.444   0.563   4.189  0.3695  0.3453  0.1444
 5795SOL    HW117910   0.371   0.501   4.181  0.9479 -0.1673 -1.5794
 5795SOL    HW217911   0.478   0.571   4.100  1.3258  1.9246  0.6213
 5796SOL     OW17912   1.858   2.604   3.971 -0.3879  0.5723  0.0477
 5796SOL    HW117913   1.878   2.639   3.884  1.8418  1.3157  0.8107
 5796SOL    HW217914   1.881   2.675   4.031 -1.4334 -0.1064  1.3015
 5797SOL     OW17915   1.983   3.100   3.609 -0.4328  0.5932 -0.5439
 5797SOL    HW117916   1.899   3.104   3.564  0.4409 -2.6817 -2.8639
 5797SOL    HW217917   1.964   3.063   3.695 -1.2741 -2.0754 -1.7809
 5798SOL     OW17918   5.127   6.296   7.384  0.4668  0.3975  0.4641
 5798SOL    HW117919   5.135   6.263   7.474  1.0445 -1.2371 -0.1493
 5798SOL    HW217920   5.047   6.349   7.385  0.7842  0.9251  2.0704
 5799SOL     OW17921   6.012   7.078   0.297  0.3038  0.4766  0.1052
 5799SOL    HW117922   6.042   7.106   0.383 -2.4905  3.0689  0.3960
 5799SOL    HW217923   5.928   7.035   0.313 -1.1534  2.5682 -1.3627
 5800SOL     OW17924   1.715   2.849   5.900  0.0550  1.0276  0.4896
 5800SOL    HW117925   1.684   2.762   5.876  0.7528  1.3123 -1.6607
 5800SOL    HW217926   1.647   2.883   5.959 -0.6963 -0.5913  0.6182
 5801SOL     OW17927   0.100   6.182   6.914 -0.3983  0.1801 -0.0542
 5801SOL    HW117928   0.065   6.194   7.002  0.8207  1.4640  0.2942
 5801SOL    HW217929   0.132   6.269   6.889 -0.5032 -0.2111 -1.6753
 5802SOL     OW17930   4.075   4.174   2.164 -0.0263 -0.2681  0.3564
 5802SOL    HW117931   4.170   4.182   2.154 -0.0670  0.6180  0.6093
 5802SOL    HW217932   4.040   4.188   2.076  0.0513 -0.1985  0.3371
 5803SOL     OW17933   6.240   5.755   3.158 -0.4059  0.0174  0.4484
 5803SOL    HW117934   6.170   5.799   3.206  0.2103  2.1457 -0.4732
 5803SOL    HW217935   6.317   5.767   3.213 -0.1271  0.6430 -0.0530
 5804SOL     OW17936   6.278   7.389   1.963 -0.0204  0.2318 -0.2470
 5804SOL    HW117937   6.203   7.347   1.921 -1.4482  1.9878  0.3874
 5804SOL    HW217938   6.276   7.479   1.930  1.2961  0.5443  0.4582
 5805SOL     OW17939   6.748   4.178   2.653 -0.4736  0.0438  0.2135
 5805SOL    HW117940   6.819   4.196   2.592 -2.3893  0.1720 -2.1049
 5805SOL    HW217941   6.744   4.083   2.659 -0.6385  0.0150 -0.3269
 5806SOL     OW17942   6.541   3.218   7.212 -0.2184 -0.3081  0.9611
 5806SOL    HW117943   6.481   3.156   7.254  0.3510 -1.6709 -0.1603
 5806SOL    HW217944   6.602   3.242   7.281 -0.1544 -1.3964  1.3096
 5807SOL     OW17945   1.629   4.222   1.203 -0.0796 -0.6946 -0.2160
 5807SOL    HW117946   1.722   4.218   1.180  0.4187  0.8741  1.3346
 5807SOL    HW217947   1.587   4.163   1.140  1.5806  0.6468 -2.7919
 5808SOL     OW17948   2.687   3.029   4.793 -0.0477 -0.2264  0.0557
 5808SOL    HW117949   2.673   3.097   4.728  1.4516  0.4841  0.4243
 5808SOL    HW217950   2.638   3.058   4.870  0.9591  0.6963  0.3637
 5809SOL     OW17951   5.487   5.451   2.930 -1.1802  0.2629  0.9942
 5809SOL    HW117952   5.494   5.358   2.952 -0.3459  0.0697  0.0029
 5809SOL    HW217953   5.571   5.488   2.958 -0.3463  0.1374 -1.1344
 5810SOL     OW17954   6.056   5.354   5.143  0.3642  0.3866 -0.3037
 5810SOL    HW117955   5.974   5.377   5.187 -0.5249 -1.7889 -0.7118
 5810SOL    HW217956   6.029   5.320   5.058  1.9122  2.2495 -1.6352
 5811SOL     OW17957   4.196   3.587   1.339 -0.4974  0.2672 -0.4112
 5811SOL    HW117958   4.172   3.522   1.404  0.5056  2.3112  2.1553
 5811SOL    HW217959   4.289   3.572   1.321 -0.2653  0.9558  0.1804
 5812SOL     OW17960   6.964   1.436   4.368 -0.3081  0.1513  0.1412
 5812SOL    HW117961   6.908   1.413   4.294  0.7755 -0.4330 -0.5111
 5812SOL    HW217962   6.933   1.380   4.440  0.9687 -1.9636 -0.8701
 5813SOL     OW17963   6.332   6.862   4.912 -0.0058 -0.4754 -0.7964
 5813SOL    HW117964   6.264   6.929   4.902 -0.6603 -0.8882  0.6678
 5813SOL    HW217965   6.284   6.783   4.938  1.1156 -0.3824  1.8583
 5814SOL     OW17966   4.982   6.669   5.687  0.3511 -0.0663 -0.0849
 5814SOL    HW117967   5.066   6.629   5.708  0.2159 -0.2737  0.0656
 5814SOL    HW217968   4.925   6.596   5.663 -0.3195 -0.1446  1.6017
 5815SOL     OW17969   4.590   1.323   1.049  0.3675 -0.1969 -0.4698
 5815SOL    HW117970   4.533   1.378   0.996  1.1102 -0.1407 -1.2305
 5815SOL    HW217971   4.676   1.363   1.042  0.8202 -1.1599 -0.6239
 5816SOL     OW17972   5.764   4.524   3.049 -0.3175 -0.0618  0.4817
 5816SOL    HW117973   5.702   4.569   3.106  0.5973  0.3692  1.1647
 5816SOL    HW217974   5.740   4.432   3.055 -1.5314  0.2062 -0.0739
 5817SOL     OW17975   0.024   1.609   1.770  0.4051  0.1502  0.0434
 5817SOL    HW117976   0.091   1.547   1.798  0.0813 -0.5914 -0.7917
 5817SOL    HW217977   0.062   1.695   1.788  1.3992 -0.2697  0.0063
 5818SOL     OW17978   6.558   0.296   5.406 -0.1156  0.0852  0.7723
 5818SOL    HW117979   6.583   0.379   5.445  0.3454 -0.0896  0.8579
 5818SOL    HW217980   6.473   0.275   5.445 -0.8734  1.1573 -0.2384
 5819SOL     OW17981   1.230   3.340   7.528 -0.4478 -0.1626 -0.3574
 5819SOL    HW117982   1.229   3.342   7.432  1.1400  0.1671 -0.3893
 5819SOL    HW217983   1.211   3.249   7.550 -0.4802 -0.3161 -0.9919
 5820SOL     OW17984   7.444   3.369   2.562  0.5962  0.2857  0.0535
 5820SOL    HW117985   7.398   3.427   2.501  0.5583 -1.3624 -1.5646
 5820SOL    HW217986   7.396   3.378   2.645 -1.3857  0.1710 -1.0339
 5821SOL     OW17987   6.821   3.142   6.405 -0.2680  0.1021 -0.0602
 5821SOL    HW117988   6.789   3.070   6.351  0.4319  1.1886 -2.0548
 5821SOL    HW217989   6.779   3.220   6.367  1.9753  1.1611 -0.5656
 5822SOL     OW17990   0.144   0.278   7.137  0.3812  0.0199 -0.4142
 5822SOL    HW117991   0.068   0.262   7.193  0.2414  0.2130 -0.5456
 5822SOL    HW217992   0.199   0.338   7.186  1.0035 -0.9952  0.1656
 5823SOL     OW17993   0.578   4.081   3.398  0.2093  0.3306  0.3159
 5823SOL    HW117994   0.511   4.014   3.411  1.4965 -0.7954  1.5099
 5823SOL    HW217995   0.531   4.164   3.406 -0.9980 -0.4196  1.4384
 5824SOL     OW17996   6.273   6.528   7.131 -0.3516  0.2838 -0.0067
 5824SOL    HW117997   6.366   6.553   7.133 -0.1324 -0.5236  0.2834
 5824SOL    HW217998   6.228   6.602   7.172  0.0130  1.2253 -1.1999
 5825SOL     OW17999   4.220   5.213   6.519  0.1660  0.1723 -0.2805
 5825SOL    HW118000   4.165   5.158   6.463 -0.0183  0.5493 -0.4732
 5825SOL    HW218001   4.243   5.288   6.464  3.8861 -1.6208 -1.5416
 5826SOL     OW18002   0.908   0.616   1.209  0.2672 -0.1510  0.3080
 5826SOL    HW118003   0.909   0.545   1.145 -1.0636  0.9269 -0.9934
 5826SOL    HW218004   0.979   0.674   1.180  1.1044 -0.7109  1.1492
 5827SOL     OW18005   7.347   2.963   0.310 -0.5436 -0.1464 -0.1010
 5827SOL    HW118006   7.333   2.975   0.404  2.6847 -1.3431  0.6251
 5827SOL    HW218007   7.431   3.005   0.292 -0.7265 -0.5988 -2.3184
 5828SOL     OW18008   3.498   6.795   2.951 -0.1121 -0.7997  0.4582
 5828SOL    HW118009   3.557   6.773   2.878 -1.0032 -1.3220 -0.1273
 5828SOL    HW218010   3.416   6.820   2.909 -0.9007 -1.8943  1.2908
 5829SOL     OW18011   0.645   2.460   2.605 -0.5213 -0.4756 -0.0629
 5829SOL    HW118012   0.690   2.392   2.555  2.4930  0.6775  0.8237
 5829SOL    HW218013   0.609   2.414   2.681  2.3301 -1.1181  1.0526
 5830SOL     OW18014   7.249   7.034   0.004 -0.1746  0.0661 -0.0184
 5830SOL    HW118015   7.250   7.083   0.086  0.6609  1.4530 -0.8221
 5830SOL    HW218016   7.337   6.997  -0.003 -0.6591 -1.2177  0.3504
 5831SOL     OW18017   0.788   3.265   5.457 -0.0907 -0.6241 -0.2072
 5831SOL    HW118018   0.837   3.232   5.533  0.3892  0.6872  0.0675
 5831SOL    HW218019   0.788   3.191   5.396 -0.9391 -1.8999  1.2427
 5832SOL     OW18020   4.668   2.639   7.161 -0.2362  0.2269  0.1536
 5832SOL    HW118021   4.634   2.661   7.248  2.6251  0.7550  1.2474
 5832SOL    HW218022   4.701   2.722   7.127  0.2370 -0.3018 -0.6900
 5833SOL     OW18023   1.684   3.246   4.687  0.2033 -0.3326  0.2953
 5833SOL    HW118024   1.609   3.187   4.696  0.5155 -1.0831 -1.5195
 5833SOL    HW218025   1.654   3.328   4.726 -1.0045 -1.0655  0.9832
 5834SOL     OW18026   1.111   6.976   2.676  0.1111  0.1849  0.4354
 5834SOL    HW118027   1.098   7.000   2.767  1.2256  1.3284  0.3214
 5834SOL    HW218028   1.090   6.882   2.673 -1.2682  0.4256  1.5554
 5835SOL     OW18029   3.955   4.317   2.726 -0.5582  0.0817 -0.0595
 5835SOL    HW118030   3.896   4.390   2.743 -1.7501 -0.7647 -0.4805
 5835SOL    HW218031   3.943   4.296   2.633 -1.0234 -1.3221  0.2931
 5836SOL     OW18032   0.976   6.110   7.062  0.1347 -0.0299  0.5217
 5836SOL    HW118033   0.893   6.156   7.070  0.8832  1.2361  1.5396
 5836SOL    HW218034   1.020   6.154   6.989 -0.4638 -1.3810 -0.7072
 5837SOL     OW18035   3.453   5.753   4.101  0.0243  0.5785 -0.2530
 5837SOL    HW118036   3.409   5.744   4.185 -2.0661  0.6772 -1.2521
 5837SOL    HW218037   3.539   5.789   4.122  0.3763 -1.3019  1.9778
 5838SOL     OW18038   3.723   5.722   7.453  0.2462 -0.0684 -0.0332
 5838SOL    HW118039   3.799   5.729   7.511  0.0631 -0.4130  0.2544
 5838SOL    HW218040   3.705   5.628   7.448 -0.2485  0.0175  0.0209
 5839SOL     OW18041   0.059   0.265   2.749 -0.6488 -0.1153 -0.3097
 5839SOL    HW118042   0.088   0.333   2.687 -0.8528  0.7477  0.5200
 5839SOL    HW218043  -0.036   0.276   2.753 -1.0767 -2.2559 -2.2268
 5840SOL     OW18044   1.446   3.484   4.114  0.9793 -0.0083 -0.1628
 5840SOL    HW118045   1.446   3.400   4.069 -0.9556 -1.0781  1.6616
 5840SOL    HW218046   1.362   3.523   4.092  1.9111  1.6099 -1.1197
 5841SOL     OW18047   1.928   3.050   4.196  0.5829  0.2156  0.0854
 5841SOL    HW118048   1.977   3.081   4.273 -0.3112 -1.3995  1.3739
 5841SOL    HW218049   1.860   3.116   4.183  1.1447  0.8390  0.2730
 5842SOL     OW18050   5.808   6.857   3.820  0.3649  0.3458 -0.1545
 5842SOL    HW118051   5.753   6.794   3.774  0.6108  0.0917 -0.1025
 5842SOL    HW218052   5.887   6.863   3.767 -0.0773  1.3919 -0.7161
 5843SOL     OW18053   7.281   7.201   5.303  0.1219 -0.4801 -0.5572
 5843SOL    HW118054   7.282   7.287   5.347  0.0559 -1.6536  1.9396
 5843SOL    HW218055   7.301   7.220   5.212 -1.6505  2.3795 -0.4710
 5844SOL     OW18056   4.201   2.177   3.170 -0.0160 -0.2930 -0.2637
 5844SOL    HW118057   4.295   2.194   3.173 -0.0218 -0.2348 -0.3774
 5844SOL    HW218058   4.187   2.137   3.084 -0.0975 -0.2797 -0.2566
 5845SOL     OW18059   0.183   6.354   2.819  0.6784 -0.6776  0.1184
 5845SOL    HW118060   0.266   6.353   2.771 -0.2364  0.9859 -1.6088
 5845SOL    HW218061   0.137   6.276   2.790  0.5129 -0.1573 -1.0458
 5846SOL     OW18062   6.749   5.534   1.587 -0.2319  0.0548  0.2695
 5846SOL    HW118063   6.716   5.600   1.526  0.9790  1.4163  1.0152
 5846SOL    HW218064   6.671   5.501   1.632 -0.8005  1.6162  0.4911
 5847SOL     OW18065   2.471   3.383   5.350 -0.2472 -0.0981 -0.0120
 5847SOL    HW118066   2.458   3.458   5.409 -0.4161 -0.8441  0.9216
 5847SOL    HW218067   2.557   3.399   5.310  0.2233  0.0391  1.0212
 5848SOL     OW18068   1.714   1.861   2.906  1.1085 -0.3367  0.2717
 5848SOL    HW118069   1.640   1.845   2.964 -0.5245  1.7303 -1.1017
 5848SOL    HW218070   1.683   1.835   2.819  0.3762  4.1203 -1.0460
 5849SOL     OW18071   3.922   1.170   4.378  0.5612  0.6610  0.4936
 5849SOL    HW118072   3.888   1.229   4.311  0.8271 -0.8911 -1.0666
 5849SOL    HW218073   4.017   1.177   4.370  0.6243 -0.9371 -0.6569
 5850SOL     OW18074   1.426   4.318   6.254  0.0468 -0.1131  0.0516
 5850SOL    HW118075   1.451   4.234   6.217  0.8616  1.0470 -2.2245
 5850SOL    HW218076   1.344   4.341   6.209 -0.9594 -0.2781  1.6889
 5851SOL     OW18077   1.069   6.801   1.003 -0.5205 -0.0062 -0.5175
 5851SOL    HW118078   1.079   6.784   0.910  2.4993  0.4378 -0.3699
 5851SOL    HW218079   1.104   6.723   1.046 -1.1184  0.1295  0.2451
 5852SOL     OW18080   4.762   3.052   1.400  0.3441 -0.8552 -0.4569
 5852SOL    HW118081   4.683   3.002   1.381 -0.5674 -0.0459  0.9774
 5852SOL    HW218082   4.809   3.055   1.317 -1.3859 -0.9128 -1.4930
 5853SOL     OW18083   3.799   5.378   6.223  0.0524 -0.2527  0.0559
 5853SOL    HW118084   3.792   5.336   6.309  2.9745 -2.1383 -0.4527
 5853SOL    HW218085   3.773   5.310   6.161 -0.4240  0.5288 -0.6169
 5854SOL     OW18086   2.257   2.490   2.972  0.1745  0.1346  0.8779
 5854SOL    HW118087   2.230   2.420   3.032 -1.8237 -2.1059 -2.2959
 5854SOL    HW218088   2.326   2.449   2.918  0.0469  1.1208 -0.0713
 5855SOL     OW18089   2.998   6.706   5.765  0.5752 -0.6486  0.1947
 5855SOL    HW118090   2.996   6.787   5.713  1.5017 -1.6664 -1.5344
 5855SOL    HW218091   2.994   6.736   5.856  0.2726  1.3008 -0.4102
 5856SOL     OW18092   4.265   5.767   0.575  0.6425  0.6683  0.1829
 5856SOL    HW118093   4.246   5.712   0.650 -3.4688  0.6414 -0.6354
 5856SOL    HW218094   4.238   5.855   0.603 -0.8744  0.6674 -1.1217
 5857SOL     OW18095   2.885   5.352   0.144  0.6249 -0.5989 -0.1028
 5857SOL    HW118096   2.839   5.268   0.139 -0.6811 -0.0440  1.6292
 5857SOL    HW218097   2.819   5.416   0.116  1.1014 -0.0085  0.1162
 5858SOL     OW18098   1.039   3.191   4.812  0.2261 -0.1487 -0.3899
 5858SOL    HW118099   1.083   3.163   4.732  0.0573  1.3244 -1.0433
 5858SOL    HW218100   1.102   3.248   4.855 -0.0281 -0.2045  0.0590
 5859SOL     OW18101   1.041   4.194   2.546 -0.2501  0.1456 -0.5401
 5859SOL    HW118102   1.045   4.206   2.451 -1.0990 -0.0915 -0.6128
 5859SOL    HW218103   0.947   4.195   2.567 -0.2404 -2.5432 -0.0636
 5860SOL     OW18104   0.696   2.056   3.259  0.1664 -0.0928 -0.4701
 5860SOL    HW118105   0.724   1.995   3.191  0.9125  0.7232 -0.9217
 5860SOL    HW218106   0.623   2.012   3.303 -0.1326 -0.7660 -1.6014
 5861SOL     OW18107   1.018   0.436   2.729 -0.2791 -0.7195  0.8549
 5861SOL    HW118108   1.008   0.341   2.738 -2.1751 -0.5069  1.3397
 5861SOL    HW218109   0.933   0.466   2.698  0.8740  0.6338 -1.2357
 5862SOL     OW18110   0.741   7.175   0.051 -0.4670 -0.1437 -0.2925
 5862SOL    HW118111   0.746   7.083   0.077  1.0722 -0.2408 -0.8013
 5862SOL    HW218112   0.689   7.218   0.119 -3.0480 -1.7327 -1.1088
 5863SOL     OW18113   0.675   6.114   6.109 -0.1969  0.1857 -0.5129
 5863SOL    HW118114   0.605   6.174   6.133  0.5202  1.3273 -1.2221
 5863SOL    HW218115   0.654   6.086   6.020 -1.3333 -1.8426  0.3214
 5864SOL     OW18116   3.487   3.632   2.715 -0.4902  0.0004  0.5638
 5864SOL    HW118117   3.542   3.707   2.692 -1.5048  1.2553  2.0020
 5864SOL    HW218118   3.547   3.557   2.716  1.3412  1.3826  2.4797
 5865SOL     OW18119   2.390   1.156   5.685  0.1521 -0.5143 -0.6173
 5865SOL    HW118120   2.301   1.162   5.718  0.1840  0.3864 -0.6466
 5865SOL    HW218121   2.429   1.083   5.732 -0.1720 -0.0206  0.4527
 5866SOL     OW18122   5.162   5.933   3.251 -0.5772 -0.3108 -0.4047
 5866SOL    HW118123   5.214   5.941   3.171  0.8902 -0.2796  0.5205
 5866SOL    HW218124   5.177   5.843   3.280  0.7862  0.3481  1.0578
 5867SOL     OW18125   6.480   6.197   3.774  0.1795 -0.1765 -0.5449
 5867SOL    HW118126   6.418   6.174   3.844 -0.3901  0.7292 -0.7475
 5867SOL    HW218127   6.510   6.285   3.797  1.6076 -0.7065 -0.3067
 5868SOL     OW18128   4.577   2.945   3.803 -0.5823  0.6172 -0.2937
 5868SOL    HW118129   4.487   2.949   3.771 -0.3217  0.0841 -1.1130
 5868SOL    HW218130   4.591   2.853   3.825  0.0362  0.5343 -0.9994
 5869SOL     OW18131   1.128   2.232   2.884 -0.2168 -0.2395  0.0102
 5869SOL    HW118132   1.134   2.168   2.955 -1.5956 -1.1824 -0.6903
 5869SOL    HW218133   1.202   2.291   2.900  0.3707 -1.2735  1.3785
 5870SOL     OW18134   2.385   7.325   1.886  0.7508 -0.0915  0.5886
 5870SOL    HW118135   2.450   7.367   1.829  1.0493 -0.4533  0.6589
 5870SOL    HW218136   2.338   7.265   1.828 -0.9079  1.6069  0.0511
 5871SOL     OW18137   1.181   2.488   4.750 -0.3173 -0.0863  0.3094
 5871SOL    HW118138   1.195   2.491   4.844 -0.1371 -0.8146  0.3117
 5871SOL    HW218139   1.268   2.499   4.712 -0.3294 -0.2259  0.2388
 5872SOL     OW18140   1.803   6.769   5.622  0.1968  0.0416 -0.3210
 5872SOL    HW118141   1.838   6.801   5.705 -1.7665  0.1411  0.5217
 5872SOL    HW218142   1.822   6.675   5.623  0.8077  0.1640 -0.0908
 5873SOL     OW18143   7.322   3.023   4.740  0.0039 -0.5570  0.3950
 5873SOL    HW118144   7.288   3.112   4.748 -0.7819 -0.6950 -1.0980
 5873SOL    HW218145   7.296   2.980   4.822 -0.7487  0.2136  0.5710
 5874SOL     OW18146   5.117   0.729   5.139 -0.5658 -0.1926  0.4394
 5874SOL    HW118147   5.094   0.814   5.101  2.1179  0.5875  0.3164
 5874SOL    HW218148   5.199   0.746   5.187  0.6348 -2.9006 -0.4588
 5875SOL     OW18149   7.258   5.058   4.431 -0.1274  0.1053 -0.4406
 5875SOL    HW118150   7.182   5.112   4.451 -0.3415 -0.6366  0.8347
 5875SOL    HW218151   7.221   4.974   4.403  0.2145 -0.3537  0.4588
 5876SOL     OW18152   2.307   5.323   4.626  0.0970  0.4733  0.4178
 5876SOL    HW118153   2.284   5.270   4.702  0.3136 -0.4027 -0.1145
 5876SOL    HW218154   2.263   5.407   4.641 -2.9919 -0.8996 -0.2287
 5877SOL     OW18155   6.138   4.796   3.142  0.4157  0.4164  0.3342
 5877SOL    HW118156   6.206   4.731   3.123 -0.5623 -0.2772 -0.8449
 5877SOL    HW218157   6.167   4.874   3.095 -0.2059 -0.2495 -1.2099
 5878SOL     OW18158   0.328   5.252   5.640 -0.0873  0.2329  0.2170
 5878SOL    HW118159   0.386   5.185   5.676 -0.4263 -0.3312 -0.2515
 5878SOL    HW218160   0.271   5.276   5.713  1.5768  1.7806  1.0581
 5879SOL     OW18161   6.885   3.813   6.667 -0.4543  0.1535  0.3735
 5879SOL    HW118162   6.905   3.893   6.715 -1.3422  0.0730  0.8871
 5879SOL    HW218163   6.834   3.760   6.728 -2.8777  0.6482 -1.0651
 5880SOL     OW18164   4.263   0.333   0.739 -0.4960 -0.1651  0.4973
 5880SOL    HW118165   4.222   0.266   0.794 -0.9488  0.0975  0.4883
 5880SOL    HW218166   4.356   0.326   0.758 -0.6968  0.3743  1.8473
 5881SOL     OW18167   4.931   3.367   3.464 -0.2754  0.1485  0.3883
 5881SOL    HW118168   4.943   3.459   3.439  2.0367  0.0787  1.0148
 5881SOL    HW218169   4.979   3.317   3.398  1.0903 -0.3848  1.7317
 5882SOL     OW18170   3.954   5.839   1.928  0.4636 -0.0738  0.5708
 5882SOL    HW118171   3.924   5.783   1.856  0.1970  0.9924 -0.1765
 5882SOL    HW218172   3.995   5.914   1.884  0.5855  0.4417  1.5373
 5883SOL     OW18173   1.105   0.621   5.668  0.0612  0.2310  0.2136
 5883SOL    HW118174   1.158   0.542   5.681 -0.4367 -0.2476 -0.6038
 5883SOL    HW218175   1.065   0.638   5.753 -2.6984 -2.5091 -0.3946
 5884SOL     OW18176   7.456   3.364   0.768  0.2555 -0.6511 -0.5897
 5884SOL    HW118177   7.480   3.364   0.675  0.7532 -2.1149 -0.4785
 5884SOL    HW218178   7.539   3.370   0.814  0.1256 -1.5206 -0.2332
 5885SOL     OW18179   3.644   2.229   6.778 -0.6111  0.3985  0.4211
 5885SOL    HW118180   3.701   2.290   6.825  0.2484  0.8379 -1.1205
 5885SOL    HW218181   3.605   2.282   6.708 -0.2405 -0.6806 -0.6397
 5886SOL     OW18182   5.311   2.235   1.695 -0.5103 -0.5481 -0.3438
 5886SOL    HW118183   5.244   2.301   1.672 -1.0072 -0.6656  0.7026
 5886SOL    HW218184   5.365   2.278   1.761  0.0435 -0.6992 -0.6923
 5887SOL     OW18185   2.027   0.568   0.068 -0.4908 -0.0926 -0.0622
 5887SOL    HW118186   2.037   0.651   0.115 -0.2325 -0.2181  0.1066
 5887SOL    HW218187   2.105   0.564   0.012 -1.2003  0.4542 -1.1214
 5888SOL     OW18188   6.612   3.560   4.622  0.1009 -0.7762 -0.6983
 5888SOL    HW118189   6.522   3.543   4.648 -0.3944 -0.6374 -2.2091
 5888SOL    HW218190   6.615   3.653   4.602  0.4901 -0.8430 -0.9748
 5889SOL     OW18191   7.107   1.191   1.927 -0.5131 -0.3694  0.4544
 5889SOL    HW118192   7.085   1.203   2.019 -0.0690  0.3008  0.4786
 5889SOL    HW218193   7.201   1.208   1.922 -1.0664  3.1543 -0.6740
 5890SOL     OW18194   0.980   7.324   2.044 -0.2398  0.1839  0.1315
 5890SOL    HW118195   1.041   7.320   2.118  0.5344  1.1666 -0.4187
 5890SOL    HW218196   1.003   7.248   1.990 -1.9459 -1.5338  1.6926
 5891SOL     OW18197   5.679   4.857   2.648 -0.4868 -0.2384  0.3715
 5891SOL    HW118198   5.667   4.768   2.681 -0.0324  0.0430  1.3277
 5891SOL    HW218199   5.723   4.903   2.720 -0.1032  0.5770 -0.3742
 5892SOL     OW18200   2.740   1.651   6.326  0.8088 -0.1824  0.6428
 5892SOL    HW118201   2.822   1.610   6.296 -0.2650 -1.9728 -0.0139
 5892SOL    HW218202   2.754   1.668   6.419  2.4869  1.0521  0.2172
 5893SOL     OW18203   2.981   1.090   5.656  0.3872 -0.3218 -0.1739
 5893SOL    HW118204   2.975   1.171   5.708  1.6713 -0.3146  0.0050
 5893SOL    HW218205   3.066   1.053   5.680  0.1035 -1.3822 -0.7609
 5894SOL     OW18206   5.427   5.576   5.525 -0.1632 -0.6827 -0.2999
 5894SOL    HW118207   5.480   5.606   5.598  0.8915  1.1245 -1.7217
 5894SOL    HW218208   5.338   5.605   5.546  0.0928 -0.3687  0.3736
 5895SOL     OW18209   1.417   4.604   0.208 -0.1046  0.4435  0.0757
 5895SOL    HW118210   1.491   4.612   0.267  0.8817 -0.5935 -0.9554
 5895SOL    HW218211   1.444   4.536   0.145 -2.6519 -1.3656  0.7613
 5896SOL     OW18212   0.467   5.927   5.651 -0.1811 -1.0113  0.1666
 5896SOL    HW118213   0.520   5.872   5.593  1.0255  1.2691 -1.0347
 5896SOL    HW218214   0.530   5.964   5.712  0.0165  2.6568 -1.9906
 5897SOL     OW18215   6.938   6.830   0.914 -0.1044 -0.1305  0.9960
 5897SOL    HW118216   6.959   6.898   0.979 -0.0435  0.9282 -0.0866
 5897SOL    HW218217   7.023   6.790   0.894  0.4259  1.6749 -0.6892
 5898SOL     OW18218   4.676   0.396   7.490  0.2398  0.0619  0.1593
 5898SOL    HW118219   4.679   0.447   7.410  2.8086  0.1888  0.2774
 5898SOL    HW218220   4.701   0.308   7.464 -1.2791 -0.4901  0.4585
 5899SOL     OW18221   3.675   2.778   4.218  0.2275  0.6220 -0.4574
 5899SOL    HW118222   3.642   2.745   4.135  2.1366  0.0338 -1.0360
 5899SOL    HW218223   3.604   2.832   4.253 -0.9687  0.1066 -1.9984
 5900SOL     OW18224   2.125   0.540   6.440 -0.2383 -0.4744 -0.4841
 5900SOL    HW118225   2.037   0.519   6.407 -0.1274 -1.1848 -0.3592
 5900SOL    HW218226   2.176   0.557   6.362 -0.1896 -1.3003 -0.6462
 5901SOL     OW18227   2.591   7.116   5.302  0.3768 -0.5916 -0.6901
 5901SOL    HW118228   2.541   7.113   5.383 -0.9210 -0.2457 -1.4486
 5901SOL    HW218229   2.533   7.161   5.240  1.9179  0.5064 -1.4011
 5902SOL     OW18230   5.465   6.948   5.697  0.8669  0.2163 -0.3184
 5902SOL    HW118231   5.412   6.927   5.620  0.7075 -0.4733 -0.0282
 5902SOL    HW218232   5.401   6.970   5.764  1.0026  0.7411 -0.3609
 5903SOL     OW18233   7.513   1.929   0.889 -0.4598  0.0053 -0.5673
 5903SOL    HW118234   7.571   1.880   0.830 -1.2474  0.1997 -1.5375
 5903SOL    HW218235   7.572   1.975   0.948  0.3102 -2.3381  0.5985
 5904SOL     OW18236   0.701   4.742   6.817  0.3900  0.3696  0.2347
 5904SOL    HW118237   0.781   4.744   6.870  1.1177 -0.6181 -0.7576
 5904SOL    HW218238   0.631   4.764   6.878  1.0264 -1.8963  1.9355
 5905SOL     OW18239   4.019   7.294   5.056  0.1152  0.2858  0.2931
 5905SOL    HW118240   4.017   7.211   5.009  0.5776  1.5711 -2.1348
 5905SOL    HW218241   3.928   7.310   5.080 -0.4961  0.4731 -1.9313
 5906SOL     OW18242   0.810   0.201   0.170 -0.4206  0.1328 -0.1001
 5906SOL    HW118243   0.874   0.232   0.234 -0.8070  1.1879 -0.2043
 5906SOL    HW218244   0.836   0.111   0.152 -0.5134 -0.3198  1.8146
 5907SOL     OW18245   4.573   1.573   5.310  0.7601 -0.3577 -0.1780
 5907SOL    HW118246   4.478   1.577   5.303  0.7300 -0.6791  0.0140
 5907SOL    HW218247   4.599   1.663   5.333  0.3164 -0.6823  1.8112
 5908SOL     OW18248   1.984   4.465   1.948  0.1374 -0.4860 -0.0222
 5908SOL    HW118249   2.019   4.554   1.951 -0.7157 -0.0672 -1.3614
 5908SOL    HW218250   1.891   4.476   1.967 -0.0902 -1.0015 -0.8180
 5909SOL     OW18251   5.350   0.579   1.538  0.7154  0.7697  0.2860
 5909SOL    HW118252   5.343   0.631   1.458  0.5650  1.5923  0.8186
 5909SOL    HW218253   5.265   0.592   1.582  0.7451  0.2143  0.5057
 5910SOL     OW18254   5.739   0.934   6.285 -0.4517 -0.3208  0.1387
 5910SOL    HW118255   5.743   1.017   6.332 -2.8721 -0.6608  1.1163
 5910SOL    HW218256   5.650   0.932   6.248  0.2282 -1.6217 -1.5396
 5911SOL     OW18257   0.803   3.260   2.729 -0.2355  0.1007  0.0319
 5911SOL    HW118258   0.782   3.328   2.665  0.3969  0.9038  0.6473
 5911SOL    HW218259   0.820   3.308   2.810 -1.7557 -0.9517  1.0174
 5912SOL     OW18260   4.923   2.997   3.068  0.3102 -0.0213  0.8427
 5912SOL    HW118261   4.908   3.028   3.157 -1.4174  1.2070  0.1966
 5912SOL    HW218262   4.958   3.074   3.022  1.5206 -0.7444  0.5207
 5913SOL     OW18263   7.067   2.233   5.152  0.8135  0.3510  0.0144
 5913SOL    HW118264   7.080   2.298   5.220 -0.2081  0.6873 -0.0948
 5913SOL    HW218265   7.078   2.281   5.070 -1.3273  0.7595 -0.0993
 5914SOL     OW18266   2.022   2.709   0.506  0.3257 -0.1476 -0.1021
 5914SOL    HW118267   1.942   2.656   0.500  0.6066 -0.3842 -4.4695
 5914SOL    HW218268   2.092   2.648   0.485  1.2182  0.9421 -0.3438
 5915SOL     OW18269   2.786   1.762   3.613 -0.1644 -0.5564 -0.1725
 5915SOL    HW118270   2.762   1.842   3.659  0.9045 -0.4402  0.2110
 5915SOL    HW218271   2.703   1.718   3.597 -0.5545 -1.0539  2.7227
 5916SOL     OW18272   1.735   6.320   2.025 -0.3966  0.3546 -0.2879
 5916SOL    HW118273   1.653   6.342   2.069 -0.6219 -0.0142 -0.5134
 5916SOL    HW218274   1.709   6.263   1.952 -0.0580  1.1404 -1.0508
 5917SOL     OW18275   5.729   3.522   0.429  0.2628  1.2572 -0.0320
 5917SOL    HW118276   5.649   3.559   0.393 -0.1197  0.5053  0.0187
 5917SOL    HW218277   5.735   3.559   0.517  0.4382  1.9864 -0.3469
 5918SOL     OW18278   1.126   6.447   4.371 -0.2919 -0.1982 -0.7415
 5918SOL    HW118279   1.084   6.533   4.370 -0.6108 -0.3499 -0.5246
 5918SOL    HW218280   1.144   6.428   4.279  0.0278  0.2186 -0.7698
 5919SOL     OW18281   2.950   6.094   6.844 -0.1811  0.2409  0.2469
 5919SOL    HW118282   2.962   6.062   6.933  0.5299  0.3830  0.2025
 5919SOL    HW218283   2.855   6.099   6.833 -0.2834  1.4704  1.4555
 5920SOL     OW18284   5.057   1.197   5.139  0.3788 -0.3214 -0.0984
 5920SOL    HW118285   4.971   1.237   5.142  0.1048 -0.9438  0.6507
 5920SOL    HW218286   5.081   1.182   5.231  1.4317  0.1555 -0.2743
 5921SOL     OW18287   6.409   2.958   1.399  0.3154 -0.1816  0.5238
 5921SOL    HW118288   6.332   2.908   1.428  0.0603 -0.7895 -1.0920
 5921SOL    HW218289   6.466   2.961   1.476 -0.9067 -0.5172  1.4819
 5922SOL     OW18290   0.859   4.209   1.901 -0.2786 -0.2916 -0.3078
 5922SOL    HW118291   0.836   4.271   1.831  0.1298 -1.1780 -1.2590
 5922SOL    HW218292   0.820   4.246   1.980  1.1286  1.9103 -0.5660
 5923SOL     OW18293   0.021   1.333   6.869  0.1146  0.7770  0.2257
 5923SOL    HW118294  -0.050   1.328   6.933 -0.3296 -0.1410 -0.3125
 5923SOL    HW218295  -0.021   1.358   6.787  0.4648  0.5701 -0.0233
 5924SOL     OW18296   0.895   5.285   3.523 -0.1367  0.2013 -0.3272
 5924SOL    HW118297   0.962   5.353   3.521  0.9871 -0.8411  0.6790
 5924SOL    HW218298   0.913   5.231   3.446 -0.2939  0.3456 -0.4673
 5925SOL     OW18299   5.674   6.550   2.318 -0.0005  0.1585 -0.2166
 5925SOL    HW118300   5.767   6.530   2.315  0.1091  0.8123 -1.1388
 5925SOL    HW218301   5.669   6.642   2.343 -0.4115  0.0573  0.0933
 5926SOL     OW18302   2.094   3.393   4.595  0.2817 -0.3197  0.5522
 5926SOL    HW118303   2.019   3.378   4.538  0.3559 -1.4358  0.7398
 5926SOL    HW218304   2.122   3.482   4.574  0.5927 -0.8498 -1.4642
 5927SOL     OW18305   1.126   4.337   0.679 -0.4705 -0.1339  0.0705
 5927SOL    HW118306   1.064   4.397   0.639 -0.6956 -0.5663 -0.2435
 5927SOL    HW218307   1.147   4.375   0.764 -0.6767  0.3379 -0.0921
 5928SOL     OW18308   3.378   0.328   3.468 -0.0937  0.0215  0.4984
 5928SOL    HW118309   3.393   0.295   3.380  1.6328  0.2850  0.6680
 5928SOL    HW218310   3.344   0.417   3.455 -0.3720 -0.1368  0.1129
 5929SOL     OW18311   4.629   4.664   1.190 -0.0325  0.0918  0.5954
 5929SOL    HW118312   4.542   4.661   1.151  0.2607 -0.7307 -0.0389
 5929SOL    HW218313   4.621   4.614   1.271 -0.2934  0.5227  0.8345
 5930SOL     OW18314   5.380   5.900   7.339 -0.0918  0.6913  0.0760
 5930SOL    HW118315   5.288   5.881   7.318  0.5005 -0.5783 -1.5271
 5930SOL    HW218316   5.380   5.916   7.433 -1.7410 -0.6888  0.3514
 5931SOL     OW18317   1.919   4.470   4.391  0.4831 -0.4766  0.2904
 5931SOL    HW118318   1.998   4.523   4.393 -0.5943  1.2216  0.7538
 5931SOL    HW218319   1.916   4.433   4.302  0.9118  0.8500 -0.2952
 5932SOL     OW18320   2.730   0.754   6.410  0.0485  0.1584 -0.4803
 5932SOL    HW118321   2.762   0.702   6.336  0.5278  0.7727 -0.7124
 5932SOL    HW218322   2.635   0.746   6.406  0.0792  0.0344 -1.0478
 5933SOL     OW18323   6.429   4.217   0.149  0.4315 -0.3862  0.2946
 5933SOL    HW118324   6.379   4.293   0.120  0.6690  0.5750  2.2519
 5933SOL    HW218325   6.442   4.231   0.243 -0.1987 -3.2538  0.9029
 5934SOL     OW18326   4.659   2.379   2.638  0.4188  0.1888  0.0632
 5934SOL    HW118327   4.706   2.413   2.561 -0.4012  1.0557 -0.0786
 5934SOL    HW218328   4.593   2.446   2.657 -0.0749 -0.5103  0.8893
 5935SOL     OW18329   3.896   1.219   6.932  0.2399  0.4002  0.9821
 5935SOL    HW118330   3.990   1.234   6.928  0.1737  0.6605  0.4010
 5935SOL    HW218331   3.861   1.297   6.975  0.3397  0.0789  1.6605
 5936SOL     OW18332   1.680   1.329   5.407  0.7176 -0.4845 -0.7717
 5936SOL    HW118333   1.683   1.277   5.487 -0.3479  1.5119  0.6409
 5936SOL    HW218334   1.676   1.264   5.336  0.7942 -2.2936  0.8124
 5937SOL     OW18335   1.344   7.074   6.341  0.1712 -0.1479 -0.2861
 5937SOL    HW118336   1.257   7.035   6.335 -1.1816  2.6960 -0.4911
 5937SOL    HW218337   1.384   7.056   6.256 -0.1828 -1.4715 -0.1945
 5938SOL     OW18338   6.652   6.239   2.380 -0.2495  0.5495 -0.4047
 5938SOL    HW118339   6.609   6.180   2.318 -1.6202  0.2141  0.7951
 5938SOL    HW218340   6.745   6.228   2.364 -0.4849 -1.6836 -0.4692
 5939SOL     OW18341   7.526   3.809   3.489 -0.1541  0.1706 -0.2714
 5939SOL    HW118342   7.448   3.847   3.529  0.5139  1.1637  0.1269
 5939SOL    HW218343   7.564   3.881   3.438  1.6636  0.3732  1.2548
 5940SOL     OW18344   3.572   3.422   6.873 -0.0893 -0.1703 -0.1956
 5940SOL    HW118345   3.590   3.510   6.904  1.1915  0.3061 -2.1133
 5940SOL    HW218346   3.648   3.371   6.900 -0.9390 -0.7994  1.1296
 5941SOL     OW18347   1.189   3.559   4.092  0.2296  0.4387  0.6382
 5941SOL    HW118348   1.159   3.591   4.006  1.0053 -0.2837  0.0798
 5941SOL    HW218349   1.109   3.533   4.137 -0.0489 -1.1886 -0.7193
 5942SOL     OW18350   4.347   0.969   2.426  0.0391 -0.0697 -0.6335
 5942SOL    HW118351   4.351   0.999   2.517 -0.2359 -0.0241 -0.6359
 5942SOL    HW218352   4.433   0.989   2.390  0.8969 -2.0110  0.2195
 5943SOL     OW18353   0.440   0.376   6.376 -0.0369  0.1028 -0.8482
 5943SOL    HW118354   0.386   0.346   6.303  0.6136  0.5797 -1.5414
 5943SOL    HW218355   0.527   0.342   6.357  0.1507  0.2853 -0.3247
 5944SOL     OW18356   3.489   5.634   2.788  0.3642  0.3206 -0.3234
 5944SOL    HW118357   3.415   5.624   2.849 -1.3442  1.4799 -2.1134
 5944SOL    HW218358   3.547   5.696   2.831 -0.3942  0.4916  0.4881
 5945SOL     OW18359   3.232   2.815   5.244 -0.2262  0.4651 -0.2005
 5945SOL    HW118360   3.164   2.863   5.196  0.0633  0.5147 -0.5707
 5945SOL    HW218361   3.313   2.836   5.197  0.2356  1.4017  0.9711
 5946SOL     OW18362   1.702   5.233   3.140 -0.0208 -0.4135  0.3390
 5946SOL    HW118363   1.701   5.312   3.087 -0.7182  0.2410  1.2823
 5946SOL    HW218364   1.631   5.180   3.106  0.4484 -0.6490 -0.2963
 5947SOL     OW18365   6.842   0.052   2.812 -0.4434 -0.6167  0.3518
 5947SOL    HW118366   6.784  -0.010   2.857 -1.7792  0.3312 -0.0202
 5947SOL    HW218367   6.795   0.075   2.732  0.1355  0.7082  0.3772
 5948SOL     OW18368   5.430   5.684   3.794 -0.4641 -0.2652  0.0011
 5948SOL    HW118369   5.415   5.757   3.733 -2.2575  0.3194  1.0612
 5948SOL    HW218370   5.518   5.653   3.772  0.6384  2.5879 -0.1478
 5949SOL     OW18371   2.401   6.672   7.223  0.2684 -0.1753 -0.7582
 5949SOL    HW118372   2.348   6.628   7.157  0.3103  0.3195 -1.1305
 5949SOL    HW218373   2.478   6.617   7.234  0.2442 -0.2757 -1.0989
 5950SOL     OW18374   6.448   7.370   3.358  0.7932 -0.4243  0.2092
 5950SOL    HW118375   6.376   7.433   3.348  0.9283 -0.1949  0.6219
 5950SOL    HW218376   6.526   7.425   3.366  1.3587 -0.6922 -2.5129
 5951SOL     OW18377   1.434   5.761   3.099 -0.7974  0.4276  0.0767
 5951SOL    HW118378   1.462   5.852   3.088 -2.4802  0.8823 -0.8553
 5951SOL    HW218379   1.481   5.731   3.176 -0.7837  2.3496  0.8848
 5952SOL     OW18380   2.778   2.258   4.784 -0.4632  0.2898 -0.2999
 5952SOL    HW118381   2.817   2.198   4.847 -0.6785 -1.9151 -2.1500
 5952SOL    HW218382   2.799   2.221   4.699 -1.7114  2.1677 -1.5009
 5953SOL     OW18383   4.396   6.551   5.757  0.2991 -0.3096 -0.0960
 5953SOL    HW118384   4.414   6.578   5.667  1.3791  1.2762  0.5642
 5953SOL    HW218385   4.313   6.594   5.779 -0.9442 -2.1844 -0.9004
 5954SOL     OW18386   5.476   4.747   2.196 -0.2109  0.1634  0.0230
 5954SOL    HW118387   5.407   4.720   2.255  0.9397 -2.8204  0.1891
 5954SOL    HW218388   5.526   4.812   2.245 -2.0296  1.2960  0.4316
 5955SOL     OW18389   5.167   6.837   1.233 -0.0166 -0.4937  0.2972
 5955SOL    HW118390   5.261   6.819   1.236  0.2241  0.8372  2.5080
 5955SOL    HW218391   5.128   6.771   1.290 -0.5359 -1.3269 -0.9619
 5956SOL     OW18392   1.361   5.380   3.722  0.4601  0.1640  0.1787
 5956SOL    HW118393   1.311   5.308   3.760  1.5849 -0.7247  0.0577
 5956SOL    HW218394   1.305   5.415   3.653 -0.2787 -0.3171  0.5253
 5957SOL     OW18395   4.448   3.849   1.459  0.5434  0.2297 -0.7086
 5957SOL    HW118396   4.445   3.824   1.367 -0.3568  0.7639 -0.8351
 5957SOL    HW218397   4.361   3.884   1.478  1.1765  1.5288 -0.0517
 5958SOL     OW18398   3.796   6.722   4.602  0.0094  0.1481  0.3753
 5958SOL    HW118399   3.865   6.658   4.621 -1.3018 -1.3136  0.4317
 5958SOL    HW218400   3.841   6.807   4.603  1.3820 -0.5181  2.6568
 5959SOL     OW18401   0.744   3.655   0.848 -0.4031  0.2822 -0.6113
 5959SOL    HW118402   0.756   3.739   0.892 -0.5262  0.2453 -0.5075
 5959SOL    HW218403   0.829   3.637   0.807 -0.4457  0.5688 -0.8294
 5960SOL     OW18404   5.088   2.064   4.716  0.1683  0.3393 -0.1810
 5960SOL    HW118405   4.998   2.030   4.720  0.2232  0.2503  0.3078
 5960SOL    HW218406   5.142   1.995   4.753  0.4701  0.3069 -0.6690
 5961SOL     OW18407   0.072   2.873   6.615  0.0842 -0.5095  0.4358
 5961SOL    HW118408   0.156   2.889   6.659  0.6783 -1.0227 -0.4973
 5961SOL    HW218409   0.078   2.922   6.533 -0.5683 -0.4770  0.4066
 5962SOL     OW18410   4.876   1.716   4.433  0.1013  0.4530  0.3547
 5962SOL    HW118411   4.956   1.666   4.421 -0.7780 -1.6688  2.5320
 5962SOL    HW218412   4.817   1.656   4.478 -1.2295  3.2365  2.6584
 5963SOL     OW18413   2.347   7.527   5.641  0.3129  0.1805 -0.3476
 5963SOL    HW118414   2.264   7.526   5.688 -0.3286 -0.2847 -1.4661
 5963SOL    HW218415   2.381   7.616   5.655  2.2833 -1.0047  4.5273
 5964SOL     OW18416   4.540   7.548   3.973 -0.5675 -0.5724 -0.1979
 5964SOL    HW118417   4.630   7.551   3.940 -0.7562 -1.7088 -0.8753
 5964SOL    HW218418   4.536   7.617   4.039  0.2103  0.8812 -1.6022
 5965SOL     OW18419   7.064   5.095   1.481 -0.0419  0.0398  0.4535
 5965SOL    HW118420   7.021   5.112   1.565 -0.1375 -1.4072  0.7262
 5965SOL    HW218421   7.150   5.136   1.490 -0.1534  0.1427  1.1491
 5966SOL     OW18422   1.912   1.581   0.045  0.1259 -0.3286 -0.2869
 5966SOL    HW118423   1.903   1.525  -0.032 -0.2660  0.5235 -0.8743
 5966SOL    HW218424   1.892   1.669   0.013  1.4492  0.2728  0.4560
 5967SOL     OW18425   0.099   5.746   0.216  0.5187 -0.4091 -0.1238
 5967SOL    HW118426   0.168   5.793   0.261 -0.4237  1.7252 -0.7896
 5967SOL    HW218427   0.080   5.799   0.139 -1.2289 -1.4048 -0.4312
 5968SOL     OW18428   6.866   6.242   6.342  0.1733  0.4713  0.0567
 5968SOL    HW118429   6.866   6.155   6.303 -0.4011  0.3267  0.3747
 5968SOL    HW218430   6.857   6.226   6.436  2.5906  0.7477  0.4077
 5969SOL     OW18431   0.532   0.357   4.680 -1.1593 -0.1377  0.3914
 5969SOL    HW118432   0.590   0.377   4.607 -1.0881 -0.3405  0.3933
 5969SOL    HW218433   0.589   0.358   4.757 -1.6594  2.7417  0.8319
 5970SOL     OW18434   1.859   0.757   3.667  0.3740  0.0737 -0.1242
 5970SOL    HW118435   1.854   0.806   3.750 -0.0330 -0.3245  0.0875
 5970SOL    HW218436   1.949   0.725   3.664  0.7993  1.2381 -0.4997
 5971SOL     OW18437   3.606   1.999   4.783 -0.2069  0.4730 -0.2026
 5971SOL    HW118438   3.674   2.056   4.746  0.0972  0.4752  0.3424
 5971SOL    HW218439   3.655   1.929   4.827 -0.5738 -0.0192 -0.5744
 5972SOL     OW18440   4.571   1.662   1.755 -0.5823 -0.0450  0.5340
 5972SOL    HW118441   4.615   1.716   1.689 -2.7492 -0.1872 -1.1587
 5972SOL    HW218442   4.635   1.595   1.778  1.1019  1.4635  0.4547
 5973SOL     OW18443   3.623   5.511   1.304  0.1030 -0.2261  0.3734
 5973SOL    HW118444   3.611   5.418   1.283 -1.2415 -0.3251  1.4889
 5973SOL    HW218445   3.535   5.548   1.299  0.3758  0.6211  1.6520
 5974SOL     OW18446   1.908   0.729   1.702  0.6003  0.1018  0.0043
 5974SOL    HW118447   1.929   0.695   1.615  2.9691 -1.1820  0.9886
 5974SOL    HW218448   1.886   0.651   1.753  0.8295  0.6466  0.9454
 5975SOL     OW18449   1.581   5.997   6.531 -0.3065  0.0836  0.0677
 5975SOL    HW118450   1.633   6.075   6.514  0.7161 -0.4209  0.7540
 5975SOL    HW218451   1.640   5.924   6.513 -0.3835 -0.5003  1.8989
 5976SOL     OW18452   5.320   4.441   4.514 -0.3246 -0.8830 -0.0572
 5976SOL    HW118453   5.226   4.458   4.508 -0.2314 -0.0098  0.6920
 5976SOL    HW218454   5.351   4.447   4.424 -0.4547  2.3513 -0.0104
 5977SOL     OW18455   5.521   5.780   0.433 -0.6458 -0.2908 -0.1405
 5977SOL    HW118456   5.517   5.876   0.429  0.9517 -0.1879  0.1121
 5977SOL    HW218457   5.599   5.761   0.484 -0.8584 -1.7463 -0.3041
 5978SOL     OW18458   3.553   1.193   0.509  0.4981 -0.1736 -0.2203
 5978SOL    HW118459   3.646   1.208   0.521  0.4344  0.6061 -0.6588
 5978SOL    HW218460   3.510   1.259   0.563  0.2162  0.4386 -1.1503
 5979SOL     OW18461   1.347   4.731   4.144  0.1103 -0.0443 -0.4595
 5979SOL    HW118462   1.272   4.789   4.130 -0.3188 -0.3645  0.4163
 5979SOL    HW218463   1.419   4.773   4.097 -0.6255  0.2369 -1.3703
 5980SOL     OW18464   1.807   0.372   2.795 -0.3081 -0.3627  0.2374
 5980SOL    HW118465   1.782   0.390   2.704  1.2442  0.0716 -0.1431
 5980SOL    HW218466   1.824   0.277   2.796 -0.2478 -0.3558  0.0417
 5981SOL     OW18467   7.391   5.815   0.659  0.2365  0.6346  0.0033
 5981SOL    HW118468   7.418   5.723   0.651 -1.0970  0.3631 -2.5101
 5981SOL    HW218469   7.437   5.859   0.587 -0.8667  1.4545 -0.2207
 5982SOL     OW18470   5.764   6.227   4.074 -0.6772  0.1618  0.0995
 5982SOL    HW118471   5.675   6.245   4.045 -0.1668 -0.9244 -2.4146
 5982SOL    HW218472   5.786   6.301   4.131 -3.2812  0.2422  1.1371
 5983SOL     OW18473   5.670   3.366   1.316 -0.1507 -0.4035  0.3322
 5983SOL    HW118474   5.751   3.327   1.284  0.5681  0.5139  0.9626
 5983SOL    HW218475   5.657   3.328   1.402 -0.8502 -1.1618 -0.0940
 5984SOL     OW18476   3.813   3.814   0.072  0.3076 -0.1342  0.1787
 5984SOL    HW118477   3.761   3.855   0.003 -1.5820 -0.4721  1.3325
 5984SOL    HW218478   3.790   3.722   0.069  1.9817 -0.5737 -0.2086
 5985SOL     OW18479   4.974   1.614   5.852  0.3838  0.1415  0.1645
 5985SOL    HW118480   5.009   1.557   5.784 -0.9890  0.4321 -0.8471
 5985SOL    HW218481   4.931   1.555   5.914  1.0705 -0.0734  0.4525
 5986SOL     OW18482   2.607   0.161   5.350 -0.5567  0.2434 -0.5061
 5986SOL    HW118483   2.583   0.072   5.326  0.6549 -0.2856  0.1716
 5986SOL    HW218484   2.525   0.201   5.379 -0.6373 -1.6787  2.3465
 5987SOL     OW18485   6.939   5.632   6.899 -0.1944 -0.4424 -0.1495
 5987SOL    HW118486   6.876   5.595   6.961 -0.1474  0.5660  0.5199
 5987SOL    HW218487   6.884   5.673   6.832 -0.2468 -1.7050 -0.9007
 5988SOL     OW18488   2.547   1.006   4.121 -0.7153 -0.3368  0.0336
 5988SOL    HW118489   2.558   0.914   4.097  2.0223 -0.4040  1.2334
 5988SOL    HW218490   2.514   1.003   4.211 -2.5604 -0.0730 -0.5818
 5989SOL     OW18491   2.152   4.115   2.659 -0.1210 -0.3272 -0.9114
 5989SOL    HW118492   2.138   4.020   2.657  2.0262 -0.7312  0.0379
 5989SOL    HW218493   2.180   4.136   2.570  3.9024 -1.5172 -0.1554
 5990SOL     OW18494   4.823   5.196   7.297  0.0637 -0.1426  0.5469
 5990SOL    HW118495   4.873   5.240   7.229 -0.0039  0.3841  0.8262
 5990SOL    HW218496   4.759   5.143   7.251  1.9048 -2.1467  0.1188
 5991SOL     OW18497   5.272   1.988   3.388  0.2815  0.7684  0.0791
 5991SOL    HW118498   5.294   2.077   3.417  0.9359  0.3567  0.8508
 5991SOL    HW218499   5.296   1.987   3.295 -0.1409  1.5284 -0.0504
 5992SOL     OW18500   6.044   6.272   5.849  0.3892  0.2095 -0.2155
 5992SOL    HW118501   6.007   6.353   5.814 -0.6074 -0.4893 -0.8527
 5992SOL    HW218502   5.999   6.203   5.800  0.2857 -0.7583  1.1960
 5993SOL     OW18503   3.372   6.659   7.322  0.2595 -0.1075 -0.9852
 5993SOL    HW118504   3.302   6.711   7.360 -0.0435  0.7342 -2.5972
 5993SOL    HW218505   3.334   6.572   7.309 -0.3961  0.2592 -1.5662
 5994SOL     OW18506   3.334   1.666   1.204 -0.2153  0.7175 -0.0491
 5994SOL    HW118507   3.406   1.602   1.200  0.0859  0.8766  1.7175
 5994SOL    HW218508   3.258   1.619   1.171 -0.0897 -0.7605  1.5870
 5995SOL     OW18509   3.483   1.727   5.771  0.5376 -0.4640 -0.0196
 5995SOL    HW118510   3.428   1.782   5.826 -0.0723 -0.8230 -0.2568
 5995SOL    HW218511   3.534   1.789   5.718 -0.1217 -0.1220 -0.2671
 5996SOL     OW18512   2.084   6.965   0.107  0.2916 -0.0961 -0.3353
 5996SOL    HW118513   2.097   7.052   0.067 -1.6898 -0.6471 -2.4450
 5996SOL    HW218514   2.171   6.925   0.106  0.9504  1.2723 -0.8462
 5997SOL     OW18515   1.880   4.883   1.077 -0.2308  0.3622  0.4863
 5997SOL    HW118516   1.913   4.968   1.105 -0.9072  1.4951 -1.9545
 5997SOL    HW218517   1.785   4.893   1.072 -0.3997 -0.7967  0.8448
 5998SOL     OW18518   6.684   5.283   4.156  0.1839 -0.3561  0.2719
 5998SOL    HW118519   6.615   5.342   4.127  0.0308 -1.0070 -0.7612
 5998SOL    HW218520   6.656   5.197   4.125  0.6557 -0.8999  1.2849
 5999SOL     OW18521   2.222   1.067   4.011  0.1457 -0.0866  0.4969
 5999SOL    HW118522   2.317   1.061   4.010  0.2637  1.4444  0.6042
 5999SOL    HW218523   2.200   1.112   3.929 -0.5512 -1.0632  0.1307
 6000SOL     OW18524   4.378   7.350   3.827 -0.4476 -0.3036  0.3936
 6000SOL    HW118525   4.445   7.333   3.762  0.3286 -1.5782  1.4718
 6000SOL    HW218526   4.298   7.313   3.790 -0.7803  1.8215 -1.1951
 6001SOL     OW18527   2.813   1.473   2.758 -0.5779  0.4345 -0.5343
 6001SOL    HW118528   2.765   1.523   2.824  1.3479  0.6446  0.8148
 6001SOL    HW218529   2.746   1.430   2.706 -2.2053  0.1363  1.6734
 6002SOL     OW18530   5.901   2.299   0.414 -0.3780 -0.4712 -0.0609
 6002SOL    HW118531   5.858   2.281   0.497 -0.3290 -2.2036 -0.3812
 6002SOL    HW218532   5.969   2.232   0.407 -0.7169 -0.6894 -1.7248
 6003SOL     OW18533   2.103   1.669   5.306 -0.0226 -0.1078  0.1061
 6003SOL    HW118534   2.193   1.653   5.278 -0.2394 -0.3506 -0.4566
 6003SOL    HW218535   2.078   1.590   5.355 -0.1466 -0.3127 -0.2872
 6004SOL     OW18536   1.981   2.605   1.486 -0.0140 -0.0094  0.0787
 6004SOL    HW118537   1.960   2.625   1.395  1.7510  1.2517 -0.0963
 6004SOL    HW218538   2.054   2.663   1.508 -0.7300  0.1002  2.4769
 6005SOL     OW18539   6.903   1.349   1.731  0.5718 -0.0265  0.1115
 6005SOL    HW118540   6.850   1.368   1.653  0.8409  2.5105  0.4460
 6005SOL    HW218541   6.923   1.256   1.724 -2.5283 -0.7517 -0.8743
 6006SOL     OW18542   1.070   7.555   1.912  0.5704  0.1068 -0.0660
 6006SOL    HW118543   1.037   7.467   1.931  2.7885 -0.4493  1.7570
 6006SOL    HW218544   1.122   7.577   1.989  1.3922  2.3540 -1.2003
 6007SOL     OW18545   3.505   1.521   4.867  0.5282 -1.2261  0.1544
 6007SOL    HW118546   3.436   1.475   4.915 -0.5367  1.2807  1.2144
 6007SOL    HW218547   3.572   1.539   4.933  0.2024  0.0530  0.1725
 6008SOL     OW18548   3.998   6.472   4.160  0.9201 -0.0818 -0.4727
 6008SOL    HW118549   4.028   6.549   4.208  3.3311 -0.2186 -1.5990
 6008SOL    HW218550   3.907   6.492   4.135  0.4602  1.0313  1.8797
 6009SOL     OW18551   7.233   6.641   1.913 -0.0855  0.2599 -0.3647
 6009SOL    HW118552   7.295   6.703   1.951 -0.7881 -0.2590  1.7340
 6009SOL    HW218553   7.278   6.556   1.916  0.0860  0.3069 -1.3042
 6010SOL     OW18554   4.222   5.000   6.986 -0.6538  0.1854 -0.0369
 6010SOL    HW118555   4.191   4.951   6.910  0.1582 -0.4379  0.0230
 6010SOL    HW218556   4.147   5.053   7.013 -0.4799  1.7499 -2.3275
 6011SOL     OW18557   1.276   4.585   2.123  0.1186  0.2151 -0.6346
 6011SOL    HW118558   1.320   4.607   2.041  2.0305  1.1430  0.5527
 6011SOL    HW218559   1.339   4.528   2.169 -0.0753  1.2127  0.9467
 6012SOL     OW18560   4.394   7.174   0.467 -0.7896 -0.1123  0.1922
 6012SOL    HW118561   4.457   7.222   0.521 -0.3913 -0.4853  0.0657
 6012SOL    HW218562   4.447   7.133   0.399 -1.3163  0.5957 -0.6686
 6013SOL     OW18563   4.729   6.188   4.489 -0.3391  0.3280 -0.3303
 6013SOL    HW118564   4.735   6.095   4.466 -1.9172  0.4359 -1.2714
 6013SOL    HW218565   4.820   6.213   4.507 -0.0994 -2.0380  2.7082
 6014SOL     OW18566   7.174   0.372   1.432 -0.3569 -0.4851  0.6412
 6014SOL    HW118567   7.230   0.335   1.363 -0.3372 -1.9120  1.3694
 6014SOL    HW218568   7.092   0.393   1.388  0.1441 -0.0260 -0.0945
 6015SOL     OW18569   6.580   3.931   2.328 -0.1253  0.4257  0.3737
 6015SOL    HW118570   6.630   3.916   2.409  0.0814  2.6355  0.7293
 6015SOL    HW218571   6.643   3.971   2.269 -0.8041  0.7300 -0.1475
 6016SOL     OW18572   4.862   0.720   6.146 -0.1266  0.6210  0.0141
 6016SOL    HW118573   4.938   0.663   6.134 -0.3835  0.3160 -0.1720
 6016SOL    HW218574   4.787   0.666   6.122 -0.3220  1.2457 -0.8393
 6017SOL     OW18575   2.762   2.391   6.865 -0.2009  0.3465  0.2953
 6017SOL    HW118576   2.700   2.357   6.801 -1.5000  2.1799  0.4975
 6017SOL    HW218577   2.846   2.391   6.819 -0.2965 -2.0636 -0.0245
 6018SOL     OW18578   2.841   1.687   4.725  0.1989 -0.0630  0.4222
 6018SOL    HW118579   2.772   1.741   4.761 -0.1637 -0.2775  0.0563
 6018SOL    HW218580   2.834   1.604   4.772  0.0874 -0.1496  0.2523
 6019SOL     OW18581   1.884   4.024   3.934 -0.0826  0.2795  0.2469
 6019SOL    HW118582   1.921   4.105   3.969 -1.6730  0.8672  0.6691
 6019SOL    HW218583   1.950   3.992   3.872  1.0734  1.2855  0.9113
 6020SOL     OW18584   0.600   6.515   4.529 -0.5028  0.6862  0.2969
 6020SOL    HW118585   0.535   6.469   4.476 -0.9824  0.6135  0.9373
 6020SOL    HW218586   0.631   6.586   4.472 -1.0883  0.6774 -0.0441
 6021SOL     OW18587   4.015   0.743   2.224 -0.4232 -0.2462  0.4465
 6021SOL    HW118588   4.014   0.801   2.147 -1.4127  0.2281  0.7985
 6021SOL    HW218589   4.098   0.762   2.267 -0.5640  0.6644  0.3461
 6022SOL     OW18590   0.736   4.918   0.595  0.8377 -0.4327 -0.3417
 6022SOL    HW118591   0.759   4.913   0.688  1.0302  1.5589 -0.2548
 6022SOL    HW218592   0.640   4.908   0.593  0.4697  2.3327  0.3910
 6023SOL     OW18593   2.991   3.490   0.486 -0.7785  0.1631  0.3781
 6023SOL    HW118594   2.981   3.499   0.391 -0.3307 -0.0946  0.3057
 6023SOL    HW218595   3.066   3.545   0.507  0.6954 -1.7198  0.2240
 6024SOL     OW18596   4.495   3.869   2.802  0.5911  0.1458 -0.0216
 6024SOL    HW118597   4.565   3.831   2.749  1.0524 -0.0479  0.7169
 6024SOL    HW218598   4.415   3.849   2.753  0.8781 -1.2923  0.0619
 6025SOL     OW18599   4.992   3.522   0.617  0.2161  0.8515  0.2444
 6025SOL    HW118600   4.979   3.484   0.530  3.8763 -1.1945  0.3703
 6025SOL    HW218601   5.031   3.608   0.600  0.0338  0.8638 -0.1162
 6026SOL     OW18602   3.906   1.060   6.366  0.2072 -0.1288  0.3984
 6026SOL    HW118603   3.966   1.135   6.368 -0.4662  0.7075 -3.2878
 6026SOL    HW218604   3.963   0.984   6.374  1.5659  0.6977 -0.8210
 6027SOL     OW18605   7.229   2.343   0.173  0.1572 -0.4106 -0.3998
 6027SOL    HW118606   7.291   2.412   0.149  1.9215 -1.8603 -0.1699
 6027SOL    HW218607   7.225   2.286   0.097  1.8740 -2.2382  0.7678
 6028SOL     OW18608   5.319   3.223   6.450 -0.0381 -0.3824 -0.2360
 6028SOL    HW118609   5.362   3.232   6.365  0.9879  0.0779  0.3105
 6028SOL    HW218610   5.388   3.241   6.513 -0.9255 -0.1430  0.6877
 6029SOL     OW18611   2.711   5.376   1.971 -0.3665 -0.1474  0.1569
 6029SOL    HW118612   2.681   5.336   2.052 -2.8217  2.4463  0.6958
 6029SOL    HW218613   2.759   5.455   1.999 -1.2818  0.8052 -0.8518
 6030SOL     OW18614   6.480   7.346   2.770 -0.0238 -0.1640 -0.2425
 6030SOL    HW118615   6.480   7.426   2.823  1.3698 -1.3123  1.6042
 6030SOL    HW218616   6.456   7.376   2.682 -0.7632  2.0741  0.6480
 6031SOL     OW18617   4.993   7.404   3.748  0.3640  0.2863 -0.1070
 6031SOL    HW118618   4.942   7.478   3.780  0.1375 -1.1278  3.2770
 6031SOL    HW218619   5.082   7.422   3.779  0.1236 -1.1937  1.6234
 6032SOL     OW18620   3.060   4.566   5.618 -0.0572  0.4391 -0.1789
 6032SOL    HW118621   3.107   4.483   5.607  0.7276  0.6701  1.1761
 6032SOL    HW218622   3.108   4.612   5.687 -1.4257  1.3335  0.2237
 6033SOL     OW18623   3.393   1.367   7.317  0.2414  0.1414 -0.1249
 6033SOL    HW118624   3.411   1.278   7.347  3.2487  0.0442 -1.8879
 6033SOL    HW218625   3.405   1.422   7.394  1.3270 -0.7154  0.3364
 6034SOL     OW18626   5.007   3.792   6.996  0.0756  0.0267  0.0716
 6034SOL    HW118627   4.924   3.813   7.037  0.3374  2.9224 -0.6384
 6034SOL    HW218628   5.070   3.789   7.068  0.1471  2.8803  0.2537
 6035SOL     OW18629   2.070   6.557   6.084  0.4724  0.6015 -0.3453
 6035SOL    HW118630   1.978   6.568   6.110 -0.1330 -0.4592 -1.8551
 6035SOL    HW218631   2.113   6.522   6.161 -0.2395  1.7156  0.5905
 6036SOL     OW18632   4.228   1.766   3.422  0.4117  0.1787 -0.0458
 6036SOL    HW118633   4.187   1.828   3.361  1.5715 -0.8305 -1.9649
 6036SOL    HW218634   4.162   1.752   3.490 -0.4212  2.3885 -0.3086
 6037SOL     OW18635   7.332   5.967   2.232 -0.3076  0.1422  0.4802
 6037SOL    HW118636   7.253   5.957   2.286 -1.0090  0.0297 -0.5340
 6037SOL    HW218637   7.391   6.020   2.285 -1.0604  0.2136  1.2690
 6038SOL     OW18638   4.186   6.233   6.880  0.5476 -0.1939 -0.3143
 6038SOL    HW118639   4.240   6.202   6.953  1.2485 -0.5731 -0.9804
 6038SOL    HW218640   4.240   6.301   6.839  0.5570 -0.6500 -1.0522
 6039SOL     OW18641   0.394   7.478   3.456 -0.1901  0.5192 -0.1573
 6039SOL    HW118642   0.300   7.462   3.465 -0.3231  0.8290 -0.9213
 6039SOL    HW218643   0.416   7.531   3.533 -0.0131 -2.0339  1.6818
 6040SOL     OW18644   0.842   5.303   1.894 -0.3693 -0.0094 -0.2085
 6040SOL    HW118645   0.933   5.293   1.922 -0.3012  0.0182 -0.4191
 6040SOL    HW218646   0.799   5.345   1.969 -0.0776  0.5177 -0.3305
 6041SOL     OW18647   5.084   6.240   2.622 -0.6596 -0.4017  0.3895
 6041SOL    HW118648   5.103   6.147   2.631 -1.7716 -0.5870  0.9924
 6041SOL    HW218649   5.164   6.277   2.586 -1.1238 -2.0206 -2.5912
 6042SOL     OW18650   2.277   0.158   0.028  0.6142  0.1144 -0.6225
 6042SOL    HW118651   2.229   0.227   0.074 -0.2165  0.0342 -1.3468
 6042SOL    HW218652   2.222   0.137  -0.048  0.7418 -1.4923 -0.2978
 6043SOL     OW18653   3.806   3.180   0.774 -0.1741 -0.0067 -0.1544
 6043SOL    HW118654   3.772   3.225   0.851  0.4023  0.3708 -0.1098
 6043SOL    HW218655   3.820   3.090   0.803 -1.6302 -0.3170 -0.3340
 6044SOL     OW18656   4.609   0.527   1.818  0.0915 -0.4488 -0.3252
 6044SOL    HW118657   4.607   0.499   1.727  3.8951 -0.8053 -0.4771
 6044SOL    HW218658   4.702   0.544   1.836 -0.5412  0.0666  3.3621
 6045SOL     OW18659   0.387   1.923   4.567  0.1795 -0.0304 -0.3512
 6045SOL    HW118660   0.324   1.913   4.496  0.8113 -1.5140 -0.7229
 6045SOL    HW218661   0.360   2.004   4.611 -0.1106  1.0213 -2.3583
 6046SOL     OW18662   3.216   0.198   2.966 -0.1388 -0.1415  0.1365
 6046SOL    HW118663   3.126   0.215   2.939 -0.3858 -1.8132 -0.1919
 6046SOL    HW218664   3.254   0.285   2.979 -1.2083  0.6359 -1.6143
 6047SOL     OW18665   1.421   0.448   3.599 -0.5454 -0.2001  0.1835
 6047SOL    HW118666   1.460   0.514   3.541 -0.2149 -1.0385 -0.5599
 6047SOL    HW218667   1.364   0.499   3.658  0.5300  0.8757  0.3385
 6048SOL     OW18668   5.363   0.768   1.342 -0.1423  0.5132 -0.1760
 6048SOL    HW118669   5.455   0.793   1.342 -0.1084  0.5424 -2.1859
 6048SOL    HW218670   5.330   0.795   1.257 -1.9640  0.2716  0.3967
 6049SOL     OW18671   4.201   5.555   2.368 -0.3022  0.8240  0.4459
 6049SOL    HW118672   4.130   5.516   2.316 -1.8376  0.5202  2.6658
 6049SOL    HW218673   4.194   5.649   2.350  1.0444  0.5442 -2.0297
 6050SOL     OW18674   4.924   5.451   0.302  0.0463  0.3046  0.2521
 6050SOL    HW118675   4.927   5.472   0.396 -0.1655 -2.0592  0.8520
 6050SOL    HW218676   4.840   5.485   0.272 -0.2408  0.3785  1.1160
 6051SOL     OW18677   5.888   4.104   6.850  0.1322 -0.6725 -0.0399
 6051SOL    HW118678   5.919   4.017   6.874 -1.4732 -0.9456  1.1660
 6051SOL    HW218679   5.795   4.093   6.833 -0.2152  0.8961  0.6748
 6052SOL     OW18680   7.045   3.902   3.331  0.4226  0.6803 -0.1433
 6052SOL    HW118681   7.112   3.857   3.279 -0.2026 -2.1871  1.3185
 6052SOL    HW218682   7.094   3.966   3.383  1.7841 -0.0715 -0.4456
 6053SOL     OW18683   3.755   1.630   4.446 -0.9326 -0.2291  0.3589
 6053SOL    HW118684   3.821   1.670   4.502 -2.5072  0.1332  2.0782
 6053SOL    HW218685   3.767   1.536   4.458  0.4801 -0.2481 -0.8964
 6054SOL     OW18686   7.413   4.784   7.053  0.6742  0.0236  0.1111
 6054SOL    HW118687   7.374   4.749   7.133 -0.4983 -1.4723 -1.0567
 6054SOL    HW218688   7.468   4.714   7.019  0.2201  0.1862 -1.0047
 6055SOL     OW18689   6.040   1.650   5.457  0.4987  0.2915  0.0556
 6055SOL    HW118690   6.107   1.602   5.407 -0.7727 -0.0362 -1.4057
 6055SOL    HW218691   6.001   1.584   5.514 -0.9067 -0.3697 -1.5930
 6056SOL     OW18692   4.165   2.235   5.325  0.2237  0.9092 -0.0380
 6056SOL    HW118693   4.206   2.319   5.348 -0.5000  0.9165  1.3283
 6056SOL    HW218694   4.192   2.220   5.234  0.4596  2.5644 -0.2832
 6057SOL     OW18695   3.590   0.907   5.073 -0.5471 -0.8420  0.0114
 6057SOL    HW118696   3.656   0.943   5.013 -1.9395 -0.5541 -1.4141
 6057SOL    HW218697   3.622   0.931   5.160  0.6157  0.3555 -0.6938
 6058SOL     OW18698   2.337   4.090   1.910 -0.0186  0.2219  0.5593
 6058SOL    HW118699   2.385   4.088   1.993  0.9140  1.1888  0.0548
 6058SOL    HW218700   2.249   4.119   1.934  0.4821  1.3437  1.1139
 6059SOL     OW18701   2.676   1.872   4.524  0.2006 -0.8323  0.5450
 6059SOL    HW118702   2.711   1.786   4.501  0.0383 -0.5948 -0.6475
 6059SOL    HW218703   2.600   1.883   4.466 -0.4323 -0.3443  1.4438
 6060SOL     OW18704   6.145   1.388   5.842  0.5973 -0.1162  0.4721
 6060SOL    HW118705   6.161   1.294   5.831 -1.3307 -0.3695 -0.6985
 6060SOL    HW218706   6.108   1.416   5.758 -1.6716  1.0133  1.7440
 6061SOL     OW18707   2.684   6.070   0.661  0.5816  0.3993  0.5331
 6061SOL    HW118708   2.757   6.062   0.601  0.1012  1.8354 -0.2914
 6061SOL    HW218709   2.624   6.132   0.619 -0.6006  0.0975  1.6802
 6062SOL     OW18710   2.342   4.126   6.353  0.0550  0.1637 -0.3060
 6062SOL    HW118711   2.420   4.148   6.302 -0.9912  0.1180 -2.0425
 6062SOL    HW218712   2.352   4.033   6.374  0.6729  0.2706 -0.1200
 6063SOL     OW18713   0.702   0.750   1.325  0.0411  0.1780 -0.1002
 6063SOL    HW118714   0.768   0.700   1.277  0.8249 -1.4765  2.5027
 6063SOL    HW218715   0.752   0.808   1.382 -0.6491 -0.8157  1.6191
 6064SOL     OW18716   2.237   4.510   1.391  0.2629 -0.0896 -0.0565
 6064SOL    HW118717   2.280   4.549   1.467  0.2329  0.2075 -0.1909
 6064SOL    HW218718   2.174   4.576   1.363 -0.1757 -0.4595  0.0461
 6065SOL     OW18719   6.115   1.132   2.089 -0.0806 -0.0822 -0.3514
 6065SOL    HW118720   6.186   1.175   2.042 -0.2667  0.8098  0.1810
 6065SOL    HW218721   6.158   1.063   2.140  0.4559  0.7226  0.2951
 6066SOL     OW18722   4.007   6.659   6.564 -0.0080  0.1316  0.7924
 6066SOL    HW118723   3.978   6.750   6.569  0.8995  0.4007  1.3665
 6066SOL    HW218724   4.033   6.647   6.473  0.6755  0.7085  0.9033
 6067SOL     OW18725   1.639   5.482   2.997 -0.6585  0.8867 -0.7868
 6067SOL    HW118726   1.614   5.476   2.905 -1.1454  1.8665 -0.7309
 6067SOL    HW218727   1.558   5.468   3.045 -0.3741  0.2000 -0.4889
 6068SOL     OW18728   0.995   6.128   3.305 -0.2081 -0.0606  0.5137
 6068SOL    HW118729   0.917   6.166   3.345  0.0296  2.2447 -1.0285
 6068SOL    HW218730   1.014   6.051   3.358 -2.3686  0.4258  2.1280
 6069SOL     OW18731   2.776   1.669   0.219 -0.3277  0.0719  0.7139
 6069SOL    HW118732   2.797   1.748   0.169  0.6067 -0.5155  0.1440
 6069SOL    HW218733   2.757   1.700   0.307  0.1015  0.9257  0.5136
 6070SOL     OW18734   7.489   0.048   5.620 -0.6090  0.1378  0.0732
 6070SOL    HW118735   7.580   0.078   5.627 -1.0318  1.2621  1.2147
 6070SOL    HW218736   7.472   0.046   5.526  0.5658 -0.0110 -0.1528
 6071SOL     OW18737   5.864   1.851   7.538 -0.4227  0.1779 -0.0583
 6071SOL    HW118738   5.787   1.883   7.491 -0.3411 -0.8157 -0.9043
 6071SOL    HW218739   5.920   1.813   7.470  0.6761  0.5882  0.5806
 6072SOL     OW18740   4.762   0.150   1.349 -0.1829 -0.1420  0.0246
 6072SOL    HW118741   4.708   0.124   1.275  2.0766 -0.7988 -1.5067
 6072SOL    HW218742   4.835   0.199   1.309  0.5084  0.4798  1.9423
 6073SOL     OW18743   5.378   6.436   4.994 -0.3582 -0.4885  0.2605
 6073SOL    HW118744   5.418   6.382   5.062 -0.8950 -1.3131 -0.0452
 6073SOL    HW218745   5.369   6.522   5.033  1.0880 -0.4498  0.5607
 6074SOL     OW18746   1.352   3.555   4.744 -0.2369  0.1328 -0.8553
 6074SOL    HW118747   1.347   3.635   4.795  1.8420 -0.8166  1.0099
 6074SOL    HW218748   1.310   3.489   4.799  1.3143 -0.7407 -0.6546
 6075SOL     OW18749   0.536   5.366   0.752 -0.1384  0.5907 -0.0642
 6075SOL    HW118750   0.441   5.370   0.737 -0.1303 -0.6904 -0.5629
 6075SOL    HW218751   0.572   5.334   0.670  0.6717  0.4900  0.3209
 6076SOL     OW18752   0.092   7.439   4.555 -0.2005  0.3738 -0.2433
 6076SOL    HW118753   0.094   7.381   4.479  0.2077 -1.8434  1.3625
 6076SOL    HW218754   0.006   7.481   4.550 -0.2994  0.0701 -1.7392
 6077SOL     OW18755   4.892   4.035   5.293  0.0345 -0.1566  0.1682
 6077SOL    HW118756   4.876   3.999   5.206  1.8009 -2.4399  0.6858
 6077SOL    HW218757   4.832   3.987   5.351 -0.1115  0.3121  0.4136
 6078SOL     OW18758   7.006   4.111   4.769  0.1871 -0.2029 -0.2586
 6078SOL    HW118759   7.093   4.094   4.807 -1.1832 -2.4631  2.1960
 6078SOL    HW218760   6.984   4.200   4.798  0.9783 -0.2727  0.6157
 6079SOL     OW18761   5.939   4.010   4.476  0.0091 -0.0471 -0.2449
 6079SOL    HW118762   5.899   4.014   4.389 -0.5049 -1.2111 -0.0778
 6079SOL    HW218763   6.022   3.965   4.463 -0.4091 -0.9039 -0.0341
 6080SOL     OW18764   4.243   7.471   0.700  0.5767  0.2630  1.1461
 6080SOL    HW118765   4.297   7.412   0.754  1.8041  0.0020 -0.3025
 6080SOL    HW218766   4.306   7.521   0.649 -0.5417 -0.1576 -0.7313
 6081SOL     OW18767   2.268   1.440   3.965  0.4948  0.0890 -0.3408
 6081SOL    HW118768   2.246   1.370   3.903 -0.0845  0.8707 -1.0345
 6081SOL    HW218769   2.288   1.394   4.046 -1.7471 -0.8146 -0.2333
 6082SOL     OW18770   5.291   5.026   7.461  0.4536 -0.1078 -0.4575
 6082SOL    HW118771   5.352   4.983   7.521  1.2527  0.8120 -0.5885
 6082SOL    HW218772   5.208   4.982   7.477  0.6334  0.1092  1.3268
 6083SOL     OW18773   5.760   0.605   6.606  0.0114 -0.1116  0.3026
 6083SOL    HW118774   5.683   0.556   6.635  0.7122 -0.8683  0.9607
 6083SOL    HW218775   5.775   0.576   6.516  0.2445 -0.9163  0.5897
 6084SOL     OW18776   3.909   7.507   6.164 -0.2824  0.4375 -0.0559
 6084SOL    HW118777   3.898   7.525   6.071 -1.5592 -0.5127 -0.1292
 6084SOL    HW218778   3.956   7.423   6.167 -2.8902 -1.1302  0.0297
 6085SOL     OW18779   6.023   7.232   3.514 -0.1778 -0.4032  0.0997
 6085SOL    HW118780   6.074   7.159   3.480  1.4499  0.5250  0.4575
 6085SOL    HW218781   5.956   7.247   3.447 -1.3481 -2.9472  0.5736
 6086SOL     OW18782   6.480   0.562   3.138 -0.2975 -0.6890  0.2240
 6086SOL    HW118783   6.562   0.582   3.092  0.6111  0.3243  2.1513
 6086SOL    HW218784   6.500   0.483   3.189 -0.3018 -0.1160  1.1390
 6087SOL     OW18785   4.639   5.022   1.122  0.1816  0.0970  0.5999
 6087SOL    HW118786   4.678   5.096   1.076 -0.6532  1.1193  1.4965
 6087SOL    HW218787   4.665   5.035   1.214  0.4493 -1.0136  0.6944
 6088SOL     OW18788   1.162   6.041   2.960 -0.0930 -0.2773  0.0328
 6088SOL    HW118789   1.075   6.014   2.929  0.3738 -2.2583  0.3238
 6088SOL    HW218790   1.201   5.961   2.996  0.9549  1.0598  2.0770
 6089SOL     OW18791   6.519   1.267   1.417 -0.0193 -1.4078 -0.8725
 6089SOL    HW118792   6.579   1.250   1.344  0.4551  0.5920 -1.0064
 6089SOL    HW218793   6.437   1.292   1.375  1.1654  3.1406 -0.9909
 6090SOL     OW18794   1.794   5.172   2.622  0.1683 -0.4300 -0.3261
 6090SOL    HW118795   1.740   5.112   2.570 -1.9439  0.2587  0.9674
 6090SOL    HW218796   1.814   5.123   2.702 -0.2668  0.0198  0.0664
 6091SOL     OW18797   6.917   1.502   6.290 -0.2908 -0.2908  0.0879
 6091SOL    HW118798   6.937   1.423   6.240 -0.9360  0.3380 -1.2005
 6091SOL    HW218799   6.992   1.512   6.350  0.3685 -1.2061 -0.5547
 6092SOL     OW18800   1.924   4.669   0.830  0.1348 -0.0585 -0.1355
 6092SOL    HW118801   1.953   4.719   0.753 -2.4547  2.3187  0.2754
 6092SOL    HW218802   1.971   4.709   0.904 -1.0217  0.9791  0.0521
 6093SOL     OW18803   5.031   6.047   5.007  0.4704  0.0932  0.3620
 6093SOL    HW118804   4.994   6.052   4.919  1.3310 -1.5103 -0.1258
 6093SOL    HW218805   4.966   6.000   5.058  1.2253 -1.6220 -0.1896
 6094SOL     OW18806   2.988   4.501   2.463  0.2635 -0.1748 -0.4554
 6094SOL    HW118807   2.897   4.471   2.468 -0.2240  1.2660  4.1629
 6094SOL    HW218808   3.039   4.427   2.497  0.3311  0.3291  0.5615
 6095SOL     OW18809   0.018   4.303   4.247  0.1166 -0.5060 -0.1815
 6095SOL    HW118810   0.106   4.294   4.284 -0.0198 -2.0163 -0.1508
 6095SOL    HW218811   0.030   4.357   4.169  0.6078  1.7208  1.3424
 6096SOL     OW18812   7.301   6.562   7.084  0.2350  0.2415 -0.0048
 6096SOL    HW118813   7.359   6.617   7.136  0.2049 -0.1216  0.4167
 6096SOL    HW218814   7.346   6.477   7.078 -1.0332 -0.6214  1.8361
 6097SOL     OW18815   0.907   4.565   5.599 -0.4682  0.5126  0.1838
 6097SOL    HW118816   0.877   4.656   5.593 -0.4007  0.5532  0.4511
 6097SOL    HW218817   0.966   4.564   5.675 -2.7935 -0.3745  2.1310
 6098SOL     OW18818   1.820   0.298   6.771  0.2320 -0.2055  0.4286
 6098SOL    HW118819   1.898   0.303   6.715 -0.3905  0.7815 -0.3879
 6098SOL    HW218820   1.755   0.351   6.725 -0.6663 -0.3410  1.5202
 6099SOL     OW18821   4.591   4.450   4.098 -0.0847 -0.3679  0.2718
 6099SOL    HW118822   4.665   4.395   4.074 -0.1733 -0.6530  0.6444
 6099SOL    HW218823   4.524   4.430   4.032  0.5199  0.6557 -0.6888
 6100SOL     OW18824   4.550   1.268   1.317 -0.8853 -0.0705  0.1550
 6100SOL    HW118825   4.524   1.306   1.233  0.5809 -0.6100 -0.5797
 6100SOL    HW218826   4.640   1.298   1.330 -1.8256  1.9455  2.7240
 6101SOL     OW18827   0.018   0.267   4.486 -0.1344 -0.0049  0.5631
 6101SOL    HW118828   0.098   0.287   4.536  0.2952  0.5639 -0.3277
 6101SOL    HW218829  -0.053   0.300   4.541  0.3047  0.3083  0.9549
 6102SOL     OW18830   6.570   4.991   6.636  0.3875  0.7468  0.0747
 6102SOL    HW118831   6.609   5.009   6.721  2.2891  0.7574 -0.7526
 6102SOL    HW218832   6.639   5.010   6.573 -0.9014  0.5432 -1.4773
 6103SOL     OW18833   2.996   3.300   6.316  0.7303 -0.8299  0.1981
 6103SOL    HW118834   3.030   3.237   6.378  0.0131 -0.5716  0.8689
 6103SOL    HW218835   3.060   3.371   6.316  0.3601 -0.4785  1.2346
 6104SOL     OW18836   6.879   5.005   5.683  0.2150  0.8641  0.2221
 6104SOL    HW118837   6.885   4.948   5.607 -1.2023  1.6748 -0.5424
 6104SOL    HW218838   6.951   5.067   5.673  0.2838  0.7114 -0.2327
 6105SOL     OW18839   3.930   1.312   3.888 -0.5106 -0.3395 -0.3821
 6105SOL    HW118840   3.986   1.357   3.825  0.5385 -1.3991 -0.2372
 6105SOL    HW218841   3.852   1.287   3.837 -0.0091 -0.5218 -1.0779
 6106SOL     OW18842   1.002   7.192   2.581  0.4179 -0.4148  0.7310
 6106SOL    HW118843   0.908   7.191   2.602  0.2855 -1.3298  0.1235
 6106SOL    HW218844   1.036   7.112   2.620  0.7753 -0.5274  0.1942
 6107SOL     OW18845   6.383   3.761   4.265  0.3912 -0.4209 -0.1623
 6107SOL    HW118846   6.353   3.847   4.237 -1.2695 -1.5676 -2.1618
 6107SOL    HW218847   6.479   3.764   4.255  0.4037  1.3403  0.3391
 6108SOL     OW18848   0.816   6.179   4.693  0.2282  0.0957  0.2030
 6108SOL    HW118849   0.905   6.151   4.668 -0.4222 -0.8667 -1.1765
 6108SOL    HW218850   0.819   6.274   4.689  1.4205  0.1230  1.0399
 6109SOL     OW18851   5.814   1.716   2.575  0.2223 -0.7304  0.2080
 6109SOL    HW118852   5.904   1.743   2.554 -1.1796  2.6835 -2.2673
 6109SOL    HW218853   5.797   1.644   2.514  0.8465 -0.4662 -0.2987
 6110SOL     OW18854   0.006   1.438   5.806 -0.0642 -0.5168  0.0873
 6110SOL    HW118855  -0.055   1.383   5.757 -0.0670  0.1702 -0.7046
 6110SOL    HW218856   0.026   1.387   5.885 -1.1669 -1.0252  0.0629
 6111SOL     OW18857   7.066   4.683   3.296 -0.5356  0.4068  0.0801
 6111SOL    HW118858   7.014   4.711   3.371 -1.7674 -1.6233  0.0322
 6111SOL    HW218859   7.114   4.762   3.270 -0.1501  1.2046  2.9057
 6112SOL     OW18860   1.649   4.712   0.451 -0.0239  0.1872  0.0501
 6112SOL    HW118861   1.684   4.801   0.451  0.6520 -0.0710  0.3151
 6112SOL    HW218862   1.695   4.668   0.522 -0.3008 -0.3930 -0.1236
 6113SOL     OW18863   2.945   4.096   5.984 -0.4444  0.2627 -0.4722
 6113SOL    HW118864   2.985   4.013   5.957  0.4934  0.1115  1.2259
 6113SOL    HW218865   2.997   4.164   5.941  1.1658  0.0379  0.9774
 6114SOL     OW18866   0.745   1.280   7.496  0.0002  0.2469  0.2330
 6114SOL    HW118867   0.806   1.270   7.568 -0.5153  0.1614  0.6627
 6114SOL    HW218868   0.658   1.273   7.536 -0.2877 -0.1460 -0.4400
 6115SOL     OW18869   1.267   5.013   6.252 -0.1924  0.0691  0.5012
 6115SOL    HW118870   1.311   5.091   6.218 -0.7925 -0.0165 -0.5180
 6115SOL    HW218871   1.262   4.954   6.178  0.1727 -0.9236  1.2464
 6116SOL     OW18872   6.144   7.447   6.315 -0.4290 -0.0056  0.2281
 6116SOL    HW118873   6.104   7.498   6.245 -0.6424 -0.6640 -0.1435
 6116SOL    HW218874   6.195   7.510   6.366 -0.0938  0.4435 -0.6490
 6117SOL     OW18875   2.719   6.982   4.965 -0.0646 -0.3211 -0.1408
 6117SOL    HW118876   2.720   7.075   4.989  1.1002 -0.1039 -0.9470
 6117SOL    HW218877   2.789   6.974   4.900  0.2158 -1.8823  0.3279
 6118SOL     OW18878   7.566   3.127   2.488  0.3630 -0.2145 -0.1050
 6118SOL    HW118879   7.527   3.214   2.482  0.0477 -0.2295  1.3418
 6118SOL    HW218880   7.552   3.101   2.579  0.6761 -1.6781 -0.4544
 6119SOL     OW18881   0.583   4.672   4.361 -0.2620  0.1125 -0.5227
 6119SOL    HW118882   0.654   4.731   4.385 -2.4168  1.4343  3.6570
 6119SOL    HW218883   0.537   4.718   4.291 -0.1449  2.0396  0.5750
 6120SOL     OW18884   1.546   2.587   0.724 -0.1971 -0.5565 -0.1621
 6120SOL    HW118885   1.506   2.654   0.669 -0.3055 -0.9606 -0.5799
 6120SOL    HW218886   1.487   2.580   0.799 -0.2320 -0.2452 -0.1600
 6121SOL     OW18887   1.444   3.405   5.134 -0.0184  0.0946 -0.2418
 6121SOL    HW118888   1.528   3.365   5.156 -0.2550 -0.1914  0.1533
 6121SOL    HW218889   1.401   3.417   5.219 -0.3394  0.3197 -0.4365
 6122SOL     OW18890   7.513   6.989   1.226  0.3270 -0.6417  0.2272
 6122SOL    HW118891   7.514   7.027   1.314 -0.5533 -1.1794  0.4719
 6122SOL    HW218892   7.603   6.958   1.213 -0.0791 -2.7901  1.9277
 6123SOL     OW18893   3.558   5.235   1.859  0.1702  0.1872  0.1931
 6123SOL    HW118894   3.535   5.288   1.935  0.9209  1.1965 -0.2618
 6123SOL    HW218895   3.652   5.245   1.850  0.3355 -1.2536  0.0921
 6124SOL     OW18896   3.866   0.237   4.781  0.4018  0.3325 -0.5182
 6124SOL    HW118897   3.850   0.307   4.845  0.7550 -1.2586  1.4313
 6124SOL    HW218898   3.824   0.160   4.819  1.0768 -0.8098 -1.9907
 6125SOL     OW18899   5.337   6.130   6.543  0.6250  0.0327  0.1303
 6125SOL    HW118900   5.358   6.051   6.493 -0.3424  0.0536 -0.3399
 6125SOL    HW218901   5.420   6.178   6.548  0.6052  0.3890 -2.1091
 6126SOL     OW18902   1.233   2.269   3.871 -0.2362  0.4112  0.7333
 6126SOL    HW118903   1.175   2.344   3.880  1.2277  1.6371  0.2863
 6126SOL    HW218904   1.202   2.224   3.793 -2.8272 -1.0886  2.4574
 6127SOL     OW18905   0.906   7.246   5.443 -0.8908 -0.3490  0.0157
 6127SOL    HW118906   0.955   7.174   5.483 -0.5518 -0.0958  0.0617
 6127SOL    HW218907   0.816   7.235   5.475 -1.2584 -1.7958 -1.3625
 6128SOL     OW18908   1.303   0.438   5.727  0.1747 -0.0270  0.2402
 6128SOL    HW118909   1.267   0.431   5.816  0.3107 -1.9498  0.1962
 6128SOL    HW218910   1.396   0.455   5.740  0.6018 -2.2176  0.6010
 6129SOL     OW18911   2.163   6.229   4.657  0.4950 -0.6025  0.2217
 6129SOL    HW118912   2.219   6.158   4.626  0.4902 -0.5317  0.0517
 6129SOL    HW218913   2.218   6.278   4.718  0.7120 -0.3672 -0.1581
 6130SOL     OW18914   5.687   2.927   6.510 -0.3750 -0.2361  0.0259
 6130SOL    HW118915   5.759   2.977   6.549 -0.8554 -0.3069  1.0354
 6130SOL    HW218916   5.628   2.910   6.583 -1.3507 -0.3005 -0.7627
 6131SOL     OW18917   1.590   2.062   6.120  0.0006  0.2881  0.4057
 6131SOL    HW118918   1.614   2.083   6.210  0.9292  0.8069  0.0571
 6131SOL    HW218919   1.630   1.977   6.103 -0.6771 -0.0893  0.6615
 6132SOL     OW18920   3.295   6.153   6.736 -0.0875 -0.0325 -0.5354
 6132SOL    HW118921   3.214   6.185   6.695  0.1358  1.4747  0.1531
 6132SOL    HW218922   3.362   6.215   6.706  0.4710 -0.2012  0.3550
 6133SOL     OW18923   6.130   7.378   7.090  0.2789  0.5116  0.2361
 6133SOL    HW118924   6.159   7.287   7.084  1.4380  0.9342 -1.3777
 6133SOL    HW218925   6.211   7.430   7.086 -0.3022  1.6119  1.8549
 6134SOL     OW18926   2.906   1.310   2.091 -0.4964 -0.3060 -0.1780
 6134SOL    HW118927   2.886   1.328   1.999 -0.9850  1.9251  0.3134
 6134SOL    HW218928   2.827   1.270   2.125 -1.3685  1.4446 -0.0829
 6135SOL     OW18929   1.098   3.246   4.349  0.3132  0.6449 -0.2687
 6135SOL    HW118930   1.039   3.170   4.344 -0.3104  0.9145  1.9139
 6135SOL    HW218931   1.152   3.239   4.270 -0.8018 -1.1531 -0.9517
 6136SOL     OW18932   3.370   4.894   1.571  0.0269 -0.6669  0.0146
 6136SOL    HW118933   3.307   4.822   1.571  1.3155 -1.8689  1.2086
 6136SOL    HW218934   3.332   4.958   1.631 -1.2546 -0.2072 -1.2481
 6137SOL     OW18935   4.962   1.503   7.557 -0.2110 -0.3807  0.4845
 6137SOL    HW118936   5.036   1.477   7.501 -0.2338 -0.9427  0.7097
 6137SOL    HW218937   4.896   1.535   7.495 -0.1211 -0.7206  0.2033
 6138SOL     OW18938   1.159   1.819   0.695  0.0769  0.1158 -0.3262
 6138SOL    HW118939   1.156   1.738   0.745 -1.6280  0.5960  0.4286
 6138SOL    HW218940   1.225   1.804   0.628  1.7619 -0.8900  1.4838
 6139SOL     OW18941   6.500   2.671   2.664 -0.4494  0.2720  0.1707
 6139SOL    HW118942   6.409   2.700   2.678 -0.6985 -0.9466  1.1949
 6139SOL    HW218943   6.550   2.715   2.733 -0.4661 -0.0426  0.3817
 6140SOL     OW18944   3.280   7.475   1.266 -0.4982 -0.2066  0.9847
 6140SOL    HW118945   3.234   7.559   1.255  0.0658 -0.0480 -0.3789
 6140SOL    HW218946   3.277   7.435   1.179  1.0060 -0.6751  1.1176
 6141SOL     OW18947   3.047   4.419   2.087 -0.1690 -0.0421  0.1399
 6141SOL    HW118948   3.086   4.506   2.094 -0.8306  0.4628 -1.8344
 6141SOL    HW218949   2.961   4.427   2.127 -0.0409  0.0795  0.3908
 6142SOL     OW18950   6.962   6.657   3.069 -0.2607 -0.0917 -0.5033
 6142SOL    HW118951   6.877   6.619   3.048 -1.4405  1.3003  1.4575
 6142SOL    HW218952   6.947   6.751   3.073  1.5902  0.2721 -0.9777
 6143SOL     OW18953   1.628   5.988   5.767  0.1187 -0.3809 -0.3720
 6143SOL    HW118954   1.684   6.064   5.781 -0.9692  0.5644 -1.0164
 6143SOL    HW218955   1.550   6.006   5.819 -1.0745 -0.0079 -2.1967
 6144SOL     OW18956   7.400   2.313   3.599 -0.2345 -0.3798 -0.3774
 6144SOL    HW118957   7.322   2.294   3.651 -0.8012  1.2125 -0.6157
 6144SOL    HW218958   7.366   2.342   3.514  0.5872  0.9552 -0.2693
 6145SOL     OW18959   4.849   5.183   3.999 -0.1226 -0.3658 -0.2146
 6145SOL    HW118960   4.809   5.244   4.061  0.2404 -1.0273  0.6823
 6145SOL    HW218961   4.788   5.109   3.996 -0.0737 -0.3944 -0.5550
 6146SOL     OW18962   0.801   6.874   6.680 -0.6166  0.5688  0.0961
 6146SOL    HW118963   0.895   6.883   6.693 -0.8198  0.5475  1.7293
 6146SOL    HW218964   0.786   6.780   6.675 -0.8304  0.4055  2.5460
 6147SOL     OW18965   3.904   4.050   0.473  0.3685  0.4250 -0.3974
 6147SOL    HW118966   3.848   3.990   0.424  0.9534 -0.6561  0.2346
 6147SOL    HW218967   3.870   4.137   0.451 -2.1286 -0.1922  0.6313
 6148SOL     OW18968   1.581   3.614   2.489  0.0218  0.5666 -0.2806
 6148SOL    HW118969   1.661   3.662   2.513  1.1866 -0.9320 -1.0158
 6148SOL    HW218970   1.580   3.614   2.393 -0.1066 -0.5958 -0.2985
 6149SOL     OW18971   3.290   5.564   5.113  0.2866 -0.5240 -0.5694
 6149SOL    HW118972   3.307   5.644   5.063 -0.0591 -0.5403 -0.7178
 6149SOL    HW218973   3.375   5.522   5.121  0.9518  1.0488  1.6082
 6150SOL     OW18974   0.604   3.184   4.014  0.2678  0.0303 -0.0267
 6150SOL    HW118975   0.530   3.125   4.000 -1.6216  2.0833  0.5526
 6150SOL    HW218976   0.681   3.133   3.991 -1.0550 -3.1133  1.8821
 6151SOL     OW18977   3.704   3.642   6.984  0.0829 -0.0399  0.0700
 6151SOL    HW118978   3.704   3.730   6.946  0.2799  1.2498  2.8300
 6151SOL    HW218979   3.785   3.603   6.952  0.5255  1.1695 -0.3553
 6152SOL     OW18980   4.291   2.770   7.191 -0.1958  1.0010 -0.0805
 6152SOL    HW118981   4.284   2.834   7.262  0.2326  1.7449 -0.6932
 6152SOL    HW218982   4.234   2.698   7.218  2.5778 -0.3965  2.7299
 6153SOL     OW18983   2.773   2.903   6.189 -0.1572  0.2641 -0.1019
 6153SOL    HW118984   2.817   2.848   6.124 -0.7644 -1.4971  0.8860
 6153SOL    HW218985   2.680   2.885   6.177 -0.4647  2.0676 -0.5642
 6154SOL     OW18986   1.388   2.950   3.658  0.3535 -0.5021  0.1689
 6154SOL    HW118987   1.297   2.949   3.628  0.4521  0.3066 -0.1598
 6154SOL    HW218988   1.389   2.887   3.731 -0.6247  0.0091  0.6452
 6155SOL     OW18989   0.693   5.425   6.721 -0.1308 -0.1398 -0.4309
 6155SOL    HW118990   0.780   5.465   6.712 -0.7905  0.9679 -2.6220
 6155SOL    HW218991   0.635   5.499   6.738 -0.6845 -0.8759  0.9949
 6156SOL     OW18992   5.096   3.441   4.431 -0.7403  0.1124 -0.4338
 6156SOL    HW118993   5.169   3.457   4.371 -1.4173  0.6107 -1.1291
 6156SOL    HW218994   5.030   3.506   4.408 -1.3286 -0.1986  0.3280
 6157SOL     OW18995   1.180   0.367   1.559 -0.0683  0.2087 -0.2365
 6157SOL    HW118996   1.198   0.367   1.653 -1.3568 -0.7768  0.0402
 6157SOL    HW218997   1.232   0.294   1.525  0.6942  0.8054 -0.3552
 6158SOL     OW18998   1.658   0.466   6.617  0.5980  0.0381  0.2933
 6158SOL    HW118999   1.708   0.544   6.593 -1.3223  0.9204 -1.2254
 6158SOL    HW219000   1.584   0.466   6.555 -0.9021 -1.5086  1.9712
 6159SOL     OW19001   6.854   0.151   0.937 -0.2029 -0.0102  0.2980
 6159SOL    HW119002   6.778   0.129   0.991 -0.2768  0.7613  0.5256
 6159SOL    HW219003   6.927   0.153   0.998 -0.0933 -0.2338  0.1722
 6160SOL     OW19004   4.583   0.291   6.827 -0.5677 -0.3218  0.1338
 6160SOL    HW119005   4.673   0.321   6.834  0.1047 -2.4491  1.4680
 6160SOL    HW219006   4.531   0.361   6.866  0.4931  0.8316 -0.4662
 6161SOL     OW19007   0.596   3.219   5.154  0.0920 -0.2155 -0.0959
 6161SOL    HW119008   0.516   3.271   5.157 -0.2783 -0.8220  0.8169
 6161SOL    HW219009   0.654   3.268   5.095 -0.0424  1.5581  1.1473
 6162SOL     OW19010   6.190   5.470   4.173 -0.4542  0.3692 -0.2218
 6162SOL    HW119011   6.174   5.422   4.255  0.0271  1.3934  0.4990
 6162SOL    HW219012   6.107   5.465   4.126 -0.5677 -0.7281  0.0500
 6163SOL     OW19013   3.938   5.379   3.484 -0.1354  0.2893  0.6735
 6163SOL    HW119014   4.004   5.311   3.469 -1.0430 -0.5335  0.1914
 6163SOL    HW219015   3.987   5.460   3.492  0.9028 -0.2361 -0.1168
 6164SOL     OW19016   4.801   3.211   4.485  0.3097 -0.0221 -0.1414
 6164SOL    HW119017   4.720   3.219   4.535  1.6092 -1.8835  2.5118
 6164SOL    HW219018   4.787   3.136   4.427  0.4934 -1.1641  1.2363
 6165SOL     OW19019   1.097   6.477   4.855  0.1249  0.1347 -0.2461
 6165SOL    HW119020   1.112   6.458   4.762  0.7952 -0.8807  0.0495
 6165SOL    HW219021   1.051   6.400   4.888 -1.5957  1.1967 -0.0703
 6166SOL     OW19022   5.710   5.304   1.268 -1.0180 -0.1959  0.0007
 6166SOL    HW119023   5.709   5.209   1.255 -1.6757 -0.1872 -0.0449
 6166SOL    HW219024   5.623   5.332   1.242 -0.0251  0.7744 -2.5519
 6167SOL     OW19025   5.532   2.954   4.271 -0.1447  0.2377  0.6390
 6167SOL    HW119026   5.487   2.872   4.291  0.0859  0.1453  0.7817
 6167SOL    HW219027   5.514   2.969   4.178 -0.7069  0.3520  0.7581
 6168SOL     OW19028   3.666   0.291   0.565  0.2838 -0.4894  0.0475
 6168SOL    HW119029   3.608   0.255   0.498  0.6015 -1.0127  0.0464
 6168SOL    HW219030   3.754   0.276   0.531  0.4368  2.3245 -1.0036
 6169SOL     OW19031   3.168   6.474   5.284 -0.2022 -0.5070 -0.0341
 6169SOL    HW119032   3.138   6.460   5.194 -1.4254 -1.3211  0.4706
 6169SOL    HW219033   3.087   6.485   5.334  0.4461 -0.4765  1.0270
 6170SOL     OW19034   0.655   0.225   2.190  0.3564  0.1412  0.2450
 6170SOL    HW119035   0.681   0.233   2.099  0.0526  1.0108  0.2213
 6170SOL    HW219036   0.707   0.153   2.224  0.1629 -0.4737 -0.7195
 6171SOL     OW19037   4.859   2.488   5.432  0.0320  0.4362 -0.4046
 6171SOL    HW119038   4.840   2.522   5.520 -0.4658  0.8278 -0.6580
 6171SOL    HW219039   4.816   2.403   5.429  0.0607  0.4170 -0.2604
 6172SOL     OW19040   2.300   3.497   3.852 -0.5281  0.1241 -0.8064
 6172SOL    HW119041   2.314   3.445   3.931 -0.8499 -0.8944 -1.4059
 6172SOL    HW219042   2.226   3.456   3.808 -1.1933  1.4722 -1.0005
 6173SOL     OW19043   1.866   5.903   3.625  0.2644  0.0534 -0.3032
 6173SOL    HW119044   1.842   5.879   3.714 -0.4208 -0.5017 -0.6276
 6173SOL    HW219045   1.868   5.819   3.578  0.4961  0.3549 -0.8369
 6174SOL     OW19046   6.911   3.570   2.400  0.5549  0.2549  0.0920
 6174SOL    HW119047   6.922   3.503   2.333  2.6304  0.6637 -0.0516
 6174SOL    HW219048   6.922   3.653   2.354 -1.0483  0.6900  0.4352
 6175SOL     OW19049   0.174   3.276   1.357  0.0152 -0.4223  0.5725
 6175SOL    HW119050   0.125   3.197   1.334  0.5249 -0.7352  0.5455
 6175SOL    HW219051   0.140   3.302   1.442  0.0919 -0.8796  0.7448
 6176SOL     OW19052   2.849   2.327   4.284 -0.3469  0.2748 -0.4133
 6176SOL    HW119053   2.778   2.271   4.253  1.3497 -0.9120 -2.4237
 6176SOL    HW219054   2.869   2.384   4.210  1.2087  0.1340 -0.1399
 6177SOL     OW19055   2.438   2.375   2.719  0.6140  0.2606 -0.4360
 6177SOL    HW119056   2.491   2.355   2.797  0.4138 -0.4068 -0.4684
 6177SOL    HW219057   2.480   2.327   2.648 -0.1016 -0.3693 -0.4400
 6178SOL     OW19058   6.502   6.770   2.206  0.1719 -0.0825  0.3163
 6178SOL    HW119059   6.557   6.697   2.234  1.1235  0.8679  1.0379
 6178SOL    HW219060   6.484   6.818   2.286 -2.7327 -0.9831  0.2965
 6179SOL     OW19061   6.500   2.189   5.648 -0.5729 -0.0950 -0.0016
 6179SOL    HW119062   6.474   2.269   5.695  3.7147  1.3720  0.3525
 6179SOL    HW219063   6.494   2.120   5.714  0.5987  1.0183  1.3576
 6180SOL     OW19064   4.207   4.267   3.098  0.2314 -0.7793 -0.1601
 6180SOL    HW119065   4.152   4.244   3.023 -0.4655 -0.3569  0.2075
 6180SOL    HW219066   4.291   4.294   3.060 -0.5104  0.6356 -0.8910
 6181SOL     OW19067   2.772   3.597   7.458  0.4260  0.1927  0.2857
 6181SOL    HW119068   2.845   3.658   7.447  1.0409 -0.3996  0.9726
 6181SOL    HW219069   2.744   3.610   7.548  0.3799 -0.3425  0.3484
 6182SOL     OW19070   5.239   5.462   7.192 -0.3485  0.4481  0.3020
 6182SOL    HW119071   5.328   5.492   7.171 -0.3994  0.9190  0.7371
 6182SOL    HW219072   5.249   5.413   7.274 -0.5795  1.0282  0.6830
 6183SOL     OW19073   6.954   2.728   2.074 -0.0695  0.1292  0.2631
 6183SOL    HW119074   6.951   2.761   2.164  0.8862  2.3279 -0.4405
 6183SOL    HW219075   7.047   2.706   2.060 -0.3316 -0.8736  0.0220
 6184SOL     OW19076   6.331   6.311   1.127  0.4257  0.9705 -0.1444
 6184SOL    HW119077   6.251   6.358   1.106 -0.8570 -0.7265  0.7060
 6184SOL    HW219078   6.370   6.361   1.198 -1.0430  0.6358  0.9318
 6185SOL     OW19079   2.508   5.903   6.594 -0.4493 -0.4525 -0.2536
 6185SOL    HW119080   2.558   5.822   6.587 -0.9462 -0.8433  0.6307
 6185SOL    HW219081   2.420   5.875   6.617 -1.2891  0.1769 -2.4555
 6186SOL     OW19082   0.492   2.534   2.102 -0.1537  0.5495 -0.1470
 6186SOL    HW119083   0.475   2.530   2.196 -2.9962  0.0577 -0.5894
 6186SOL    HW219084   0.527   2.448   2.080 -1.7370 -0.2110  0.1485
 6187SOL     OW19085   4.050   1.395   5.921  0.1110  0.2275  0.4042
 6187SOL    HW119086   4.101   1.415   5.843 -0.7028  0.2408 -0.1349
 6187SOL    HW219087   3.980   1.460   5.922 -0.4979 -0.4093  0.5575
 6188SOL     OW19088   6.785   2.744   7.351 -0.0291  0.1251 -0.3760
 6188SOL    HW119089   6.758   2.659   7.387 -0.5531  0.5368  0.2178
 6188SOL    HW219090   6.847   2.778   7.415  0.8288 -0.1768 -1.0319
 6189SOL     OW19091   6.505   7.193   7.310 -0.2913  0.1855 -0.3726
 6189SOL    HW119092   6.565   7.146   7.368  0.2442  2.5144  1.1052
 6189SOL    HW219093   6.549   7.194   7.225  0.6617 -0.1639  0.0980
 6190SOL     OW19094   3.205   7.310   6.473 -0.4015  0.3922  0.4525
 6190SOL    HW119095   3.210   7.233   6.530 -2.1350  1.4356  2.1026
 6190SOL    HW219096   3.143   7.284   6.404  2.0961 -1.0625 -1.4366
 6191SOL     OW19097   5.614   2.500   3.713 -0.5007  0.2663 -0.2012
 6191SOL    HW119098   5.547   2.481   3.778 -1.4724  0.8480 -1.0138
 6191SOL    HW219099   5.629   2.417   3.668 -1.3411  0.3312 -0.6168
 6192SOL     OW19100   4.183   3.957   1.481  0.0744 -0.1778 -0.1671
 6192SOL    HW119101   4.180   3.965   1.576  0.1782  2.0326 -0.3027
 6192SOL    HW219102   4.095   3.927   1.456  0.3768 -1.8517  0.6631
 6193SOL     OW19103   3.295   0.550   5.437  0.2496 -0.3199  0.0994
 6193SOL    HW119104   3.243   0.561   5.517  0.1020  1.5232 -0.2179
 6193SOL    HW219105   3.230   0.538   5.368  0.2440  0.9794 -0.1465
 6194SOL     OW19106   0.997   5.022   1.393 -0.3112 -0.1300  0.1122
 6194SOL    HW119107   1.069   4.967   1.361  0.1791  0.2795  0.5027
 6194SOL    HW219108   0.959   5.059   1.313  0.1249 -0.0795 -0.0756
 6195SOL     OW19109   0.736   4.466   1.811  0.3692 -0.3561 -0.0240
 6195SOL    HW119110   0.744   4.557   1.783 -3.1492  0.0639 -0.0914
 6195SOL    HW219111   0.752   4.469   1.906 -0.3656  0.4773  0.0911
 6196SOL     OW19112   6.632   4.264   1.316 -0.2489  0.1014  0.1229
 6196SOL    HW119113   6.715   4.224   1.288 -0.6820  0.1983 -1.3524
 6196SOL    HW219114   6.564   4.211   1.275 -0.8858  0.8956  0.1225
 6197SOL     OW19115   4.061   6.678   2.441 -0.8654  0.3235  0.0182
 6197SOL    HW119116   4.142   6.667   2.391  0.4214  0.2602  1.9904
 6197SOL    HW219117   4.032   6.589   2.459 -1.1047  0.3433 -0.2643
 6198SOL     OW19118   1.900   5.316   0.145  0.3913 -0.6587 -0.2344
 6198SOL    HW119119   1.842   5.278   0.211 -1.8437  0.9731 -1.1387
 6198SOL    HW219120   1.841   5.358   0.083  2.4445 -1.3727 -2.8413
 6199SOL     OW19121   2.063   6.850   2.569 -0.6551  0.1842 -0.2540
 6199SOL    HW119122   2.000   6.783   2.593  1.1524 -1.1070  1.1812
 6199SOL    HW219123   2.010   6.926   2.546 -2.7588 -1.4639 -1.2155
 6200SOL     OW19124   5.439   3.017   5.582  0.3021  0.0433 -0.3071
 6200SOL    HW119125   5.434   3.075   5.657 -0.1369 -0.2815 -0.0792
 6200SOL    HW219126   5.367   3.045   5.525 -1.3757 -1.6577  0.8197
 6201SOL     OW19127   6.327   6.692   5.673 -0.4511 -0.1091 -0.6840
 6201SOL    HW119128   6.273   6.660   5.745 -1.2558  1.7694 -0.4070
 6201SOL    HW219129   6.311   6.786   5.670  0.7777  0.1009 -2.3194
 6202SOL     OW19130   4.423   0.090   0.550  0.3607  0.2375  0.2639
 6202SOL    HW119131   4.515   0.083   0.524  0.5673 -0.8858  1.2313
 6202SOL    HW219132   4.425   0.131   0.637  0.0673 -1.1924  0.9643
 6203SOL     OW19133   3.807   5.716   1.750  0.0972 -0.2210 -0.5585
 6203SOL    HW119134   3.810   5.680   1.661  1.9212 -0.0634 -0.5955
 6203SOL    HW219135   3.728   5.677   1.788  0.5576 -2.2094 -1.4719
 6204SOL     OW19136   4.839   7.259   6.667 -0.1627 -0.0828  0.4178
 6204SOL    HW119137   4.817   7.248   6.574 -1.6432 -1.9273  0.9360
 6204SOL    HW219138   4.896   7.336   6.669 -1.9612  1.4249 -1.7549
 6205SOL     OW19139   0.278   1.491   5.792 -0.1608 -0.5628  0.1333
 6205SOL    HW119140   0.272   1.398   5.813  0.5885 -0.5118  0.6168
 6205SOL    HW219141   0.190   1.514   5.762 -0.4423 -1.3501  0.3115
 6206SOL     OW19142   0.771   1.670   6.276  0.0018 -0.0061  0.5038
 6206SOL    HW119143   0.844   1.719   6.313  0.0476  0.3713 -0.0729
 6206SOL    HW219144   0.730   1.627   6.352  0.4785  0.2269  0.9001
 6207SOL     OW19145   5.648   1.896   1.583  0.1014 -0.8064  0.1500
 6207SOL    HW119146   5.596   1.889   1.502  0.6944 -0.0667 -0.3070
 6207SOL    HW219147   5.735   1.922   1.553 -0.1381  1.3196  1.1545
 6208SOL     OW19148   6.104   7.506   7.495  0.2410 -0.2756  0.1145
 6208SOL    HW119149   6.193   7.470   7.494 -0.0639 -1.0637 -1.1910
 6208SOL    HW219150   6.084   7.518   7.588  1.7547  0.0345  0.4267
 6209SOL     OW19151   1.742   6.001   1.218  0.1804  0.5309 -0.4818
 6209SOL    HW119152   1.745   6.096   1.236  0.2697  0.4974 -0.3150
 6209SOL    HW219153   1.663   5.990   1.166 -1.0584  0.4096  1.3252
 6210SOL     OW19154   0.934   1.964   0.733 -0.0284  0.2617 -0.7958
 6210SOL    HW119155   0.951   2.012   0.814  2.0943  2.1670 -2.2360
 6210SOL    HW219156   1.017   1.922   0.712 -0.9092 -1.2654 -1.3441
 6211SOL     OW19157   5.235   2.138   2.347  0.7104 -0.2801  0.3612
 6211SOL    HW119158   5.268   2.119   2.435  0.7968 -1.3630  0.1039
 6211SOL    HW219159   5.141   2.150   2.358  0.9597  1.4182  0.8754
 6212SOL     OW19160   5.804   6.058   7.220  0.1085  0.7433  0.1868
 6212SOL    HW119161   5.822   6.150   7.201  0.7566  0.3679 -1.2241
 6212SOL    HW219162   5.734   6.034   7.159  3.1954 -0.8772 -3.1335
 6213SOL     OW19163   7.331   0.082   7.148  0.4479  0.5187 -0.6161
 6213SOL    HW119164   7.375   0.150   7.199 -0.4534  1.4921 -1.0779
 6213SOL    HW219165   7.265   0.047   7.207  0.4363  0.5650 -0.6011
 6214SOL     OW19166   1.650   3.526   5.758 -0.3843  0.4091  0.0875
 6214SOL    HW119167   1.605   3.580   5.823  0.0692  1.7512 -0.6631
 6214SOL    HW219168   1.741   3.526   5.787  0.0064  1.8102 -0.9946
 6215SOL     OW19169   0.479   3.985   0.879  0.1429  0.1088 -0.2666
 6215SOL    HW119170   0.502   4.070   0.917 -3.3014  1.1235 -0.1312
 6215SOL    HW219171   0.385   3.989   0.864  0.3498 -2.4090 -3.6195
 6216SOL     OW19172   1.700   1.768   5.805  0.3431 -0.4040  0.2300
 6216SOL    HW119173   1.743   1.713   5.739 -0.9880 -0.8750 -0.3007
 6216SOL    HW219174   1.761   1.771   5.878  0.8495 -1.8502 -0.0987
 6217SOL     OW19175   7.292   2.939   0.982 -0.2047 -0.1390  0.4343
 6217SOL    HW119176   7.232   2.898   1.044 -0.0242 -1.7014 -0.3806
 6217SOL    HW219177   7.379   2.910   1.010 -0.0166  0.2094  0.2149
 6218SOL     OW19178   3.825   6.527   2.731  0.5022  0.3703 -0.1052
 6218SOL    HW119179   3.753   6.478   2.772  0.3017  1.9686  1.6061
 6218SOL    HW219180   3.896   6.463   2.722  0.0026 -0.4321  1.3496
 6219SOL     OW19181   0.807   0.675   0.812  0.2013  0.6445 -0.4679
 6219SOL    HW119182   0.771   0.750   0.859  1.7347  1.0040  0.1881
 6219SOL    HW219183   0.900   0.694   0.803  1.0362 -1.9658  1.3551
 6220SOL     OW19184   6.202   4.871   0.713  0.2771  0.4360  0.3552
 6220SOL    HW119185   6.183   4.805   0.646 -0.9061  0.7403  0.3740
 6220SOL    HW219186   6.284   4.841   0.753 -1.4463 -2.4719  2.0873
 6221SOL     OW19187   2.227   7.476   7.198 -0.2080  0.4268 -0.1884
 6221SOL    HW119188   2.295   7.537   7.170  1.1215  0.4740  2.7394
 6221SOL    HW219189   2.258   7.390   7.169 -0.1071  0.7021 -0.9137
 6222SOL     OW19190   0.277   1.067   5.531  0.1392 -0.1917 -0.5512
 6222SOL    HW119191   0.313   1.063   5.443  0.4085 -4.0577 -0.4318
 6222SOL    HW219192   0.195   1.017   5.527  1.2350 -2.4150  1.7196
 6223SOL     OW19193   1.118   1.027   0.551 -0.5409  0.6317  0.2822
 6223SOL    HW119194   1.141   0.939   0.522 -3.0158 -0.1938  0.6149
 6223SOL    HW219195   1.179   1.044   0.624  2.1729  0.6159 -1.8236
 6224SOL     OW19196   1.357   2.102   2.653  0.5262 -0.2648 -0.0810
 6224SOL    HW119197   1.370   2.092   2.559  0.9481  0.8359 -0.1473
 6224SOL    HW219198   1.358   2.196   2.668 -1.8401 -0.2938  0.7166
 6225SOL     OW19199   7.357   0.951   2.846  0.2911  0.0063 -0.5974
 6225SOL    HW119200   7.297   0.901   2.791  0.5632  0.8064 -1.6525
 6225SOL    HW219201   7.443   0.932   2.809  0.4496  0.7595 -0.6166
 6226SOL     OW19202   6.041   2.061   4.970  0.1906 -0.3011 -0.2648
 6226SOL    HW119203   6.004   1.984   5.014 -1.1411 -1.0245 -2.4810
 6226SOL    HW219204   6.131   2.065   5.001 -0.1196 -1.8917  1.0072
 6227SOL     OW19205   2.857   3.738   2.651  0.0355  0.2792 -0.9134
 6227SOL    HW119206   2.911   3.708   2.723  0.5891  2.0678 -0.5298
 6227SOL    HW219207   2.893   3.693   2.574  0.0172 -0.9535 -0.2128
 6228SOL     OW19208   4.600   0.775   6.817  0.1154  0.0077  0.0592
 6228SOL    HW119209   4.557   0.788   6.733 -2.4895 -0.6354  1.1632
 6228SOL    HW219210   4.568   0.847   6.872 -1.4937 -1.7377  1.5670
 6229SOL     OW19211   1.253   2.116   4.987  0.2937  0.2450  0.1835
 6229SOL    HW119212   1.226   2.111   5.079 -1.1558  1.5159 -0.1193
 6229SOL    HW219213   1.343   2.149   4.991 -0.2981  1.9019  1.1483
 6230SOL     OW19214   3.843   2.685   1.383 -0.4831  0.1174 -0.1147
 6230SOL    HW119215   3.925   2.724   1.352 -1.1819  0.6634 -1.3180
 6230SOL    HW219216   3.870   2.630   1.457  0.6608  2.1614  1.0913
 6231SOL     OW19217   4.392   1.277   5.471 -0.0523 -0.3247  0.1529
 6231SOL    HW119218   4.397   1.364   5.512  1.1145 -0.2756 -0.0598
 6231SOL    HW219219   4.305   1.246   5.493 -0.4064  0.8067  0.4408
 6232SOL     OW19220   0.128   3.260   4.917 -0.3361  0.2379  0.2400
 6232SOL    HW119221   0.103   3.185   4.862  0.8036  0.1901 -0.2325
 6232SOL    HW219222   0.048   3.283   4.964 -1.7842  1.1210 -2.4157
 6233SOL     OW19223   2.021   6.102   3.506  0.4525 -0.2482 -0.0846
 6233SOL    HW119224   2.053   6.064   3.424  1.6817 -1.6243  0.9982
 6233SOL    HW219225   1.970   6.032   3.547 -1.3746  0.8872 -0.2820
 6234SOL     OW19226   2.560   5.106   4.671  0.2310  0.5652  0.6936
 6234SOL    HW119227   2.559   5.196   4.641  0.0052  0.2611 -0.2374
 6234SOL    HW219228   2.652   5.090   4.694  0.5798  0.5705 -0.6119
 6235SOL     OW19229   1.071   2.276   1.233 -0.5045  0.1137 -0.4440
 6235SOL    HW119230   1.084   2.253   1.325  1.8950 -0.9931 -0.9975
 6235SOL    HW219231   1.153   2.317   1.206 -1.3204  0.7962 -2.0098
 6236SOL     OW19232   1.111   2.855   3.646  0.1756 -0.1192 -0.0627
 6236SOL    HW119233   1.109   2.950   3.640 -0.0309 -0.1844 -1.3158
 6236SOL    HW219234   1.058   2.825   3.572  2.0710 -1.2181 -1.0643
 6237SOL     OW19235   3.768   3.025   1.899 -0.4955 -0.0285  0.1237
 6237SOL    HW119236   3.857   3.034   1.865 -0.2569  0.7691  0.9010
 6237SOL    HW219237   3.721   2.976   1.832 -0.0382  1.4101 -1.3109
 6238SOL     OW19238   2.122   3.396   2.882 -0.0472  0.5422 -0.3828
 6238SOL    HW119239   2.043   3.350   2.854  0.5551  0.3069 -1.7587
 6238SOL    HW219240   2.183   3.385   2.809  1.2036  0.8469  0.5921
 6239SOL     OW19241   3.847   6.787   4.951  0.2055 -0.0365 -0.2891
 6239SOL    HW119242   3.940   6.768   4.963  0.4322 -0.1584 -1.9436
 6239SOL    HW219243   3.813   6.710   4.905 -0.5609  0.3200 -0.3330
 6240SOL     OW19244   5.154   0.649   2.194 -0.4842  0.1618 -0.1253
 6240SOL    HW119245   5.175   0.631   2.102 -2.2493 -1.8846 -0.1994
 6240SOL    HW219246   5.227   0.613   2.244 -1.3033 -2.2953 -0.5889
 6241SOL     OW19247   2.499   0.872   6.940  0.5170 -0.0016  0.5268
 6241SOL    HW119248   2.568   0.906   6.884 -0.5504  1.1249 -0.1539
 6241SOL    HW219249   2.545   0.823   7.008  1.9144 -0.2166 -0.5185
 6242SOL     OW19250   3.353   4.349   6.171 -0.0543  0.4027 -0.1656
 6242SOL    HW119251   3.300   4.391   6.103 -1.0222 -0.8760 -0.2358
 6242SOL    HW219252   3.433   4.323   6.125 -0.9010 -0.8879 -0.9778
 6243SOL     OW19253   0.920   7.557   0.054 -0.0568 -0.3914 -0.1153
 6243SOL    HW119254   0.993   7.588   0.000 -0.3587  0.8896  0.1792
 6243SOL    HW219255   0.956   7.484   0.104  0.5481 -0.8441 -1.1845
 6244SOL     OW19256   4.687   0.993   0.579  0.5215 -0.3248 -0.0164
 6244SOL    HW119257   4.734   0.931   0.635  1.6436  1.1557  0.7186
 6244SOL    HW219258   4.680   0.948   0.495  2.1148 -1.1052  0.2360
 6245SOL     OW19259   2.288   6.584   6.744 -0.7336 -0.3036  0.3485
 6245SOL    HW119260   2.353   6.651   6.766 -0.6206 -0.5215  0.6773
 6245SOL    HW219261   2.334   6.501   6.754 -0.0796 -0.3918 -2.5697
 6246SOL     OW19262   4.475   2.574   5.619  0.1077  0.7064  0.0852
 6246SOL    HW119263   4.444   2.655   5.659  0.5423  1.0136 -0.2033
 6246SOL    HW219264   4.562   2.560   5.656  0.7375  1.2729 -1.1406
 6247SOL     OW19265   0.311   4.018   3.666  0.1251  0.5011 -0.2324
 6247SOL    HW119266   0.308   4.023   3.571 -1.8725 -0.2022 -0.2550
 6247SOL    HW219267   0.350   3.933   3.685 -0.3782  0.2189 -0.4513
 6248SOL     OW19268   3.218   3.999   1.737 -0.6444  0.2302 -0.0846
 6248SOL    HW119269   3.229   3.993   1.832  0.3148  0.5604 -0.1605
 6248SOL    HW219270   3.273   4.073   1.711 -2.2398  1.2477 -0.6982
 6249SOL     OW19271   4.755   3.614   6.367 -0.5165 -0.1740  0.3279
 6249SOL    HW119272   4.670   3.651   6.392 -0.1492 -0.2138  1.7238
 6249SOL    HW219273   4.747   3.521   6.385  0.0645 -0.0618  1.2146
 6250SOL     OW19274   4.205   4.139   6.750 -0.0063 -0.3309  0.0231
 6250SOL    HW119275   4.181   4.226   6.719 -0.6190 -1.1583 -1.9284
 6250SOL    HW219276   4.283   4.116   6.700  0.7563 -0.5396  1.2530
 6251SOL     OW19277   7.011   2.720   4.804  0.4885  0.0939 -0.2242
 6251SOL    HW119278   6.976   2.803   4.771  1.3966  0.8361  0.6587
 6251SOL    HW219279   7.102   2.718   4.775  0.8498  0.0235  0.8734
 6252SOL     OW19280   2.906   2.238   0.566  0.1418  0.6194  0.0006
 6252SOL    HW119281   2.961   2.289   0.626 -1.3643  0.6435  1.4191
 6252SOL    HW219282   2.961   2.164   0.540  1.5229  1.6823 -0.2021
 6253SOL     OW19283   4.491   6.250   3.137 -0.3938  0.2407 -0.6870
 6253SOL    HW119284   4.428   6.179   3.149  0.0816 -0.1001 -0.1704
 6253SOL    HW219285   4.525   6.237   3.048  2.1203 -2.2118  0.4699
 6254SOL     OW19286   3.046   1.272   4.919 -0.0742  0.6261 -0.2849
 6254SOL    HW119287   2.952   1.256   4.911  0.1988 -0.8651 -0.7851
 6254SOL    HW219288   3.072   1.307   4.834 -0.3224  1.9660  0.1658
 6255SOL     OW19289   3.440   7.381   2.482 -0.0591  0.0176  0.2447
 6255SOL    HW119290   3.521   7.426   2.458 -0.2862 -0.2691 -1.1827
 6255SOL    HW219291   3.371   7.443   2.457 -0.3713 -1.0061 -1.6396
 6256SOL     OW19292   5.450   6.506   6.219  0.5256 -0.4259  0.3397
 6256SOL    HW119293   5.475   6.473   6.305  1.1405  2.7178  1.5101
 6256SOL    HW219294   5.530   6.544   6.184  0.3219 -1.7725 -1.7661
 6257SOL     OW19295   5.673   4.768   1.335  0.3007  0.0775 -0.5725
 6257SOL    HW119296   5.626   4.691   1.301 -0.5583 -0.4218  1.5893
 6257SOL    HW219297   5.612   4.840   1.321 -0.1524 -0.1686  0.0491
 6258SOL     OW19298   6.260   2.056   1.959 -0.7485  0.3067  0.3083
 6258SOL    HW119299   6.350   2.025   1.949 -0.7099  0.0921  1.2351
 6258SOL    HW219300   6.268   2.133   2.016 -1.2467 -0.3899  1.3574
 6259SOL     OW19301   0.207   6.983   5.819  0.3606 -0.1774  0.9329
 6259SOL    HW119302   0.217   7.073   5.852  1.5720  0.4375 -0.9419
 6259SOL    HW219303   0.297   6.949   5.817 -0.0534 -1.3195  1.2937
 6260SOL     OW19304   0.601   1.307   1.259  0.2804 -0.1026  0.0509
 6260SOL    HW119305   0.569   1.247   1.327  1.6323  0.5102  1.2774
 6260SOL    HW219306   0.578   1.394   1.291  1.1648  0.2064 -0.1237
 6261SOL     OW19307   6.526   2.769   4.475 -0.3902  0.2988 -0.1978
 6261SOL    HW119308   6.590   2.778   4.545 -1.4104  2.6746  0.5133
 6261SOL    HW219309   6.528   2.676   4.452  1.4666 -0.1332  1.5243
 6262SOL     OW19310   5.845   0.409   3.459 -0.2156  0.6658  0.0512
 6262SOL    HW119311   5.813   0.437   3.373  1.1044  2.1662 -0.0103
 6262SOL    HW219312   5.924   0.461   3.473 -1.2248  1.6382  2.8554
 6263SOL     OW19313   1.270   6.798   5.613 -0.2187 -0.2900  0.3676
 6263SOL    HW119314   1.205   6.832   5.675 -1.1401 -0.8560 -0.2730
 6263SOL    HW219315   1.350   6.792   5.665 -1.1369 -1.4463  1.7302
 6264SOL     OW19316   7.490   1.738   2.739  0.6481 -0.5791  0.7662
 6264SOL    HW119317   7.562   1.741   2.676  0.4574  1.0764  0.5823
 6264SOL    HW219318   7.416   1.777   2.693 -0.2020 -1.6693  1.1762
 6265SOL     OW19319   4.964   2.458   3.796  0.1292 -0.5522  0.2402
 6265SOL    HW119320   4.975   2.537   3.743  0.6024 -0.7837 -0.0176
 6265SOL    HW219321   4.932   2.489   3.880 -1.5475 -0.2623 -0.4806
 6266SOL     OW19322   5.675   6.517   3.160  0.8748 -0.1518  0.4799
 6266SOL    HW119323   5.590   6.518   3.114  1.0804 -0.2106  0.0964
 6266SOL    HW219324   5.724   6.446   3.118  1.1573 -0.0404  0.6225
 6267SOL     OW19325   4.766   2.852   1.858  0.3953  0.0703 -0.6790
 6267SOL    HW119326   4.796   2.845   1.768  0.4963  0.4823 -0.6797
 6267SOL    HW219327   4.782   2.943   1.882 -2.7302  0.9081 -1.3654
 6268SOL     OW19328   4.118   0.858   6.938 -0.5022 -0.1726 -0.0147
 6268SOL    HW119329   4.034   0.815   6.922  0.4949 -1.8912 -1.0392
 6268SOL    HW219330   4.137   0.904   6.856  0.3751 -1.3607 -0.5188
 6269SOL     OW19331   5.539   5.743   4.368 -0.4323  0.8523  0.2491
 6269SOL    HW119332   5.527   5.662   4.418  1.3831  1.3579  1.6385
 6269SOL    HW219333   5.584   5.715   4.288 -0.9620  0.3378  0.1294
 6270SOL     OW19334   6.023   6.138   3.938 -0.1473  0.4733 -0.1239
 6270SOL    HW119335   6.095   6.197   3.959  1.2815 -2.0538  2.9965
 6270SOL    HW219336   5.946   6.176   3.981  0.3146  0.9355  0.2969
 6271SOL     OW19337   4.310   3.314   6.725 -0.0024 -0.5102  0.3804
 6271SOL    HW119338   4.289   3.240   6.668 -1.0392  0.2302 -0.2451
 6271SOL    HW219339   4.324   3.275   6.811 -0.6317 -1.4270  0.0851
 6272SOL     OW19340   6.091   1.328   5.537 -0.0179  0.0505  0.3533
 6272SOL    HW119341   6.001   1.299   5.548 -0.1405 -0.6776 -2.1041
 6272SOL    HW219342   6.139   1.248   5.513  1.0737  0.6441  0.4961
 6273SOL     OW19343   0.684   6.476   0.605  0.1389  0.0115 -0.3689
 6273SOL    HW119344   0.763   6.525   0.629 -1.0245  1.4243  0.8012
 6273SOL    HW219345   0.626   6.486   0.681 -1.0796 -1.1750 -1.1081
 6274SOL     OW19346   1.819   3.706   5.876 -0.8186 -0.6318 -0.1705
 6274SOL    HW119347   1.902   3.733   5.915 -1.7335  1.0420  0.7281
 6274SOL    HW219348   1.756   3.708   5.949 -2.2302  0.9504 -1.3540
 6275SOL     OW19349   5.643   2.976   0.113 -0.2639 -0.3830 -0.2458
 6275SOL    HW119350   5.584   2.919   0.065 -0.1478 -0.8963  0.2073
 6275SOL    HW219351   5.721   2.923   0.128  0.9678  0.7566 -2.1502
 6276SOL     OW19352   5.163   5.102   5.633  0.0827 -0.3949 -0.3191
 6276SOL    HW119353   5.180   5.098   5.727  0.9591  2.4255 -0.2899
 6276SOL    HW219354   5.081   5.054   5.622 -0.7633  0.3570  2.1016
 6277SOL     OW19355   0.078   7.103   7.415  0.3988  0.8898  0.1531
 6277SOL    HW119356   0.126   7.063   7.343  0.7895 -0.9313  1.3518
 6277SOL    HW219357   0.115   7.190   7.424  1.5520  0.5108 -0.7164
 6278SOL     OW19358   3.640   6.408   6.709  0.1744  0.2307 -0.5551
 6278SOL    HW119359   3.728   6.370   6.705  0.3400  0.2619  1.6689
 6278SOL    HW219360   3.624   6.423   6.802 -2.8311 -1.2392 -0.7053
 6279SOL     OW19361   4.469   1.027   6.681 -0.0933  0.2730 -0.8056
 6279SOL    HW119362   4.550   1.076   6.696  0.3396 -0.7063  0.1802
 6279SOL    HW219363   4.409   1.057   6.749 -0.5971  1.0579 -1.5869
 6280SOL     OW19364   0.517   5.827   2.625 -0.0019 -0.0631 -0.0683
 6280SOL    HW119365   0.492   5.895   2.687  0.4376 -0.3388  0.4230
 6280SOL    HW219366   0.555   5.757   2.679  2.1364  0.4706 -0.7629
 6281SOL     OW19367   6.414   6.596   6.829  0.0278 -0.2136 -0.3420
 6281SOL    HW119368   6.322   6.575   6.809 -0.4595  0.8274  0.7345
 6281SOL    HW219369   6.417   6.691   6.833  1.1718 -0.2332 -0.3347
 6282SOL     OW19370   0.538   5.201   5.851 -0.0404  0.0931  0.3167
 6282SOL    HW119371   0.564   5.150   5.928 -1.6896 -0.3999  0.5848
 6282SOL    HW219372   0.497   5.279   5.888  0.2453  0.4439 -0.0897
 6283SOL     OW19373   1.967   2.096   1.525  0.4402  0.5084  0.1003
 6283SOL    HW119374   1.989   2.172   1.578  0.9805 -0.7612  1.7877
 6283SOL    HW219375   1.880   2.070   1.555 -0.0069  0.7964 -0.9023
 6284SOL     OW19376   1.404   4.700   1.921 -0.5483 -0.2171  0.1154
 6284SOL    HW119377   1.377   4.790   1.939 -0.2622 -0.5708  2.8207
 6284SOL    HW219378   1.499   4.705   1.912 -0.6018 -0.1636 -0.4351
 6285SOL     OW19379   4.790   0.288   0.164  0.0030 -0.5089 -0.3438
 6285SOL    HW119380   4.803   0.360   0.103  0.8850  0.1636  0.5991
 6285SOL    HW219381   4.711   0.245   0.133 -0.4825  0.7886 -1.0082
 6286SOL     OW19382   1.822   0.014   5.805 -0.0788  0.1016 -0.5657
 6286SOL    HW119383   1.762  -0.060   5.791 -0.4842  0.3882 -0.3671
 6286SOL    HW219384   1.907  -0.019   5.776 -0.3910 -0.2006 -1.1648
 6287SOL     OW19385   2.953   2.518   6.170 -0.2931  0.3407 -0.8504
 6287SOL    HW119386   2.884   2.534   6.235 -0.4818 -0.3573 -0.8785
 6287SOL    HW219387   2.944   2.426   6.146 -0.5217  0.6832 -2.2053
 6288SOL     OW19388   4.057   2.334   1.543  0.3630 -0.5301 -0.0054
 6288SOL    HW119389   4.074   2.256   1.596  1.5305  0.2032  0.7539
 6288SOL    HW219390   4.036   2.402   1.606  1.7643  0.3555 -0.4336
 6289SOL     OW19391   3.776   3.130   7.534  0.4961  0.3423 -0.1206
 6289SOL    HW119392   3.760   3.185   7.610  1.4059  0.0851  0.2621
 6289SOL    HW219393   3.728   3.049   7.552 -0.2786  0.7292 -0.3779
 6290SOL     OW19394   3.892   4.727   5.852 -0.1502  0.0922 -0.2144
 6290SOL    HW119395   3.868   4.818   5.835  1.3145  0.7918  1.1707
 6290SOL    HW219396   3.963   4.710   5.791 -0.1226  0.0272 -0.1639
 6291SOL     OW19397   6.387   0.433   1.552 -0.4255 -0.6801  0.4325
 6291SOL    HW119398   6.459   0.371   1.536 -1.5443 -1.7229 -0.8738
 6291SOL    HW219399   6.323   0.414   1.482 -2.4213 -0.4867  2.1096
 6292SOL     OW19400   0.855   2.221   5.857 -0.0770 -0.7272 -0.0014
 6292SOL    HW119401   0.773   2.184   5.827 -0.0190  0.2748 -1.4908
 6292SOL    HW219402   0.880   2.166   5.932 -2.2107 -0.8783  0.6781
 6293SOL     OW19403   4.421   3.819   0.859 -0.5627 -0.0815 -0.2778
 6293SOL    HW119404   4.446   3.906   0.888 -0.8115 -1.2174  4.0753
 6293SOL    HW219405   4.338   3.832   0.814 -0.3164  1.9941 -0.2292
 6294SOL     OW19406   4.284   3.514   4.691 -0.1753  0.2671  0.6251
 6294SOL    HW119407   4.259   3.589   4.745  0.7201 -0.2698  1.8316
 6294SOL    HW219408   4.301   3.552   4.605  0.8596  1.5748  1.3610
 6295SOL     OW19409   1.982   2.819   7.438  1.3569  0.0919 -0.2722
 6295SOL    HW119410   1.941   2.864   7.511  0.6392  1.0468 -1.2449
 6295SOL    HW219411   2.066   2.789   7.473  0.3298 -0.9486  1.4194
 6296SOL     OW19412   6.422   4.159   1.184  0.6325  0.2943 -0.2722
 6296SOL    HW119413   6.351   4.100   1.161  3.8248 -3.1045 -2.5215
 6296SOL    HW219414   6.455   4.192   1.100  3.2114 -0.3329  0.3828
 6297SOL     OW19415   2.402   6.178   6.575 -0.1624  0.4574  0.1184
 6297SOL    HW119416   2.410   6.200   6.482 -1.9924 -0.1999 -0.2445
 6297SOL    HW219417   2.433   6.088   6.581 -1.7385 -0.1361 -0.2290
 6298SOL     OW19418   5.006   4.930   7.538  0.0280 -0.0530 -0.2271
 6298SOL    HW119419   5.060   4.920   7.617  1.2565  0.3046 -0.9840
 6298SOL    HW219420   4.917   4.910   7.566  0.5454 -0.5859  1.0963
 6299SOL     OW19421   7.546   2.713   0.285 -0.0143  0.0975  0.4558
 6299SOL    HW119422   7.588   2.715   0.371 -1.2484 -0.9229  1.1217
 6299SOL    HW219423   7.477   2.779   0.290 -1.2745 -1.1959  0.9420
 6300SOL     OW19424   5.457   6.287   6.783  0.5486 -0.0314 -0.6163
 6300SOL    HW119425   5.549   6.288   6.809  0.5491  0.0300 -0.6218
 6300SOL    HW219426   5.458   6.276   6.688  0.5541  0.1307 -0.6358
 6301SOL     OW19427   4.632   0.591   0.350 -0.5467  0.5572  0.6544
 6301SOL    HW119428   4.685   0.595   0.271  0.0084 -1.1764  0.8829
 6301SOL    HW219429   4.542   0.581   0.318 -0.6594  2.5303  0.2706
 6302SOL     OW19430   3.790   2.178   1.240  0.1789  0.3779 -0.4894
 6302SOL    HW119431   3.811   2.266   1.209 -0.0495  1.5724  2.4680
 6302SOL    HW219432   3.875   2.133   1.243  0.6252  1.2331  0.0226
 6303SOL     OW19433   1.199   4.412   6.145 -0.1973  0.1903 -0.1598
 6303SOL    HW119434   1.184   4.402   6.051 -0.4590 -0.0554 -0.0929
 6303SOL    HW219435   1.114   4.440   6.180  0.1154  1.1159 -0.1161
 6304SOL     OW19436   4.155   0.006   0.458  0.0104  0.2467  0.4714
 6304SOL    HW119437   4.118   0.002   0.546 -0.2434  2.8828  0.5601
 6304SOL    HW219438   4.244   0.038   0.471 -0.2534  1.3142 -0.2531
 6305SOL     OW19439   5.575   1.727   3.749  0.2155 -0.6788  0.7720
 6305SOL    HW119440   5.590   1.635   3.728 -0.8198 -0.8504  0.6919
 6305SOL    HW219441   5.559   1.728   3.844 -1.8707 -0.9310  0.4835
 6306SOL     OW19442   5.207   0.908   2.252  0.2324 -0.4201 -0.3189
 6306SOL    HW119443   5.183   0.817   2.237  0.8250 -0.4507 -1.1930
 6306SOL    HW219444   5.140   0.958   2.206 -0.2685 -0.3917  0.4187
 6307SOL     OW19445   0.937   5.883   7.542 -0.1836  0.7526  0.3384
 6307SOL    HW119446   0.979   5.828   7.476 -1.2891 -0.5599  0.6758
 6307SOL    HW219447   0.994   5.959   7.550  1.2642 -0.2142 -0.3580
 6308SOL     OW19448   6.586   6.392   4.419  0.1463 -0.2335  0.1457
 6308SOL    HW119449   6.612   6.474   4.377  1.5152  0.3047  1.9334
 6308SOL    HW219450   6.663   6.364   4.469 -0.4494 -2.3644 -0.0081
 6309SOL     OW19451   0.115   3.676   5.620 -0.3520 -0.0200 -0.3006
 6309SOL    HW119452   0.102   3.699   5.712  2.0922  0.4536 -0.0286
 6309SOL    HW219453   0.149   3.586   5.622  1.0776  0.4892 -0.6110
 6310SOL     OW19454   5.994   5.209   0.398  0.3416  0.3176  0.3222
 6310SOL    HW119455   6.031   5.288   0.358  1.0428  0.6505  1.5802
 6310SOL    HW219456   6.067   5.171   0.447 -0.0014 -1.0940 -0.2152
 6311SOL     OW19457   4.713   2.053   1.761 -0.0387  0.0892  0.2874
 6311SOL    HW119458   4.626   2.013   1.766 -0.7785  1.3824 -1.3258
 6311SOL    HW219459   4.772   1.980   1.741 -1.2106 -0.3940 -1.6268
 6312SOL     OW19460   1.062   7.144   0.400 -0.4398 -0.1721  0.3729
 6312SOL    HW119461   1.026   7.224   0.438  0.1867 -0.5904  1.9164
 6312SOL    HW219462   1.153   7.166   0.380 -0.0417 -0.7134  1.5357
 6313SOL     OW19463   5.974   7.168   2.354  0.0938  0.3876  0.1148
 6313SOL    HW119464   5.928   7.250   2.369  0.5520  1.0958 -2.0227
 6313SOL    HW219465   5.978   7.127   2.441 -0.9130  2.1833  1.0793
 6314SOL     OW19466   0.304   0.535   4.668  0.0597 -0.0620 -0.2459
 6314SOL    HW119467   0.374   0.539   4.732 -1.4138 -0.2828  1.4494
 6314SOL    HW219468   0.294   0.442   4.648  1.7991  0.1064 -2.3902
 6315SOL     OW19469   4.717   4.078   7.444 -0.2868  0.3627 -0.2893
 6315SOL    HW119470   4.689   3.992   7.414  3.7676 -1.0944 -0.3913
 6315SOL    HW219471   4.732   4.067   7.538 -1.7407  1.6326  0.1356
 6316SOL     OW19472   6.630   0.166   4.580  0.4871  0.1091  0.6196
 6316SOL    HW119473   6.667   0.251   4.557  0.7841 -0.1960 -0.0388
 6316SOL    HW219474   6.558   0.187   4.641  1.6222  0.7175  1.8095
 6317SOL     OW19475   5.162   3.836   6.777 -0.2394  0.0021  0.4680
 6317SOL    HW119476   5.119   3.829   6.862 -0.3035  2.5918  0.7261
 6317SOL    HW219477   5.244   3.789   6.788  0.3760  1.3989  2.4390
 6318SOL     OW19478   6.324   1.551   1.139 -0.5362 -0.1007 -0.2447
 6318SOL    HW119479   6.281   1.637   1.143  0.2711  0.2735  0.7123
 6318SOL    HW219480   6.343   1.539   1.046 -0.3333  0.9348 -0.3536
 6319SOL     OW19481   5.792   0.884   1.645 -0.3978  0.2127  0.0393
 6319SOL    HW119482   5.793   0.960   1.587 -0.8723 -0.1939 -0.5134
 6319SOL    HW219483   5.873   0.892   1.696  0.8818 -0.2772 -1.8078
 6320SOL     OW19484   3.361   3.636   0.590 -0.3638  0.2507  0.4354
 6320SOL    HW119485   3.410   3.663   0.667 -0.7655 -1.4938  1.3553
 6320SOL    HW219486   3.418   3.573   0.546 -0.0827  1.3205 -0.8001
 6321SOL     OW19487   5.465   6.530   2.176  0.2617 -0.1851  0.2875
 6321SOL    HW119488   5.422   6.588   2.239 -0.4608 -1.2847  0.8348
 6321SOL    HW219489   5.551   6.513   2.216  0.7568  1.0141 -0.2044
 6322SOL     OW19490   6.880   7.200   4.228 -0.1569  0.3209  0.0676
 6322SOL    HW119491   6.957   7.191   4.284 -0.2797  1.7707  0.5208
 6322SOL    HW219492   6.907   7.262   4.161 -0.5162 -0.1992 -0.5642
 6323SOL     OW19493   3.274   6.902   0.348 -0.0743 -0.3162  0.0240
 6323SOL    HW119494   3.208   6.949   0.399 -0.9902 -1.6453  0.1211
 6323SOL    HW219495   3.342   6.967   0.331 -0.2833  0.4800  1.9479
 6324SOL     OW19496   3.536   3.860   5.708  0.7216 -0.3268 -0.2516
 6324SOL    HW119497   3.543   3.851   5.613 -1.6150  0.2265 -0.5176
 6324SOL    HW219498   3.546   3.954   5.724 -3.1135  0.2734 -0.4941
 6325SOL     OW19499   3.466   1.114   7.452  0.7255  0.3197  0.0050
 6325SOL    HW119500   3.484   1.034   7.402 -0.9405  0.7283 -1.3392
 6325SOL    HW219501   3.533   1.115   7.520  2.6316 -0.7054 -1.7181
 6326SOL     OW19502   7.228   7.069   1.083  0.3448 -0.3154  0.2632
 6326SOL    HW119503   7.265   7.147   1.124  1.9482 -0.8443 -0.0819
 6326SOL    HW219504   7.233   7.087   0.989  1.7769 -1.2358  0.1303
 6327SOL     OW19505   6.862   5.312   0.519 -0.0807  0.5585 -0.2593
 6327SOL    HW119506   6.912   5.374   0.466  0.8276 -0.2881 -0.4104
 6327SOL    HW219507   6.844   5.238   0.462 -0.7701  0.4673  0.0545
 6328SOL     OW19508   4.078   2.130   0.120 -0.2586  0.2769 -0.2725
 6328SOL    HW119509   4.110   2.104   0.033 -0.5577  0.6843 -0.5106
 6328SOL    HW219510   4.032   2.054   0.153  0.2489 -0.0366 -0.2793
 6329SOL     OW19511   3.501   4.039   2.433 -0.2678  0.1458 -0.1262
 6329SOL    HW119512   3.443   4.005   2.501  0.3073 -2.2094 -0.6860
 6329SOL    HW219513   3.544   4.115   2.473 -1.4674  0.0792  1.3729
 6330SOL     OW19514   0.432   0.640   0.207 -0.6998 -0.3608 -0.0664
 6330SOL    HW119515   0.445   0.692   0.286  0.0128 -1.1612  0.3599
 6330SOL    HW219516   0.509   0.583   0.203 -1.0216 -0.7462 -1.0135
 6331SOL     OW19517   1.094   1.514   2.207  0.3781 -0.0919 -0.2402
 6331SOL    HW119518   1.134   1.537   2.123 -1.2313  0.2889 -0.9447
 6331SOL    HW219519   1.006   1.552   2.202  0.3795  0.2472  1.7835
 6332SOL     OW19520   4.545   2.928   5.290 -0.1183 -0.5566  0.3476
 6332SOL    HW119521   4.628   2.972   5.308  0.0271  0.3998 -2.2946
 6332SOL    HW219522   4.569   2.840   5.261 -0.1449 -0.8370  1.1549
 6333SOL     OW19523   0.316   2.657   3.927  0.1592 -0.5405 -0.4458
 6333SOL    HW119524   0.299   2.563   3.933  0.7426 -0.6241 -0.1266
 6333SOL    HW219525   0.393   2.664   3.871 -0.2413 -0.2145 -0.9724
 6334SOL     OW19526   1.824   5.854   4.311 -0.0912  0.7619 -0.0518
 6334SOL    HW119527   1.806   5.919   4.244 -0.1490  1.6904  0.8406
 6334SOL    HW219528   1.902   5.887   4.356  1.5622 -1.1667 -1.3012
 6335SOL     OW19529   1.593   1.755   2.676  0.0793  0.0434 -0.2264
 6335SOL    HW119530   1.533   1.682   2.663 -0.4309  0.2208  0.9987
 6335SOL    HW219531   1.629   1.773   2.589  1.7754 -2.9492 -0.2812
 6336SOL     OW19532   1.593   2.613   5.909  0.1624 -0.0534  0.0938
 6336SOL    HW119533   1.565   2.529   5.873 -0.2160 -1.2983  3.0857
 6336SOL    HW219534   1.513   2.654   5.940  0.7534 -0.3479  2.1118
 6337SOL     OW19535   5.084   0.723   4.729 -0.2642  0.1116  0.2968
 6337SOL    HW119536   5.045   0.650   4.776  0.1936 -1.1002 -1.1350
 6337SOL    HW219537   5.162   0.746   4.780 -0.1635 -0.6996  0.5098
 6338SOL     OW19538   4.812   5.661   2.966  0.0283  0.1481 -0.4707
 6338SOL    HW119539   4.806   5.685   2.873  2.3786 -0.1921 -0.7724
 6338SOL    HW219540   4.840   5.741   3.010  2.6865 -0.5507 -0.6986
 6339SOL     OW19541   1.842   0.469   0.775 -0.3900  0.4210  0.1271
 6339SOL    HW119542   1.845   0.519   0.856  0.8749  1.8851 -0.7628
 6339SOL    HW219543   1.832   0.535   0.706  1.7079 -0.4775 -1.1387
 6340SOL     OW19544   7.443   1.269   7.231  0.5383  0.3069  0.1972
 6340SOL    HW119545   7.369   1.228   7.275  0.8293 -0.3363  0.1019
 6340SOL    HW219546   7.408   1.298   7.147  0.5735 -0.7313 -0.1983
 6341SOL     OW19547   5.287   0.054   4.366  0.0187  0.3933  0.1905
 6341SOL    HW119548   5.347   0.125   4.344  0.1225  1.2248  2.8183
 6341SOL    HW219549   5.287   0.051   4.462 -2.4671 -1.0412  0.2307
 6342SOL     OW19550   5.704   1.833   3.494  0.2401  0.1042  0.1731
 6342SOL    HW119551   5.664   1.798   3.574  0.3651  1.7040  0.9592
 6342SOL    HW219552   5.676   1.924   3.491  3.7771  1.3628  0.7658
 6343SOL     OW19553   6.201   5.555   5.798 -0.5152  0.5182  0.2374
 6343SOL    HW119554   6.175   5.484   5.858 -1.2629  0.0570 -0.6015
 6343SOL    HW219555   6.190   5.635   5.849  0.2576  0.0492  1.1748
 6344SOL     OW19556   5.319   1.429   7.073  0.0825  0.2464 -0.2069
 6344SOL    HW119557   5.292   1.513   7.110  1.7499  0.0282  1.6177
 6344SOL    HW219558   5.414   1.432   7.073  0.1559 -1.2115 -1.2200
 6345SOL     OW19559   3.509   3.703   4.391  0.4424  0.3238 -0.2258
 6345SOL    HW119560   3.439   3.683   4.329 -1.1010  2.0185  0.8803
 6345SOL    HW219561   3.537   3.791   4.368  0.5214  0.5949  0.8710
 6346SOL     OW19562   7.267   6.792   2.345  0.7306  0.5648 -0.6053
 6346SOL    HW119563   7.350   6.839   2.355  1.2946 -0.7016  1.4736
 6346SOL    HW219564   7.254   6.750   2.430 -1.8007  0.2924 -1.0503
 6347SOL     OW19565   2.946   2.304   2.407  0.0397  0.3875 -0.5159
 6347SOL    HW119566   2.924   2.335   2.318  2.2181 -0.7054 -1.5128
 6347SOL    HW219567   2.894   2.224   2.418 -0.9933  1.0535 -0.3638
 6348SOL     OW19568   3.876   6.600   5.243  0.2132  0.4731  0.3950
 6348SOL    HW119569   3.924   6.602   5.160  1.5889  1.1110  1.1667
 6348SOL    HW219570   3.822   6.679   5.241 -1.6262 -0.7325 -0.8911
 6349SOL     OW19571   1.306   4.872   2.335 -0.1397  0.5467 -0.6789
 6349SOL    HW119572   1.334   4.799   2.280 -0.1385  0.0293 -0.0031
 6349SOL    HW219573   1.342   4.950   2.292 -0.4427  0.1964 -1.6042
 6350SOL     OW19574   7.210   1.206   0.521 -0.3513 -0.4996  0.4141
 6350SOL    HW119575   7.121   1.176   0.501 -0.1372 -1.2108  0.5253
 6350SOL    HW219576   7.267   1.154   0.465  0.0704 -0.7235  1.0370
 6351SOL     OW19577   7.453   6.226   5.948  0.5752  0.5744 -0.9198
 6351SOL    HW119578   7.433   6.159   6.013 -0.7301 -0.3415 -2.2079
 6351SOL    HW219579   7.368   6.255   5.916  1.1380  2.2569 -1.0210
 6352SOL     OW19580   0.673   5.111   1.519 -0.1445 -0.4312  0.6531
 6352SOL    HW119581   0.586   5.071   1.521 -0.2706 -0.4268 -1.8563
 6352SOL    HW219582   0.658   5.199   1.484  1.1518 -1.6881 -3.5715
 6353SOL     OW19583   5.428   1.090   7.510 -0.2251  0.5503  0.5187
 6353SOL    HW119584   5.367   1.020   7.489 -0.7127  1.2275 -0.4017
 6353SOL    HW219585   5.426   1.148   7.434  1.4910  0.6557  0.5028
 6354SOL     OW19586   6.288   2.239   2.180 -0.0334  0.1978  0.8557
 6354SOL    HW119587   6.360   2.294   2.209 -2.0328  1.9522  2.8394
 6354SOL    HW219588   6.277   2.174   2.250  0.8698 -1.4131 -0.4175
 6355SOL     OW19589   1.951   3.088   1.013  0.2194  0.7691  0.4833
 6355SOL    HW119590   1.929   3.084   1.105  0.0526 -0.3479  0.4027
 6355SOL    HW219591   1.876   3.130   0.971  0.1590  0.9825  0.8054
 6356SOL     OW19592   0.434   6.336   4.834  0.5269  0.5137  0.6837
 6356SOL    HW119593   0.403   6.408   4.780 -0.2573  0.9578  1.7035
 6356SOL    HW219594   0.354   6.298   4.872  0.5685 -2.6062 -1.8246
 6357SOL     OW19595   2.003   3.715   5.404  0.1881  0.3279  0.0638
 6357SOL    HW119596   2.028   3.622   5.401  0.5294  0.3980  0.4465
 6357SOL    HW219597   1.936   3.725   5.337 -0.8009 -0.4811  0.8959
 6358SOL     OW19598   0.451   5.973   3.091  0.0171 -0.4253 -0.1764
 6358SOL    HW119599   0.463   6.057   3.048 -0.0126 -0.5987 -0.5265
 6358SOL    HW219600   0.382   5.988   3.154 -0.1375 -0.2409 -0.3886
 6359SOL     OW19601   1.192   4.146   1.096  0.4595  0.2919 -0.0202
 6359SOL    HW119602   1.180   4.217   1.159  0.4009 -0.2852  0.6244
 6359SOL    HW219603   1.278   4.163   1.056  0.3101  0.8920 -0.0976
 6360SOL     OW19604   6.475   7.324   5.755 -0.4229  0.2849 -0.2096
 6360SOL    HW119605   6.458   7.322   5.849 -0.4239 -1.8016 -0.2150
 6360SOL    HW219606   6.406   7.380   5.719  0.2976  2.1432  1.1042
 6361SOL     OW19607   6.823   3.468   6.945  0.0011 -0.7725 -0.7088
 6361SOL    HW119608   6.897   3.413   6.972 -1.2394 -1.3494  1.7048
 6361SOL    HW219609   6.752   3.407   6.929 -0.9079 -0.0286  0.3312
 6362SOL     OW19610   1.572   3.210   6.384  0.3410 -0.1958 -0.0892
 6362SOL    HW119611   1.638   3.144   6.406  0.3680 -0.4939 -1.0393
 6362SOL    HW219612   1.519   3.169   6.315 -0.8030  0.0641  0.6153
 6363SOL     OW19613   2.115   1.806   4.592  0.1830 -0.0520  0.0330
 6363SOL    HW119614   2.064   1.866   4.646  2.0468  1.8249 -0.1688
 6363SOL    HW219615   2.102   1.836   4.502  1.4101  0.3532 -0.0383
 6364SOL     OW19616   3.894   2.758   0.581 -0.3171  0.0684 -0.2672
 6364SOL    HW119617   3.834   2.695   0.542 -0.5693  0.3907 -0.3993
 6364SOL    HW219618   3.841   2.807   0.643 -0.5318  1.2540 -1.3351
 6365SOL     OW19619   1.540   2.375   6.437 -0.4066 -0.1570 -0.5400
 6365SOL    HW119620   1.582   2.449   6.394  1.1317 -0.2942  0.6471
 6365SOL    HW219621   1.454   2.368   6.395 -0.0888  1.4951 -1.5314
 6366SOL     OW19622   4.145   1.681   4.837  0.0388  0.4848 -0.2616
 6366SOL    HW119623   4.176   1.747   4.900 -1.5485 -0.2671  1.4024
 6366SOL    HW219624   4.211   1.612   4.841  0.2177  0.6732  0.2074
 6367SOL     OW19625   7.311   0.892   7.253 -0.0863 -0.3563 -0.7869
 6367SOL    HW119626   7.397   0.920   7.221  0.0115  0.1440 -0.0825
 6367SOL    HW219627   7.330   0.841   7.331 -0.5552  2.0180  0.9815
 6368SOL     OW19628   4.836   7.216   0.258  0.0416  0.3638 -0.2792
 6368SOL    HW119629   4.862   7.124   0.252 -0.6648  0.2005 -0.9577
 6368SOL    HW219630   4.917   7.265   0.244  0.8706 -0.1329  2.2396
 6369SOL     OW19631   2.426   4.915   1.917 -0.5862  0.0775 -0.0424
 6369SOL    HW119632   2.500   4.909   1.857 -0.2536 -0.3137  0.4035
 6369SOL    HW219633   2.350   4.895   1.863 -0.1293 -2.0728  0.0385
 6370SOL     OW19634   6.041   5.496   3.293 -0.8262  0.2306  0.1006
 6370SOL    HW119635   6.114   5.513   3.352 -0.7870 -0.0851  0.1408
 6370SOL    HW219636   6.054   5.406   3.262 -0.3367  0.6822 -1.1007
 6371SOL     OW19637   4.338   6.445   5.410  0.6794  0.4166  0.7334
 6371SOL    HW119638   4.252   6.486   5.404  0.5334 -0.0199 -0.2652
 6371SOL    HW219639   4.394   6.512   5.451  0.6327  1.9260 -1.4958
 6372SOL     OW19640   5.637   4.233   2.236 -0.4384  0.4016 -0.0108
 6372SOL    HW119641   5.554   4.195   2.207 -1.9838  2.8691  0.8291
 6372SOL    HW219642   5.616   4.325   2.255  2.5752  1.2209 -0.0514
 6373SOL     OW19643   2.067   1.362   2.265 -0.1307  0.3433 -0.1430
 6373SOL    HW119644   2.070   1.429   2.334  1.7513  0.6215 -0.4293
 6373SOL    HW219645   2.028   1.286   2.307 -0.5959  1.0347  0.7231
 6374SOL     OW19646   1.642   3.367   6.100  0.5307 -1.1679  0.2623
 6374SOL    HW119647   1.569   3.328   6.052  0.7078 -0.8218 -0.2922
 6374SOL    HW219648   1.620   3.352   6.192 -0.6964 -0.2558  0.1389
 6375SOL     OW19649   6.584   5.135   1.569 -0.4467  0.0199  0.1311
 6375SOL    HW119650   6.544   5.182   1.496 -0.0307 -2.3011 -1.7317
 6375SOL    HW219651   6.511   5.086   1.608 -1.2875  3.3439  3.2764
 6376SOL     OW19652   7.509   5.798   6.036  0.0352  0.1868 -0.3548
 6376SOL    HW119653   7.445   5.816   5.967  1.4290  0.7797 -1.5465
 6376SOL    HW219654   7.592   5.784   5.989  0.6593 -1.2710  1.0800
 6377SOL     OW19655   0.647   3.407   0.273  0.3154  0.1362 -0.0053
 6377SOL    HW119656   0.622   3.436   0.361 -1.0575  1.5751 -0.8041
 6377SOL    HW219657   0.737   3.436   0.263  0.7443 -0.7095  1.1768
 6378SOL     OW19658   0.324   3.297   6.950 -0.1113 -0.5798 -0.0642
 6378SOL    HW119659   0.274   3.219   6.975  0.7495 -1.1364 -0.0461
 6378SOL    HW219660   0.362   3.328   7.033 -0.7912  0.1156 -0.0010
 6379SOL     OW19661   2.387   5.093   6.377  0.1064 -0.2574  0.5513
 6379SOL    HW119662   2.309   5.118   6.427  0.5304  1.7641  0.3167
 6379SOL    HW219663   2.398   5.165   6.314  1.8224 -0.7865  0.2019
 6380SOL     OW19664   6.312   6.726   6.364  0.2150 -0.4340 -0.1556
 6380SOL    HW119665   6.246   6.677   6.414 -0.2570  0.8657  0.5465
 6380SOL    HW219666   6.396   6.697   6.400 -0.0053 -1.3809 -0.3777
 6381SOL     OW19667   6.632   2.222   4.864  0.5639  0.1870  0.7860
 6381SOL    HW119668   6.702   2.246   4.804  0.6698  1.1280  1.2687
 6381SOL    HW219669   6.611   2.303   4.911 -1.2655  0.0907  0.2265
 6382SOL     OW19670   3.718   0.398   1.315 -0.0957 -0.4852  0.1299
 6382SOL    HW119671   3.627   0.368   1.319  0.4298 -2.6099 -1.4347
 6382SOL    HW219672   3.756   0.372   1.399 -0.8130  0.0621  0.6345
 6383SOL     OW19673   0.587   5.687   3.274  0.3166 -0.5576  0.8360
 6383SOL    HW119674   0.630   5.603   3.259  0.8024 -0.4387  1.5177
 6383SOL    HW219675   0.593   5.701   3.368 -0.0123  0.1051  0.7674
 6384SOL     OW19676   2.694   7.221   3.023  0.0182  0.0341 -0.0019
 6384SOL    HW119677   2.656   7.146   3.068  0.2157 -0.6472 -0.9228
 6384SOL    HW219678   2.772   7.186   2.980  0.5000  0.9295  0.1130
 6385SOL     OW19679   6.388   0.334   7.349 -0.8289  0.1793 -0.3429
 6385SOL    HW119680   6.464   0.335   7.290 -0.9210 -0.2522 -0.4708
 6385SOL    HW219681   6.377   0.425   7.374  0.6962  0.0591  0.9266
 6386SOL     OW19682   0.129   6.162   1.941 -0.5291 -0.3532 -0.8051
 6386SOL    HW119683   0.095   6.075   1.962 -0.7378 -0.3197 -0.9930
 6386SOL    HW219684   0.146   6.159   1.847  0.7684 -0.6279 -0.5762
 6387SOL     OW19685   5.694   6.740   7.069 -0.6389 -0.5066  0.1396
 6387SOL    HW119686   5.755   6.781   7.008 -1.3082  0.1148 -0.1290
 6387SOL    HW219687   5.737   6.748   7.154  0.7243 -2.2255 -0.3456
 6388SOL     OW19688   6.119   7.021   4.934 -0.5580 -0.2326  0.2867
 6388SOL    HW119689   6.078   7.094   4.980  0.7015  0.9634 -0.3950
 6388SOL    HW219690   6.136   7.055   4.846 -0.9595 -1.7381 -0.4003
 6389SOL     OW19691   1.707   4.161   5.476  0.1765  0.4667 -0.1567
 6389SOL    HW119692   1.628   4.145   5.528 -0.0783  1.2661 -0.2921
 6389SOL    HW219693   1.708   4.091   5.411  0.8673 -0.9832  1.3217
 6390SOL     OW19694   6.759   6.317   1.981  0.2116  0.2297 -0.1693
 6390SOL    HW119695   6.796   6.399   2.015 -0.6637  0.9635 -0.9194
 6390SOL    HW219696   6.730   6.270   2.058 -2.2419  2.1023  0.1567
 6391SOL     OW19697   5.615   0.131   6.220 -0.1968 -0.2493  0.1094
 6391SOL    HW119698   5.649   0.059   6.165 -1.2142 -1.2530  0.7559
 6391SOL    HW219699   5.580   0.087   6.297 -0.3911  1.0073  0.7482
 6392SOL     OW19700   4.905   1.515   3.045 -0.1606  0.3689 -0.0982
 6392SOL    HW119701   4.938   1.428   3.023 -0.1843  0.5935 -1.0472
 6392SOL    HW219702   4.982   1.572   3.042 -0.3933  0.6489 -0.9678
 6393SOL     OW19703   1.664   3.345   1.409  0.0865 -0.1282  0.7785
 6393SOL    HW119704   1.743   3.387   1.444 -0.8028  1.1088  1.3483
 6393SOL    HW219705   1.627   3.297   1.483  0.9424 -1.7600  0.2030
 6394SOL     OW19706   7.030   1.723   0.729 -0.5620 -0.3337 -0.2222
 6394SOL    HW119707   7.089   1.775   0.675  2.2199 -0.8145  2.1223
 6394SOL    HW219708   6.968   1.787   0.764 -1.5995  0.1790 -2.7589
 6395SOL     OW19709   1.698   4.216   0.873  0.6912 -0.1461  0.3947
 6395SOL    HW119710   1.780   4.175   0.899  0.5643  0.3940  1.7342
 6395SOL    HW219711   1.691   4.294   0.929  0.3320  1.0234 -1.2104
 6396SOL     OW19712   7.092   1.688   7.083 -0.3678 -0.7535 -0.8138
 6396SOL    HW119713   7.123   1.778   7.088 -1.0263 -0.4114 -2.3154
 6396SOL    HW219714   7.057   1.670   7.170 -1.7735  1.0460 -0.9287
 6397SOL     OW19715   1.563   4.371   0.431  0.2360 -0.6592 -0.5511
 6397SOL    HW119716   1.634   4.321   0.471 -1.6246 -2.6258  0.5616
 6397SOL    HW219717   1.538   4.435   0.498 -1.0429 -2.1097  0.4629
 6398SOL     OW19718   4.357   2.424   7.437  0.5906 -0.3245  0.5195
 6398SOL    HW119719   4.280   2.480   7.430  0.6496 -0.2060  0.8178
 6398SOL    HW219720   4.378   2.402   7.346  0.0412 -0.5875  0.4508
 6399SOL     OW19721   6.606   6.540   4.102  0.4601 -0.1537 -0.1095
 6399SOL    HW119722   6.672   6.608   4.086  0.3434  0.2518  0.9834
 6399SOL    HW219723   6.656   6.466   4.135  0.4402 -0.0602  0.1358
 6400SOL     OW19724   6.925   5.106   5.388 -0.1157  0.1778  0.5425
 6400SOL    HW119725   6.924   5.199   5.413 -2.3797 -0.2190  2.2801
 6400SOL    HW219726   6.833   5.083   5.377  0.4530 -1.6528 -0.8725
 6401SOL     OW19727   6.658   2.483   1.724  0.0439  0.1840  0.8817
 6401SOL    HW119728   6.627   2.483   1.814 -2.4272  1.3693  0.1354
 6401SOL    HW219729   6.698   2.569   1.712 -2.3207  1.2572  0.1137
 6402SOL     OW19730   7.168   3.904   7.435 -0.2178  0.2168 -0.5061
 6402SOL    HW119731   7.223   3.958   7.492 -0.8575 -1.3805  1.7830
 6402SOL    HW219732   7.201   3.814   7.448  0.1739 -0.1534 -3.4116
 6403SOL     OW19733   4.555   1.638   3.695 -0.2350  0.0380 -0.0629
 6403SOL    HW119734   4.627   1.649   3.758 -0.6363  1.4442  0.1901
 6403SOL    HW219735   4.544   1.725   3.657 -0.7028 -0.5607 -1.3245
 6404SOL     OW19736   3.197   5.457   0.837 -0.3196 -0.0917 -0.5382
 6404SOL    HW119737   3.265   5.521   0.813  0.3093 -1.5540 -3.0353
 6404SOL    HW219738   3.235   5.410   0.912  0.4571  0.5385 -0.5146
 6405SOL     OW19739   4.384   1.484   0.904  0.0702  0.3929  0.2620
 6405SOL    HW119740   4.317   1.527   0.957  0.3348  2.4336 -0.9150
 6405SOL    HW219741   4.337   1.456   0.825  0.5891  2.3075 -0.8090
 6406SOL     OW19742   5.430   5.554   2.681  0.0781  0.1244  0.5339
 6406SOL    HW119743   5.454   5.504   2.759 -0.0011 -0.4333  0.2079
 6406SOL    HW219744   5.504   5.544   2.622  0.5518  1.3473  0.9063
 6407SOL     OW19745   2.117   5.129   1.822  0.1964 -0.0362  0.1401
 6407SOL    HW119746   2.195   5.171   1.787  0.3794 -0.0313  0.5502
 6407SOL    HW219747   2.088   5.070   1.752 -0.0942  0.7963 -0.4609
 6408SOL     OW19748   5.245   7.455   0.463  0.4108 -0.6044  0.0497
 6408SOL    HW119749   5.259   7.481   0.554 -2.0964  0.9331  0.1191
 6408SOL    HW219750   5.201   7.531   0.423  1.3532 -1.2603 -2.4526
 6409SOL     OW19751   3.358   5.710   2.103  0.4705 -0.7054  0.1753
 6409SOL    HW119752   3.399   5.624   2.100  1.0787 -0.4273  0.2104
 6409SOL    HW219753   3.404   5.756   2.174 -0.6181 -0.7280  0.9224
 6410SOL     OW19754   0.931   5.961   5.857 -0.1577  0.2714  0.4774
 6410SOL    HW119755   0.957   6.006   5.777  0.9628 -1.3469 -0.1141
 6410SOL    HW219756   0.977   6.009   5.927  0.1619  0.6958 -0.0113
 6411SOL     OW19757   0.755   1.799   7.108  0.1750 -0.1643 -0.4195
 6411SOL    HW119758   0.759   1.840   7.194  1.1721  1.1031 -1.0308
 6411SOL    HW219759   0.661   1.792   7.089 -0.0400  0.3725  0.3831
 6412SOL     OW19760   1.483   0.458   6.377  0.1931 -0.1388  0.1203
 6412SOL    HW119761   1.489   0.501   6.292  0.9359  0.5284  0.4954
 6412SOL    HW219762   1.460   0.368   6.357  1.8512 -0.3736 -0.8914
 6413SOL     OW19763   3.701   1.274   3.654  0.0703 -0.2269  0.3798
 6413SOL    HW119764   3.612   1.257   3.685  0.5145 -2.1421  0.7264
 6413SOL    HW219765   3.713   1.212   3.583  0.4985  1.3373 -0.9894
 6414SOL     OW19766   7.114   0.119   2.855 -0.5284 -0.0414 -0.3642
 6414SOL    HW119767   7.040   0.094   2.801 -0.7336 -2.3694  0.8875
 6414SOL    HW219768   7.077   0.133   2.942  0.1098  1.6098 -0.3079
 6415SOL     OW19769   4.456   3.962   6.275  0.4216  0.2446  0.8172
 6415SOL    HW119770   4.370   3.970   6.318  0.6955  1.4027  1.2062
 6415SOL    HW219771   4.435   3.953   6.182 -0.1472 -0.7692  1.0309
 6416SOL     OW19772   4.731   1.204   7.001  0.5776 -0.0499 -0.7975
 6416SOL    HW119773   4.691   1.277   7.048  1.5648 -0.9434  1.6117
 6416SOL    HW219774   4.761   1.145   7.070  1.8581 -1.6351 -2.6014
 6417SOL     OW19775   2.970   2.635   4.759 -0.1181  0.1175 -0.1656
 6417SOL    HW119776   2.949   2.588   4.678  0.6895 -1.0910  0.2963
 6417SOL    HW219777   3.065   2.631   4.765 -0.1425  0.5710  0.6268
 6418SOL     OW19778   7.211   5.658   5.020  0.0793 -0.4948 -0.2666
 6418SOL    HW119779   7.255   5.738   5.049  0.9639 -1.4844  1.2972
 6418SOL    HW219780   7.276   5.614   4.964 -0.3354 -0.2265 -0.9733
 6419SOL     OW19781   4.955   5.931   6.168  0.1046  0.0974 -0.3020
 6419SOL    HW119782   5.036   5.887   6.144  0.0114 -0.6353  0.6541
 6419SOL    HW219783   4.974   5.970   6.253 -1.0510 -1.5935  0.7998
 6420SOL     OW19784   6.156   1.813   2.933  0.2147 -0.0471  0.5577
 6420SOL    HW119785   6.177   1.776   3.019  0.9546  1.6961  1.1727
 6420SOL    HW219786   6.231   1.789   2.879 -0.5531 -1.7184  0.1695
 6421SOL     OW19787   7.219   4.113   3.465 -0.1527  0.1436 -0.0923
 6421SOL    HW119788   7.281   4.059   3.513  0.1680  0.2379 -0.3911
 6421SOL    HW219789   7.266   4.194   3.447 -0.7880  0.7169  0.7564
 6422SOL     OW19790   1.166   3.675   3.611 -0.5142 -0.0013  0.1379
 6422SOL    HW119791   1.091   3.617   3.594 -1.2605  0.9553  0.0564
 6422SOL    HW219792   1.171   3.679   3.707 -0.8081  0.2352  0.1440
 6423SOL     OW19793   7.439   5.827   4.788 -0.1293  0.1133 -0.3409
 6423SOL    HW119794   7.531   5.820   4.815  0.4812  0.3023 -2.2076
 6423SOL    HW219795   7.423   5.747   4.738 -0.8260  0.3212 -0.4553
 6424SOL     OW19796   1.377   6.899   0.361  0.0492 -0.4970  0.1321
 6424SOL    HW119797   1.442   6.866   0.299  0.5368 -2.1343  1.4613
 6424SOL    HW219798   1.316   6.826   0.375 -1.1884  0.4907  0.1141
 6425SOL     OW19799   5.886   7.476   6.636  0.6846  0.0673 -0.6259
 6425SOL    HW119800   5.816   7.440   6.582  0.2552  0.9475 -0.6649
 6425SOL    HW219801   5.965   7.428   6.608  0.2479 -0.3566 -1.1499
 6426SOL     OW19802   6.617   0.568   5.502  0.1550 -0.3890  0.3574
 6426SOL    HW119803   6.540   0.602   5.547  0.5149 -0.5877  1.1263
 6426SOL    HW219804   6.688   0.628   5.525  0.5752 -1.0885  0.9340
 6427SOL     OW19805   5.564   2.329   0.866  0.0723  0.0462  0.3317
 6427SOL    HW119806   5.621   2.295   0.935  1.2245  0.2706 -0.4930
 6427SOL    HW219807   5.523   2.251   0.829  1.2194 -0.2888 -0.2585
 6428SOL     OW19808   2.571   3.953   0.645 -0.1457  0.7846  0.3906
 6428SOL    HW119809   2.610   3.873   0.610  0.1150  0.4189  1.4964
 6428SOL    HW219810   2.583   3.946   0.740 -1.6885  1.3015  0.6430
 6429SOL     OW19811   2.652   1.556   7.548  0.2029 -0.9054 -0.8450
 6429SOL    HW119812   2.677   1.626   7.488  0.7646  0.0333  0.4362
 6429SOL    HW219813   2.653   1.597   7.634 -0.1737 -2.3206 -0.1374
 6430SOL     OW19814   1.498   5.996   6.998 -0.2305 -0.0936 -0.1610
 6430SOL    HW119815   1.423   5.948   7.032  0.4168 -0.9518  0.1186
 6430SOL    HW219816   1.462   6.058   6.935 -1.3750  0.9779  1.5074
 6431SOL     OW19817   5.996   6.489   0.399  0.1488  0.0616 -0.5372
 6431SOL    HW119818   6.036   6.571   0.369  1.2391 -0.4611 -0.5750
 6431SOL    HW219819   6.013   6.488   0.493  1.2209 -0.6678 -0.7159
 6432SOL     OW19820   2.905   4.297   0.629 -0.4110 -0.3224  0.2414
 6432SOL    HW119821   2.971   4.253   0.682 -0.3535 -0.5508 -0.0162
 6432SOL    HW219822   2.953   4.326   0.551 -0.2108  1.1162  0.8636
 6433SOL     OW19823   4.802   7.358   1.408  0.8559 -0.6913  0.1416
 6433SOL    HW119824   4.846   7.439   1.434  0.4556  0.6452 -2.9004
 6433SOL    HW219825   4.728   7.349   1.468  1.4239  0.6981  1.0798
 6434SOL     OW19826   7.206   0.597   0.109  0.0370  0.1942  0.3177
 6434SOL    HW119827   7.286   0.625   0.066  0.2089  1.7143  1.5594
 6434SOL    HW219828   7.150   0.675   0.110 -1.1705 -0.6303  0.1576
 6435SOL     OW19829   5.433   2.865   3.988 -0.2223 -0.1916 -0.1733
 6435SOL    HW119830   5.523   2.863   3.956 -1.0139  0.1553 -2.6088
 6435SOL    HW219831   5.422   2.782   4.035  1.1124 -0.5908 -0.5321
 6436SOL     OW19832   5.828   2.513   4.707 -0.0248  0.0582  0.2943
 6436SOL    HW119833   5.862   2.588   4.659  0.4322 -0.0153  0.5026
 6436SOL    HW219834   5.743   2.495   4.666  0.5051 -0.2092 -0.7014
 6437SOL     OW19835   3.466   6.410   4.144  0.1928  0.1356 -0.2502
 6437SOL    HW119836   3.458   6.470   4.070 -2.7060 -0.0148 -0.1612
 6437SOL    HW219837   3.453   6.323   4.106  2.2822 -0.3154 -0.0541
 6438SOL     OW19838   4.950   3.369   1.386  0.0640  0.0036 -0.3464
 6438SOL    HW119839   4.857   3.360   1.364 -0.7463 -0.2035  2.6560
 6438SOL    HW219840   4.957   3.457   1.424  0.3760 -0.9716  2.0708
 6439SOL     OW19841   5.573   4.476   1.726 -0.1795  0.3115  0.1218
 6439SOL    HW119842   5.623   4.545   1.683  1.5554 -0.5662  0.6720
 6439SOL    HW219843   5.573   4.499   1.818  1.0498 -0.7748  0.4186
 6440SOL     OW19844   2.027   0.236   1.211  0.1213  0.2364  0.3154
 6440SOL    HW119845   2.004   0.292   1.285  0.6924  1.5800 -0.4856
 6440SOL    HW219846   2.120   0.254   1.195  0.7862 -2.1723  1.0468
 6441SOL     OW19847   4.443   7.294   2.478 -1.0212 -0.1096  0.0492
 6441SOL    HW119848   4.407   7.239   2.547  3.5176 -1.3696  1.7506
 6441SOL    HW219849   4.484   7.367   2.524  0.6959 -0.0893 -1.3910
 6442SOL     OW19850   2.702   7.129   1.951 -0.6250  0.9939 -0.2337
 6442SOL    HW119851   2.743   7.053   1.908  0.7851  1.6567 -0.1145
 6442SOL    HW219852   2.608   7.118   1.933 -0.6042 -1.3236  0.6335
 6443SOL     OW19853   5.455   2.341   1.935  0.3564 -0.1236 -0.0021
 6443SOL    HW119854   5.500   2.398   1.998 -0.2432 -0.9768  1.2388
 6443SOL    HW219855   5.476   2.252   1.963 -1.5083 -0.5438  0.2151
 6444SOL     OW19856   4.943   2.979   6.351 -0.0600 -0.0153  0.4119
 6444SOL    HW119857   4.957   2.893   6.312  1.7027  0.4890 -0.1461
 6444SOL    HW219858   4.851   2.978   6.380 -0.6145 -1.3848 -1.2784
 6445SOL     OW19859   0.084   6.704   5.356  0.0749 -0.0427  0.1229
 6445SOL    HW119860   0.036   6.643   5.413  1.2212 -0.0709  1.0860
 6445SOL    HW219861   0.084   6.786   5.405 -0.2983  0.3837 -0.5733
 6446SOL     OW19862   2.904   5.123   2.209 -0.0034 -0.3353 -0.2913
 6446SOL    HW119863   2.810   5.104   2.200  0.2998 -2.0022 -0.1118
 6446SOL    HW219864   2.912   5.162   2.296 -0.4453 -0.7080 -0.0776
 6447SOL     OW19865   4.769   2.291   6.302 -0.3662 -0.0268 -0.5388
 6447SOL    HW119866   4.775   2.307   6.396  0.6117  2.1979 -0.9161
 6447SOL    HW219867   4.834   2.222   6.285 -0.1176 -0.0133  0.3290
 6448SOL     OW19868   4.032   3.954   5.944  0.2631  0.2111  0.0524
 6448SOL    HW119869   4.041   3.985   6.034  0.2368  1.9539 -0.5089
 6448SOL    HW219870   4.087   4.013   5.892 -1.3450  0.5953 -1.3202
 6449SOL     OW19871   0.420   7.242   4.661  0.3498  0.2768 -0.4131
 6449SOL    HW119872   0.467   7.265   4.581  0.1525 -0.2671 -0.6859
 6449SOL    HW219873   0.456   7.158   4.688  0.9198  0.7838  0.4696
 6450SOL     OW19874   0.383   3.037   0.676  0.0100 -0.0848 -0.4153
 6450SOL    HW119875   0.398   3.120   0.630 -0.6745  0.1034 -0.3081
 6450SOL    HW219876   0.299   3.006   0.643 -0.5505  0.1059  0.7858
 6451SOL     OW19877   1.100   3.936   5.638 -0.3447  0.1500 -0.2494
 6451SOL    HW119878   1.025   3.949   5.696  1.8207  2.9034  2.2558
 6451SOL    HW219879   1.132   4.025   5.622  1.9485 -0.8906 -1.8430
 6452SOL     OW19880   5.502   6.422   1.012 -0.1111 -0.2817 -0.3202
 6452SOL    HW119881   5.410   6.397   1.009 -0.7907  1.9849 -0.2847
 6452SOL    HW219882   5.521   6.432   1.106 -0.6317  1.7249 -0.3739
 6453SOL     OW19883   2.459   4.566   1.214  0.0324  0.0365  0.2531
 6453SOL    HW119884   2.382   4.537   1.263 -0.3073 -1.6492 -1.1581
 6453SOL    HW219885   2.462   4.508   1.138  0.7497  2.2405 -1.5407
 6454SOL     OW19886   7.153   0.141   6.727 -0.6048 -0.2931 -0.4218
 6454SOL    HW119887   7.101   0.072   6.686 -0.6912 -0.1004 -0.6424
 6454SOL    HW219888   7.095   0.217   6.728 -1.0624 -0.6306  1.2269
 6455SOL     OW19889   2.234   3.917   0.788  0.6322 -0.3879  0.4931
 6455SOL    HW119890   2.181   3.837   0.787  1.9468 -1.2837  0.0489
 6455SOL    HW219891   2.229   3.948   0.878 -1.3196  0.0450  0.2852
 6456SOL     OW19892   5.119   0.120   3.295  0.0333  0.3482 -0.1455
 6456SOL    HW119893   5.041   0.076   3.259  0.8275  1.1436 -3.1539
 6456SOL    HW219894   5.157   0.166   3.220  2.7916  0.9237  1.4698
 6457SOL     OW19895   3.893   6.259   1.027  0.8654  0.3141 -0.5846
 6457SOL    HW119896   3.806   6.291   1.003 -0.2096 -2.0425 -0.0609
 6457SOL    HW219897   3.913   6.303   1.110 -0.2086  0.2488 -0.2840
 6458SOL     OW19898   3.991   7.017   5.968 -0.2505 -0.2795 -0.1991
 6458SOL    HW119899   3.954   6.934   6.001  0.7157 -0.8929 -0.6130
 6458SOL    HW219900   3.914   7.067   5.940 -0.8331 -1.1904 -0.2957
 6459SOL     OW19901   7.509   1.917   4.928  0.5713 -0.4506 -0.2042
 6459SOL    HW119902   7.420   1.903   4.958  0.8458 -0.1117  0.8108
 6459SOL    HW219903   7.564   1.895   5.003  1.1821  2.3454  0.3090
 6460SOL     OW19904   7.390   2.986   2.768  0.1448 -0.4451  0.1996
 6460SOL    HW119905   7.468   3.033   2.795  0.7152 -1.7648  0.9498
 6460SOL    HW219906   7.319   3.028   2.816  0.2034  1.3532 -1.1649
 6461SOL     OW19907   0.232   0.197   0.553 -0.4622  0.4299 -0.1821
 6461SOL    HW119908   0.266   0.126   0.608 -1.4483  1.1704  1.4995
 6461SOL    HW219909   0.306   0.225   0.500  0.1945 -1.2019 -0.1646
 6462SOL     OW19910   3.881   0.997   7.088  0.1306  0.1259 -0.2216
 6462SOL    HW119911   3.885   0.920   7.031  2.1740  0.1698 -0.2062
 6462SOL    HW219912   3.842   1.065   7.033 -0.3342 -0.5157 -0.7084
 6463SOL     OW19913   4.553   3.897   5.178  0.2480  0.5798 -0.3480
 6463SOL    HW119914   4.608   3.863   5.249  0.2294 -0.8727 -0.9831
 6463SOL    HW219915   4.613   3.945   5.121  0.4889  0.7125  0.0190
 6464SOL     OW19916   0.447   1.248   0.731  0.9396 -0.1223 -0.1216
 6464SOL    HW119917   0.488   1.224   0.814 -0.8533  0.8447  1.1105
 6464SOL    HW219918   0.506   1.314   0.694  0.6418  1.1324  1.5193
 6465SOL     OW19919   1.671   2.479   7.165 -0.5980 -0.0389  0.1255
 6465SOL    HW119920   1.724   2.403   7.139 -1.7763 -1.1389  0.8126
 6465SOL    HW219921   1.669   2.535   7.088  1.7192  0.1544  0.1371
 6466SOL     OW19922   3.631   7.297   0.541 -0.2134  0.2643 -1.3017
 6466SOL    HW119923   3.566   7.326   0.605  0.6177  0.7143 -0.6502
 6466SOL    HW219924   3.696   7.368   0.538  1.8683 -1.4447  0.3284
 6467SOL     OW19925   1.273   6.231   7.109 -0.2280 -0.0333  0.1210
 6467SOL    HW119926   1.238   6.145   7.087 -0.0054 -0.3197  0.8274
 6467SOL    HW219927   1.242   6.289   7.040  0.7037 -0.9326 -1.0821
 6468SOL     OW19928   2.248   2.778   3.238 -0.1262  0.4307  0.0802
 6468SOL    HW119929   2.343   2.788   3.242 -0.0082 -0.3105 -0.8216
 6468SOL    HW219930   2.229   2.755   3.147 -1.2356  1.1831  0.0916
 6469SOL     OW19931   4.764   0.798   0.751  0.3628  0.0727  0.3938
 6469SOL    HW119932   4.845   0.795   0.801 -0.1371 -1.3228  1.1933
 6469SOL    HW219933   4.777   0.736   0.680 -0.4335 -1.1435  1.2728
 6470SOL     OW19934   5.014   2.994   4.267  0.1260 -0.5164  0.1583
 6470SOL    HW119935   5.028   2.934   4.341  0.1347 -1.6216 -0.7106
 6470SOL    HW219936   5.056   3.076   4.295  1.3553 -1.3335  0.8376
 6471SOL     OW19937   0.448   2.067   0.568 -0.6875  0.1093  0.4049
 6471SOL    HW119938   0.522   2.126   0.569 -1.1161  0.6673 -0.0358
 6471SOL    HW219939   0.447   2.030   0.479 -0.3513 -0.6546  0.7110
 6472SOL     OW19940   0.529   0.963   6.355  0.1289 -0.0016  0.3101
 6472SOL    HW119941   0.473   1.041   6.354 -1.0108 -0.8035 -0.3442
 6472SOL    HW219942   0.603   0.988   6.411 -0.4151  1.3993  0.4564
 6473SOL     OW19943   5.711   0.325   5.688  0.3535  0.3691 -0.2513
 6473SOL    HW119944   5.721   0.300   5.780  2.5286  1.6802 -0.0384
 6473SOL    HW219945   5.626   0.291   5.663  0.0892 -0.8430  1.9783
 6474SOL     OW19946   4.418   3.115   6.410  0.0311  0.5763 -0.0922
 6474SOL    HW119947   4.426   3.206   6.383  0.6410  0.4354 -0.4050
 6474SOL    HW219948   4.387   3.069   6.332  0.0992  0.4574 -0.0507
 6475SOL     OW19949   5.572   3.834   7.222 -0.5245 -0.2180  0.3571
 6475SOL    HW119950   5.510   3.808   7.291 -0.6260  0.9207  0.7096
 6475SOL    HW219951   5.630   3.758   7.213 -1.0381 -0.7167  1.0857
 6476SOL     OW19952   1.828   1.316   3.565  0.8895  0.4968  0.0233
 6476SOL    HW119953   1.898   1.349   3.508  1.6658 -0.1425  0.5755
 6476SOL    HW219954   1.848   1.223   3.577  0.4637  0.5062  0.9220
 6477SOL     OW19955   1.352   7.057   6.981 -0.2595 -0.6896 -0.3521
 6477SOL    HW119956   1.258   7.061   6.998 -0.1659 -1.6371  0.4387
 6477SOL    HW219957   1.363   7.108   6.900 -1.4140 -0.3926 -0.3472
 6478SOL     OW19958   3.408   4.899   4.566 -0.1838 -0.5260 -0.1994
 6478SOL    HW119959   3.345   4.970   4.578  1.4003  0.9684 -0.2666
 6478SOL    HW219960   3.415   4.858   4.653 -4.1993 -3.5200 -0.9752
 6479SOL     OW19961   4.514   2.309   5.101 -0.2415 -0.2663  0.2658
 6479SOL    HW119962   4.466   2.382   5.062  1.5590  2.2500  2.4330
 6479SOL    HW219963   4.595   2.303   5.050 -1.3045 -2.3815 -1.3403
 6480SOL     OW19964   2.384   4.370   7.383  0.2119  0.2912  0.1588
 6480SOL    HW119965   2.319   4.422   7.335  0.4766 -2.8501 -4.1636
 6480SOL    HW219966   2.464   4.378   7.333  0.9535 -2.1485  0.8041
 6481SOL     OW19967   0.562   7.463   3.221 -0.3020  0.0616  0.1482
 6481SOL    HW119968   0.607   7.378   3.226  1.4468  0.8444 -0.9021
 6481SOL    HW219969   0.472   7.445   3.247 -0.0362 -2.1680 -0.2664
 6482SOL     OW19970   6.291   6.548   3.028 -0.1575 -0.2922 -0.4769
 6482SOL    HW119971   6.350   6.612   3.067  1.0059 -0.6171 -1.6179
 6482SOL    HW219972   6.317   6.546   2.935 -1.0622 -1.4401 -0.7212
 6483SOL     OW19973   4.318   2.388   3.791  0.0109 -0.0285 -0.9545
 6483SOL    HW119974   4.392   2.337   3.757 -1.4091 -0.4227 -3.7929
 6483SOL    HW219975   4.255   2.321   3.818 -0.2735  0.2654 -0.8995
 6484SOL     OW19976   4.351   1.430   2.602 -0.2709  0.0439  0.1624
 6484SOL    HW119977   4.351   1.395   2.691  2.6526 -0.4864  0.0623
 6484SOL    HW219978   4.443   1.430   2.576 -0.8469  1.7432 -2.2833
 6485SOL     OW19979   4.320   4.780   4.039  0.4542 -0.4456 -0.2942
 6485SOL    HW119980   4.412   4.762   4.021  0.7829 -1.1364  1.8266
 6485SOL    HW219981   4.283   4.800   3.953  2.3835 -0.9560 -1.3164
 6486SOL     OW19982   4.433   2.910   3.367  0.3847 -0.1595 -0.5883
 6486SOL    HW119983   4.369   2.865   3.421  1.4529 -1.9172 -0.7069
 6486SOL    HW219984   4.445   2.854   3.291  0.8057  0.9891 -1.4031
 6487SOL     OW19985   3.015   6.797   3.576 -0.4940 -0.7022 -0.6540
 6487SOL    HW119986   3.029   6.721   3.519 -1.6057 -1.0582 -0.4698
 6487SOL    HW219987   2.968   6.860   3.521 -1.2173 -0.8903 -0.2652
 6488SOL     OW19988   4.076   6.031   0.923 -0.7408 -0.4218  0.3615
 6488SOL    HW119989   4.089   5.983   1.005  2.2514  1.4727  1.1664
 6488SOL    HW219990   4.005   6.092   0.942 -0.7443 -0.6780  1.2231
 6489SOL     OW19991   0.365   6.017   5.360  0.1287 -0.0994 -0.5260
 6489SOL    HW119992   0.451   5.987   5.330  0.1089 -0.8424  0.1230
 6489SOL    HW219993   0.373   6.019   5.456 -0.5039  0.0674 -0.4747
 6490SOL     OW19994   2.021   0.762   5.139  0.1684 -0.4338 -0.0720
 6490SOL    HW119995   1.975   0.683   5.165  0.4229 -0.8293 -0.7934
 6490SOL    HW219996   1.955   0.832   5.146  0.3317 -0.4237  2.0110
 6491SOL     OW19997   0.540   2.456   7.416 -0.0538  0.0284  0.3512
 6491SOL    HW119998   0.470   2.417   7.467  0.9964  0.9346  2.6416
 6491SOL    HW219999   0.576   2.384   7.364 -1.1032 -0.9729  0.9921
 6492SOL     OW20000   4.665   4.549   5.283  0.3054 -0.1542 -0.7492
 6492SOL    HW120001   4.748   4.550   5.236  0.1221  0.6528 -1.0569
 6492SOL    HW220002   4.652   4.639   5.313 -0.2557 -0.3594 -0.3435
 6493SOL     OW20003   6.747   3.017   2.836 -0.3634 -0.3943 -0.3594
 6493SOL    HW120004   6.795   2.967   2.902 -0.9501  1.4933  1.5818
 6493SOL    HW220005   6.780   2.984   2.752  2.3534 -1.0127  0.8750
 6494SOL     OW20006   7.128   4.166   3.099  0.4646  0.7924  0.3915
 6494SOL    HW120007   7.056   4.163   3.036  1.1687 -0.7162 -0.4130
 6494SOL    HW220008   7.128   4.080   3.141  0.4462  1.5341  1.9894
 6495SOL     OW20009   0.249   0.289   6.621 -0.4212  0.7869 -0.0708
 6495SOL    HW120010   0.276   0.354   6.686 -0.9589  1.0940 -0.1426
 6495SOL    HW220011   0.222   0.341   6.545  2.3979  0.3816 -1.4635
 6496SOL     OW20012   6.082   5.347   4.434 -0.2473  0.7980  0.2813
 6496SOL    HW120013   6.040   5.263   4.414  1.8304 -0.3678  0.5525
 6496SOL    HW220014   6.031   5.382   4.508 -1.4509  0.0351 -0.1679
 6497SOL     OW20015   5.935   2.046   5.532  0.2385 -0.0470 -0.1688
 6497SOL    HW120016   6.001   2.101   5.489  0.7517 -0.7882 -0.3480
 6497SOL    HW220017   5.965   2.039   5.622  1.6954 -2.2168 -0.7273
 6498SOL     OW20018   6.935   0.087   4.574 -0.0116  1.3384 -0.1540
 6498SOL    HW120019   6.864   0.135   4.531 -0.5244  1.2522  0.5809
 6498SOL    HW220020   6.917  -0.005   4.555 -0.3736  1.2836  0.4335
 6499SOL     OW20021   6.746   2.315   5.768 -0.0998  0.2734  0.2564
 6499SOL    HW120022   6.675   2.281   5.713  1.2631 -2.6175  0.1212
 6499SOL    HW220023   6.716   2.298   5.858  0.4534 -1.1008  0.1956
 6500SOL     OW20024   7.508   1.122   4.804 -0.7109  0.2743  0.0026
 6500SOL    HW120025   7.550   1.159   4.882  0.0466  1.6577 -1.0058
 6500SOL    HW220026   7.515   1.192   4.738 -1.4683 -0.7903 -1.2541
 6501SOL     OW20027   2.707   7.137   6.303 -0.3287 -0.7739 -0.5048
 6501SOL    HW120028   2.612   7.145   6.312 -0.2570  0.7234 -0.7737
 6501SOL    HW220029   2.734   7.082   6.377 -1.2139  0.2305  0.6001
 6502SOL     OW20030   4.381   5.194   5.262  0.1735  0.3865 -0.5653
 6502SOL    HW120031   4.326   5.265   5.230 -0.4352  0.2532  0.1442
 6502SOL    HW220032   4.368   5.194   5.357 -0.4280 -1.1266 -0.6123
 6503SOL     OW20033   4.243   5.751   5.477 -0.0385 -0.0223  0.0695
 6503SOL    HW120034   4.174   5.745   5.410  1.8857 -0.7454 -1.9673
 6503SOL    HW220035   4.201   5.796   5.550 -2.3939  0.4219 -1.4336
 6504SOL     OW20036   0.725   0.942   0.782  0.2040  0.3743  0.2370
 6504SOL    HW120037   0.676   1.011   0.826  0.0490 -0.1448  0.8870
 6504SOL    HW220038   0.665   0.868   0.780  0.4950  0.1469 -0.1457
 6505SOL     OW20039   5.675   3.510   3.466  0.0597 -0.3796  0.0975
 6505SOL    HW120040   5.676   3.523   3.371  1.2180 -0.5254  0.0772
 6505SOL    HW220041   5.754   3.553   3.498  0.6509 -1.8970  0.7692
 6506SOL     OW20042   2.386   3.268   4.406  0.6784  0.1916 -0.2388
 6506SOL    HW120043   2.406   3.244   4.496  0.8248 -0.8371 -0.5410
 6506SOL    HW220044   2.411   3.361   4.400  0.3596  0.3576  0.8558
 6507SOL     OW20045   4.624   1.751   7.024 -0.3119  0.3114 -0.0061
 6507SOL    HW120046   4.591   1.830   6.980  2.5170  0.2236 -2.6487
 6507SOL    HW220047   4.696   1.783   7.078  1.9371 -0.4280 -2.3283
 6508SOL     OW20048   7.539   2.116   3.932 -0.0680  0.5527 -0.7767
 6508SOL    HW120049   7.494   2.199   3.946  0.0900  0.4291  0.6884
 6508SOL    HW220050   7.482   2.066   3.874 -1.4336  0.7234  0.3643
 6509SOL     OW20051   1.874   3.084   3.029 -0.0437  0.0293 -0.0873
 6509SOL    HW120052   1.886   3.134   3.110 -0.9110 -0.6527  0.4725
 6509SOL    HW220053   1.961   3.050   3.010 -0.1077 -1.0726  1.4145
 6510SOL     OW20054   1.775   5.616   1.593  0.2502  0.2889 -0.1905
 6510SOL    HW120055   1.805   5.621   1.684  1.5343  0.4557 -0.6069
 6510SOL    HW220056   1.774   5.707   1.563  1.7421  0.0850 -0.9272
 6511SOL     OW20057   2.979   3.164   5.836 -0.8323  0.0349 -0.3521
 6511SOL    HW120058   2.971   3.108   5.759  1.1030 -1.0113  0.1422
 6511SOL    HW220059   3.065   3.205   5.828 -0.3182 -0.5709  1.5370
 6512SOL     OW20060   4.714   1.214   3.815 -0.0334 -0.1769 -0.6625
 6512SOL    HW120061   4.723   1.139   3.756  0.3599  1.4451 -2.8112
 6512SOL    HW220062   4.621   1.238   3.808  0.1261  0.3454 -1.0923
 6513SOL     OW20063   4.339   2.140   0.280  0.4467  0.1682 -0.1963
 6513SOL    HW120064   4.372   2.185   0.358  0.4212  0.6931 -0.4901
 6513SOL    HW220065   4.361   2.198   0.207 -1.0071  0.4761 -0.4194
 6514SOL     OW20066   6.792   1.640   0.247  0.1879 -0.2635  0.2373
 6514SOL    HW120067   6.835   1.554   0.252  0.6801  0.0285  1.2817
 6514SOL    HW220068   6.703   1.624   0.280  0.7813 -0.0729  2.0206
 6515SOL     OW20069   1.355   3.010   5.704  0.0722  0.7537  0.4480
 6515SOL    HW120070   1.275   3.062   5.710 -0.6893 -0.5040  1.6694
 6515SOL    HW220071   1.413   3.063   5.649 -1.9177  1.2538 -1.3308
 6516SOL     OW20072   1.771   6.122   1.802  0.1342  0.3993  0.0367
 6516SOL    HW120073   1.818   6.099   1.723  0.2646  3.6405 -0.9599
 6516SOL    HW220074   1.682   6.087   1.789  0.4111  0.1027 -1.0883
 6517SOL     OW20075   3.261   4.112   0.001  0.2707  0.0713  0.0278
 6517SOL    HW120076   3.248   4.155  -0.084 -0.9064 -0.4734 -0.0747
 6517SOL    HW220077   3.174   4.103   0.038  0.2995 -3.2309 -0.4489
 6518SOL     OW20078   6.135   6.542   6.884  0.2513 -0.2637  0.2347
 6518SOL    HW120079   6.179   6.542   6.969  1.0563 -1.4682 -0.1519
 6518SOL    HW220080   6.075   6.616   6.888  0.4937 -0.1130  1.7385
 6519SOL     OW20081   4.904   5.612   3.259  0.5316  0.2680  0.3720
 6519SOL    HW120082   4.924   5.694   3.214 -0.4705  0.6114  0.5148
 6519SOL    HW220083   4.957   5.546   3.214 -1.0673  0.4374 -1.9578
 6520SOL     OW20084   7.376   6.015   1.733  0.5847 -0.1306  0.1851
 6520SOL    HW120085   7.379   6.045   1.824 -0.2182 -1.1916  0.5877
 6520SOL    HW220086   7.290   6.041   1.702  1.4853  1.7792 -0.8752
 6521SOL     OW20087   2.393   2.131   2.344 -0.4064 -0.2725  0.1002
 6521SOL    HW120088   2.383   2.043   2.308 -0.0734  0.3312 -1.5785
 6521SOL    HW220089   2.309   2.150   2.386 -0.5760 -1.2716  0.2397
 6522SOL     OW20090   1.215   7.562   4.728  0.1995  0.2199  0.0974
 6522SOL    HW120091   1.209   7.630   4.662  0.8554  0.4791  0.2889
 6522SOL    HW220092   1.271   7.600   4.796 -3.7499  1.6845  2.9303
 6523SOL     OW20093   5.766   7.503   5.065  0.1607  0.2764 -0.5775
 6523SOL    HW120094   5.675   7.497   5.038  0.2283 -0.0880 -0.7264
 6523SOL    HW220095   5.765   7.560   5.142 -0.6408 -2.3740  1.5117
 6524SOL     OW20096   7.528   7.307   1.585  0.2807 -0.5386  0.0465
 6524SOL    HW120097   7.532   7.218   1.549 -1.0931 -1.5846  2.2553
 6524SOL    HW220098   7.437   7.334   1.571  0.1584 -0.3173  1.2000
 6525SOL     OW20099   6.340   1.557   7.008 -0.1507  0.1401  0.8442
 6525SOL    HW120100   6.347   1.497   7.082 -2.0844  0.0076  0.9594
 6525SOL    HW220101   6.357   1.501   6.931  0.6235  0.0199  1.0925
 6526SOL     OW20102   0.467   4.382   7.461 -0.0450 -0.3019 -0.1264
 6526SOL    HW120103   0.429   4.313   7.515  0.4716  0.9722  2.0134
 6526SOL    HW220104   0.397   4.447   7.453  0.6490  0.7005  1.3279
 6527SOL     OW20105   2.868   2.082   7.250  0.8160  0.0431  0.0283
 6527SOL    HW120106   2.808   2.140   7.297  0.6169 -0.8719  0.9206
 6527SOL    HW220107   2.955   2.119   7.266  0.5652  1.0326 -0.7825
 6528SOL     OW20108   5.187   1.912   1.108 -0.2501  0.0366  0.4124
 6528SOL    HW120109   5.113   1.882   1.161  0.3205 -0.7136  0.8063
 6528SOL    HW220110   5.207   1.999   1.142 -1.0837  0.3440  0.1487
 6529SOL     OW20111   0.592   4.403   6.651 -0.1745 -0.6810 -0.1482
 6529SOL    HW120112   0.684   4.378   6.662 -0.2107 -0.7283  0.0589
 6529SOL    HW220113   0.591   4.497   6.669 -0.1362 -0.6441 -0.3372
 6530SOL     OW20114   4.004   4.876   0.627 -0.1852  0.4472  0.6056
 6530SOL    HW120115   3.925   4.902   0.580 -0.6176 -1.9281 -0.1693
 6530SOL    HW220116   3.997   4.917   0.713 -1.5959  1.3420  0.0891
 6531SOL     OW20117   4.387   6.446   6.709  0.0376  0.1276 -0.3205
 6531SOL    HW120118   4.465   6.431   6.655 -1.0295 -2.2918 -1.3311
 6531SOL    HW220119   4.314   6.426   6.652 -1.2457 -0.2333  1.3665
 6532SOL     OW20120   0.982   3.884   7.291  0.5088 -0.2425 -0.6172
 6532SOL    HW120121   1.024   3.921   7.369 -0.5277 -1.4355  0.5443
 6532SOL    HW220122   1.031   3.804   7.273  1.5621  0.6642 -2.0070
 6533SOL     OW20123   7.540   2.783   5.822  0.2132 -0.0457  0.3066
 6533SOL    HW120124   7.577   2.695   5.812  0.6888 -0.0316  1.7472
 6533SOL    HW220125   7.580   2.834   5.751 -0.2188 -1.0215 -0.6583
 6534SOL     OW20126   5.626   5.668   2.171 -0.0859  0.6266  0.6339
 6534SOL    HW120127   5.600   5.635   2.257 -0.9332 -0.6590 -0.0764
 6534SOL    HW220128   5.720   5.651   2.167  0.2480  1.9750  1.8155
 6535SOL     OW20129   3.683   3.840   2.665 -0.2355  0.7113 -0.2153
 6535SOL    HW120130   3.717   3.924   2.696 -0.3000  0.6759 -0.0476
 6535SOL    HW220131   3.758   3.781   2.671 -0.7887  0.1571  1.9780
 6536SOL     OW20132   1.272   3.777   5.758 -0.2236 -0.2006  0.0072
 6536SOL    HW120133   1.323   3.734   5.689 -1.2246 -0.2603 -0.7284
 6536SOL    HW220134   1.216   3.838   5.711 -1.3613 -0.6715  0.7129
 6537SOL     OW20135   2.909   1.984   1.793 -0.2501  0.5668  0.3771
 6537SOL    HW120136   2.902   1.916   1.727  1.3834  0.7561 -0.0542
 6537SOL    HW220137   2.982   1.956   1.849 -1.4854  0.4907  2.0428
 6538SOL     OW20138   5.518   0.795   5.735 -0.2908  0.3412  0.3209
 6538SOL    HW120139   5.470   0.742   5.799  0.9577 -0.2046  0.8546
 6538SOL    HW220140   5.584   0.735   5.700 -0.7721  0.7216 -1.2905
 6539SOL     OW20141   0.475   4.507   1.927 -0.7189  0.1813  0.0031
 6539SOL    HW120142   0.548   4.481   1.873 -0.3064 -0.3753  0.8119
 6539SOL    HW220143   0.482   4.603   1.933 -0.1163  0.1368  0.0051
 6540SOL     OW20144   5.712   5.066   2.825  0.2609 -0.2119  0.1949
 6540SOL    HW120145   5.726   5.135   2.889  0.2911  0.3993 -0.4590
 6540SOL    HW220146   5.661   5.108   2.755  3.4222  0.2538 -2.0398
 6541SOL     OW20147   2.787   4.387   2.982  0.1453 -0.2238 -0.3398
 6541SOL    HW120148   2.796   4.475   2.946  0.6371  0.4763  1.3651
 6541SOL    HW220149   2.740   4.400   3.064  2.0017 -1.2416  0.9611
 6542SOL     OW20150   4.043   5.261   4.000  0.2462  0.2990 -0.4079
 6542SOL    HW120151   4.122   5.292   4.045 -0.1899  1.3105 -0.3341
 6542SOL    HW220152   3.984   5.234   4.070 -0.1798  1.2662 -0.3815
 6543SOL     OW20153   7.264   2.325   5.715 -0.1144  0.0538  0.1190
 6543SOL    HW120154   7.171   2.345   5.704  0.1527  0.6409 -1.2120
 6543SOL    HW220155   7.280   2.251   5.657  0.0943 -0.5815  0.9583
 6544SOL     OW20156   0.845   3.763   2.100  0.2321 -0.0405  0.5222
 6544SOL    HW120157   0.752   3.762   2.075  0.2280  2.6785  0.1301
 6544SOL    HW220158   0.848   3.815   2.180  1.5207  0.7296 -0.0002
 6545SOL     OW20159   7.365   0.933   6.885 -0.2624  0.3568  0.2939
 6545SOL    HW120160   7.328   0.958   6.800  0.7397  1.2757  0.0914
 6545SOL    HW220161   7.395   0.843   6.873  1.4804  1.0399 -0.9374
 6546SOL     OW20162   0.094   5.125   2.288 -0.2236  0.3438 -0.1386
 6546SOL    HW120163   0.146   5.187   2.237  0.4389 -1.7609 -2.2079
 6546SOL    HW220164   0.012   5.171   2.305  0.4449  1.9830 -1.1047
 6547SOL     OW20165   5.870   3.319   0.324  0.2297  0.0747  0.1864
 6547SOL    HW120166   5.819   3.389   0.365 -0.3629  0.6514 -1.4339
 6547SOL    HW220167   5.807   3.276   0.265  0.9902 -0.8237  0.0156
 6548SOL     OW20168   4.166   4.322   3.930  0.6865 -0.2434  0.7445
 6548SOL    HW120169   4.117   4.347   4.008  0.1405  0.8832  0.0624
 6548SOL    HW220170   4.169   4.401   3.876  1.5449 -0.8385 -0.1317
 6549SOL     OW20171   2.540   1.877   0.034  0.4059 -0.6943 -0.1075
 6549SOL    HW120172   2.514   1.804   0.091  1.8822 -0.6617  0.6590
 6549SOL    HW220173   2.512   1.850  -0.053 -0.5002 -1.4518  0.3886
 6550SOL     OW20174   3.904   5.965   3.791 -0.2993 -0.1281 -0.0931
 6550SOL    HW120175   3.934   5.888   3.743 -0.1359 -0.3165  0.3070
 6550SOL    HW220176   3.945   5.957   3.878  1.8076  1.6891 -0.8058
 6551SOL     OW20177   5.554   2.656   2.341 -0.4806 -0.1407  0.0347
 6551SOL    HW120178   5.469   2.687   2.310 -1.2136 -1.6619  0.4154
 6551SOL    HW220179   5.601   2.735   2.366 -1.8248  0.7259 -0.0767
 6552SOL     OW20180   4.854   6.993   2.271 -0.0548 -0.5263  0.5301
 6552SOL    HW120181   4.839   7.012   2.179  0.5425  1.0557  0.7231
 6552SOL    HW220182   4.819   6.905   2.284  1.3493 -1.4460 -1.5570
 6553SOL     OW20183   0.253   0.991   3.770 -0.6239 -0.1643  0.7323
 6553SOL    HW120184   0.277   1.044   3.694 -0.0602 -0.2892  0.8174
 6553SOL    HW220185   0.312   0.916   3.766 -1.2389 -0.6481  0.7653
 6554SOL     OW20186   1.691   4.781   6.801  0.8781 -0.4619 -0.3670
 6554SOL    HW120187   1.655   4.829   6.876  0.0645  0.0547 -1.0705
 6554SOL    HW220188   1.660   4.691   6.813  0.9544 -0.4374  0.0378
 6555SOL     OW20189   0.722   1.991   0.085 -0.1267  0.2061  0.0207
 6555SOL    HW120190   0.753   2.079   0.064  0.2450 -0.5482 -3.1084
 6555SOL    HW220191   0.659   1.970   0.016  0.9803 -2.5334 -0.2955
 6556SOL     OW20192   2.418   5.700   5.440  0.4410  0.3295 -0.5334
 6556SOL    HW120193   2.403   5.761   5.367  0.1997  1.0824  0.1403
 6556SOL    HW220194   2.510   5.713   5.463  0.3636  0.5199 -0.3254
 6557SOL     OW20195   4.388   2.676   0.982  0.1767 -0.6635  0.1998
 6557SOL    HW120196   4.384   2.747   1.046  0.0563 -0.7487  0.2869
 6557SOL    HW220197   4.406   2.720   0.899  1.6975 -0.6613  0.5007
 6558SOL     OW20198   7.103   6.299   2.055 -0.5293 -0.4659 -0.5339
 6558SOL    HW120199   7.043   6.307   2.130  0.8592  0.2700  0.5533
 6558SOL    HW220200   7.181   6.346   2.083  0.7941 -1.9308 -1.6534
 6559SOL     OW20201   3.375   0.472   2.020  0.2779  0.2128 -0.1255
 6559SOL    HW120202   3.430   0.399   2.051  1.1784  1.3659  1.0862
 6559SOL    HW220203   3.289   0.455   2.058  0.5785 -0.0266  0.4564
 6560SOL     OW20204   3.847   2.286   2.071  0.1214  0.7665 -0.0450
 6560SOL    HW120205   3.759   2.323   2.072  0.1285  0.7824  0.0065
 6560SOL    HW220206   3.904   2.356   2.102  0.2607  1.0175 -0.8543
 6561SOL     OW20207   3.917   5.808   6.827  0.3206  0.6072 -0.0990
 6561SOL    HW120208   3.935   5.898   6.800 -1.2211  1.0367  0.1677
 6561SOL    HW220209   3.837   5.815   6.880 -0.5703 -1.0738 -1.1458
 6562SOL     OW20210   2.249   2.599   6.849  0.1454 -0.1652  0.5727
 6562SOL    HW120211   2.179   2.629   6.792  0.8552  0.3327 -0.0569
 6562SOL    HW220212   2.326   2.591   6.792  0.7319 -0.1866  1.3424
 6563SOL     OW20213   4.727   5.231   5.001  0.3550 -0.3932  0.4654
 6563SOL    HW120214   4.731   5.323   4.976 -0.6435 -0.1376  1.1965
 6563SOL    HW220215   4.767   5.184   4.927 -0.7690  0.4853 -0.7526
 6564SOL     OW20216   6.143   0.108   2.914 -0.5442  0.0234 -0.6242
 6564SOL    HW120217   6.181   0.049   2.979 -0.5720  0.7719  0.0832
 6564SOL    HW220218   6.085   0.052   2.862 -0.4628 -0.5984 -0.0575
 6565SOL     OW20219   5.084   0.349   1.946  0.0094 -0.3497  0.4764
 6565SOL    HW120220   5.041   0.291   1.883  2.5484 -2.6792  0.7108
 6565SOL    HW220221   5.094   0.296   2.025  4.6147 -0.6499 -0.0680
 6566SOL     OW20222   1.431   2.806   4.946  0.5013 -0.6623 -0.7487
 6566SOL    HW120223   1.360   2.820   5.009  1.2167  0.5388 -0.1805
 6566SOL    HW220224   1.392   2.827   4.861 -0.2943 -1.6981 -0.6639
 6567SOL     OW20225   4.837   6.401   5.271 -0.8397  0.0107 -0.1796
 6567SOL    HW120226   4.800   6.367   5.189  1.1173 -0.2235 -1.0172
 6567SOL    HW220227   4.861   6.492   5.250 -0.5323  0.0158  0.1988
 6568SOL     OW20228   4.597   4.538   1.413 -0.2968  0.1020 -0.8859
 6568SOL    HW120229   4.511   4.564   1.445 -0.3134  0.0104 -0.8578
 6568SOL    HW220230   4.587   4.446   1.389  0.2372 -0.3762  0.6658
 6569SOL     OW20231   1.060   7.066   0.966 -0.0613  0.2257 -0.7194
 6569SOL    HW120232   1.150   7.093   0.952 -0.0133  0.0680 -0.7225
 6569SOL    HW220233   1.065   6.971   0.979 -0.1350  0.3293  0.1058
 6570SOL     OW20234   5.266   4.420   2.536  0.3497 -0.1070 -0.1508
 6570SOL    HW120235   5.196   4.355   2.536  0.7869 -0.6278  1.3454
 6570SOL    HW220236   5.341   4.374   2.575  1.6005  0.3792 -1.8636
 6571SOL     OW20237   0.577   5.213   0.983  0.5035 -0.2610  0.2422
 6571SOL    HW120238   0.558   5.270   0.909  2.0845 -1.6471 -1.3280
 6571SOL    HW220239   0.628   5.268   1.043 -1.6025  1.1526  0.8319
 6572SOL     OW20240   1.832   6.975   0.468 -0.3562  0.6389 -0.1086
 6572SOL    HW120241   1.749   7.019   0.451  0.1492  1.6559 -0.0146
 6572SOL    HW220242   1.825   6.944   0.558 -0.5969  0.7931 -0.0745
 6573SOL     OW20243   4.701   3.459   4.569  0.5214  0.0314  0.5281
 6573SOL    HW120244   4.748   3.418   4.642 -0.4653 -1.1986  0.5050
 6573SOL    HW220245   4.733   3.415   4.491  0.1463 -0.0355  0.4085
 6574SOL     OW20246   2.335   0.104   0.891 -0.7752 -0.1213  0.1104
 6574SOL    HW120247   2.251   0.139   0.921 -1.0264  0.4888 -1.2368
 6574SOL    HW220248   2.391   0.106   0.969 -2.1822 -1.1963  1.2271
 6575SOL     OW20249   5.718   5.786   7.073  0.2773  0.4244  0.0793
 6575SOL    HW120250   5.627   5.779   7.045  0.6102 -0.1256 -0.9236
 6575SOL    HW220251   5.732   5.709   7.128 -0.9442  2.4965  3.6382
 6576SOL     OW20252   7.091   0.467   3.376 -0.1100  0.4322 -0.4043
 6576SOL    HW120253   7.059   0.484   3.287  2.4158  0.9625 -1.3075
 6576SOL    HW220254   7.106   0.554   3.414  0.4859  0.2266 -0.1433
 6577SOL     OW20255   2.205   4.259   7.169  0.5829 -0.1835  0.1605
 6577SOL    HW120256   2.130   4.235   7.223  0.1888 -1.1881 -0.7794
 6577SOL    HW220257   2.169   4.316   7.102  0.4844 -1.2170 -0.7057
 6578SOL     OW20258   6.148   0.058   2.587 -0.5690 -0.2720 -0.1832
 6578SOL    HW120259   6.232   0.103   2.592  0.0787 -1.3510 -0.8288
 6578SOL    HW220260   6.087   0.124   2.555 -0.2963  0.9071  1.6088
 6579SOL     OW20261   4.966   7.442   7.526 -0.4353  0.1897  0.4016
 6579SOL    HW120262   4.939   7.531   7.506 -1.4142  0.1384  1.4003
 6579SOL    HW220263   4.885   7.397   7.549  0.1771 -0.6900  0.8951
 6580SOL     OW20264   7.030   4.581   7.304  0.2351 -0.2218 -0.2394
 6580SOL    HW120265   6.981   4.505   7.275  1.1249 -0.2197 -1.8978
 6580SOL    HW220266   7.004   4.594   7.396 -1.8877 -0.9186 -0.7015
 6581SOL     OW20267   5.539   7.133   1.065 -0.4538  0.4380  0.0209
 6581SOL    HW120268   5.468   7.180   1.021 -1.4118  1.5011  2.4959
 6581SOL    HW220269   5.508   7.043   1.071 -2.5109  1.1739  2.5121
 6582SOL     OW20270   5.157   1.310   1.174 -0.5135 -0.2756  0.8660
 6582SOL    HW120271   5.089   1.355   1.124  0.5783  2.1460  1.3961
 6582SOL    HW220272   5.230   1.373   1.178  1.5624 -2.5316  0.8011
 6583SOL     OW20273   7.518   5.069   1.164 -0.0357 -0.1062 -0.2930
 6583SOL    HW120274   7.454   5.060   1.094 -1.3846 -2.0558  1.0812
 6583SOL    HW220275   7.592   5.015   1.137 -0.3027 -0.3730 -0.4904
 6584SOL     OW20276   2.193   2.203   7.244 -0.2797 -0.5117 -0.2811
 6584SOL    HW120277   2.273   2.214   7.193 -1.4093 -0.3284 -2.0850
 6584SOL    HW220278   2.165   2.113   7.227 -0.7896 -0.3818 -0.1565
 6585SOL     OW20279   0.077   2.711   2.611 -0.4823  0.4290 -0.0639
 6585SOL    HW120280  -0.002   2.754   2.579 -1.2496 -0.3828  0.6968
 6585SOL    HW220281   0.080   2.628   2.564 -1.5090 -0.6862  1.7385
 6586SOL     OW20282   5.503   0.296   0.539 -0.0767 -0.4958  0.0210
 6586SOL    HW120283   5.421   0.258   0.506  0.1738 -0.5583 -0.5496
 6586SOL    HW220284   5.487   0.390   0.540 -0.1714 -0.5099 -0.0579
 6587SOL     OW20285   5.076   0.540   2.521 -0.6031  0.2526 -0.4268
 6587SOL    HW120286   5.077   0.496   2.606 -1.1539 -0.4213 -0.7611
 6587SOL    HW220287   5.161   0.518   2.482 -0.2232  0.8153  0.0683
 6588SOL     OW20288   0.824   6.112   4.136  0.1255  0.1997  0.5375
 6588SOL    HW120289   0.834   6.207   4.142 -1.8043  0.3968  1.7423
 6588SOL    HW220290   0.830   6.081   4.227 -0.8054 -0.6002  0.3513
 6589SOL     OW20291   7.356   7.228   6.518 -0.1647  0.2363  0.7318
 6589SOL    HW120292   7.448   7.201   6.519 -0.2735 -0.3217 -0.9167
 6589SOL    HW220293   7.328   7.211   6.428 -1.4667  1.7946  0.8115
 6590SOL     OW20294   0.628   6.992   3.018  0.6333 -0.1706 -0.2721
 6590SOL    HW120295   0.563   7.008   3.087 -1.4950 -2.1045 -1.6900
 6590SOL    HW220296   0.597   7.043   2.943  1.1149 -0.6172 -0.7789
 6591SOL     OW20297   2.082   7.426   5.782  0.4577 -0.1506 -0.3259
 6591SOL    HW120298   2.111   7.486   5.851  1.3151 -1.0588  0.1328
 6591SOL    HW220299   2.080   7.340   5.825 -0.3138 -0.5180 -1.0854
 6592SOL     OW20300   7.126   2.048   4.372 -0.5483  0.0301  0.3071
 6592SOL    HW120301   7.145   2.099   4.293 -0.6153 -0.5804 -0.1044
 6592SOL    HW220302   7.125   1.957   4.343  3.2730 -0.6345  1.6590
 6593SOL     OW20303   7.020   5.192   4.412  0.4323  0.1773  0.4067
 6593SOL    HW120304   6.976   5.256   4.357  0.6329 -0.1903 -0.1984
 6593SOL    HW220305   6.954   5.164   4.475  0.0010  0.1464 -0.0472
 6594SOL     OW20306   1.425   5.808   0.111  0.4293 -0.1946 -0.4870
 6594SOL    HW120307   1.460   5.719   0.118  1.2662  0.1026 -0.7161
 6594SOL    HW220308   1.382   5.809   0.025 -0.3874 -0.6383 -0.0974
 6595SOL     OW20309   4.030   1.818   3.013  0.1812  0.0977  0.7431
 6595SOL    HW120310   4.104   1.879   3.013  1.8898 -1.8457  2.5544
 6595SOL    HW220311   4.058   1.747   2.956 -0.3908 -0.5250  1.2271
 6596SOL     OW20312   3.442   6.885   4.659 -0.3729  0.5502 -0.2814
 6596SOL    HW120313   3.439   6.972   4.618  1.7315  0.0283 -1.6996
 6596SOL    HW220314   3.520   6.844   4.622  1.0311 -0.4580  3.4112
 6597SOL     OW20315   1.188   3.607   1.175  0.0065 -0.4853  0.3394
 6597SOL    HW120316   1.136   3.552   1.117 -0.2947 -1.3874  1.4336
 6597SOL    HW220317   1.186   3.694   1.134  0.0359 -1.1508 -1.1277
 6598SOL     OW20318   3.995   1.237   1.444 -0.3910 -0.0511  0.5156
 6598SOL    HW120319   4.024   1.163   1.390 -0.2792  0.6693 -0.4388
 6598SOL    HW220320   4.069   1.298   1.441 -0.5813  0.2084  1.0950
 6599SOL     OW20321   4.641   5.996   2.701 -0.0357  0.2675  0.2809
 6599SOL    HW120322   4.714   5.942   2.732 -0.5640 -0.5450  0.1393
 6599SOL    HW220323   4.625   5.966   2.612 -1.3167 -0.4256  0.7129
 6600SOL     OW20324   5.578   0.586   2.190  0.1213  0.1418  0.2242
 6600SOL    HW120325   5.587   0.495   2.163  1.6261 -0.3553  2.1380
 6600SOL    HW220326   5.658   0.628   2.158  0.1216  0.4390  0.6042
 6601SOL     OW20327   1.876   6.715   1.790  0.7373 -0.2121 -0.5479
 6601SOL    HW120328   1.882   6.624   1.816  1.2231  0.2055  0.8730
 6601SOL    HW220329   1.834   6.713   1.704  0.3671 -1.7304 -0.3478
 6602SOL     OW20330   0.032   5.965   7.268  0.3612  0.4904  0.8201
 6602SOL    HW120331   0.097   6.034   7.282  0.4588  0.4041  0.7897
 6602SOL    HW220332   0.078   5.884   7.288 -0.0578  0.5056  1.9148
 6603SOL     OW20333   3.281   6.413   2.935 -0.1596  0.1130  0.6021
 6603SOL    HW120334   3.291   6.369   2.851  2.0824  1.2346  0.2125
 6603SOL    HW220335   3.250   6.501   2.913  0.8778  0.5621  0.8687
 6604SOL     OW20336   4.091   3.800   5.028  0.5392 -1.2577 -0.2122
 6604SOL    HW120337   4.154   3.858   4.984  0.0197  0.4490  1.1554
 6604SOL    HW220338   4.012   3.805   4.974  0.9060 -1.7649 -0.8106
 6605SOL     OW20339   7.404   3.847   1.666  0.4430 -0.4716  0.2819
 6605SOL    HW120340   7.327   3.877   1.618  2.3587  0.2072 -2.5618
 6605SOL    HW220341   7.435   3.924   1.713 -0.1411 -0.5484  0.8053
 6606SOL     OW20342   4.622   2.127   4.348 -0.6482  0.2547 -0.4796
 6606SOL    HW120343   4.540   2.078   4.350  0.6332 -2.1235  3.1946
 6606SOL    HW220344   4.663   2.102   4.266 -1.4388 -2.5456 -0.1119
 6607SOL     OW20345   2.940   2.191   3.865 -0.4728  0.2619 -0.4990
 6607SOL    HW120346   2.996   2.268   3.856 -0.2089  0.1879  0.4366
 6607SOL    HW220347   2.956   2.159   3.954 -0.7635 -0.7330 -0.7848
 6608SOL     OW20348   5.276   3.552   4.974 -0.0894  0.0944 -0.4147
 6608SOL    HW120349   5.298   3.613   5.045  1.6289  0.4627 -1.1976
 6608SOL    HW220350   5.203   3.593   4.928 -0.8669  0.1089  0.8094
 6609SOL     OW20351   4.012   7.533   3.930  0.4465 -0.0553  0.5263
 6609SOL    HW120352   4.098   7.573   3.946  0.2536  1.1318 -1.0777
 6609SOL    HW220353   3.967   7.596   3.874 -0.9918 -1.2470  0.2878
 6610SOL     OW20354   7.139   2.434   6.639 -0.5802 -0.0485  1.0114
 6610SOL    HW120355   7.227   2.450   6.673 -0.4768 -2.3252  1.9578
 6610SOL    HW220356   7.140   2.472   6.551  0.9323  1.0484  1.4681
 6611SOL     OW20357   6.454   3.408   0.550  0.1879 -0.5447 -0.8730
 6611SOL    HW120358   6.466   3.499   0.524  0.0053  0.5158  2.2936
 6611SOL    HW220359   6.490   3.357   0.478  1.4790  2.0582 -2.1947
 6612SOL     OW20360   0.033   6.146   2.723  0.1064 -0.6914  0.1784
 6612SOL    HW120361   0.045   6.051   2.729 -1.2672 -0.8509  0.8505
 6612SOL    HW220362  -0.031   6.158   2.654  1.6644 -0.0937 -1.2178
 6613SOL     OW20363   6.577   6.904   3.394  0.1432 -0.1342  0.0135
 6613SOL    HW120364   6.530   6.982   3.364 -1.9227 -0.7605  1.3933
 6613SOL    HW220365   6.584   6.916   3.489 -0.8236 -1.8857  0.3498
 6614SOL     OW20366   1.622   2.488   5.528  0.0684 -0.0069  0.0647
 6614SOL    HW120367   1.715   2.500   5.513  0.0398 -0.4974 -0.5585
 6614SOL    HW220368   1.616   2.454   5.617  0.4473  0.4397  0.2630
 6615SOL     OW20369   7.455   5.537   5.004 -0.0369 -0.0047 -0.3212
 6615SOL    HW120370   7.493   5.450   5.009 -0.1387  0.0089  0.9889
 6615SOL    HW220371   7.526   5.596   5.030 -0.7928  0.0531  1.7296
 6616SOL     OW20372   1.909   4.904   4.868 -0.2925  0.2754 -0.3720
 6616SOL    HW120373   1.908   4.825   4.813  0.0227 -0.3241  0.4769
 6616SOL    HW220374   1.981   4.890   4.928 -0.5371  1.0068  0.0925
 6617SOL     OW20375   4.217   5.324   0.794 -0.2320  0.2086  0.1342
 6617SOL    HW120376   4.288   5.280   0.841  0.3388  0.1860 -0.7297
 6617SOL    HW220377   4.233   5.303   0.702 -1.2450  0.3748 -0.0910
 6618SOL     OW20378   6.657   1.437   7.439 -0.2635  0.3093  0.3181
 6618SOL    HW120379   6.672   1.365   7.377 -0.4761  0.2481  0.3362
 6618SOL    HW220380   6.593   1.402   7.501  0.7694 -0.0273  1.2367
 6619SOL     OW20381   1.915   1.877   3.072 -0.0767  0.0064 -0.5247
 6619SOL    HW120382   1.878   1.837   3.150 -0.4375 -0.7928 -1.0842
 6619SOL    HW220383   1.842   1.881   3.010  0.2253  0.5282 -0.8585
 6620SOL     OW20384   5.664   1.666   7.305 -0.4079 -0.3570 -0.4897
 6620SOL    HW120385   5.588   1.721   7.325 -0.1647  0.1720 -0.9833
 6620SOL    HW220386   5.721   1.723   7.253  0.7016 -0.4728  0.5706
 6621SOL     OW20387   3.220   3.044   6.045 -0.0150  0.3235  0.5629
 6621SOL    HW120388   3.293   3.095   6.011 -0.0086 -1.0320 -1.6869
 6621SOL    HW220389   3.253   3.006   6.127 -1.0256  6.1058  4.2480
 6622SOL     OW20390   1.541   6.582   0.314 -0.2282  0.0653 -0.3568
 6622SOL    HW120391   1.519   6.642   0.243 -0.8536 -1.5006 -1.5130
 6622SOL    HW220392   1.637   6.576   0.311 -0.1752  0.7974 -0.3797
 6623SOL     OW20393   3.518   4.457   6.971 -0.2861  0.2943  0.0295
 6623SOL    HW120394   3.490   4.520   7.038 -1.0987 -0.3868  0.3454
 6623SOL    HW220395   3.530   4.509   6.892 -1.7527  0.7379  0.0708
 6624SOL     OW20396   1.780   4.222   2.505 -0.3686  0.2994 -0.0637
 6624SOL    HW120397   1.776   4.299   2.448 -1.5656 -0.8863 -1.7007
 6624SOL    HW220398   1.689   4.207   2.531 -0.7465 -2.3506 -2.4209
 6625SOL     OW20399   5.511   7.045   0.097 -0.1995  0.2157  0.0878
 6625SOL    HW120400   5.440   6.982   0.083 -2.0035  1.2462  3.4608
 6625SOL    HW220401   5.525   7.045   0.191  1.8419  2.6761 -0.0940
 6626SOL     OW20402   4.794   3.606   7.402  0.4585 -0.4642  0.4611
 6626SOL    HW120403   4.815   3.616   7.495  2.0667 -1.3523  0.2191
 6626SOL    HW220404   4.865   3.553   7.367  0.4399  0.7419 -1.5110
 6627SOL     OW20405   3.534   0.672   3.302  0.3210  0.7828  0.1386
 6627SOL    HW120406   3.471   0.627   3.357 -0.5738 -0.6151 -1.8775
 6627SOL    HW220407   3.488   0.748   3.267  0.1907  0.5321 -0.2472
 6628SOL     OW20408   1.940   3.946   7.544  0.2520  0.3627  0.6071
 6628SOL    HW120409   1.908   3.856   7.547  0.0821  0.3707 -0.5408
 6628SOL    HW220410   1.871   3.994   7.498  1.1450  0.7248 -0.3694
 6629SOL     OW20411   6.832   2.627   0.265  0.4662  0.7181 -0.0746
 6629SOL    HW120412   6.767   2.696   0.259 -1.3091 -0.9337 -1.2556
 6629SOL    HW220413   6.838   2.592   0.176  0.3232 -1.4386  0.6943
 6630SOL     OW20414   0.143   4.742   6.372 -0.3869  0.2902 -0.2719
 6630SOL    HW120415   0.098   4.813   6.418 -0.5182  0.4243 -0.6012
 6630SOL    HW220416   0.217   4.784   6.329  1.4530 -0.2885  2.1212
 6631SOL     OW20417   1.323   1.750   5.025 -0.0340 -0.1194 -0.0741
 6631SOL    HW120418   1.301   1.662   5.054 -1.0325  0.0658 -0.2431
 6631SOL    HW220419   1.419   1.751   5.022 -0.0210 -1.5346 -1.0822
 6632SOL     OW20420   1.641   0.620   4.182 -0.3619  0.7337  0.0219
 6632SOL    HW120421   1.564   0.599   4.233  0.2787 -0.8861  0.3648
 6632SOL    HW220422   1.662   0.711   4.206 -1.0826  0.5793  1.2871
 6633SOL     OW20423   5.707   5.128   6.138  0.4505  0.0715  0.0831
 6633SOL    HW120424   5.727   5.131   6.232 -1.6301  0.6595  0.5486
 6633SOL    HW220425   5.727   5.216   6.107 -1.2445  0.6582  0.5488
 6634SOL     OW20426   3.499   0.213   7.083  0.7105 -0.0080  0.0383
 6634SOL    HW120427   3.423   0.156   7.097  2.1383 -1.8055  0.8147
 6634SOL    HW220428   3.572   0.166   7.122  2.2929  1.5847 -0.8613
 6635SOL     OW20429   3.395   3.038   0.380 -0.0175 -0.3238 -0.5199
 6635SOL    HW120430   3.342   3.098   0.434  1.1419 -0.0386  0.3374
 6635SOL    HW220431   3.388   2.954   0.426  1.4469  0.0515  0.4523
 6636SOL     OW20432   3.695   2.198   0.754 -0.2230 -0.2120  0.6205
 6636SOL    HW120433   3.770   2.257   0.758  0.1409 -0.5780 -0.4647
 6636SOL    HW220434   3.730   2.112   0.779 -0.1053 -0.5158 -0.5021
 6637SOL     OW20435   0.570   5.750   6.051 -0.0486  0.2102  0.3581
 6637SOL    HW120436   0.623   5.751   6.131  2.0493 -0.0530 -0.9347
 6637SOL    HW220437   0.604   5.675   6.001 -0.5560  0.9875 -1.2227
 6638SOL     OW20438   4.761   2.045   5.601 -0.0909 -0.2604  0.5159
 6638SOL    HW120439   4.833   2.011   5.654  0.6726 -0.0380 -0.3352
 6638SOL    HW220440   4.805   2.091   5.529 -1.0929  0.4177  0.3206
 6639SOL     OW20441   2.720   6.262   5.584 -0.7447  0.0889  0.0786
 6639SOL    HW120442   2.668   6.319   5.527  0.0683 -0.6526 -1.5042
 6639SOL    HW220443   2.807   6.303   5.586 -0.6199 -0.1829  0.3301
 6640SOL     OW20444   5.418   6.601   7.521  1.0187  0.3173 -0.2223
 6640SOL    HW120445   5.463   6.586   7.604  0.8443 -0.7979 -0.3050
 6640SOL    HW220446   5.439   6.523   7.468 -0.1033  0.2866 -0.6534
 6641SOL     OW20447   6.961   3.360   7.523 -0.2059  0.0328  0.3370
 6641SOL    HW120448   6.956   3.385   7.616  0.6802 -1.9035  0.9613
 6641SOL    HW220449   6.986   3.441   7.478 -0.3072  0.9318  1.8303
 6642SOL     OW20450   7.072   5.211   4.078  0.3606 -0.3340 -0.4146
 6642SOL    HW120451   7.046   5.125   4.112 -0.4358  0.3422  0.7256
 6642SOL    HW220452   7.020   5.273   4.128  1.4835  0.8667 -0.7060
 6643SOL     OW20453   2.207   5.291   1.480  0.2443  0.1211  0.0769
 6643SOL    HW120454   2.190   5.322   1.570 -0.3002  1.0426 -0.3285
 6643SOL    HW220455   2.268   5.354   1.444 -2.5405  2.1419 -1.4933
 6644SOL     OW20456   5.871   4.457   3.384  0.3222  0.3659  0.0305
 6644SOL    HW120457   5.826   4.401   3.322  0.4771  2.0923 -1.7669
 6644SOL    HW220458   5.950   4.486   3.337  1.7649 -0.1979  1.9667
 6645SOL     OW20459   0.201   4.816   4.274 -0.1682  0.6383  0.3696
 6645SOL    HW120460   0.165   4.891   4.228  2.7031  1.3139 -0.9847
 6645SOL    HW220461   0.162   4.740   4.231  0.4601  1.3172 -1.4539
 6646SOL     OW20462   5.069   3.493   1.685  0.2537  0.8247  0.0752
 6646SOL    HW120463   5.105   3.575   1.651  1.8727 -1.1280 -3.4439
 6646SOL    HW220464   5.146   3.438   1.699 -0.7986 -0.1656  2.4388
 6647SOL     OW20465   3.079   6.412   4.653 -0.2638 -0.2840 -0.6604
 6647SOL    HW120466   3.022   6.488   4.645 -0.0064 -0.0260 -0.0870
 6647SOL    HW220467   3.168   6.449   4.650 -0.1378 -0.4740  0.3408
 6648SOL     OW20468   3.646   6.413   3.898  0.0904  0.3273  0.0114
 6648SOL    HW120469   3.639   6.321   3.925  1.8076 -0.4834 -2.1095
 6648SOL    HW220470   3.555   6.444   3.896 -0.5116 -1.2848  0.8163
 6649SOL     OW20471   2.352   4.126   5.321  0.4561  0.2335  0.1754
 6649SOL    HW120472   2.272   4.171   5.292  1.0204  1.3567  0.2930
 6649SOL    HW220473   2.383   4.081   5.243  1.1795  2.0619 -0.6609
 6650SOL     OW20474   7.112   5.774   3.222 -0.2876  0.2768 -0.7338
 6650SOL    HW120475   7.147   5.792   3.135  0.2540  1.0332 -0.3738
 6650SOL    HW220476   7.182   5.724   3.266 -0.7315 -0.4794 -0.8648
 6651SOL     OW20477   3.734   5.358   5.424 -0.1182  1.0866 -0.3306
 6651SOL    HW120478   3.707   5.296   5.491  0.4741 -0.8591 -1.7964
 6651SOL    HW220479   3.748   5.440   5.471 -1.4401  0.2712  1.6004
 6652SOL     OW20480   0.220   5.045   1.970  0.0077 -0.4094 -0.4776
 6652SOL    HW120481   0.308   5.077   1.990 -0.5166  0.3017  0.8021
 6652SOL    HW220482   0.163   5.118   1.991 -0.8611 -0.6277 -1.9450
 6653SOL     OW20483   1.889   3.256   2.801 -0.0152 -0.1308  0.4660
 6653SOL    HW120484   1.859   3.209   2.724  2.9192  0.9834 -1.5612
 6653SOL    HW220485   1.881   3.193   2.873  0.5536 -2.5245 -1.4503
 6654SOL     OW20486   0.623   1.939   2.229  0.1769 -0.0186  0.1219
 6654SOL    HW120487   0.659   1.898   2.308 -0.3628  0.4390  0.6136
 6654SOL    HW220488   0.580   1.867   2.182  2.7450 -0.8786 -1.1384
 6655SOL     OW20489   2.670   4.019   3.704  0.4253 -0.1095  0.3761
 6655SOL    HW120490   2.656   3.925   3.718 -1.2928  0.1113  0.3195
 6655SOL    HW220491   2.608   4.061   3.763  0.6124  0.9935 -0.1955
 6656SOL     OW20492   2.608   4.732   1.510 -0.0411  0.4056 -0.1441
 6656SOL    HW120493   2.592   4.726   1.416 -1.2194  0.9266  0.0074
 6656SOL    HW220494   2.533   4.688   1.550  1.1826 -1.1756  0.5540
 6657SOL     OW20495   7.188   0.784   4.132  0.1997  0.0440  0.1674
 6657SOL    HW120496   7.122   0.716   4.143  1.6440 -1.4469 -0.0318
 6657SOL    HW220497   7.258   0.760   4.192  2.2652 -0.6524 -2.3311
 6658SOL     OW20498   2.931   4.111   3.834  0.4041  0.2960  0.0183
 6658SOL    HW120499   2.945   4.025   3.872 -0.5995 -0.9083 -2.1651
 6658SOL    HW220500   2.842   4.109   3.801  0.9430  1.5357 -1.6440
 6659SOL     OW20501   3.637   6.411   6.982  0.3050 -0.1472 -0.2690
 6659SOL    HW120502   3.582   6.364   7.045  2.8681 -1.6468  1.0218
 6659SOL    HW220503   3.723   6.415   7.023  1.1964  2.2156 -2.1094
 6660SOL     OW20504   5.315   1.285   2.241  0.0319  0.4283 -0.7434
 6660SOL    HW120505   5.364   1.203   2.230 -0.4986  0.1515 -1.1065
 6660SOL    HW220506   5.383   1.352   2.250  0.4738 -0.0963 -0.0134
 6661SOL     OW20507   6.529   2.948   0.089 -0.5202  0.2054  0.5941
 6661SOL    HW120508   6.475   2.995   0.026 -1.6324  2.5030  3.0595
 6661SOL    HW220509   6.617   2.949   0.051 -1.5484 -0.8677 -2.0550
 6662SOL     OW20510   3.803   0.585   2.006  0.2615  0.6598 -0.1792
 6662SOL    HW120511   3.730   0.610   2.062  1.8403  1.2963  1.7174
 6662SOL    HW220512   3.785   0.626   1.922 -2.0413 -0.0665 -0.1029
 6663SOL     OW20513   0.349   6.829   5.446  0.1618  0.3318 -0.3211
 6663SOL    HW120514   0.311   6.914   5.468  0.2904  1.0606 -2.5986
 6663SOL    HW220515   0.370   6.836   5.353 -1.1218 -2.6930 -0.9483
 6664SOL     OW20516   1.133   5.806   4.594 -0.0178  0.0099  0.0067
 6664SOL    HW120517   1.177   5.873   4.542  1.5950 -1.1764 -0.2260
 6664SOL    HW220518   1.183   5.801   4.676 -1.9462  1.1771  1.3340
 6665SOL     OW20519   7.369   2.832   6.603 -0.0481 -0.4564  0.0995
 6665SOL    HW120520   7.460   2.845   6.629  0.3967  0.0021 -1.5436
 6665SOL    HW220521   7.375   2.790   6.516 -1.4159 -1.7918  0.6013
 6666SOL     OW20522   4.548   4.537   7.143  0.1730 -1.0571 -0.3626
 6666SOL    HW120523   4.617   4.472   7.126  0.2665 -1.7137  2.1934
 6666SOL    HW220524   4.583   4.592   7.212 -0.2318  1.3390 -1.9443
 6667SOL     OW20525   0.362   3.969   6.871  0.6483  0.4133  0.6031
 6667SOL    HW120526   0.397   3.987   6.784  0.8813  1.5124  0.9117
 6667SOL    HW220527   0.421   3.903   6.908  0.7483  0.1967  0.0609
 6668SOL     OW20528   3.131   0.102   0.962  0.0909 -0.1367 -0.2384
 6668SOL    HW120529   3.038   0.111   0.983 -0.1721 -2.7256  0.0605
 6668SOL    HW220530   3.144   0.159   0.886 -1.2442  1.7846  0.8964
 6669SOL     OW20531   1.125   5.730   7.017  0.0941 -0.5550 -0.4614
 6669SOL    HW120532   1.178   5.658   6.984  0.0765  0.2229 -2.3236
 6669SOL    HW220533   1.042   5.690   7.042  0.5976 -1.3854 -0.1200
 6670SOL     OW20534   6.723   3.584   1.511  0.1765  0.0863  0.4169
 6670SOL    HW120535   6.705   3.671   1.548  0.0039  0.5134 -0.6445
 6670SOL    HW220536   6.738   3.600   1.418 -1.9784 -1.2480 -0.2370
 6671SOL     OW20537   4.014   0.884   4.044  0.2669 -0.0783  0.7657
 6671SOL    HW120538   4.069   0.961   4.037 -0.3667  0.3237  0.0649
 6671SOL    HW220539   3.987   0.865   3.954 -2.4837  1.0360  1.2576
 6672SOL     OW20540   4.716   0.683   2.882 -0.6153  0.2607 -0.4103
 6672SOL    HW120541   4.746   0.597   2.856 -0.2404  0.3126 -0.1487
 6672SOL    HW220542   4.643   0.702   2.823  0.4669  0.5503 -1.7063
 6673SOL     OW20543   1.472   3.958   3.156 -0.0661 -0.0323 -0.3130
 6673SOL    HW120544   1.534   3.993   3.220  1.9804 -1.6795 -1.2739
 6673SOL    HW220545   1.400   3.922   3.209  1.1426 -0.5661  1.0205
 6674SOL     OW20546   0.032   6.902   6.471  0.2013  0.3054  0.0245
 6674SOL    HW120547  -0.035   6.885   6.405 -0.0572  0.0330  0.3545
 6674SOL    HW220548   0.036   6.997   6.476 -0.9823  0.3422  0.8162
 6675SOL     OW20549   3.963   4.022   0.136  0.3952  0.1330  0.4635
 6675SOL    HW120550   3.902   3.950   0.123  0.3648  0.4359 -1.3144
 6675SOL    HW220551   4.025   3.989   0.201 -0.2614 -1.0723  0.5075
 6676SOL     OW20552   2.943   1.506   6.192  0.2442 -0.3860 -0.0717
 6676SOL    HW120553   2.968   1.419   6.222  0.6943  0.2105  1.4305
 6676SOL    HW220554   2.931   1.498   6.098 -1.0116 -2.3563  0.2130
 6677SOL     OW20555   7.500   4.055   0.593 -0.2421 -0.1243 -0.5582
 6677SOL    HW120556   7.586   4.017   0.574 -0.4991 -0.9197 -0.1644
 6677SOL    HW220557   7.498   4.061   0.689  0.0138  1.4199 -0.6296
 6678SOL     OW20558   4.381   5.311   6.730 -0.0332  0.4474 -0.2938
 6678SOL    HW120559   4.324   5.267   6.667  1.0837  0.8919 -1.6705
 6678SOL    HW220560   4.385   5.402   6.699  1.7856  0.3130 -0.5154
 6679SOL     OW20561   3.589   5.749   4.950 -0.1066  0.0001  0.0506
 6679SOL    HW120562   3.660   5.710   5.001 -0.5103 -0.8365 -0.0145
 6679SOL    HW220563   3.555   5.819   5.006  2.0971  1.8163 -0.7537
 6680SOL     OW20564   5.395   4.419   4.764 -0.0345 -0.5943 -0.0851
 6680SOL    HW120565   5.358   4.439   4.679  0.1586 -0.3200 -0.1060
 6680SOL    HW220566   5.334   4.356   4.803 -0.7705  0.2005  0.0720
 6681SOL     OW20567   4.332   6.586   2.445  0.1800  0.2960 -0.4803
 6681SOL    HW120568   4.376   6.666   2.416  0.3621  0.1429 -0.6328
 6681SOL    HW220569   4.400   6.536   2.490 -0.3688  1.0541  1.2786
 6682SOL     OW20570   7.326   2.390   4.476  0.1259  0.0542  0.2888
 6682SOL    HW120571   7.267   2.401   4.401  0.5994 -2.8153 -0.6569
 6682SOL    HW220572   7.396   2.454   4.462 -1.1868  1.4086 -0.2277
 6683SOL     OW20573   1.632   5.715   5.810  0.0905  0.2492 -0.5259
 6683SOL    HW120574   1.571   5.724   5.883  2.0943 -0.7549  1.4106
 6683SOL    HW220575   1.654   5.805   5.786  0.7096  0.6433  1.3508
 6684SOL     OW20576   4.085   0.521   3.571  0.5118  0.2560  1.0728
 6684SOL    HW120577   4.147   0.566   3.628  0.6260  2.3921 -0.5927
 6684SOL    HW220578   4.128   0.439   3.548  1.2029  0.1555  2.6223
 6685SOL     OW20579   1.236   0.041   2.144  0.2763 -0.3918  0.1447
 6685SOL    HW120580   1.300   0.078   2.206  1.9220 -0.2095 -1.5692
 6685SOL    HW220581   1.212  -0.043   2.182  2.5454 -1.0544  0.2541
 6686SOL     OW20582   2.361   5.753   4.820 -0.4690  0.4826 -0.2452
 6686SOL    HW120583   2.397   5.838   4.796 -1.0631  0.6337 -0.6071
 6686SOL    HW220584   2.434   5.692   4.807 -0.1311  0.8883 -0.2681
 6687SOL     OW20585   0.547   2.740   5.016 -0.2462  0.1221  0.0990
 6687SOL    HW120586   0.615   2.721   4.951 -0.5308 -3.2193  0.6178
 6687SOL    HW220587   0.595   2.753   5.098 -0.1353 -1.6323  0.3432
 6688SOL     OW20588   5.236   1.133   1.418  0.2431  0.8163 -0.4765
 6688SOL    HW120589   5.222   1.178   1.335 -0.8705 -1.2910 -1.5310
 6688SOL    HW220590   5.158   1.078   1.429  1.6351 -1.1020  0.5035
 6689SOL     OW20591   2.253   0.019   1.898  0.5269 -0.3536 -0.1519
 6689SOL    HW120592   2.254   0.009   1.803  2.1155 -0.5682 -0.1306
 6689SOL    HW220593   2.216  -0.063   1.931  0.3619 -0.4427 -0.5586
 6690SOL     OW20594   3.782   1.944   0.847 -0.2592 -0.2813  0.3090
 6690SOL    HW120595   3.845   1.899   0.790  0.4043 -0.4164  1.1271
 6690SOL    HW220596   3.817   1.932   0.935 -0.1981  1.5708  0.5910
 6691SOL     OW20597   1.516   6.700   7.305 -0.2168 -0.0771 -0.3849
 6691SOL    HW120598   1.574   6.703   7.381 -1.5389 -0.7647  0.7072
 6691SOL    HW220599   1.491   6.608   7.297 -1.4255  0.2492 -0.5805
 6692SOL     OW20600   6.373   6.167   3.137  0.5565 -0.3716 -1.0965
 6692SOL    HW120601   6.404   6.246   3.180 -1.9319  0.7923 -1.2819
 6692SOL    HW220602   6.409   6.095   3.190  0.1068  0.9504  1.1066
 6693SOL     OW20603   5.379   3.351   3.136 -0.2820 -0.3652  0.6754
 6693SOL    HW120604   5.387   3.341   3.231  0.2744 -0.7879  0.5836
 6693SOL    HW220605   5.365   3.263   3.103  0.9243 -0.4082  0.2330
 6694SOL     OW20606   4.578   1.730   2.399  0.4789  0.5176 -0.3537
 6694SOL    HW120607   4.616   1.702   2.316  0.0385  0.7409 -0.6367
 6694SOL    HW220608   4.490   1.760   2.376 -1.2575 -3.1661  0.7688
 6695SOL     OW20609   5.705   0.257   5.965 -0.2697  0.0021 -0.4721
 6695SOL    HW120610   5.778   0.318   5.964 -0.5970  0.4077 -1.5126
 6695SOL    HW220611   5.711   0.212   6.049 -0.1530  1.6168  0.4155
 6696SOL     OW20612   0.972   1.531   5.997 -0.3536 -0.6319  0.4529
 6696SOL    HW120613   0.942   1.618   5.969  1.0205 -0.2607  0.0624
 6696SOL    HW220614   1.032   1.548   6.069  0.5632 -1.1878 -0.1608
 6697SOL     OW20615   0.102   6.445   2.039 -0.2273  0.2829 -0.0375
 6697SOL    HW120616   0.103   6.351   2.020  0.9069  0.4913 -1.1386
 6697SOL    HW220617   0.173   6.481   1.986 -0.6810  1.7781  0.3229
 6698SOL     OW20618   1.166   3.878   1.664 -0.1347  0.6665 -0.2189
 6698SOL    HW120619   1.115   3.797   1.664 -0.4828  0.8803 -0.0910
 6698SOL    HW220620   1.174   3.901   1.572 -0.2928  0.6427 -0.2396
 6699SOL     OW20621   1.342   2.022   0.833 -0.4756 -0.3098  0.3229
 6699SOL    HW120622   1.285   1.947   0.812 -0.4865  0.0499 -1.0734
 6699SOL    HW220623   1.428   1.995   0.801 -0.0188 -0.5305  1.7005
 6700SOL     OW20624   1.438   3.203   6.984 -0.1717  0.4901 -0.3879
 6700SOL    HW120625   1.343   3.197   6.985 -0.2071  0.3861 -1.9090
 6700SOL    HW220626   1.468   3.124   7.030 -0.8168  0.3661 -0.1757
 6701SOL     OW20627   3.188   1.616   0.719  0.6757  0.6475 -0.2966
 6701SOL    HW120628   3.183   1.710   0.737 -0.1180 -0.0187  3.9117
 6701SOL    HW220629   3.278   1.592   0.742  0.6821  0.2592 -0.7114
 6702SOL     OW20630   0.224   5.998   4.935  0.5338 -0.4708 -0.0662
 6702SOL    HW120631   0.203   6.079   4.891  0.9125  1.6458  3.2738
 6702SOL    HW220632   0.320   5.999   4.942  0.4553 -0.4713  1.1871
 6703SOL     OW20633   2.267   2.310   4.977 -0.3083 -0.0776 -0.2957
 6703SOL    HW120634   2.351   2.331   4.936 -0.3337  0.8047  0.0857
 6703SOL    HW220635   2.273   2.216   4.996  0.9833  0.1535  0.5913
 6704SOL     OW20636   6.225   5.688   3.759  0.0383 -0.6576  0.3320
 6704SOL    HW120637   6.297   5.747   3.735 -0.5808 -0.3372 -0.7621
 6704SOL    HW220638   6.269   5.606   3.782  0.7653 -0.4067 -0.1154
 6705SOL     OW20639   2.173   4.875   4.959  0.1777  0.2778 -0.3274
 6705SOL    HW120640   2.218   4.794   4.982  1.3510  1.5881  2.4745
 6705SOL    HW220641   2.164   4.922   5.042 -1.8237  2.3690 -1.6089
 6706SOL     OW20642   6.826   0.276   7.520 -0.1371 -0.0168  0.2417
 6706SOL    HW120643   6.815   0.213   7.591  1.6963 -0.5758  0.0718
 6706SOL    HW220644   6.784   0.356   7.552 -0.2434 -0.5680  1.5147
 6707SOL     OW20645   5.711   6.267   6.865 -0.0807  0.0445 -0.3929
 6707SOL    HW120646   5.805   6.261   6.882 -0.0786  2.3979  0.9817
 6707SOL    HW220647   5.680   6.329   6.931 -2.4023  0.2087 -1.5581
 6708SOL     OW20648   2.064   6.021   3.270  0.6090 -0.7214 -0.9277
 6708SOL    HW120649   1.979   5.987   3.239 -0.7174 -0.1259  1.7500
 6708SOL    HW220650   2.056   6.116   3.263  0.8759 -0.6456 -0.2871
 6709SOL     OW20651   0.471   5.317   5.098 -0.0229  0.0242 -0.3434
 6709SOL    HW120652   0.435   5.267   5.024 -0.3968 -1.3803  0.7572
 6709SOL    HW220653   0.566   5.302   5.093 -0.2216 -1.8188  0.6510
 6710SOL     OW20654   1.576   6.451   5.719 -0.3245  0.2227 -0.6994
 6710SOL    HW120655   1.663   6.465   5.680 -0.1885  1.2117 -0.0970
 6710SOL    HW220656   1.594   6.405   5.801 -0.5449 -1.1892 -1.4193
 6711SOL     OW20657   1.278   5.669   6.631 -0.2138  0.4171  0.0503
 6711SOL    HW120658   1.317   5.590   6.667  1.1381  0.6989 -0.7250
 6711SOL    HW220659   1.340   5.739   6.654  0.4547  0.6844 -2.2766
 6712SOL     OW20660   5.346   2.818   5.933  0.3166 -0.3593 -0.1995
 6712SOL    HW120661   5.428   2.862   5.955 -0.4564  1.1394 -0.2559
 6712SOL    HW220662   5.316   2.781   6.017  0.6716 -0.2846 -0.0366
 6713SOL     OW20663   0.130   1.149   7.183 -0.0274  0.0234  0.6530
 6713SOL    HW120664   0.052   1.182   7.228 -1.2799 -0.2804 -1.1751
 6713SOL    HW220665   0.162   1.223   7.132  0.4535 -0.0562  0.8377
 6714SOL     OW20666   2.085   5.608   1.935 -0.1637  0.0564  0.3674
 6714SOL    HW120667   2.038   5.659   2.000 -1.1045 -0.3692  0.0464
 6714SOL    HW220668   2.132   5.542   1.985 -1.0632 -0.4117  0.6193
 6715SOL     OW20669   1.324   2.886   7.076 -0.1165 -0.1121  0.1629
 6715SOL    HW120670   1.271   2.886   7.156 -1.7834 -1.4996 -0.8735
 6715SOL    HW220671   1.261   2.877   7.005  1.4444 -0.8693 -1.1976
 6716SOL     OW20672   5.038   4.390   3.425 -0.0059  0.6251  0.2736
 6716SOL    HW120673   4.959   4.444   3.441 -0.2932  0.2307  0.1915
 6716SOL    HW220674   5.015   4.304   3.459  0.3085  0.4436  0.0286
 6717SOL     OW20675   3.974   6.388   4.883  0.1960  0.2658 -0.2693
 6717SOL    HW120676   3.924   6.418   4.807 -0.4105 -0.4443 -0.1576
 6717SOL    HW220677   4.022   6.466   4.913 -1.9704  1.3701  0.5307
 6718SOL     OW20678   1.211   2.425   7.543  0.1222  0.2254  0.0518
 6718SOL    HW120679   1.256   2.415   7.458 -1.3573  1.4500 -0.9310
 6718SOL    HW220680   1.194   2.336   7.572  0.7924 -0.2192 -0.8649
 6719SOL     OW20681   7.495   4.489   7.441  0.1474  0.2254 -0.1201
 6719SOL    HW120682   7.512   4.466   7.349  0.0727 -0.4455  0.0318
 6719SOL    HW220683   7.450   4.413   7.477 -0.0045  0.5686  0.4244
 6720SOL     OW20684   6.893   1.615   6.899  0.1176  0.2750 -0.1095
 6720SOL    HW120685   6.948   1.632   6.976 -0.4340  0.5790  0.2178
 6720SOL    HW220686   6.828   1.685   6.899 -1.5704 -1.2150  0.6969
 6721SOL     OW20687   5.965   6.086   1.646  0.0111 -0.0554  0.1614
 6721SOL    HW120688   5.872   6.094   1.625  0.0550 -1.0472 -0.5003
 6721SOL    HW220689   6.008   6.082   1.561  0.5812 -0.3893  0.4606
 6722SOL     OW20690   1.380   3.024   6.212  0.2953 -0.3922  0.7708
 6722SOL    HW120691   1.307   2.975   6.173  0.1515  0.4915 -0.1142
 6722SOL    HW220692   1.415   2.965   6.279 -0.6389 -1.2057  0.5733
 6723SOL     OW20693   6.771   7.128   6.537  0.1119 -0.5204  0.4315
 6723SOL    HW120694   6.859   7.091   6.542 -0.5074 -2.0408  0.3851
 6723SOL    HW220695   6.721   7.080   6.602 -0.7231  0.2691  0.3927
 6724SOL     OW20696   5.816   3.855   2.968 -0.5744 -0.2724 -0.3040
 6724SOL    HW120697   5.888   3.810   2.923  0.2541  2.1646 -1.5924
 6724SOL    HW220698   5.756   3.785   2.993  1.6175 -2.2686 -0.3185
 6725SOL     OW20699   6.471   5.032   3.336 -0.5845 -0.1861  0.1390
 6725SOL    HW120700   6.417   5.017   3.414  0.0923  1.4455  0.9724
 6725SOL    HW220701   6.425   5.102   3.288 -0.3919 -0.3763 -0.3268
 6726SOL     OW20702   4.947   2.894   1.607 -0.0943  0.1638  0.5801
 6726SOL    HW120703   4.913   2.977   1.576  0.7703  0.2056 -0.3129
 6726SOL    HW220704   4.997   2.859   1.533 -1.2383 -1.6178  0.5950
 6727SOL     OW20705   4.126   1.109   4.790  0.0331 -0.0780 -0.0779
 6727SOL    HW120706   4.181   1.107   4.869  0.6440 -2.2585 -0.5125
 6727SOL    HW220707   4.038   1.131   4.824  0.3971 -0.3732  1.1201
 6728SOL     OW20708   0.135   5.759   4.842 -0.6279 -0.3774  0.2108
 6728SOL    HW120709   0.171   5.846   4.856 -0.0776 -0.3456 -1.2389
 6728SOL    HW220710   0.143   5.716   4.927  1.8975 -0.0229  0.2322
 6729SOL     OW20711   6.978   6.656   1.209  0.3445 -0.0434 -0.5492
 6729SOL    HW120712   7.058   6.703   1.186  0.0822 -0.2729 -2.0662
 6729SOL    HW220713   6.908   6.711   1.173 -0.1821  0.0887  0.6523
 6730SOL     OW20714   3.992   3.594   5.303 -0.0272  0.3385  1.1711
 6730SOL    HW120715   4.078   3.607   5.263  0.0119  0.2882  1.2364
 6730SOL    HW220716   3.930   3.628   5.240 -0.1830 -2.2812 -0.2460
 6731SOL     OW20717   1.289   4.878   4.446 -0.1973  0.1296 -0.8090
 6731SOL    HW120718   1.258   4.914   4.529 -2.1167 -1.1636 -0.8936
 6731SOL    HW220719   1.383   4.864   4.460 -0.3097  0.7549  0.8210
 6732SOL     OW20720   6.350   5.210   1.890 -0.0958  0.5473  0.5134
 6732SOL    HW120721   6.385   5.126   1.920  1.4286  1.8618  2.6153
 6732SOL    HW220722   6.334   5.260   1.970 -2.8803  1.6123 -0.5760
 6733SOL     OW20723   4.998   0.549   4.501  0.1999 -0.6585 -0.1940
 6733SOL    HW120724   5.077   0.505   4.467  0.1078 -0.9886  0.0138
 6733SOL    HW220725   5.025   0.585   4.586 -0.1312 -1.6024  0.3260
 6734SOL     OW20726   4.140   7.362   4.824  0.0670  0.2929 -0.2026
 6734SOL    HW120727   4.104   7.360   4.912 -0.4518  3.0094 -0.2698
 6734SOL    HW220728   4.194   7.440   4.821 -0.9294  0.9962 -2.6250
 6735SOL     OW20729   4.256   6.680   3.938 -0.0660  0.2116 -0.4122
 6735SOL    HW120730   4.295   6.761   3.905 -0.1724  0.2922 -0.3421
 6735SOL    HW220731   4.210   6.644   3.862 -0.0972  0.2657 -0.4196
 6736SOL     OW20732   6.262   1.814   1.125  0.3435 -0.7047 -0.6371
 6736SOL    HW120733   6.201   1.799   1.053 -0.7984  2.3275 -0.4241
 6736SOL    HW220734   6.336   1.859   1.085  0.9623 -1.4153 -0.3271
 6737SOL     OW20735   3.715   6.094   7.261 -0.0235 -0.0604  0.2908
 6737SOL    HW120736   3.781   6.163   7.252 -0.4794  0.7547  2.4739
 6737SOL    HW220737   3.680   6.106   7.350 -0.6224 -2.6704  0.4898
 6738SOL     OW20738   3.428   6.319   5.591  0.2543  0.1332 -0.0360
 6738SOL    HW120739   3.488   6.388   5.563 -2.2925  2.5396 -0.0153
 6738SOL    HW220740   3.421   6.329   5.686 -1.7029  1.3390 -0.2502
 6739SOL     OW20741   1.484   1.102   2.993 -0.3428 -0.2675  0.7865
 6739SOL    HW120742   1.485   1.045   3.070 -1.9012 -0.8578  0.4061
 6739SOL    HW220743   1.559   1.160   3.006  2.7452 -3.7000  0.1884
 6740SOL     OW20744   1.225   5.090   4.006  0.3015  0.0506 -0.0075
 6740SOL    HW120745   1.193   5.099   4.095  0.2231  0.4144 -0.0695
 6740SOL    HW220746   1.310   5.048   4.015  1.1219  1.6913  0.3900
 6741SOL     OW20747   6.265   4.887   0.995  0.1084  0.5739 -0.0926
 6741SOL    HW120748   6.180   4.846   0.980 -0.0780  1.0012 -0.1920
 6741SOL    HW220749   6.328   4.820   0.967 -0.1579 -0.2269  1.1690
 6742SOL     OW20750   1.407   2.102   2.097  0.7283 -0.1608 -0.6463
 6742SOL    HW120751   1.462   2.091   2.020  2.3101  0.4556  0.3443
 6742SOL    HW220752   1.408   2.197   2.114  0.3025 -0.2743  0.0598
 6743SOL     OW20753   3.700   2.073   6.439  0.1238 -0.1891 -0.1260
 6743SOL    HW120754   3.651   2.039   6.364  1.0538 -0.6134 -0.5605
 6743SOL    HW220755   3.712   2.166   6.419 -1.3307  0.1576  0.4607
 6744SOL     OW20756   6.535   3.953   3.496 -0.0882 -0.1977  0.5119
 6744SOL    HW120757   6.492   3.918   3.574  1.0210 -0.1357  1.1664
 6744SOL    HW220758   6.496   4.040   3.484 -0.5704 -0.3800  0.7367
 6745SOL     OW20759   6.571   6.104   2.635  0.1614 -0.0457 -0.2227
 6745SOL    HW120760   6.523   6.038   2.585  1.2555 -1.2269  0.2299
 6745SOL    HW220761   6.597   6.170   2.570 -1.2668  0.1631 -0.6149
 6746SOL     OW20762   6.522   6.031   5.719 -0.5130 -0.1094 -0.1002
 6746SOL    HW120763   6.449   5.982   5.682 -0.4967  0.8057 -1.4222
 6746SOL    HW220764   6.578   5.965   5.761 -1.3460 -0.9850 -0.3466
 6747SOL     OW20765   2.837   1.611   5.035 -0.2514  0.0845 -0.1436
 6747SOL    HW120766   2.765   1.580   4.980  0.0315  0.0687 -0.5093
 6747SOL    HW220767   2.816   1.579   5.122 -1.0039  0.6004 -0.1242
 6748SOL     OW20768   6.693   5.933   4.594  0.3305  1.1948 -0.2426
 6748SOL    HW120769   6.642   6.013   4.586  0.9460  1.5164 -1.2078
 6748SOL    HW220770   6.703   5.902   4.503 -0.9809 -0.6834  0.1925
 6749SOL     OW20771   0.605   4.622   1.423  0.3242 -0.4916  0.5464
 6749SOL    HW120772   0.601   4.527   1.408  2.2362 -0.7151  1.1675
 6749SOL    HW220773   0.581   4.660   1.339 -0.5154 -1.5201  0.2960
 6750SOL     OW20774   4.071   6.543   5.433  0.5785  0.0762  0.7937
 6750SOL    HW120775   4.006   6.496   5.484  1.5646 -3.4709 -0.9351
 6750SOL    HW220776   4.029   6.560   5.349  1.5316 -1.5090 -0.0434
 6751SOL     OW20777   5.552   4.703   0.128 -0.5726  0.2921 -0.5948
 6751SOL    HW120778   5.550   4.616   0.169  2.1390  0.0789 -0.7676
 6751SOL    HW220779   5.535   4.687   0.036  2.7876 -0.5896 -1.2087
 6752SOL     OW20780   2.871   0.948   0.954  0.1204 -0.5634  0.3364
 6752SOL    HW120781   2.901   0.858   0.973  1.2521 -0.0853  0.9723
 6752SOL    HW220782   2.928   0.978   0.883  1.2079  0.3412  1.5204
 6753SOL     OW20783   3.243   1.829   4.550  0.7107 -0.6826  0.1977
 6753SOL    HW120784   3.195   1.752   4.579  0.3584  0.0754  1.7791
 6753SOL    HW220785   3.182   1.877   4.494  1.2111 -1.9101 -1.4635
 6754SOL     OW20786   2.006   6.376   3.561  0.5685 -0.0254 -0.0898
 6754SOL    HW120787   2.093   6.416   3.568  1.5468 -1.9207 -0.7300
 6754SOL    HW220788   2.022   6.289   3.526 -1.3851 -1.2397  1.7561
 6755SOL     OW20789   1.593   6.553   6.763 -0.5499  0.5534 -0.0844
 6755SOL    HW120790   1.622   6.471   6.801  0.7479  0.5354 -1.0590
 6755SOL    HW220791   1.669   6.611   6.771 -0.1754  0.5144 -2.6813
 6756SOL     OW20792   2.690   2.061   0.571  0.0158 -0.0294 -0.4569
 6756SOL    HW120793   2.675   2.044   0.664 -1.6498  0.7899 -0.5336
 6756SOL    HW220794   2.761   2.125   0.569 -1.3474  1.6041  0.4138
 6757SOL     OW20795   6.001   2.549   6.856  0.1130  0.1571  0.9325
 6757SOL    HW120796   6.012   2.603   6.934 -1.0685  0.3246  0.9995
 6757SOL    HW220797   5.963   2.608   6.791  3.7697  0.8649 -0.8202
 6758SOL     OW20798   1.738   6.921   1.251 -0.0984 -0.2524  0.0755
 6758SOL    HW120799   1.816   6.939   1.200 -1.1101 -0.0863 -1.4835
 6758SOL    HW220800   1.766   6.931   1.342  1.3010  1.4127 -0.4831
 6759SOL     OW20801   1.902   1.467   3.108  0.3358  0.1070 -0.4865
 6759SOL    HW120802   1.972   1.531   3.096 -0.0202  0.7913  0.8945
 6759SOL    HW220803   1.923   1.425   3.192 -1.2324  0.7844  0.2826
 6760SOL     OW20804   3.755   2.566   0.490  0.0052  0.4613  0.3470
 6760SOL    HW120805   3.791   2.493   0.440 -0.2907  0.3510  0.2897
 6760SOL    HW220806   3.687   2.526   0.545 -0.2422  0.7107  0.2248
 6761SOL     OW20807   1.904   4.119   5.079  0.1354 -0.2050 -0.3359
 6761SOL    HW120808   1.900   4.029   5.111 -1.3884 -0.4612 -1.1479
 6761SOL    HW220809   1.812   4.146   5.071  0.5559  1.6902  0.5731
 6762SOL     OW20810   5.425   1.299   5.262  0.3830  0.1494 -0.2949
 6762SOL    HW120811   5.415   1.257   5.176 -1.9592  0.9187 -0.4742
 6762SOL    HW220812   5.337   1.329   5.284  1.1016  0.7516  2.0036
 6763SOL     OW20813   3.332   3.233   2.611  0.2668 -0.2349 -0.1345
 6763SOL    HW120814   3.266   3.298   2.589 -1.3398 -1.9364 -0.6679
 6763SOL    HW220815   3.363   3.201   2.526  0.4268 -0.7232  0.1035
 6764SOL     OW20816   0.613   1.823   3.686 -0.1173  0.4005 -0.3309
 6764SOL    HW120817   0.635   1.855   3.773  0.6720  0.8139 -0.6705
 6764SOL    HW220818   0.517   1.824   3.684 -0.3989 -3.2277  1.8455
 6765SOL     OW20819   0.755   2.821   0.217 -0.0530 -0.1268  0.5688
 6765SOL    HW120820   0.664   2.841   0.197  0.2782  0.8836  0.0253
 6765SOL    HW220821   0.750   2.741   0.269 -1.1875 -0.5928 -0.2064
 6766SOL     OW20822   5.466   3.998   4.764  0.1695 -0.1113  0.5343
 6766SOL    HW120823   5.386   3.949   4.745  0.3346 -0.4615  0.7126
 6766SOL    HW220824   5.469   4.066   4.698 -0.5363  0.2202  0.8338
 6767SOL     OW20825   5.656   4.738   0.430 -0.2651  0.1005  0.1739
 6767SOL    HW120826   5.704   4.666   0.470 -3.0179 -1.6866  0.5221
 6767SOL    HW220827   5.651   4.715   0.337  1.1302  1.2901 -0.2406
 6768SOL     OW20828   4.253   1.351   0.339  0.1187  0.4816  0.2503
 6768SOL    HW120829   4.233   1.371   0.247 -0.5462  0.0169  0.2854
 6768SOL    HW220830   4.346   1.369   0.348  0.2083  0.4482 -0.5426
 6769SOL     OW20831   3.372   6.974   6.338 -0.0984 -0.3082  0.3093
 6769SOL    HW120832   3.388   6.900   6.279  0.4283  0.2234 -0.2272
 6769SOL    HW220833   3.295   7.017   6.302 -1.2239 -1.3612  1.3967
 6770SOL     OW20834   1.723   5.623   1.960  0.0079  0.4058  0.3611
 6770SOL    HW120835   1.783   5.560   1.999  1.7379  2.2303  0.8125
 6770SOL    HW220836   1.641   5.575   1.950  1.3942 -2.0667  0.1144
 6771SOL     OW20837   6.247   2.817   2.712  0.0647 -0.1321  0.6906
 6771SOL    HW120838   6.166   2.803   2.662 -0.8508  1.4643  1.6275
 6771SOL    HW220839   6.226   2.790   2.801  0.7626 -0.2692  0.8183
 6772SOL     OW20840   1.189   3.062   6.634 -0.6290  0.0776 -0.2328
 6772SOL    HW120841   1.242   3.136   6.605  1.1544 -1.0863 -0.1136
 6772SOL    HW220842   1.103   3.099   6.650 -0.2780  1.7903 -1.8715
 6773SOL     OW20843   1.935   6.056   0.601  0.3596 -0.1409 -0.3266
 6773SOL    HW120844   1.971   6.035   0.514  0.4390 -1.7755  0.0762
 6773SOL    HW220845   1.893   5.975   0.629 -3.1231  1.4666 -0.4781
 6774SOL     OW20846   4.338   0.247   4.987  0.5520 -0.1494 -0.1434
 6774SOL    HW120847   4.316   0.289   4.904 -0.0386  0.2830  0.2218
 6774SOL    HW220848   4.424   0.282   5.009 -0.0715  1.1523  0.3206
 6775SOL     OW20849   4.162   3.847   7.145 -0.2341  0.0995  0.5545
 6775SOL    HW120850   4.195   3.937   7.139 -1.0423  0.3319 -1.7463
 6775SOL    HW220851   4.241   3.793   7.151  0.2541  0.9315  2.1634
 6776SOL     OW20852   7.250   7.049   2.858  0.0337 -0.5065 -0.0775
 6776SOL    HW120853   7.327   7.060   2.802  0.9916 -1.4995  0.9733
 6776SOL    HW220854   7.180   7.021   2.799 -0.2993  2.8813 -1.5026
 6777SOL     OW20855   3.654   2.231   7.199  0.0513 -0.3522 -0.1543
 6777SOL    HW120856   3.712   2.204   7.270 -0.0673  0.2019  0.1540
 6777SOL    HW220857   3.647   2.154   7.143  2.1196 -0.0528 -0.8936
 6778SOL     OW20858   7.360   0.133   1.937  0.5541 -0.1804 -0.2647
 6778SOL    HW120859   7.407   0.098   1.861 -0.3811 -0.3971 -0.7546
 6778SOL    HW220860   7.354   0.227   1.918  0.5761 -0.1884 -0.3145
 6779SOL     OW20861   5.029   6.508   3.786 -0.4161  0.0802  0.0067
 6779SOL    HW120862   5.101   6.478   3.841  0.6346 -1.0923 -1.9005
 6779SOL    HW220863   5.007   6.432   3.732 -2.5454  0.6639 -0.0650
 6780SOL     OW20864   2.791   7.296   3.661  0.0229  0.0575  0.2482
 6780SOL    HW120865   2.869   7.326   3.707 -0.7121  1.1750  0.8060
 6780SOL    HW220866   2.722   7.297   3.727 -0.8054  0.6386 -0.5979
 6781SOL     OW20867   2.018   4.309   5.406  0.1316 -0.3296  1.0518
 6781SOL    HW120868   2.003   4.214   5.415  0.0653 -0.7085 -1.9526
 6781SOL    HW220869   1.931   4.347   5.413  0.0614 -0.5635  1.5098
 6782SOL     OW20870   3.883   1.954   5.451 -0.8165 -0.1760 -0.5630
 6782SOL    HW120871   3.970   1.921   5.429 -0.4616 -0.9647  1.8043
 6782SOL    HW220872   3.899   2.040   5.489 -1.0670 -0.3388 -0.0861
 6783SOL     OW20873   0.551   4.794   1.876 -0.0815 -0.4300 -0.5951
 6783SOL    HW120874   0.621   4.850   1.909  0.1425 -0.3994 -1.1118
 6783SOL    HW220875   0.591   4.747   1.802 -0.9431  0.4941 -1.6906
 6784SOL     OW20876   6.297   3.889   0.041  0.3247  0.3812 -0.3651
 6784SOL    HW120877   6.217   3.912  -0.006  0.5781 -0.3481 -1.1763
 6784SOL    HW220878   6.367   3.931  -0.009  0.5052  0.5100 -0.0083
 6785SOL     OW20879   5.266   6.614   4.169 -0.5924  0.4760  0.7401
 6785SOL    HW120880   5.173   6.636   4.178 -0.4500  0.8976  1.2184
 6785SOL    HW220881   5.309   6.665   4.237 -0.1380 -0.5898  1.2827
 6786SOL     OW20882   5.172   7.030   6.717 -0.2365  0.4286 -0.2370
 6786SOL    HW120883   5.231   6.983   6.658 -0.4166 -1.1932  0.7941
 6786SOL    HW220884   5.090   7.037   6.668 -0.0610  0.0984 -0.5865
 6787SOL     OW20885   1.905   0.203   1.976 -0.2477 -0.1305  0.0062
 6787SOL    HW120886   1.993   0.239   1.984  0.4366 -1.8782  0.9499
 6787SOL    HW220887   1.917   0.123   1.925 -1.1416 -0.7910  0.8001
 6788SOL     OW20888   1.355   4.127   4.906  0.2592 -0.8518 -0.1909
 6788SOL    HW120889   1.302   4.051   4.880  0.4885 -0.9447 -0.3909
 6788SOL    HW220890   1.368   4.177   4.826 -0.2325 -0.3842  0.0201
 6789SOL     OW20891   5.214   3.320   5.349  0.4814 -0.7184  0.5319
 6789SOL    HW120892   5.150   3.322   5.420 -0.8875  0.2778 -0.6772
 6789SOL    HW220893   5.178   3.259   5.286  0.6429 -0.0311 -0.2367
 6790SOL     OW20894   4.274   2.013   7.227  0.0681 -0.0489  0.0501
 6790SOL    HW120895   4.358   2.059   7.227  0.3151 -0.4372  1.6652
 6790SOL    HW220896   4.225   2.051   7.154  1.5348  0.3838 -0.7342
 6791SOL     OW20897   1.828   0.807   2.581 -0.7949 -0.2014 -0.3941
 6791SOL    HW120898   1.832   0.897   2.611 -0.2750 -0.4952  0.4406
 6791SOL    HW220899   1.826   0.814   2.485 -1.4046  0.7059 -0.3271
 6792SOL     OW20900   5.664   7.070   6.938  0.8460 -0.0219 -0.2693
 6792SOL    HW120901   5.673   7.059   7.032  0.1202 -0.0278 -0.1941
 6792SOL    HW220902   5.646   7.163   6.926 -0.9635 -0.3373 -0.2288
 6793SOL     OW20903   3.010   3.133   2.953  0.2246 -0.1272 -0.2281
 6793SOL    HW120904   3.093   3.097   2.923 -1.1190 -0.7380 -3.6641
 6793SOL    HW220905   2.949   3.060   2.947 -1.4227  1.2925 -2.1031
 6794SOL     OW20906   7.407   0.122   5.373  0.1024 -0.1460  0.0285
 6794SOL    HW120907   7.328   0.167   5.403 -0.1444 -0.3862 -0.2518
 6794SOL    HW220908   7.399   0.122   5.277 -0.2294 -1.3561  0.0378
 6795SOL     OW20909   7.564   7.177   5.436  0.0999  0.1100  0.1560
 6795SOL    HW120910   7.524   7.261   5.414 -1.2826 -0.5533  0.0276
 6795SOL    HW220911   7.573   7.132   5.352 -1.6165 -0.8903  0.4635
 6796SOL     OW20912   6.095   0.680   6.439  0.5032  0.2492 -0.4642
 6796SOL    HW120913   6.057   0.713   6.520 -1.4562  1.2559 -1.6993
 6796SOL    HW220914   6.150   0.752   6.408 -1.2170  1.2117 -1.5155
 6797SOL     OW20915   3.351   2.818   1.583  0.7038 -0.2138  0.0022
 6797SOL    HW120916   3.435   2.852   1.554  0.8157  0.3819  0.9834
 6797SOL    HW220917   3.287   2.862   1.527  0.7929  2.1822  1.6228
 6798SOL     OW20918   1.213   6.978   3.522 -0.5182 -0.1395 -0.2980
 6798SOL    HW120919   1.160   6.949   3.596 -0.8068 -1.3979 -0.9691
 6798SOL    HW220920   1.227   7.071   3.537 -2.4143  0.0905  0.1959
 6799SOL     OW20921   4.033   2.706   4.368 -0.0962  0.2168 -0.1232
 6799SOL    HW120922   4.116   2.672   4.335 -0.2180 -0.3274  0.1188
 6799SOL    HW220923   4.038   2.800   4.353  0.2391  0.0936 -0.8219
 6800SOL     OW20924   4.925   6.030   4.771 -0.0444 -0.0236  0.0080
 6800SOL    HW120925   4.930   6.063   4.681  2.4004  1.0561  0.4748
 6800SOL    HW220926   4.850   5.971   4.770 -0.3498  0.2805 -2.6248
 6801SOL     OW20927   6.074   6.549   3.980 -0.3571 -0.2586 -0.4238
 6801SOL    HW120928   6.062   6.496   3.901 -1.3360 -0.0438 -0.4311
 6801SOL    HW220929   6.168   6.548   3.995 -0.2848 -1.3825 -0.8498
 6802SOL     OW20930   2.201   3.537   3.190  0.1382  0.5700  0.3027
 6802SOL    HW120931   2.119   3.511   3.147 -1.7332  0.8549  3.3562
 6802SOL    HW220932   2.268   3.526   3.123 -2.1649 -1.1318 -1.9211
 6803SOL     OW20933   6.342   1.916   0.110  0.8572  0.1921  0.5281
 6803SOL    HW120934   6.250   1.901   0.134  0.6465  1.2508  0.4138
 6803SOL    HW220935   6.355   1.864   0.030  0.2809  0.2455  0.3974
 6804SOL     OW20936   0.724   1.142   6.184  0.1273 -0.4234  0.2658
 6804SOL    HW120937   0.720   1.168   6.276 -0.1002 -0.0500  0.1515
 6804SOL    HW220938   0.809   1.172   6.155 -0.3848  0.7916 -0.0370
 6805SOL     OW20939   1.845   6.112   6.299 -0.4641  0.3829  0.3235
 6805SOL    HW120940   1.876   6.022   6.313 -1.3262  0.1098  0.5247
 6805SOL    HW220941   1.834   6.119   6.204 -2.8967 -0.6045  0.4723
 6806SOL     OW20942   6.771   5.079   4.483  0.0406 -0.4876  0.1860
 6806SOL    HW120943   6.682   5.100   4.512  0.4256 -0.1808  1.1910
 6806SOL    HW220944   6.761   5.055   4.391 -1.0902 -0.5139  0.2981
 6807SOL     OW20945   2.306   6.833   4.827  0.5733 -0.5025  0.4071
 6807SOL    HW120946   2.382   6.776   4.837  1.3576  0.3335 -0.5861
 6807SOL    HW220947   2.237   6.776   4.793  1.0843 -1.0429  0.2651
 6808SOL     OW20948   1.318   3.228   4.550 -0.2753 -0.1789 -0.5169
 6808SOL    HW120949   1.388   3.218   4.485 -0.3783  1.3677 -0.9236
 6808SOL    HW220950   1.238   3.209   4.501 -0.2514 -0.3719 -0.4802
 6809SOL     OW20951   4.142   1.941   2.215 -0.1662  0.3961  0.2747
 6809SOL    HW120952   4.047   1.941   2.229 -0.1440  0.2953  0.4342
 6809SOL    HW220953   4.168   2.032   2.227  0.0481  0.1119  2.3233
 6810SOL     OW20954   2.825   5.423   4.639 -0.2787 -0.3652  0.1218
 6810SOL    HW120955   2.856   5.338   4.669  0.0232 -0.5379 -0.6600
 6810SOL    HW220956   2.826   5.417   4.544  1.5861  1.1472 -0.0060
 6811SOL     OW20957   2.640   1.678   2.036 -0.3001 -0.1585 -0.0507
 6811SOL    HW120958   2.586   1.609   2.073 -1.5498  1.7818  2.0544
 6811SOL    HW220959   2.584   1.721   1.971 -0.0112 -0.3041 -0.3985
 6812SOL     OW20960   1.162   2.924   2.945  0.7517  0.0751  0.4423
 6812SOL    HW120961   1.104   2.977   3.000  0.5160 -0.7832  1.0390
 6812SOL    HW220962   1.242   2.916   2.995  1.1062  0.5909 -0.0325
 6813SOL     OW20963   2.852   5.913   6.240  0.5978  0.6933  0.5750
 6813SOL    HW120964   2.844   5.943   6.150  1.0640 -0.6629  0.0517
 6813SOL    HW220965   2.902   5.832   6.234  1.3944  1.0209  2.1456
 6814SOL     OW20966   4.727   1.430   6.639  0.7897 -0.3651 -0.3271
 6814SOL    HW120967   4.702   1.512   6.682 -0.3654 -0.6579 -0.3990
 6814SOL    HW220968   4.764   1.457   6.555 -0.7564  0.0515 -0.9081
 6815SOL     OW20969   3.192   3.070   5.663  0.0515  0.6912  0.1185
 6815SOL    HW120970   3.222   2.996   5.715 -1.3299 -0.1891 -0.2904
 6815SOL    HW220971   3.268   3.129   5.660  1.5110 -1.1050 -0.3108
 6816SOL     OW20972   4.192   4.960   0.456 -0.6352  0.2383 -0.4663
 6816SOL    HW120973   4.131   4.921   0.519  0.8246 -1.0156  0.2451
 6816SOL    HW220974   4.136   4.994   0.386 -2.2662  1.1450  1.2106
 6817SOL     OW20975   5.024   1.316   5.985  0.0072  0.1131 -0.3683
 6817SOL    HW120976   5.073   1.318   5.902  1.7057  2.6845  0.5711
 6817SOL    HW220977   5.073   1.256   6.040  0.7540  0.8389 -0.2210
 6818SOL     OW20978   1.186   6.318   1.349  0.6117  0.0178 -0.3864
 6818SOL    HW120979   1.111   6.353   1.301  1.0546 -0.8159 -1.7279
 6818SOL    HW220980   1.149   6.284   1.430 -0.5815 -1.0050 -1.3263
 6819SOL     OW20981   5.930   5.861   6.169  0.2269  0.1621  0.3405
 6819SOL    HW120982   5.841   5.826   6.171 -0.2158  1.1920 -0.2434
 6819SOL    HW220983   5.924   5.943   6.217  1.5530 -1.1376  2.9080
 6820SOL     OW20984   7.153   0.415   4.764 -0.2472  0.1010  0.1276
 6820SOL    HW120985   7.214   0.470   4.813 -0.1562 -0.3788  0.5654
 6820SOL    HW220986   7.067   0.447   4.788 -0.2055 -0.1804  0.6743
 6821SOL     OW20987   5.206   5.345   4.489 -0.3163 -0.2432 -0.5482
 6821SOL    HW120988   5.143   5.320   4.556  0.3224 -0.2141  0.0706
 6821SOL    HW220989   5.251   5.263   4.467 -0.0515 -0.1305 -0.4356
 6822SOL     OW20990   1.039   2.851   0.113 -0.0674  0.0037  0.0643
 6822SOL    HW120991   0.960   2.905   0.125  0.4463  0.3727  2.0542
 6822SOL    HW220992   1.009   2.778   0.058 -2.0316 -0.3388  1.4810
 6823SOL     OW20993   4.228   4.860   3.771  0.4016  0.2673 -0.0517
 6823SOL    HW120994   4.276   4.828   3.695  2.4585  0.7876  0.9571
 6823SOL    HW220995   4.262   4.948   3.786  0.9888 -0.2659  2.1566
 6824SOL     OW20996   4.152   5.396   0.077  0.5374 -0.3108 -0.2295
 6824SOL    HW120997   4.144   5.367  -0.014 -1.3348 -0.5802 -0.0130
 6824SOL    HW220998   4.239   5.366   0.104  0.0731 -2.6272 -1.1028
 6825SOL     OW20999   0.228   6.120   7.367 -0.0593  0.8423  0.5362
 6825SOL    HW121000   0.196   6.210   7.376  2.2256  1.6181  1.6885
 6825SOL    HW221001   0.323   6.129   7.357  0.4078 -1.4893  2.1050
 6826SOL     OW21002   3.335   3.816   7.064 -1.0543  0.3610 -0.0440
 6826SOL    HW121003   3.404   3.776   7.117 -0.3101  1.4047 -0.1895
 6826SOL    HW221004   3.254   3.774   7.094 -0.1331 -2.9080 -1.7901
 6827SOL     OW21005   0.219   2.403   6.859  0.5633 -0.6831  0.0942
 6827SOL    HW121006   0.297   2.446   6.824 -0.1632 -0.2151 -1.0206
 6827SOL    HW221007   0.201   2.331   6.798  0.7971 -1.5506  1.0139
 6828SOL     OW21008   6.478   4.630   4.064  0.1926 -0.8174 -0.7832
 6828SOL    HW121009   6.423   4.683   4.006  0.5246  1.1992  0.6322
 6828SOL    HW221010   6.429   4.627   4.146  1.8368  0.4655  0.3070
 6829SOL     OW21011   7.273   5.602   0.257 -0.5597 -0.2046 -0.8684
 6829SOL    HW121012   7.292   5.660   0.331 -2.9556  0.7323 -0.8779
 6829SOL    HW221013   7.194   5.640   0.218 -2.5999 -3.7429 -0.5598
 6830SOL     OW21014   7.278   3.885   2.145 -0.3535  0.1790 -0.0514
 6830SOL    HW121015   7.368   3.902   2.173  0.3125 -3.4410  0.3917
 6830SOL    HW221016   7.287   3.831   2.066 -2.1876  0.4580 -0.4949
 6831SOL     OW21017   1.368   4.046   2.317  0.3636 -0.1558  0.3570
 6831SOL    HW121018   1.441   4.091   2.275  0.7665 -0.9027  0.2343
 6831SOL    HW221019   1.401   4.026   2.405  0.0507  0.1264  0.5378
 6832SOL     OW21020   0.243   2.868   2.059 -0.4336 -0.0938  0.0138
 6832SOL    HW121021   0.152   2.887   2.035 -0.3029 -1.0756 -1.4118
 6832SOL    HW221022   0.236   2.813   2.138 -1.2267 -1.9445 -1.2712
 6833SOL     OW21023   0.795   6.642   5.686 -0.2900 -0.2676  1.0867
 6833SOL    HW121024   0.800   6.624   5.592  0.1142 -0.0347  1.0588
 6833SOL    HW221025   0.703   6.631   5.708 -0.4575  0.0764  0.5802
 6834SOL     OW21026   1.208   3.016   3.314 -0.4485 -0.1549  0.0747
 6834SOL    HW121027   1.249   2.933   3.291 -0.0838 -0.1944  0.8551
 6834SOL    HW221028   1.120   3.010   3.278 -0.0561 -0.4092 -0.8793
 6835SOL     OW21029   0.393   0.119   7.199 -0.9738  0.2600  0.0612
 6835SOL    HW121030   0.380   0.088   7.288 -2.3847 -0.9638 -0.5318
 6835SOL    HW221031   0.483   0.152   7.198  0.7925 -3.8512  0.8277
 6836SOL     OW21032   7.201   5.054   5.418 -0.1161 -0.1878 -0.2310
 6836SOL    HW121033   7.110   5.077   5.404 -0.1283  0.3943  0.6759
 6836SOL    HW221034   7.243   5.137   5.445  0.3493 -0.7279  0.7899
 6837SOL     OW21035   2.331   7.494   1.548  0.3372  0.7886 -0.2356
 6837SOL    HW121036   2.382   7.525   1.474  0.3231  2.1584  0.2974
 6837SOL    HW221037   2.262   7.559   1.559 -1.7925 -1.1840 -1.1492
 6838SOL     OW21038   2.150   0.952   6.562 -0.2055  0.1261  0.4992
 6838SOL    HW121039   2.091   0.895   6.513 -0.2268 -0.5046  1.2380
 6838SOL    HW221040   2.237   0.932   6.528 -0.3440  0.6134 -0.1611
 6839SOL     OW21041   6.509   1.228   3.959 -0.1421  0.5170  0.4674
 6839SOL    HW121042   6.526   1.138   3.931  2.3356  1.3844 -1.2478
 6839SOL    HW221043   6.568   1.242   4.033 -1.3802  0.4236  1.5028
 6840SOL     OW21044   1.694   0.778   6.584  0.0094  0.0329 -0.0067
 6840SOL    HW121045   1.682   0.831   6.663  1.9398  0.6935 -0.1231
 6840SOL    HW221046   1.628   0.812   6.523 -0.9107  0.1144  1.0030
 6841SOL     OW21047   5.937   5.765   5.604 -0.2792  0.5458 -1.3045
 6841SOL    HW121048   5.968   5.847   5.567  1.0894 -0.3069 -2.1080
 6841SOL    HW221049   5.980   5.697   5.553  0.2348 -0.6874  0.6633
 6842SOL     OW21050   7.536   4.407   7.142  0.5244 -0.4305 -0.1331
 6842SOL    HW121051   7.444   4.434   7.143  0.6283 -0.0779 -0.1010
 6842SOL    HW221052   7.535   4.316   7.172  0.5176  0.5627  3.2600
 6843SOL     OW21053   1.807   3.716   0.668 -0.1282 -0.1096  0.3067
 6843SOL    HW121054   1.785   3.674   0.751 -1.1291 -0.1108  0.0532
 6843SOL    HW221055   1.829   3.644   0.609  0.3370 -0.1238  0.4914
 6844SOL     OW21056   3.632   6.807   1.235 -0.0516 -0.2408  0.1670
 6844SOL    HW121057   3.538   6.789   1.239 -0.4325  1.1630 -1.4792
 6844SOL    HW221058   3.664   6.749   1.166 -0.1589  0.8578 -0.8407
 6845SOL     OW21059   4.976   1.523   5.150  0.3485  0.0160 -0.1855
 6845SOL    HW121060   5.007   1.458   5.087 -0.5639 -1.9490  1.2808
 6845SOL    HW221061   4.886   1.542   5.123  0.8464  1.2864 -1.0391
 6846SOL     OW21062   6.794   6.478   0.139 -0.1444 -0.1972  0.4470
 6846SOL    HW121063   6.859   6.525   0.087 -0.7625 -0.0279 -0.1729
 6846SOL    HW221064   6.732   6.443   0.075 -0.9706  0.1074  1.0646
 6847SOL     OW21065   4.040   2.295   3.962 -0.5787 -0.0431 -0.0499
 6847SOL    HW121066   4.003   2.356   3.898 -2.1212  0.6337  1.4200
 6847SOL    HW221067   3.965   2.247   3.996  0.4382 -1.7377 -0.0728
 6848SOL     OW21068   0.134   3.320   5.942  0.0779 -0.1808 -0.5858
 6848SOL    HW121069   0.218   3.343   5.982  0.5332  0.3475 -1.7722
 6848SOL    HW221070   0.127   3.226   5.954  1.0095 -0.2848 -0.7535
 6849SOL     OW21071   5.768   4.597   7.057 -0.2847  0.3779 -0.5170
 6849SOL    HW121072   5.727   4.546   7.127  0.8531  0.3160  0.1253
 6849SOL    HW221073   5.834   4.649   7.101  0.9556 -0.2038 -1.6323
 6850SOL     OW21074   7.079   5.750   0.125  0.0083  0.2359 -0.5181
 6850SOL    HW121075   7.129   5.775   0.047  0.3431  0.0630 -0.3614
 6850SOL    HW221076   7.057   5.833   0.167  0.5247  0.2934 -0.3653
 6851SOL     OW21077   0.374   6.940   6.432  0.4594 -0.0366  0.1683
 6851SOL    HW121078   0.392   6.880   6.360  1.5212  1.7183 -1.0984
 6851SOL    HW221079   0.308   7.000   6.397 -1.5656 -1.1374  1.8419
 6852SOL     OW21080   2.330   0.640   5.771 -0.0906 -0.1450 -0.2562
 6852SOL    HW121081   2.396   0.635   5.840  0.6724 -2.4372 -1.0263
 6852SOL    HW221082   2.347   0.724   5.728 -1.6409  2.1529  3.1927
 6853SOL     OW21083   0.892   7.072   1.622 -0.1611 -0.5430  0.5928
 6853SOL    HW121084   0.838   7.104   1.695 -0.9242 -1.5471  0.4853
 6853SOL    HW221085   0.921   7.152   1.578  1.6168  0.1885  2.8665
 6854SOL     OW21086   5.884   6.384   3.018 -0.5868 -0.6561 -0.3776
 6854SOL    HW121087   5.879   6.417   2.929  1.7019 -1.8368 -1.0135
 6854SOL    HW221088   5.960   6.326   3.018 -0.7140 -0.9385  2.2704
 6855SOL     OW21089   3.424   0.385   2.984 -0.2392 -0.3296  0.3348
 6855SOL    HW121090   3.509   0.428   2.978 -0.7739  0.5473 -1.8223
 6855SOL    HW221091   3.377   0.433   3.052  1.4018 -1.6937  2.5539
 6856SOL     OW21092   3.804   5.197   0.291 -0.3584 -1.0310 -0.4874
 6856SOL    HW121093   3.719   5.191   0.335  0.6875 -1.6105  1.5408
 6856SOL    HW221094   3.804   5.284   0.250 -3.1697 -2.1618 -3.3391
 6857SOL     OW21095   2.913   0.594   4.888  0.4493 -0.1256 -0.2759
 6857SOL    HW121096   2.853   0.530   4.851  0.1659 -0.0561  0.0534
 6857SOL    HW221097   2.999   0.552   4.885  0.5049  0.0322 -1.3761
 6858SOL     OW21098   5.182   1.251   0.178  0.4893  0.0751  0.0499
 6858SOL    HW121099   5.182   1.219   0.088  0.3893  0.6428 -0.1581
 6858SOL    HW221100   5.094   1.231   0.211 -0.0879  1.4356 -0.5665
 6859SOL     OW21101   6.206   0.949   6.321 -0.4491 -0.4816 -0.1372
 6859SOL    HW121102   6.164   0.964   6.237  1.3063  0.3530 -0.9143
 6859SOL    HW221103   6.194   1.031   6.370 -1.2849 -0.8901  0.3549
 6860SOL     OW21104   3.921   6.894   3.762 -0.2677  0.1102 -0.5591
 6860SOL    HW121105   3.865   6.947   3.705 -0.8281  1.2059  0.9422
 6860SOL    HW221106   3.898   6.803   3.741 -1.0438  0.5080 -1.4870
 6861SOL     OW21107   0.190   3.346   2.164 -0.7622  1.0550 -0.0141
 6861SOL    HW121108   0.221   3.428   2.124 -0.4298  1.2030  0.5294
 6861SOL    HW221109   0.269   3.293   2.173 -0.7700  1.1583  0.7486
 6862SOL     OW21110   2.237   1.309   2.033  0.3662  0.2212 -0.3661
 6862SOL    HW121111   2.165   1.364   2.002 -0.1606  0.7682  1.6442
 6862SOL    HW221112   2.316   1.358   2.013 -0.0216  1.0737  0.1182
 6863SOL     OW21113   1.414   6.247   1.610 -0.1002  0.0412 -0.2588
 6863SOL    HW121114   1.437   6.231   1.701 -1.2282  0.9452  0.2106
 6863SOL    HW221115   1.319   6.251   1.610 -0.1253 -0.1209 -1.5215
 6864SOL     OW21116   1.709   5.223   2.325 -0.0126 -0.1184  0.1428
 6864SOL    HW121117   1.693   5.141   2.372 -1.7615 -0.2610 -0.6386
 6864SOL    HW221118   1.744   5.283   2.392  2.4250 -1.7779  0.4867
 6865SOL     OW21119   0.884   2.362   6.871 -0.5703  0.3556  0.0309
 6865SOL    HW121120   0.957   2.403   6.824 -0.6414 -0.4878 -0.8424
 6865SOL    HW221121   0.817   2.430   6.874 -0.3220  0.6336 -0.5351
 6866SOL     OW21122   3.393   3.815   1.159 -0.1359 -0.0357 -0.0221
 6866SOL    HW121123   3.454   3.842   1.090  2.9366 -0.6513  2.2425
 6866SOL    HW221124   3.404   3.880   1.228 -0.7740 -1.0911  1.1280
 6867SOL     OW21125   7.112   3.733   1.734  0.2196 -0.0052 -0.3680
 6867SOL    HW121126   7.174   3.661   1.742 -1.8097 -1.7254  1.0501
 6867SOL    HW221127   7.145   3.785   1.661  2.9355 -1.1636 -0.0663
 6868SOL     OW21128   5.132   7.213   4.482  0.4737  0.3024  0.4047
 6868SOL    HW121129   5.117   7.169   4.565  0.4027  0.5899  0.5458
 6868SOL    HW221130   5.172   7.296   4.506  1.4248 -0.0606  0.0843
 6869SOL     OW21131   3.083   2.052   4.352 -0.1470 -1.1145  0.1828
 6869SOL    HW121132   3.018   2.044   4.282 -0.5580 -1.2552  0.5729
 6869SOL    HW221133   3.166   2.066   4.306 -0.5536 -0.2284 -0.2969
 6870SOL     OW21134   1.136   0.281   5.139 -0.3036  0.8351 -0.0762
 6870SOL    HW121135   1.103   0.210   5.083  0.2951  0.6273 -0.1737
 6870SOL    HW221136   1.173   0.236   5.215 -0.5324  1.0833  0.1822
 6871SOL     OW21137   0.361   3.922   3.392 -0.0194  0.4844 -0.1910
 6871SOL    HW121138   0.349   3.835   3.430  0.6924 -0.0236 -1.0835
 6871SOL    HW221139   0.320   3.916   3.305 -1.3663  1.5342  0.3419
 6872SOL     OW21140   0.865   1.498   6.651 -0.4088 -0.6740  0.4337
 6872SOL    HW121141   0.893   1.558   6.720 -0.9623  3.8030 -2.8485
 6872SOL    HW221142   0.920   1.421   6.664 -0.4644 -0.2202  5.6892
 6873SOL     OW21143   3.843   4.296   7.255 -0.1910 -0.9867 -0.4452
 6873SOL    HW121144   3.844   4.223   7.317 -0.6436  0.0990  0.9016
 6873SOL    HW221145   3.858   4.373   7.309 -1.1416  0.0644 -1.6254
 6874SOL     OW21146   3.373   0.038   4.000 -0.5150  0.1168  0.4405
 6874SOL    HW121147   3.435   0.103   4.033 -0.2534  1.1895 -2.0043
 6874SOL    HW221148   3.428  -0.034   3.970 -0.7118 -0.5382  1.5854
 6875SOL     OW21149   3.425   1.250   3.662  0.5844 -0.0865 -0.0058
 6875SOL    HW121150   3.350   1.279   3.611 -0.6613 -1.6766  0.8467
 6875SOL    HW221151   3.415   1.292   3.747  0.5588 -0.4425  0.1696
 6876SOL     OW21152   1.030   6.423   0.916 -0.0052  0.2978  0.0356
 6876SOL    HW121153   1.097   6.355   0.921 -0.5594 -0.2972 -0.5338
 6876SOL    HW221154   0.947   6.376   0.916 -0.4274  0.5882 -4.4258
 6877SOL     OW21155   3.690   3.240   5.308  0.3462 -0.3432 -0.5879
 6877SOL    HW121156   3.753   3.194   5.252  0.2608 -0.7429 -0.3659
 6877SOL    HW221157   3.639   3.294   5.248  0.3629 -0.6463 -0.8779
 6878SOL     OW21158   5.299   0.082   5.487 -0.6055 -0.1852  0.0415
 6878SOL    HW121159   5.217   0.057   5.531 -0.3560 -0.6665  0.2482
 6878SOL    HW221160   5.315   0.012   5.424 -1.2632  0.7954 -1.2549
 6879SOL     OW21161   6.326   1.927   6.386  0.2068  0.1703 -0.2816
 6879SOL    HW121162   6.307   1.985   6.460 -0.0508 -0.6209  0.2890
 6879SOL    HW221163   6.401   1.967   6.343 -0.0527  0.9947  0.0234
 6880SOL     OW21164   1.648   4.993   2.448 -0.1077 -0.5839 -0.2911
 6880SOL    HW121165   1.693   4.913   2.420  2.2429 -1.1224  4.1037
 6880SOL    HW221166   1.577   4.962   2.505 -0.8570  0.4658 -0.6208
 6881SOL     OW21167   6.238   2.771   4.993 -0.2456  0.5489 -0.8846
 6881SOL    HW121168   6.263   2.850   5.041  1.0863  0.0952 -0.7833
 6881SOL    HW221169   6.250   2.795   4.901 -0.0194  0.5233 -0.8621
 6882SOL     OW21170   3.749   4.759   6.115  0.6048 -0.1610 -0.2310
 6882SOL    HW121171   3.655   4.754   6.100  0.3803  1.1102  0.5952
 6882SOL    HW221172   3.788   4.717   6.038 -0.6259 -1.3916 -0.2325
 6883SOL     OW21173   4.586   1.709   0.944 -0.4025 -0.0141 -0.0704
 6883SOL    HW121174   4.574   1.795   0.902  0.6244 -0.6840 -1.8387
 6883SOL    HW221175   4.523   1.652   0.899 -0.5485 -0.3668  0.5732
 6884SOL     OW21176   1.744   3.667   6.136 -0.2285 -0.1645 -0.4827
 6884SOL    HW121177   1.665   3.619   6.114 -1.5165  0.5037  2.2227
 6884SOL    HW221178   1.812   3.601   6.141 -1.0453 -1.0554 -0.9782
 6885SOL     OW21179   2.829   5.576   2.691 -0.1164 -0.0985  0.1296
 6885SOL    HW121180   2.856   5.485   2.704  0.4872  0.3064  1.8707
 6885SOL    HW221181   2.739   5.569   2.659  0.4257 -1.3276 -1.2598
 6886SOL     OW21182   5.483   6.381   4.173  0.3579  0.4498 -0.2506
 6886SOL    HW121183   5.494   6.353   4.082 -0.6281 -0.1472 -0.2035
 6886SOL    HW221184   5.414   6.448   4.169  2.5079  2.7781 -0.3281
 6887SOL     OW21185   0.368   2.499   1.707 -0.1010  0.6437 -0.1387
 6887SOL    HW121186   0.370   2.563   1.778 -0.5233  0.7089 -0.1788
 6887SOL    HW221187   0.339   2.418   1.750 -1.3968  0.9330 -0.4053
 6888SOL     OW21188   2.240   2.745   4.723 -0.2790 -0.5315 -0.1434
 6888SOL    HW121189   2.215   2.654   4.707 -1.5478 -0.1219 -0.5998
 6888SOL    HW221190   2.316   2.739   4.780 -1.1924 -1.8771  1.0144
 6889SOL     OW21191   2.244   1.757   6.752 -0.5626  0.2179  0.2378
 6889SOL    HW121192   2.259   1.740   6.845  1.3997 -0.6185 -0.1746
 6889SOL    HW221193   2.221   1.849   6.747 -1.3983  0.1003  1.6063
 6890SOL     OW21194   6.286   5.768   4.384 -0.0073  0.4508 -0.0477
 6890SOL    HW121195   6.335   5.849   4.371 -0.2106  0.6477  0.3872
 6890SOL    HW221196   6.215   5.792   4.444 -1.6706  0.5995 -1.9609
 6891SOL     OW21197   4.600   1.907   1.448  0.3866 -0.0520  0.2633
 6891SOL    HW121198   4.550   1.837   1.407 -0.3422  1.8802 -2.4528
 6891SOL    HW221199   4.665   1.862   1.501  0.3707 -2.8377 -1.8291
 6892SOL     OW21200   6.747   5.199   3.158  0.0662 -0.4137  0.1438
 6892SOL    HW121201   6.751   5.117   3.207 -2.4932 -0.5683  0.2712
 6892SOL    HW221202   6.722   5.265   3.223  0.8954  0.2354 -0.1814
 6893SOL     OW21203   2.765   3.388   5.317  0.0448 -0.6754  0.1162
 6893SOL    HW121204   2.774   3.394   5.412 -0.7551 -0.2166  0.1694
 6893SOL    HW221205   2.822   3.457   5.284  0.7678 -1.2063  0.2329
 6894SOL     OW21206   6.769   6.616   4.332 -0.0071 -0.0803  0.1611
 6894SOL    HW121207   6.855   6.574   4.335 -0.2235 -0.4677  1.2723
 6894SOL    HW221208   6.783   6.695   4.280  0.7474 -0.7519 -0.6871
 6895SOL     OW21209   3.116   2.176   5.854  0.7294  0.1151 -0.2831
 6895SOL    HW121210   3.134   2.267   5.828  1.1039 -0.2611 -1.4163
 6895SOL    HW221211   3.092   2.182   5.946  2.6179  1.1596  0.2096
 6896SOL     OW21212   1.862   1.685   1.725  0.5705 -0.2798  0.0814
 6896SOL    HW121213   1.907   1.689   1.640 -0.3229 -2.2379 -0.5420
 6896SOL    HW221214   1.785   1.630   1.709  0.4534 -0.8239  2.2047
 6897SOL     OW21215   0.547   1.089   4.191 -0.0585 -0.4324  0.0869
 6897SOL    HW121216   0.491   1.053   4.260 -1.7543 -0.5700 -1.2928
 6897SOL    HW221217   0.527   1.183   4.191 -0.6854 -0.5597 -0.7375
 6898SOL     OW21218   1.390   2.792   5.905  0.6578  0.4668 -0.3806
 6898SOL    HW121219   1.403   2.876   5.860  0.0025  1.5845  1.3770
 6898SOL    HW221220   1.328   2.812   5.976  0.4574 -1.5230  0.0746
 6899SOL     OW21221   5.333   6.348   0.686  0.4799  0.0881 -0.3829
 6899SOL    HW121222   5.416   6.381   0.651  1.1204 -0.4396  0.5898
 6899SOL    HW221223   5.353   6.260   0.717 -0.0268  0.5245  1.3049
 6900SOL     OW21224   3.597   2.239   3.720  0.1562  0.7149  0.3296
 6900SOL    HW121225   3.647   2.172   3.673 -1.9963 -0.0026 -1.0737
 6900SOL    HW221226   3.541   2.190   3.780  0.2868  1.4321  1.0557
 6901SOL     OW21227   2.754   7.504   4.313  0.9084  0.5320  0.5308
 6901SOL    HW121228   2.788   7.583   4.356  0.4548  0.2937  1.3406
 6901SOL    HW221229   2.659   7.509   4.325  0.5397  1.4557 -2.1736
 6902SOL     OW21230   0.698   0.233   5.742 -0.0073 -0.3975 -0.2304
 6902SOL    HW121231   0.753   0.165   5.781  0.2620  0.6234  1.2985
 6902SOL    HW221232   0.761   0.296   5.705 -0.2538 -1.0326 -1.8028
 6903SOL     OW21233   7.448   2.144   3.057 -0.2790  0.3439 -0.7607
 6903SOL    HW121234   7.476   2.115   3.143  0.8974  0.1945 -1.1777
 6903SOL    HW221235   7.486   2.081   2.996 -1.9535 -0.1651 -1.3454
 6904SOL     OW21236   3.681   2.009   3.037 -0.4569 -0.3728  0.3917
 6904SOL    HW121237   3.732   1.985   2.960  2.1048  0.0541  1.8605
 6904SOL    HW221238   3.741   1.999   3.110 -2.4623  0.3406  2.2463
 6905SOL     OW21239   3.344   6.039   2.588  0.0030 -0.0945  0.5288
 6905SOL    HW121240   3.321   6.077   2.503 -1.8567  0.5311  1.2443
 6905SOL    HW221241   3.438   6.024   2.584 -0.0896 -0.3528 -1.7366
 6906SOL     OW21242   2.525   5.026   6.017 -0.3505  0.1179 -0.1860
 6906SOL    HW121243   2.541   4.991   6.104  3.7144 -0.4889 -0.9742
 6906SOL    HW221244   2.554   5.118   6.022 -1.1796  0.4160 -0.6340
 6907SOL     OW21245   5.613   5.300   3.545 -0.3450  0.1856 -0.0561
 6907SOL    HW121246   5.668   5.367   3.506 -1.3372  2.3952  2.1071
 6907SOL    HW221247   5.673   5.245   3.596  0.2501  0.6047 -0.3076
 6908SOL     OW21248   2.824   0.287   4.079  0.4598 -0.0077  0.6049
 6908SOL    HW121249   2.834   0.228   4.004  3.0388  1.5183 -0.3804
 6908SOL    HW221250   2.864   0.239   4.152  0.3766 -0.4365  0.3727
 6909SOL     OW21251   4.531   0.135   0.132 -0.1420  0.1398 -0.0707
 6909SOL    HW121252   4.488   0.068   0.185 -0.5812  0.6980  0.2890
 6909SOL    HW221253   4.470   0.151   0.060 -0.0519  0.1746 -0.1395
 6910SOL     OW21254   4.784   1.472   4.465  0.3166 -0.1215 -1.0293
 6910SOL    HW121255   4.779   1.390   4.514 -1.4123  0.2148 -0.5907
 6910SOL    HW221256   4.805   1.444   4.376 -0.2486 -1.0508 -0.8915
 6911SOL     OW21257   7.308   4.038   0.098 -0.2516 -0.2440  0.2543
 6911SOL    HW121258   7.368   3.978   0.142 -0.6986 -1.7511 -1.0808
 6911SOL    HW221259   7.241   4.058   0.163  0.1893 -0.7898  0.8865
 6912SOL     OW21260   3.594   4.433   5.433 -0.5273  0.4425  0.3612
 6912SOL    HW121261   3.526   4.499   5.418 -0.1686  0.7425  0.0435
 6912SOL    HW221262   3.654   4.443   5.359 -0.3836 -0.1308  0.3984
 6913SOL     OW21263   0.690   3.949   7.175  0.2825  0.3816 -0.1433
 6913SOL    HW121264   0.759   3.913   7.231 -2.2922 -0.7768  2.5653
 6913SOL    HW221265   0.679   4.039   7.206  2.1617  1.4634 -2.3295
 6914SOL     OW21266   1.113   0.139   0.749  0.1257 -0.3363 -0.1017
 6914SOL    HW121267   1.085   0.059   0.792 -0.5638  0.2446  0.5497
 6914SOL    HW221268   1.053   0.149   0.675  1.2959 -1.3225 -1.2295
 6915SOL     OW21269   3.001   1.952   6.059  0.0256  0.2674  0.2957
 6915SOL    HW121270   2.916   1.924   6.025  1.9715 -2.2795 -3.1240
 6915SOL    HW221271   3.019   1.892   6.131 -0.0101 -0.9673 -0.6938
 6916SOL     OW21272   6.074   2.736   5.513 -0.1278  0.2227 -0.2316
 6916SOL    HW121273   6.006   2.672   5.536 -0.9540  0.5103 -1.7436
 6916SOL    HW221274   6.046   2.816   5.557 -0.0675  0.0086  0.2001
 6917SOL     OW21275   6.373   4.628   4.300 -0.1555 -0.2395 -0.2267
 6917SOL    HW121276   6.298   4.684   4.318 -0.9342 -1.6627  1.1478
 6917SOL    HW221277   6.439   4.654   4.363 -0.3200 -0.4714  0.0465
 6918SOL     OW21278   3.426   3.654   0.853  0.8177 -0.1588 -0.1842
 6918SOL    HW121279   3.514   3.686   0.830  1.3645  0.2112  2.1565
 6918SOL    HW221280   3.382   3.730   0.891 -0.2024 -0.5991 -0.4431
 6919SOL     OW21281   2.208   4.853   5.323 -0.2237 -0.2992 -0.1168
 6919SOL    HW121282   2.150   4.918   5.285 -0.2402 -0.5507 -0.5294
 6919SOL    HW221283   2.178   4.769   5.287 -1.3105 -0.7618  1.7320
 6920SOL     OW21284   0.295   0.662   5.950  1.0033  0.7163  0.0265
 6920SOL    HW121285   0.273   0.635   5.861  0.8618  0.1138  0.2392
 6920SOL    HW221286   0.390   0.670   5.950  1.0540  0.1788 -0.0369
 6921SOL     OW21287   0.123   7.507   3.985  0.7294 -0.3482 -0.3540
 6921SOL    HW121288   0.146   7.543   3.899 -1.1065 -0.6560 -1.0297
 6921SOL    HW221289   0.192   7.537   4.043  0.7634  1.8802 -1.4532
 6922SOL     OW21290   2.074   2.922   5.129 -0.2244 -0.1007 -0.1450
 6922SOL    HW121291   2.096   2.907   5.037 -0.1318  0.0056 -0.1404
 6922SOL    HW221292   1.983   2.951   5.129 -0.8425 -1.9071 -0.0582
 6923SOL     OW21293   3.471   2.595   4.718  0.1228  0.0730  0.0420
 6923SOL    HW121294   3.556   2.597   4.675 -0.0378  1.2186 -0.2477
 6923SOL    HW221295   3.409   2.622   4.651 -0.5248 -1.0305  0.1682
 6924SOL     OW21296   1.676   1.724   0.346  0.5946 -0.2968  0.5004
 6924SOL    HW121297   1.740   1.792   0.368 -0.2884  0.1777  1.6533
 6924SOL    HW221298   1.621   1.763   0.279  1.3119 -0.6117 -0.2999
 6925SOL     OW21299   4.773   1.406   5.952 -0.1615 -0.6523 -0.3754
 6925SOL    HW121300   4.854   1.371   5.988 -0.9814 -2.1724  0.0720
 6925SOL    HW221301   4.738   1.336   5.897 -0.8429  0.2245 -1.1060
 6926SOL     OW21302   4.979   2.630   2.621 -0.0642 -0.0010 -0.2519
 6926SOL    HW121303   5.051   2.609   2.680 -0.2050 -0.8077 -0.3538
 6926SOL    HW221304   5.018   2.629   2.534 -0.3322 -1.1444 -0.3708
 6927SOL     OW21305   6.619   7.142   5.406 -0.5902 -0.7109  0.8565
 6927SOL    HW121306   6.645   7.155   5.497 -2.3245  0.9113  1.1991
 6927SOL    HW221307   6.533   7.100   5.412  0.2590 -2.7550 -0.1337
 6928SOL     OW21308   1.127   7.560   4.386  0.5222  0.2528 -0.3032
 6928SOL    HW121309   1.184   7.636   4.392 -0.7206  1.0787  3.2927
 6928SOL    HW221310   1.038   7.595   4.399 -0.6751 -1.3225 -3.1508
 6929SOL     OW21311   4.459   5.651   6.238 -0.3426 -0.0563 -0.6466
 6929SOL    HW121312   4.461   5.746   6.238  0.1389 -0.0638 -0.4857
 6929SOL    HW221313   4.539   5.625   6.191 -0.7890 -0.3746 -1.2371
 6930SOL     OW21314   6.305   3.290   3.187  0.1590 -0.2079  0.3696
 6930SOL    HW121315   6.212   3.276   3.204  0.1204  1.8450  2.3400
 6930SOL    HW221316   6.349   3.243   3.258  0.3669  2.0306  1.8279
 6931SOL     OW21317   7.548   4.590   1.795  0.4132  0.3884 -0.7019
 6931SOL    HW121318   7.482   4.659   1.804  1.5222  1.4475 -0.5165
 6931SOL    HW221319   7.574   4.594   1.703  0.8154  0.5373 -0.5828
 6932SOL     OW21320   4.464   5.840   7.489  0.2032 -0.2083 -0.0780
 6932SOL    HW121321   4.515   5.919   7.471  0.1455  0.2676  1.6268
 6932SOL    HW221322   4.466   5.832   7.585 -2.5765 -0.3895  0.0547
 6933SOL     OW21323   1.448   3.982   3.532 -0.1935  0.1700  0.2874
 6933SOL    HW121324   1.430   4.064   3.578  0.3507  1.5018 -1.7282
 6933SOL    HW221325   1.522   3.944   3.579  0.9947  1.9796 -0.0110
 6934SOL     OW21326   0.339   2.095   3.603 -0.6053  0.5353 -0.5956
 6934SOL    HW121327   0.254   2.139   3.604  0.2609  2.3087 -0.9830
 6934SOL    HW221328   0.395   2.150   3.658  0.6103  0.0721 -1.3381
 6935SOL     OW21329   6.680   1.062   7.063 -0.1115 -0.1914 -0.7710
 6935SOL    HW121330   6.763   1.014   7.063 -0.4065 -0.7435 -1.8466
 6935SOL    HW221331   6.626   1.015   6.999 -0.2743  1.8141 -2.2039
 6936SOL     OW21332   2.297   5.820   1.986  0.0478 -0.4838  0.0546
 6936SOL    HW121333   2.255   5.734   1.989 -0.2596 -0.3641 -0.6141
 6936SOL    HW221334   2.303   5.847   2.077 -1.4102 -0.4758  0.1744
 6937SOL     OW21335   0.568   4.027   3.877  0.4251 -0.2330  0.1615
 6937SOL    HW121336   0.657   4.019   3.841 -0.3481  0.1912 -2.0026
 6937SOL    HW221337   0.527   4.094   3.822 -0.9499  0.2988  1.7682
 6938SOL     OW21338   7.126   2.895   1.738  0.2348  0.4722  0.2680
 6938SOL    HW121339   7.098   2.971   1.789  1.0679  0.8593  0.1545
 6938SOL    HW221340   7.213   2.919   1.705 -0.5878  0.5878 -2.0047
 6939SOL     OW21341   0.346   4.695   0.352  0.1340  0.1701  0.2779
 6939SOL    HW121342   0.337   4.778   0.398  1.3454 -0.8302  2.4897
 6939SOL    HW221343   0.421   4.652   0.394 -0.3928 -1.9960 -0.8329
 6940SOL     OW21344   7.266   3.216   1.785  0.0689  0.5794 -0.0318
 6940SOL    HW121345   7.259   3.308   1.811  0.5330  0.8337 -0.7533
 6940SOL    HW221346   7.237   3.167   1.861  2.0876  1.2654  1.2714
 6941SOL     OW21347   6.458   2.721   0.808 -0.3155  0.3288  0.0305
 6941SOL    HW121348   6.542   2.751   0.773  0.6587 -2.8412 -0.6901
 6941SOL    HW221349   6.482   2.663   0.881 -1.7012 -1.8808 -1.1666
 6942SOL     OW21350   4.704   0.004   5.079 -0.2840  0.1911  0.3475
 6942SOL    HW121351   4.624  -0.005   5.130 -1.3443  0.1704 -1.2494
 6942SOL    HW221352   4.699   0.093   5.043 -0.0691 -0.1378 -0.5198
 6943SOL     OW21353   3.551   5.349   4.884 -0.2552  0.2826 -0.2815
 6943SOL    HW121354   3.618   5.363   4.818 -0.0960  0.8781  0.0051
 6943SOL    HW221355   3.483   5.298   4.839  0.8128 -1.1716 -0.3123
 6944SOL     OW21356   6.642   1.653   6.649  0.4878 -0.4491  0.4734
 6944SOL    HW121357   6.732   1.654   6.617  0.7858  4.1080  0.7019
 6944SOL    HW221358   6.588   1.654   6.570  0.6881 -1.2814  0.3185
 6945SOL     OW21359   5.393   3.266   0.463  0.5749  0.1760 -0.3620
 6945SOL    HW121360   5.418   3.318   0.386 -2.4767  2.7556  0.1928
 6945SOL    HW221361   5.409   3.324   0.537 -0.2677 -0.7601  0.5724
 6946SOL     OW21362   2.550   0.333   4.804 -0.1327 -0.6491 -0.0443
 6946SOL    HW121363   2.604   0.407   4.776  1.4521 -2.0479 -0.8512
 6946SOL    HW221364   2.544   0.342   4.899 -0.9316  1.0978 -0.2147
 6947SOL     OW21365   6.032   2.037   5.790 -0.1331 -0.2691  0.4695
 6947SOL    HW121366   6.119   2.030   5.750  0.4627 -0.7100  1.8182
 6947SOL    HW221367   6.035   1.979   5.866 -0.2829  2.5948  2.8252
 6948SOL     OW21368   5.090   3.590   3.819  0.5670  0.4244  0.1656
 6948SOL    HW121369   5.101   3.638   3.901 -0.6306  0.2423  0.4509
 6948SOL    HW221370   5.003   3.616   3.788  0.4625 -0.5296 -0.3671
 6949SOL     OW21371   1.220   5.458   7.437  0.6872  0.2928 -0.1687
 6949SOL    HW121372   1.281   5.405   7.487 -0.6186 -0.2654  0.9085
 6949SOL    HW221373   1.216   5.416   7.351 -0.4478 -1.5430  0.7048
 6950SOL     OW21374   1.362   3.660   6.777  0.5061  0.2171  0.7296
 6950SOL    HW121375   1.414   3.648   6.856  1.1699  1.8882  0.5835
 6950SOL    HW221376   1.316   3.743   6.790 -0.7166 -0.3193  0.0694
 6951SOL     OW21377   2.414   1.979   5.723 -0.6902  0.3517  0.3394
 6951SOL    HW121378   2.340   2.037   5.740 -1.1745 -0.2015  0.1359
 6951SOL    HW221379   2.461   2.021   5.650 -1.0640  0.4655  0.1631
 6952SOL     OW21380   5.366   0.646   5.928 -0.0393 -0.8234  0.3908
 6952SOL    HW121381   5.363   0.596   6.009 -2.5028 -0.0144  0.9092
 6952SOL    HW221382   5.353   0.581   5.859  0.8955 -1.3739  0.7244
 6953SOL     OW21383   1.134   6.735   0.759 -0.1857  0.2606  0.1523
 6953SOL    HW121384   1.076   6.770   0.691  1.5608  1.7082 -0.7040
 6953SOL    HW221385   1.153   6.646   0.730 -1.2312  0.0915 -0.0414
 6954SOL     OW21386   4.992   6.024   7.430  0.5102  0.1488  0.4768
 6954SOL    HW121387   5.030   6.080   7.497 -1.8649 -0.9663  2.9498
 6954SOL    HW221388   4.988   5.938   7.470 -1.4103 -0.4811 -0.9206
 6955SOL     OW21389   6.570   2.969   6.555  0.1533 -0.3098  0.0427
 6955SOL    HW121390   6.517   2.902   6.512 -0.7474 -0.3571  1.1901
 6955SOL    HW221391   6.534   3.052   6.522  0.9748 -0.3574 -1.0308
 6956SOL     OW21392   3.983   3.882   1.727  0.2024  0.1456 -0.0527
 6956SOL    HW121393   3.900   3.837   1.743 -1.5424  2.6909 -1.2531
 6956SOL    HW221394   3.975   3.965   1.773  1.4403  1.0698 -1.3936
 6957SOL     OW21395   3.369   2.445   3.939 -0.0705 -0.0234 -0.5632
 6957SOL    HW121396   3.368   2.529   3.985  0.9080 -0.8903  1.1505
 6957SOL    HW221397   3.284   2.440   3.895 -1.0753  0.8995  1.1516
 6958SOL     OW21398   0.243   6.274   5.690  0.3053  0.5144  0.0911
 6958SOL    HW121399   0.294   6.312   5.620  0.9038  0.1493  0.3218
 6958SOL    HW221400   0.174   6.224   5.646 -0.6446  2.0304 -0.2154
 6959SOL     OW21401   3.069   6.992   0.508 -0.6207  0.1736  0.5096
 6959SOL    HW121402   3.007   6.930   0.547 -0.0458 -0.2262  0.8005
 6959SOL    HW221403   3.109   7.036   0.583 -0.6443  0.5177  0.3182
 6960SOL     OW21404   1.605   7.005   7.087  0.0383  0.6224 -0.4964
 6960SOL    HW121405   1.672   7.063   7.124 -0.2885  0.8836 -0.2967
 6960SOL    HW221406   1.527   7.061   7.081 -0.7890 -0.2374  1.3728
 6961SOL     OW21407   3.131   4.294   2.544 -0.8019 -0.0755  0.2182
 6961SOL    HW121408   3.223   4.277   2.527 -0.7495 -0.9951  1.3217
 6961SOL    HW221409   3.118   4.268   2.635 -2.0450  0.4960  0.2265
 6962SOL     OW21410   0.039   0.360   2.040 -0.0933 -0.3188  0.2598
 6962SOL    HW121411  -0.027   0.386   1.977 -0.9761 -0.8171  0.9544
 6962SOL    HW221412  -0.010   0.315   2.109  0.8922 -0.1200  1.1125
 6963SOL     OW21413   4.041   5.382   7.114 -0.2312  0.0621  0.2589
 6963SOL    HW121414   4.071   5.456   7.061 -0.4438  0.2726  0.4310
 6963SOL    HW221415   4.105   5.375   7.185 -0.3162  0.2001  0.3488
 6964SOL     OW21416   7.012   3.448   3.265  0.4581 -0.5575  0.7436
 6964SOL    HW121417   7.083   3.469   3.326  0.2785  0.9868  0.4797
 6964SOL    HW221418   6.933   3.477   3.310  0.2944  0.3114 -0.0636
 6965SOL     OW21419   6.586   1.014   6.580  0.0928  0.2029  0.5271
 6965SOL    HW121420   6.677   1.025   6.605 -0.1443  1.0203  1.0780
 6965SOL    HW221421   6.548   0.961   6.651 -0.0454  0.5653  0.7279
 6966SOL     OW21422   5.754   2.806   4.475  0.5056  0.1459  0.4417
 6966SOL    HW121423   5.731   2.879   4.417 -0.2502 -0.2356  0.2536
 6966SOL    HW221424   5.683   2.801   4.539 -0.3602 -1.4853 -0.5704
 6967SOL     OW21425   3.893   3.230   4.454 -0.3321  0.1190  0.5963
 6967SOL    HW121426   3.807   3.233   4.496  0.1018 -0.2865  1.5246
 6967SOL    HW221427   3.952   3.271   4.517  0.5324 -1.5204  0.8885
 6968SOL     OW21428   7.466   7.424   5.362  0.0621  0.3447  0.5803
 6968SOL    HW121429   7.516   7.407   5.282 -1.4954 -0.4659 -0.2514
 6968SOL    HW221430   7.451   7.519   5.360  2.0709  0.7336  1.2003
 6969SOL     OW21431   6.963   3.017   4.708  0.0217  0.0330 -0.3540
 6969SOL    HW121432   7.000   3.053   4.788  1.2475 -0.8303 -0.4999
 6969SOL    HW221433   6.979   3.084   4.641 -1.7103  1.1039  0.2310
 6970SOL     OW21434   1.976   1.672   1.455  0.5716  0.2306 -0.3846
 6970SOL    HW121435   2.005   1.584   1.431  0.2203  0.0765 -0.2524
 6970SOL    HW221436   2.057   1.722   1.465  0.8292 -0.3452  0.5658
 6971SOL     OW21437   1.163   2.978   2.291  0.2999  0.1513 -0.0613
 6971SOL    HW121438   1.178   2.888   2.320 -1.0238 -0.3036 -0.7416
 6971SOL    HW221439   1.171   2.975   2.196  0.7643  0.8623 -0.0497
 6972SOL     OW21440   0.516   5.931   1.441  0.3767  0.3645  0.2299
 6972SOL    HW121441   0.595   5.961   1.396  0.0686  0.9454  0.0653
 6972SOL    HW221442   0.546   5.861   1.499  0.9419  0.2970 -0.1381
 6973SOL     OW21443   6.061   6.188   0.696  0.2142 -0.2335 -0.1845
 6973SOL    HW121444   6.103   6.110   0.661 -1.5906 -1.3169 -0.0552
 6973SOL    HW221445   6.084   6.188   0.789  0.9155 -0.1163 -0.3504
 6974SOL     OW21446   2.596   1.144   1.870 -0.2088  0.5135  0.0725
 6974SOL    HW121447   2.680   1.191   1.871 -0.0955  0.3505 -0.6263
 6974SOL    HW221448   2.602   1.089   1.792  0.0896 -1.4850  1.4534
 6975SOL     OW21449   2.254   1.823   5.537  0.0506 -0.0925  0.2044
 6975SOL    HW121450   2.202   1.767   5.594  0.6106 -0.5355  0.2989
 6975SOL    HW221451   2.312   1.871   5.597 -0.9769  1.2021  0.1913
 6976SOL     OW21452   0.087   6.287   4.099 -0.1982 -0.0841  0.3329
 6976SOL    HW121453   0.083   6.363   4.041  2.4184 -0.8587 -1.0382
 6976SOL    HW221454   0.169   6.299   4.147 -1.2715 -0.5453  2.4054
 6977SOL     OW21455   0.868   3.181   1.703 -0.8916 -0.0477 -0.1802
 6977SOL    HW121456   0.777   3.173   1.731 -1.2816  0.6674 -1.1783
 6977SOL    HW221457   0.919   3.183   1.784 -1.8657  0.6486  0.4236
 6978SOL     OW21458   5.333   2.687   3.264 -0.7685  0.2169  0.2274
 6978SOL    HW121459   5.394   2.677   3.336 -1.4272  1.4568  0.9800
 6978SOL    HW221460   5.264   2.622   3.281  1.2519 -2.6944 -1.7293
 6979SOL     OW21461   2.433   2.210   5.547  0.4937  0.2861 -0.1248
 6979SOL    HW121462   2.475   2.263   5.615 -2.2683  1.1054  1.0709
 6979SOL    HW221463   2.454   2.255   5.465  1.8924  0.6455  0.4070
 6980SOL     OW21464   5.723   1.033   3.668 -0.0139 -0.6586  0.1545
 6980SOL    HW121465   5.793   1.028   3.733 -0.5445  1.2013  0.9217
 6980SOL    HW221466   5.659   1.094   3.706 -2.1653 -2.4311 -0.4349
 6981SOL     OW21467   7.374   5.007   4.927 -0.5524  0.0580 -0.0969
 6981SOL    HW121468   7.372   4.977   5.018  0.4491 -2.3773 -0.7736
 6981SOL    HW221469   7.309   5.076   4.922 -1.0364 -0.1486  2.3347
 6982SOL     OW21470   0.139   1.192   3.004  0.5798 -0.0934  0.0006
 6982SOL    HW121471   0.219   1.244   2.995 -0.1130  0.8999 -0.5651
 6982SOL    HW221472   0.109   1.178   2.915 -1.2158  1.6868  0.2598
 6983SOL     OW21473   7.413   1.165   3.332  0.4987 -0.6074  0.4988
 6983SOL    HW121474   7.343   1.159   3.397  0.9859 -0.8314  1.0019
 6983SOL    HW221475   7.440   1.074   3.317 -0.2366 -0.6553 -0.7140
 6984SOL     OW21476   2.457   5.976   7.042  0.0487  0.8542 -0.0378
 6984SOL    HW121477   2.386   6.032   7.010 -0.7072 -0.2107 -0.2781
 6984SOL    HW221478   2.531   5.996   6.984 -0.2147  1.5802 -0.1296
 6985SOL     OW21479   5.080   2.048   5.972  0.1322  0.5203 -0.6603
 6985SOL    HW121480   5.144   1.994   6.018  1.0975 -0.2475 -2.7554
 6985SOL    HW221481   5.073   2.127   6.025  2.0587  0.1966  0.1879
 6986SOL     OW21482   7.120   2.547   1.497  0.3864 -0.2472  0.2023
 6986SOL    HW121483   7.057   2.514   1.433 -1.2819  0.6922  1.2883
 6986SOL    HW221484   7.107   2.493   1.574  0.1332  0.6455  0.7978
 6987SOL     OW21485   0.525   6.776   1.178  0.2140  0.0445  0.0707
 6987SOL    HW121486   0.586   6.737   1.114 -0.3668 -2.6626  1.0467
 6987SOL    HW221487   0.439   6.763   1.139 -0.0863 -0.9302  1.0256
 6988SOL     OW21488   1.774   2.692   0.211  0.1130 -0.2686 -0.1629
 6988SOL    HW121489   1.800   2.612   0.256 -0.5618  0.0162  0.7711
 6988SOL    HW221490   1.743   2.750   0.281 -0.8067  0.2562 -0.9743
 6989SOL     OW21491   0.749   6.008   1.341 -0.3791 -0.1490  0.0866
 6989SOL    HW121492   0.756   6.069   1.267  2.2414 -0.5795 -0.1325
 6989SOL    HW221493   0.819   5.944   1.325 -0.6369 -1.0391  2.2326
 6990SOL     OW21494   4.326   1.642   1.893  0.1355 -0.2782  0.2423
 6990SOL    HW121495   4.410   1.618   1.854 -1.1114 -1.2519 -2.0091
 6990SOL    HW221496   4.303   1.568   1.949 -0.4714 -1.3248 -1.3212
 6991SOL     OW21497   3.533   7.304   2.090  0.0068 -0.0497  0.1008
 6991SOL    HW121498   3.460   7.258   2.133 -0.6662  1.8617  1.1033
 6991SOL    HW221499   3.494   7.345   2.014  0.0297  0.9509  0.6201
 6992SOL     OW21500   6.642   0.470   1.240 -0.2819 -0.2610 -0.3654
 6992SOL    HW121501   6.642   0.394   1.297 -0.6429  0.0506  0.0513
 6992SOL    HW221502   6.554   0.473   1.203  0.1874 -0.9676 -1.6390
 6993SOL     OW21503   0.144   3.739   3.905  0.6372 -0.0595 -0.2989
 6993SOL    HW121504   0.161   3.681   3.980  0.5694  0.8971  0.4743
 6993SOL    HW221505   0.090   3.686   3.846 -0.2445 -0.4643  0.8364
 6994SOL     OW21506   6.018   5.856   4.519  0.1870  0.3509 -0.0351
 6994SOL    HW121507   5.925   5.876   4.513 -0.2605 -1.2247  0.9838
 6994SOL    HW221508   6.042   5.876   4.609  1.0562  1.4937 -0.4933
 6995SOL     OW21509   6.008   6.493   1.528 -0.4317 -0.6222 -0.7134
 6995SOL    HW121510   6.100   6.492   1.504  0.2030 -0.3979  1.5676
 6995SOL    HW221511   5.965   6.443   1.458  1.3368 -0.4686 -1.9733
 6996SOL     OW21512   3.038   0.067   5.702  0.2204 -0.5016  0.1400
 6996SOL    HW121513   3.066  -0.011   5.654  1.1745 -0.0462 -0.0662
 6996SOL    HW221514   3.117   0.120   5.711 -0.6207  1.0387 -0.8158
 6997SOL     OW21515   3.409   1.528   7.555 -0.0964 -0.4998  0.1301
 6997SOL    HW121516   3.446   1.614   7.536  0.8304 -1.1290 -1.0062
 6997SOL    HW221517   3.328   1.546   7.604 -1.2911  1.1121 -2.2844
 6998SOL     OW21518   7.540   1.987   2.513 -0.0092 -0.4424 -0.6128
 6998SOL    HW121519   7.533   1.998   2.418 -0.6983  0.0448 -0.5143
 6998SOL    HW221520   7.491   2.062   2.549  0.2654 -0.6110  0.1238
 6999SOL     OW21521   2.202   5.788   4.437 -0.4209 -0.6667  0.0482
 6999SOL    HW121522   2.168   5.699   4.428 -0.2317 -0.6766 -0.5689
 6999SOL    HW221523   2.181   5.831   4.354  0.0076 -0.3131  0.1169
 7000SOL     OW21524   0.515   4.557   4.883 -0.1428 -0.2483 -0.6246
 7000SOL    HW121525   0.594   4.506   4.866 -1.8236 -3.0447 -0.7895
 7000SOL    HW221526   0.505   4.613   4.806  2.1786  1.0093 -0.1098
 7001SOL     OW21527   5.352   4.382   2.130 -0.1438 -0.3029 -0.4702
 7001SOL    HW121528   5.347   4.456   2.191  0.1244 -0.0098 -0.8008
 7001SOL    HW221529   5.330   4.305   2.183 -1.8827  0.1717 -0.4319
 7002SOL     OW21530   1.892   0.476   7.327  0.3506 -0.2306  0.3734
 7002SOL    HW121531   1.843   0.421   7.266  0.9444  0.7079 -0.9940
 7002SOL    HW221532   1.835   0.552   7.342  0.1255 -0.5428  1.1591
 7003SOL     OW21533   1.415   2.583   5.260  0.6489  0.9245  0.8084
 7003SOL    HW121534   1.363   2.647   5.308  0.9866  1.1926  0.8224
 7003SOL    HW221535   1.496   2.629   5.239  1.0438  0.3911  1.1264
 7004SOL     OW21536   5.841   7.073   3.017 -0.1266 -0.3786  0.9787
 7004SOL    HW121537   5.919   7.095   3.068 -1.3134  1.3329  2.1654
 7004SOL    HW221538   5.868   7.082   2.926  1.1104 -0.0562  1.3602
 7005SOL     OW21539   3.434   6.569   3.598  0.5545 -0.6707  0.2310
 7005SOL    HW121540   3.370   6.497   3.599 -0.6148  0.2785 -1.2346
 7005SOL    HW221541   3.419   6.612   3.514  0.3744  2.0410  1.5581
 7006SOL     OW21542   2.644   2.473   3.305  0.5720 -0.5561  0.7551
 7006SOL    HW121543   2.622   2.381   3.319 -0.8672 -0.0425  2.2333
 7006SOL    HW221544   2.700   2.496   3.379  3.3641 -0.9114 -1.1027
 7007SOL     OW21545   7.127   0.154   0.121  0.3024 -0.6276 -0.0761
 7007SOL    HW121546   7.169   0.091   0.062 -0.7027 -1.1535 -0.2580
 7007SOL    HW221547   7.199   0.209   0.152  1.0024 -0.9770 -1.0078
 7008SOL     OW21548   6.870   2.635   2.368  0.1729 -0.4860 -0.2081
 7008SOL    HW121549   6.902   2.671   2.451  1.0930  1.4265 -1.3363
 7008SOL    HW221550   6.934   2.567   2.346  0.2895 -0.5538  0.3242
 7009SOL     OW21551   7.464   0.986   4.173 -0.5364  0.4206  0.1500
 7009SOL    HW121552   7.556   0.981   4.201 -0.0960 -0.1760 -1.3097
 7009SOL    HW221553   7.455   1.074   4.137 -0.7029  0.6730  0.7914
 7010SOL     OW21554   6.649   1.156   2.691  0.2327 -0.1270 -0.3607
 7010SOL    HW121555   6.740   1.174   2.712 -0.4641  0.5428  2.4893
 7010SOL    HW221556   6.613   1.240   2.663  0.4048 -0.3302 -1.2112
 7011SOL     OW21557   5.686   0.207   3.600 -0.0626 -0.1510 -0.0187
 7011SOL    HW121558   5.603   0.209   3.553 -0.8475  1.2549  1.3344
 7011SOL    HW221559   5.745   0.260   3.546 -0.7727  0.9381  0.2471
 7012SOL     OW21560   2.776   1.631   3.275 -0.3452  0.0213  0.6056
 7012SOL    HW121561   2.794   1.603   3.364  1.4210  1.4707  0.7513
 7012SOL    HW221562   2.720   1.707   3.284  1.1313  1.1545  0.6094
 7013SOL     OW21563   5.767   0.403   0.890 -0.0724  0.4059  0.3378
 7013SOL    HW121564   5.787   0.401   0.796 -1.4265  0.4755  0.0281
 7013SOL    HW221565   5.835   0.349   0.930  0.3389  0.1084 -0.7235
 7014SOL     OW21566   5.069   3.319   5.581  0.4039  0.0174 -0.3594
 7014SOL    HW121567   5.001   3.278   5.634  0.1583  0.7374 -0.1112
 7014SOL    HW221568   5.071   3.411   5.610  1.7691 -0.0793 -0.0503
 7015SOL     OW21569   0.636   5.612   3.558 -0.2006 -0.2660  0.0691
 7015SOL    HW121570   0.643   5.542   3.623 -0.0569  0.6796  1.0934
 7015SOL    HW221571   0.688   5.684   3.593 -2.9513  1.5938  0.7134
 7016SOL     OW21572   7.001   1.083   1.641  0.2396  0.3567  0.7511
 7016SOL    HW121573   7.018   0.991   1.664 -2.2556 -0.1585  0.8148
 7016SOL    HW221574   6.946   1.079   1.563  0.0124  1.8068  0.8069
 7017SOL     OW21575   0.721   7.444   2.034  0.0759  0.0435  0.1807
 7017SOL    HW121576   0.790   7.415   1.975  0.8097 -3.1968  2.3286
 7017SOL    HW221577   0.767   7.491   2.103 -0.0178 -0.7327  0.7931
 7018SOL     OW21578   4.644   4.200   5.391 -0.0599 -0.2022  0.0106
 7018SOL    HW121579   4.670   4.162   5.475 -1.6492 -1.2223  0.0869
 7018SOL    HW221580   4.717   4.181   5.332  0.1311 -1.4557  0.6219
 7019SOL     OW21581   2.162   1.846   1.877  0.2196  0.4112  0.4353
 7019SOL    HW121582   2.091   1.905   1.851  0.6496  0.8866  0.3135
 7019SOL    HW221583   2.119   1.762   1.894 -0.3064  0.5701 -0.0739
 7020SOL     OW21584   1.543   0.683   1.672  0.4209 -0.1598 -0.0922
 7020SOL    HW121585   1.605   0.694   1.744  0.3878 -1.1130  0.0934
 7020SOL    HW221586   1.459   0.664   1.714  0.4070 -0.7596 -0.3753
 7021SOL     OW21587   1.355   7.447   6.563  0.3674 -0.1582  0.0088
 7021SOL    HW121588   1.336   7.455   6.656 -0.0058  0.4473 -0.1174
 7021SOL    HW221589   1.412   7.521   6.544  1.1538 -0.7631 -0.0685
 7022SOL     OW21590   2.692   6.508   0.096 -0.6981 -0.3552 -0.2449
 7022SOL    HW121591   2.765   6.552   0.052 -0.0180 -1.6638 -0.4638
 7022SOL    HW221592   2.681   6.426   0.048 -1.6089 -0.6619  0.4655
 7023SOL     OW21593   3.522   6.613   5.830  0.5438 -0.4882  0.1238
 7023SOL    HW121594   3.446   6.657   5.868  0.7308  0.1993 -0.2723
 7023SOL    HW221595   3.491   6.578   5.747  0.0928 -2.1292  0.9512
 7024SOL     OW21596   6.283   2.569   2.412 -0.4727  0.5100 -0.1379
 7024SOL    HW121597   6.209   2.608   2.459 -0.7985  1.4770 -1.4036
 7024SOL    HW221598   6.291   2.481   2.448 -1.7796  0.6430  0.5218
 7025SOL     OW21599   2.314   7.166   5.791  0.1130  0.1632 -0.1644
 7025SOL    HW121600   2.297   7.246   5.841  1.3308 -0.2293  0.9249
 7025SOL    HW221601   2.229   7.121   5.790 -0.6599  1.5537 -1.0229
 7026SOL     OW21602   5.026   2.184   5.535 -0.1465 -0.3137  0.5300
 7026SOL    HW121603   4.978   2.154   5.458  0.5635  0.7351 -0.3524
 7026SOL    HW221604   5.103   2.126   5.540  0.1058 -0.0189  0.1049
 7027SOL     OW21605   0.604   0.164   5.479  0.2450 -0.4340  0.2942
 7027SOL    HW121606   0.686   0.161   5.430  0.8220  0.3269  1.1931
 7027SOL    HW221607   0.625   0.212   5.559 -1.5187  1.4499 -0.2977
 7028SOL     OW21608   2.130   2.040   3.797 -0.0286  0.0935 -0.0238
 7028SOL    HW121609   2.204   2.024   3.738 -0.1870  0.2500 -0.2633
 7028SOL    HW221610   2.082   2.112   3.757 -0.2377  0.0809  0.2025
 7029SOL     OW21611   4.033   3.137   4.230  1.0026 -0.1405 -0.7648
 7029SOL    HW121612   4.003   3.050   4.203  2.4420 -1.4260  1.4102
 7029SOL    HW221613   3.972   3.163   4.300  0.9122  0.3621 -1.0243
 7030SOL     OW21614   5.010   0.137   5.554 -0.3151  0.0686 -0.2893
 7030SOL    HW121615   4.916   0.153   5.542 -0.4908 -0.0629  0.8026
 7030SOL    HW221616   5.042   0.214   5.599  0.1729  0.2400 -0.9179
 7031SOL     OW21617   6.311   4.608   3.092  0.3057 -0.0065  0.3873
 7031SOL    HW121618   6.362   4.539   3.136 -1.1551  0.0236  2.3073
 7031SOL    HW221619   6.293   4.573   3.005  0.8130 -1.4509  0.8257
 7032SOL     OW21620   0.338   7.342   1.259 -0.0731  0.6030  0.5965
 7032SOL    HW121621   0.403   7.277   1.230  0.1455  1.5450 -1.1682
 7032SOL    HW221622   0.291   7.299   1.330  1.2553 -0.8046  0.6755
 7033SOL     OW21623   0.505   5.103   6.698  0.1601  0.4159  0.6109
 7033SOL    HW121624   0.598   5.125   6.703  0.6136 -0.9920 -0.9252
 7033SOL    HW221625   0.473   5.150   6.622  0.6672 -2.3431 -1.4557
 7034SOL     OW21626   3.756   2.337   1.471  0.5199 -0.0881 -0.0818
 7034SOL    HW121627   3.784   2.255   1.431 -0.2743 -0.7538  0.6603
 7034SOL    HW221628   3.818   2.402   1.440  1.6272 -1.1165 -0.0939
 7035SOL     OW21629   3.269   7.140   7.177  0.0983 -0.1279 -0.3157
 7035SOL    HW121630   3.341   7.104   7.229  0.6386  2.0565  0.5720
 7035SOL    HW221631   3.214   7.186   7.240  0.1823  1.6869 -1.5021
 7036SOL     OW21632   2.980   0.470   0.471 -0.7219  0.1279  0.6341
 7036SOL    HW121633   2.932   0.407   0.525 -0.9002 -0.3146 -0.0348
 7036SOL    HW221634   3.013   0.418   0.398  0.2336  0.5576  0.7494
 7037SOL     OW21635   6.217   5.416   1.492  0.2484  0.2077  0.1024
 7037SOL    HW121636   6.212   5.496   1.543  1.4244 -0.3331  1.1240
 7037SOL    HW221637   6.133   5.410   1.447 -1.0612  0.4353  2.4112
 7038SOL     OW21638   0.890   1.879   4.112  0.2222  0.0736  0.3061
 7038SOL    HW121639   0.829   1.821   4.065 -0.4135  0.6530  0.4106
 7038SOL    HW221640   0.976   1.840   4.097 -0.2745 -1.4088  1.0991
 7039SOL     OW21641   5.936   1.681   3.504  0.2727 -0.2029  0.6033
 7039SOL    HW121642   5.852   1.715   3.473  1.0244  1.9072  0.7443
 7039SOL    HW221643   5.924   1.668   3.598  0.3142  0.8798  0.7715
 7040SOL     OW21644   5.472   0.815   1.686 -0.1265  0.2053 -0.4670
 7040SOL    HW121645   5.420   0.769   1.620  0.9803  0.8237 -1.8176
 7040SOL    HW221646   5.537   0.750   1.715  0.0789  0.2525 -0.8081
 7041SOL     OW21647   1.655   3.085   1.645  0.1712 -0.5147 -0.0030
 7041SOL    HW121648   1.645   3.010   1.586  0.3682 -0.6586  0.1410
 7041SOL    HW221649   1.589   3.072   1.713 -1.6339  0.8614 -1.4069
 7042SOL     OW21650   5.170   3.400   7.023 -0.4139  0.2301  0.7224
 7042SOL    HW121651   5.089   3.450   7.011 -0.5853 -0.0686  0.6306
 7042SOL    HW221652   5.161   3.325   6.964  1.5709  2.1379 -2.2663
 7043SOL     OW21653   0.481   6.796   4.407 -0.0746  0.1919  0.0527
 7043SOL    HW121654   0.514   6.863   4.466 -1.6106 -0.2561  1.4968
 7043SOL    HW221655   0.414   6.839   4.355  0.2849  0.2385 -0.3767
 7044SOL     OW21656   1.978   1.085   5.415 -0.4661 -0.4126 -0.1021
 7044SOL    HW121657   1.951   1.133   5.493  0.8397 -1.8155  1.2880
 7044SOL    HW221658   2.051   1.137   5.379 -1.0450  0.2176 -0.3798
 7045SOL     OW21659   0.302   4.833   5.013 -0.6196  0.2339 -0.2845
 7045SOL    HW121660   0.356   4.867   5.085 -2.4468  1.4784  0.5658
 7045SOL    HW221661   0.212   4.850   5.041 -1.4120 -0.2301 -2.4206
 7046SOL     OW21662   6.297   2.191   1.595  0.2560 -0.0587  0.2759
 7046SOL    HW121663   6.287   2.281   1.628 -0.9293  0.4507 -1.3226
 7046SOL    HW221664   6.378   2.193   1.545  0.2073  0.1460  0.2033
 7047SOL     OW21665   1.853   2.585   4.938 -0.0428  0.1966 -0.0235
 7047SOL    HW121666   1.948   2.576   4.932 -0.0889 -0.7417  0.4944
 7047SOL    HW221667   1.835   2.584   5.032 -0.6550 -0.7446 -0.1349
 7048SOL     OW21668   3.116   7.528   0.008 -0.2107  0.0494  0.7296
 7048SOL    HW121669   3.046   7.543   0.071  0.0465 -1.2968  1.3735
 7048SOL    HW221670   3.071   7.516  -0.076 -0.6311  0.6693  0.8614
 7049SOL     OW21671   4.815   7.453   4.867  0.2730  0.6487 -0.5564
 7049SOL    HW121672   4.750   7.432   4.800 -0.4027  1.7250 -0.2694
 7049SOL    HW221673   4.764   7.475   4.945  1.0267  0.2860  0.0613
 7050SOL     OW21674   1.841   1.150   0.811  0.1667  0.6866 -0.5040
 7050SOL    HW121675   1.823   1.242   0.830 -0.4079  0.5145 -0.1941
 7050SOL    HW221676   1.937   1.144   0.811  0.2117  0.9831  1.0305
 7051SOL     OW21677   2.542   5.372   7.295  0.3005  0.4991 -0.5812
 7051SOL    HW121678   2.552   5.454   7.344 -0.4416  0.0984  0.2799
 7051SOL    HW221679   2.506   5.310   7.359  0.4831 -0.3922 -1.3192
 7052SOL     OW21680   6.891   1.701   1.099 -0.0838 -0.1431 -0.1891
 7052SOL    HW121681   6.866   1.789   1.070 -2.1515 -0.8264 -0.6407
 7052SOL    HW221682   6.905   1.652   1.018  0.3607 -0.4183  0.0538
 7053SOL     OW21683   1.913   1.324   6.604  0.1276 -0.2426  0.0571
 7053SOL    HW121684   1.924   1.304   6.511  0.5720  0.1267  0.0256
 7053SOL    HW221685   1.989   1.286   6.647 -0.3706 -0.9208  0.3545
 7054SOL     OW21686   5.927   1.526   1.067  0.9449  0.0324  0.0540
 7054SOL    HW121687   5.951   1.555   1.155 -0.2985  3.5533 -0.5801
 7054SOL    HW221688   5.857   1.462   1.080  1.2355  0.0100  1.6296
 7055SOL     OW21689   6.405   3.858   6.512 -0.0350 -0.0313 -0.3854
 7055SOL    HW121690   6.356   3.779   6.532  0.4293  0.0434  1.2001
 7055SOL    HW221691   6.347   3.909   6.455 -0.8034 -0.9789 -0.4690
 7056SOL     OW21692   7.561   3.041   0.107  0.4249  0.1146  0.8773
 7056SOL    HW121693   7.567   2.972   0.041  0.5519  0.0440  0.9625
 7056SOL    HW221694   7.506   3.108   0.066 -0.7400 -0.5809  1.2675
 7057SOL     OW21695   6.418   0.250   4.742 -0.4991  0.2682  0.3957
 7057SOL    HW121696   6.340   0.206   4.776  1.0517 -1.9557  1.3985
 7057SOL    HW221697   6.465   0.280   4.820 -0.8279  2.5866 -0.2337
 7058SOL     OW21698   1.513   1.912   7.439 -0.2741  0.2703  0.4062
 7058SOL    HW121699   1.578   1.975   7.471 -0.4470  0.4751  0.3539
 7058SOL    HW221700   1.551   1.878   7.358 -1.5382  2.6065 -1.2922
 7059SOL     OW21701   1.418   1.935   7.060  0.4034  0.4431 -0.6397
 7059SOL    HW121702   1.430   2.022   7.097 -0.2364  1.0104 -1.7082
 7059SOL    HW221703   1.467   1.937   6.977  0.5794 -0.2935 -0.5620
 7060SOL     OW21704   0.904   2.974   0.405 -0.0691  0.3119 -0.3160
 7060SOL    HW121705   0.954   2.902   0.444  0.2770 -0.0631 -1.4101
 7060SOL    HW221706   0.849   2.932   0.339 -1.0480  0.8598  0.1260
 7061SOL     OW21707   4.813   1.315   5.066 -0.2927  0.4137  0.0597
 7061SOL    HW121708   4.837   1.369   4.991 -3.3238  0.0089 -1.3294
 7061SOL    HW221709   4.748   1.367   5.113  1.2695  0.5014  2.2852
 7062SOL     OW21710   1.231   5.292   5.599  0.0018 -0.4989  0.5441
 7062SOL    HW121711   1.139   5.266   5.588  0.7253 -3.1454 -0.0305
 7062SOL    HW221712   1.247   5.284   5.693 -0.1422 -0.9146  0.5359
 7063SOL     OW21713   5.624   3.642   0.684 -0.0934 -0.3043  0.3359
 7063SOL    HW121714   5.669   3.594   0.753 -2.1194  0.3246  2.1925
 7063SOL    HW221715   5.656   3.732   0.693 -0.5632 -0.1665  0.6479
 7064SOL     OW21716   2.109   4.452   5.846 -0.3548 -0.1338 -0.1544
 7064SOL    HW121717   2.118   4.375   5.790  2.2057  0.9927 -1.5007
 7064SOL    HW221718   2.163   4.519   5.803 -2.0956  2.2906  1.1882
 7065SOL     OW21719   1.891   1.177   7.278 -0.2741 -0.1842  0.3207
 7065SOL    HW121720   1.826   1.202   7.213  0.4519  0.3115 -0.2417
 7065SOL    HW221721   1.897   1.082   7.270 -0.6153 -0.1857  0.0730
 7066SOL     OW21722   7.004   7.359   4.044 -0.4846  0.6971  0.1898
 7066SOL    HW121723   7.087   7.397   4.017 -0.1876  0.9640  1.4189
 7066SOL    HW221724   6.948   7.434   4.064 -1.2778  0.5355 -1.3110
 7067SOL     OW21725   5.252   0.920   4.093 -0.3977 -0.0411  0.2170
 7067SOL    HW121726   5.247   0.860   4.019  1.6118  0.4778 -0.4166
 7067SOL    HW221727   5.212   1.001   4.062  0.1758  0.0804 -0.2352
 7068SOL     OW21728   0.613   2.290   3.015  0.0333 -0.2647 -0.5279
 7068SOL    HW121729   0.589   2.337   3.095  0.7637 -0.4190 -0.2068
 7068SOL    HW221730   0.699   2.325   2.992 -0.3565  0.0802 -1.4950
 7069SOL     OW21731   1.745   4.725   4.607 -0.0619  0.0638  0.2783
 7069SOL    HW121732   1.672   4.706   4.665  1.0233 -0.8431  1.4110
 7069SOL    HW221733   1.812   4.660   4.630  0.2592 -0.6287 -2.3165
 7070SOL     OW21734   5.362   3.832   0.726  0.1833 -0.2721 -0.3780
 7070SOL    HW121735   5.328   3.852   0.813 -3.3941 -3.2407 -0.8723
 7070SOL    HW221736   5.420   3.757   0.739 -1.0093 -1.2590 -0.5564
 7071SOL     OW21737   0.033   0.900   5.470  0.3661  0.5192 -0.0853
 7071SOL    HW121738  -0.044   0.956   5.485  0.8350  1.2879 -0.4697
 7071SOL    HW221739   0.013   0.853   5.390 -0.3861 -0.5026  0.6832
 7072SOL     OW21740   0.664   7.152   4.920  0.0954  0.1764 -0.5379
 7072SOL    HW121741   0.605   7.107   4.859  2.6167 -3.1107 -0.8717
 7072SOL    HW221742   0.635   7.124   5.006 -1.8538  2.7303 -0.2590
 7073SOL     OW21743   2.050   7.072   4.201  0.0645 -0.1833  0.0095
 7073SOL    HW121744   2.060   6.993   4.148  1.1566 -0.2075  0.2094
 7073SOL    HW221745   2.005   7.134   4.144 -0.8538 -0.9592 -0.1307
 7074SOL     OW21746   4.717   0.547   7.249  0.7478 -0.4935  0.2595
 7074SOL    HW121747   4.802   0.593   7.246  1.1479 -1.2658 -1.1104
 7074SOL    HW221748   4.732   0.467   7.199 -0.9137 -0.4375 -0.3840
 7075SOL     OW21749   1.063   2.583   2.995  0.2576 -0.4355 -0.9087
 7075SOL    HW121750   1.139   2.595   2.938  0.1484  0.5226 -0.8722
 7075SOL    HW221751   1.079   2.643   3.068 -0.1280 -0.8593 -0.4739
 7076SOL     OW21752   6.355   4.676   3.759 -0.0571 -0.5247 -0.1430
 7076SOL    HW121753   6.384   4.585   3.772  3.4957  0.5835  0.9491
 7076SOL    HW221754   6.419   4.713   3.699 -2.2319  0.9973 -1.6688
 7077SOL     OW21755   2.258   3.410   0.724 -0.0224 -0.4515  0.3827
 7077SOL    HW121756   2.235   3.406   0.631 -1.3100 -1.5671  0.7114
 7077SOL    HW221757   2.352   3.427   0.725  0.0010 -0.3458 -1.1171
 7078SOL     OW21758   6.025   2.128   3.050  0.0727 -0.0390  0.1684
 7078SOL    HW121759   6.047   2.057   3.110  0.4280 -1.1372 -1.2249
 7078SOL    HW221760   5.983   2.085   2.976  1.8900  0.9723 -1.5305
 7079SOL     OW21761   5.808   6.639   0.639  0.0546  0.0056 -0.6727
 7079SOL    HW121762   5.730   6.583   0.636 -0.2352  0.4032 -0.6626
 7079SOL    HW221763   5.879   6.580   0.663 -0.2810 -0.3245 -0.4790
 7080SOL     OW21764   2.484   4.835   1.160  0.3608 -0.0678 -0.1204
 7080SOL    HW121765   2.518   4.747   1.174 -1.1479 -0.9696 -1.7010
 7080SOL    HW221766   2.536   4.869   1.086  1.6926  0.8641  1.1748
 7081SOL     OW21767   3.761   3.821   1.534  0.1025 -0.7949 -0.1481
 7081SOL    HW121768   3.713   3.740   1.518 -0.3664 -0.3081 -1.3389
 7081SOL    HW221769   3.848   3.805   1.499  0.3743 -1.1766  0.6842
 7082SOL     OW21770   2.902   2.714   0.501  0.3356 -0.9064  0.4059
 7082SOL    HW121771   2.926   2.751   0.586  1.0722  1.2475 -0.6603
 7082SOL    HW221772   2.829   2.656   0.520 -2.2401  2.5098  2.0680
 7083SOL     OW21773   3.124   0.826   1.182  0.4168  0.2142 -0.2825
 7083SOL    HW121774   3.071   0.771   1.125  0.5132 -1.3255  1.0199
 7083SOL    HW221775   3.199   0.770   1.205  1.7634  1.7556 -0.7921
 7084SOL     OW21776   5.102   1.029   5.998 -0.1253 -0.1428  0.4121
 7084SOL    HW121777   5.101   1.000   5.907 -0.2791  1.3834 -0.1088
 7084SOL    HW221778   5.193   1.017   6.026 -0.2183 -1.2342  0.2769
 7085SOL     OW21779   4.945   1.723   6.091  0.3627  0.3575 -0.1726
 7085SOL    HW121780   4.858   1.761   6.091  0.4070  0.5816 -2.3918
 7085SOL    HW221781   4.961   1.698   5.999  2.6684  0.4437  0.1431
 7086SOL     OW21782   0.540   4.316   0.669 -0.3079  0.2620  0.3532
 7086SOL    HW121783   0.553   4.317   0.575 -0.1282  2.5494  0.3610
 7086SOL    HW221784   0.625   4.289   0.705 -0.2205 -0.0816 -0.1012
 7087SOL     OW21785   2.682   3.742   3.814 -0.3700 -0.0848  0.0349
 7087SOL    HW121786   2.617   3.678   3.785  0.2912 -0.4505 -0.6674
 7087SOL    HW221787   2.691   3.726   3.908 -1.1642 -0.1382  0.1091
 7088SOL     OW21788   5.454   4.205   6.474  0.0264  0.2235  0.5148
 7088SOL    HW121789   5.361   4.181   6.479 -0.2255  1.4018  2.8204
 7088SOL    HW221790   5.488   4.187   6.561  2.5225 -1.9419 -0.7457
 7089SOL     OW21791   5.442   0.252   4.592  0.4707  0.1854  0.3787
 7089SOL    HW121792   5.512   0.196   4.625  0.9131  0.9462  0.7618
 7089SOL    HW221793   5.449   0.332   4.644 -0.1342  0.6046 -0.1705
 7090SOL     OW21794   1.978   0.595   2.709 -0.0839 -0.3729 -0.3527
 7090SOL    HW121795   1.918   0.528   2.741  1.0854 -0.3299  2.2760
 7090SOL    HW221796   1.923   0.671   2.690 -1.1960 -1.4195 -1.4547
 7091SOL     OW21797   2.559   5.623   7.394 -0.0015 -0.0264 -0.2896
 7091SOL    HW121798   2.486   5.684   7.405  0.7241  1.1597 -1.5832
 7091SOL    HW221799   2.626   5.656   7.454  0.3583  0.4387 -0.9250
 7092SOL     OW21800   6.916   0.044   4.114 -0.6192 -0.5013 -0.0452
 7092SOL    HW121801   6.872   0.006   4.189  1.3826 -0.3134  1.3041
 7092SOL    HW221802   6.958   0.123   4.148 -0.8672  0.3895 -1.7071
 7093SOL     OW21803   7.432   5.376   6.558  0.2980  0.4272  0.1569
 7093SOL    HW121804   7.411   5.469   6.550 -0.5661  0.2402  0.1729
 7093SOL    HW221805   7.357   5.339   6.604 -0.7197 -0.7805 -2.3113
 7094SOL     OW21806   2.517   1.311   0.624 -0.1559 -0.3349  0.2083
 7094SOL    HW121807   2.544   1.222   0.602 -2.1250 -1.0579  0.5409
 7094SOL    HW221808   2.456   1.336   0.555  1.7158  1.5141 -0.9021
 7095SOL     OW21809   0.193   4.268   1.771  0.0713  0.1178 -0.3810
 7095SOL    HW121810   0.115   4.215   1.788  0.8733 -0.6896  0.9425
 7095SOL    HW221811   0.212   4.254   1.678 -0.2070 -1.3016 -0.2520
 7096SOL     OW21812   6.082   6.433   1.133  0.3017 -0.2597  0.3225
 7096SOL    HW121813   6.102   6.524   1.155 -3.3552  0.6921  0.4645
 7096SOL    HW221814   6.012   6.408   1.194 -1.5753 -1.7375 -2.2073
 7097SOL     OW21815   5.637   4.752   3.211 -0.5846  0.8004 -0.1968
 7097SOL    HW121816   5.628   4.777   3.303  0.8414  1.3420 -0.1836
 7097SOL    HW221817   5.572   4.682   3.200 -1.6119  1.5288  0.8927
 7098SOL     OW21818   7.476   2.502   5.792  0.2766  0.2990 -0.5780
 7098SOL    HW121819   7.538   2.484   5.721  2.1364  0.3158  0.9547
 7098SOL    HW221820   7.405   2.440   5.778  2.4483 -2.4341 -0.2894
 7099SOL     OW21821   7.009   5.210   1.739  0.1747  0.0296 -0.0225
 7099SOL    HW121822   6.923   5.210   1.781  0.4427 -1.8530  0.6126
 7099SOL    HW221823   7.066   5.163   1.800  1.0330 -1.0842 -1.6136
 7100SOL     OW21824   4.337   4.847   5.219  0.5651 -0.7768  0.0847
 7100SOL    HW121825   4.326   4.761   5.178  1.1723 -0.6328 -0.4063
 7100SOL    HW221826   4.386   4.898   5.154 -0.9111  0.3649 -0.2143
 7101SOL     OW21827   4.851   1.105   2.595 -0.2121 -0.0630  0.0650
 7101SOL    HW121828   4.822   1.161   2.667 -1.0189 -0.5923  0.1681
 7101SOL    HW221829   4.814   1.019   2.615  1.6491 -0.8389  0.3110
 7102SOL     OW21830   5.392   2.509   0.270 -0.7430 -0.2693  0.0744
 7102SOL    HW121831   5.319   2.555   0.310 -0.8565  0.1778 -0.6296
 7102SOL    HW221832   5.427   2.571   0.206  0.6300 -0.2400  0.8087
 7103SOL     OW21833   6.337   3.708   0.591  0.3544 -0.3022  0.1553
 7103SOL    HW121834   6.431   3.706   0.574  1.0550  1.4733  3.0895
 7103SOL    HW221835   6.305   3.784   0.542  0.4671 -0.7041 -0.5654
 7104SOL     OW21836   1.283   1.485   5.551 -0.5902 -0.0384 -0.9855
 7104SOL    HW121837   1.247   1.573   5.540  0.0977  0.5967  1.3457
 7104SOL    HW221838   1.265   1.462   5.642 -0.1693 -2.0583 -1.3564
 7105SOL     OW21839   1.508   5.838   1.954  0.2611  0.1322 -0.2796
 7105SOL    HW121840   1.598   5.806   1.957  0.8486  1.7370  0.2104
 7105SOL    HW221841   1.486   5.857   2.046 -0.5833 -0.2263 -0.3928
 7106SOL     OW21842   1.467   4.420   7.547 -0.2376 -0.2683 -0.2052
 7106SOL    HW121843   1.551   4.460   7.524  0.3365 -0.7216  1.0320
 7106SOL    HW221844   1.486   4.326   7.555 -0.8243 -0.3539  0.2639
 7107SOL     OW21845   5.245   1.098   7.030  0.4829 -0.2525 -0.4975
 7107SOL    HW121846   5.302   1.027   7.001 -0.2196 -0.6985 -0.8202
 7107SOL    HW221847   5.185   1.113   6.956  0.2774  0.3053 -0.2274
 7108SOL     OW21848   2.446   4.451   4.782  0.3668  0.1699 -0.2606
 7108SOL    HW121849   2.420   4.379   4.839 -1.2579  0.4641 -0.5705
 7108SOL    HW221850   2.436   4.530   4.836  0.5929  0.2882 -0.3907
 7109SOL     OW21851   4.909   2.185   1.152  0.2926 -0.1371 -0.4363
 7109SOL    HW121852   4.889   2.134   1.230 -1.8322  0.6823 -0.3709
 7109SOL    HW221853   4.952   2.264   1.185 -1.4626  0.6552  0.0592
 7110SOL     OW21854   4.158   1.230   7.304  0.2937  0.1003  0.4673
 7110SOL    HW121855   4.152   1.141   7.268 -2.9835  0.2759  0.2756
 7110SOL    HW221856   4.122   1.223   7.392  1.4736  0.9973  1.0488
 7111SOL     OW21857   5.484   6.509   5.636 -0.0514  0.2013 -0.0144
 7111SOL    HW121858   5.575   6.479   5.638 -0.3672 -0.7713  0.4068
 7111SOL    HW221859   5.469   6.530   5.544  0.3675 -0.3966 -0.2327
 7112SOL     OW21860   3.642   0.834   2.577 -0.0041 -0.2927 -0.3275
 7112SOL    HW121861   3.672   0.919   2.543  0.8074 -1.0982 -1.7366
 7112SOL    HW221862   3.634   0.847   2.671  2.0080  0.8252 -0.2555
 7113SOL     OW21863   2.769   2.137   0.035  0.5164  0.2078 -0.3939
 7113SOL    HW121864   2.769   2.174  -0.053 -0.2051 -0.8635 -0.8755
 7113SOL    HW221865   2.677   2.139   0.061 -0.0287 -3.4838 -1.4893
 7114SOL     OW21866   2.716   4.558   1.708  1.1493 -0.3964  0.5511
 7114SOL    HW121867   2.663   4.591   1.635  2.5177  0.9953  0.1370
 7114SOL    HW221868   2.767   4.487   1.670 -0.9460 -2.3724  1.1638
 7115SOL     OW21869   4.692   0.268   4.991  0.1455 -0.1055  0.0869
 7115SOL    HW121870   4.664   0.293   4.903  0.4227 -0.7326 -0.1820
 7115SOL    HW221871   4.657   0.337   5.048  0.3112  0.5276 -0.5594
 7116SOL     OW21872   4.474   5.470   2.799  0.3515  0.2190  0.3365
 7116SOL    HW121873   4.411   5.456   2.728  3.0398 -1.3013 -1.9453
 7116SOL    HW221874   4.444   5.413   2.870 -1.1732  0.0563 -0.4130
 7117SOL     OW21875   0.909   6.820   5.052  0.8182  0.9041  0.3642
 7117SOL    HW121876   1.000   6.826   5.023  0.4541  1.9178 -0.6745
 7117SOL    HW221877   0.885   6.910   5.074 -0.2268  0.8259 -0.3793
 7118SOL     OW21878   1.207   0.698   7.320 -0.4182  0.2323  0.1510
 7118SOL    HW121879   1.154   0.742   7.387 -1.8044 -0.3406 -0.5154
 7118SOL    HW221880   1.185   0.605   7.330 -0.0873  0.0650 -0.6121
 7119SOL     OW21881   4.435   4.839   2.206 -0.0653  0.1755 -0.3270
 7119SOL    HW121882   4.354   4.891   2.204  0.1319  0.6131  1.4813
 7119SOL    HW221883   4.428   4.786   2.285  1.8917  1.0804  0.5354
 7120SOL     OW21884   4.552   3.631   5.973 -0.5155  0.5890 -0.7196
 7120SOL    HW121885   4.474   3.617   6.027 -0.2660 -0.1994 -0.5515
 7120SOL    HW221886   4.622   3.650   6.035 -0.8664  2.9294 -0.9382
 7121SOL     OW21887   5.476   5.576   5.974 -0.1700  0.1912 -0.0142
 7121SOL    HW121888   5.494   5.581   6.068 -0.0172 -0.0126 -0.0311
 7121SOL    HW221889   5.437   5.489   5.962 -0.0228  0.1451 -0.1649
 7122SOL     OW21890   1.905   6.718   2.743 -0.3294  0.3933 -0.5420
 7122SOL    HW121891   1.899   6.650   2.810 -1.0259  0.1083 -0.8862
 7122SOL    HW221892   1.850   6.788   2.775 -0.3036  0.4411 -0.6026
 7123SOL     OW21893   2.059   6.649   4.717 -0.0712  0.2436 -0.3012
 7123SOL    HW121894   2.144   6.618   4.687 -0.3361 -0.5089 -0.3034
 7123SOL    HW221895   1.998   6.580   4.691 -0.9829  1.6009 -1.9172
 7124SOL     OW21896   5.488   0.074   3.851  0.5596  0.0852 -0.4217
 7124SOL    HW121897   5.505  -0.020   3.853  1.4109  0.2066  2.7536
 7124SOL    HW221898   5.571   0.114   3.877 -0.1015  1.6434 -0.6096
 7125SOL     OW21899   4.668   1.169   6.161 -0.2690 -0.2816  0.1584
 7125SOL    HW121900   4.749   1.121   6.144 -0.5544 -0.9627  0.6682
 7125SOL    HW221901   4.598   1.110   6.132 -0.6386 -0.2950  1.0556
 7126SOL     OW21902   7.487   3.684   2.061  0.2974 -0.0474 -0.0234
 7126SOL    HW121903   7.541   3.742   2.007  1.5996 -0.5365  0.6999
 7126SOL    HW221904   7.421   3.649   2.002  0.5626  0.8320 -0.8614
 7127SOL     OW21905   6.039   6.197   4.692 -0.8068 -0.3499  0.2135
 7127SOL    HW121906   5.965   6.230   4.642 -0.0602  2.8423  1.0061
 7127SOL    HW221907   6.093   6.150   4.628 -0.5288  2.4648 -1.7721
 7128SOL     OW21908   4.130   0.012   5.557 -0.6878 -0.6964 -0.0049
 7128SOL    HW121909   4.148   0.050   5.642  1.0828  0.5609 -0.8809
 7128SOL    HW221910   4.088   0.082   5.507 -0.0534 -0.7886 -0.7052
 7129SOL     OW21911   1.673   0.023   6.054  0.3832  0.3668 -0.7140
 7129SOL    HW121912   1.586   0.042   6.018 -0.6116 -0.7986  0.9550
 7129SOL    HW221913   1.731   0.027   5.978 -1.2237  0.4804 -1.9998
 7130SOL     OW21914   4.301   4.389   7.562 -0.0658 -0.3055 -0.2048
 7130SOL    HW121915   4.302   4.475   7.520  0.4131 -0.4636 -0.5243
 7130SOL    HW221916   4.385   4.383   7.607  0.3926 -1.0437 -1.1120
 7131SOL     OW21917   6.830   7.332   2.046  0.4727 -0.5295 -0.6147
 7131SOL    HW121918   6.886   7.254   2.037  2.1413  0.4211  0.7553
 7131SOL    HW221919   6.889   7.405   2.027  0.0623  0.5892  1.9795
 7132SOL     OW21920   4.052   0.481   1.934  0.3687 -0.6979  0.1553
 7132SOL    HW121921   3.961   0.495   1.959 -0.4147 -2.2360 -1.6076
 7132SOL    HW221922   4.079   0.403   1.983  1.6732  1.2015  2.6966
 7133SOL     OW21923   6.973   0.733   2.881  0.1050  0.5087 -0.0097
 7133SOL    HW121924   7.037   0.719   2.951  0.3286  1.0185 -0.1077
 7133SOL    HW221925   6.939   0.821   2.896 -1.4430 -0.1820  0.7239
 7134SOL     OW21926   3.043   2.694   1.033  0.0830  0.6170  0.1401
 7134SOL    HW121927   3.138   2.699   1.025  0.3068 -0.3014  1.8313
 7134SOL    HW221928   3.024   2.602   1.046 -1.1168  0.7194 -0.6872
 7135SOL     OW21929   4.619   6.309   4.208  0.2020 -0.3084  0.0721
 7135SOL    HW121930   4.634   6.308   4.303  1.4139  4.3168  0.1748
 7135SOL    HW221931   4.705   6.295   4.170  0.0803 -0.1420 -0.2684
 7136SOL     OW21932   1.148   0.611   5.388 -0.2986  0.3813 -0.4263
 7136SOL    HW121933   1.236   0.575   5.387 -0.5297 -0.3635  1.3680
 7136SOL    HW221934   1.133   0.636   5.480 -1.9238  0.5339 -0.6950
 7137SOL     OW21935   6.612   2.458   5.007  0.0879 -0.4381  0.0487
 7137SOL    HW121936   6.663   2.420   5.079  0.3737 -0.8678 -0.3788
 7137SOL    HW221937   6.534   2.494   5.050  0.0360 -1.0890  0.5185
 7138SOL     OW21938   1.569   2.538   4.307  0.0350  0.1040 -0.0756
 7138SOL    HW121939   1.497   2.474   4.306 -0.1025  0.2555  0.0838
 7138SOL    HW221940   1.540   2.608   4.249  0.3294 -0.1318 -0.5130
 7139SOL     OW21941   4.520   5.034   5.068  0.2576 -0.3294  0.0807
 7139SOL    HW121942   4.608   5.064   5.044 -0.2424  0.7899 -0.4352
 7139SOL    HW221943   4.483   5.107   5.118 -0.2630 -0.9320  0.5867
 7140SOL     OW21944   5.617   7.282   0.630  0.2202  0.0462  0.4241
 7140SOL    HW121945   5.690   7.284   0.693  0.9673  1.1853 -0.4403
 7140SOL    HW221946   5.541   7.255   0.682  1.2358 -1.1052  1.3579
 7141SOL     OW21947   3.201   0.909   2.163 -0.0695 -0.3783 -0.3634
 7141SOL    HW121948   3.211   1.001   2.139  0.5629 -0.2566  0.3352
 7141SOL    HW221949   3.285   0.885   2.203 -0.5201 -1.0253  0.2147
 7142SOL     OW21950   7.495   5.347   1.200 -0.4885 -0.3917 -0.0226
 7142SOL    HW121951   7.490   5.253   1.183  1.3315 -0.6349  0.5932
 7142SOL    HW221952   7.546   5.382   1.127  1.1139 -0.3242  1.0747
 7143SOL     OW21953   0.727   2.820   6.997  0.1467 -0.2137 -0.4182
 7143SOL    HW121954   0.796   2.828   7.063  0.5096 -0.6993 -0.7346
 7143SOL    HW221955   0.645   2.820   7.048  0.3834  0.1692 -0.0286
 7144SOL     OW21956   3.704   1.296   1.188  0.5960  0.1714 -0.0727
 7144SOL    HW121957   3.696   1.216   1.239 -0.5367  1.1669  1.4131
 7144SOL    HW221958   3.732   1.267   1.101 -0.1549 -1.8657  0.3085
 7145SOL     OW21959   0.850   4.333   6.011  0.1808  0.4525 -0.0189
 7145SOL    HW121960   0.925   4.382   5.978  0.9506 -0.2213  0.6865
 7145SOL    HW221961   0.780   4.399   6.019  1.1965  1.4482  0.9470
 7146SOL     OW21962   1.100   4.852   2.027 -0.4599 -0.2284 -0.4471
 7146SOL    HW121963   1.076   4.909   2.101  3.0831  0.7362  0.1235
 7146SOL    HW221964   1.114   4.766   2.067  1.1588  0.2229  0.0287
 7147SOL     OW21965   7.399   1.065   0.372 -0.2710  0.5086  1.1559
 7147SOL    HW121966   7.483   1.083   0.329 -1.5390  0.3285 -1.5950
 7147SOL    HW221967   7.397   0.970   0.382 -0.0002  0.5446  1.5717
 7148SOL     OW21968   2.146   3.539   0.988 -0.3697 -0.0366 -0.1497
 7148SOL    HW121969   2.112   3.533   0.899 -1.2325 -0.6338  0.2050
 7148SOL    HW221970   2.112   3.622   1.021  0.1284  0.2892 -0.4364
 7149SOL     OW21971   2.069   4.974   3.650  0.3666 -0.1972 -0.0755
 7149SOL    HW121972   2.144   5.030   3.672  0.2478  0.3673 -1.0406
 7149SOL    HW221973   1.993   5.023   3.680  0.1730  0.7672 -1.9786
 7150SOL     OW21974   5.627   6.469   7.030 -0.1658 -0.5823 -0.1278
 7150SOL    HW121975   5.639   6.564   7.024 -1.0604 -0.5402 -2.3193
 7150SOL    HW221976   5.645   6.448   7.122 -0.0507  1.7063  0.4373
 7151SOL     OW21977   2.622   2.659   4.249  0.1078 -0.2797  0.2918
 7151SOL    HW121978   2.586   2.704   4.326 -1.9578  1.7819 -1.7379
 7151SOL    HW221979   2.602   2.567   4.264 -0.4115  0.0807  2.1302
 7152SOL     OW21980   3.678   5.244   4.311  0.4032  0.0703 -0.4556
 7152SOL    HW121981   3.666   5.151   4.296  0.8498 -0.0614 -0.0367
 7152SOL    HW221982   3.591   5.277   4.332  0.0592 -0.0437 -1.6543
 7153SOL     OW21983   0.611   2.798   3.448  0.4197  0.2749 -0.0282
 7153SOL    HW121984   0.595   2.709   3.477  0.6965 -0.0481 -0.8363
 7153SOL    HW221985   0.656   2.788   3.364  0.0049  1.1758 -0.3659
 7154SOL     OW21986   7.314   2.766   5.655 -0.2675  0.0476  0.5956
 7154SOL    HW121987   7.339   2.814   5.576  0.8324 -0.2817  0.7187
 7154SOL    HW221988   7.398   2.742   5.695 -0.8024  0.6260  2.1223
 7155SOL     OW21989   1.896   6.435   4.104 -0.2231 -0.1584  0.5722
 7155SOL    HW121990   1.830   6.503   4.117 -1.9908 -1.8553  0.9139
 7155SOL    HW221991   1.912   6.399   4.191  0.2661 -0.5831  0.3182
 7156SOL     OW21992   3.437   3.820   6.792 -0.6326 -0.8322  0.3394
 7156SOL    HW121993   3.476   3.900   6.757  0.5339 -1.3992  0.2671
 7156SOL    HW221994   3.412   3.842   6.882  0.1440 -0.5065  0.4913
 7157SOL     OW21995   1.870   3.678   6.593  0.3387  0.2679 -0.4661
 7157SOL    HW121996   1.806   3.664   6.524  0.1319  0.9110 -0.4020
 7157SOL    HW221997   1.917   3.594   6.599 -1.2623 -0.6193  0.2939
 7158SOL     OW21998   3.896   1.562   5.426  0.4350 -0.6148  0.6148
 7158SOL    HW121999   3.947   1.482   5.435 -0.1267 -1.0040  0.4156
 7158SOL    HW222000   3.960   1.629   5.400  0.9078 -0.9939  0.7955
 7159SOL     OW22001   5.702   4.487   3.815  0.5432 -0.1722 -0.2538
 7159SOL    HW122002   5.775   4.437   3.779  1.0112  1.7054 -2.0673
 7159SOL    HW222003   5.721   4.492   3.909  1.0743 -2.3215 -0.1929
 7160SOL     OW22004   7.223   0.709   5.196  0.2347 -0.3229 -0.0144
 7160SOL    HW122005   7.163   0.740   5.264 -1.1974 -2.0013 -0.4550
 7160SOL    HW222006   7.178   0.727   5.114  1.8960  1.5584 -0.6005
 7161SOL     OW22007   7.417   0.607   2.886 -0.1919  0.1431  0.2500
 7161SOL    HW122008   7.362   0.641   2.815 -0.8021 -1.2613  0.0229
 7161SOL    HW222009   7.360   0.546   2.933  1.3218 -1.8224 -0.3541
 7162SOL     OW22010   4.205   6.420   4.014  0.2377 -0.5676 -1.0770
 7162SOL    HW122011   4.127   6.432   4.069 -0.3177 -1.4128 -1.6508
 7162SOL    HW222012   4.230   6.508   3.988 -0.0767 -0.2294 -0.2700
 7163SOL     OW22013   3.305   2.958   3.128  0.2676  0.2214  0.2829
 7163SOL    HW122014   3.383   2.999   3.166  0.7493 -0.2410 -0.1863
 7163SOL    HW222015   3.330   2.939   3.037 -0.4092  0.1095  0.1145
 7164SOL     OW22016   6.330   3.468   1.240 -0.3047  0.3767 -0.3161
 7164SOL    HW122017   6.253   3.514   1.272 -0.1895  1.2860 -1.3010
 7164SOL    HW222018   6.296   3.389   1.198 -0.4560 -0.8978  2.0284
 7165SOL     OW22019   1.032   7.367   4.195  0.2364  0.5111 -0.7726
 7165SOL    HW122020   1.081   7.437   4.238 -0.3960  0.4158  0.1171
 7165SOL    HW222021   1.092   7.292   4.194  0.5602  0.7683 -0.8436
 7166SOL     OW22022   1.033   1.863   2.942 -0.3999 -0.1404 -0.7177
 7166SOL    HW122023   1.094   1.927   2.978 -1.7550  0.5764  0.4233
 7166SOL    HW222024   1.027   1.885   2.849  1.0567 -0.2404 -0.8472
 7167SOL     OW22025   0.945   4.266   5.548  0.0094 -0.0778  0.2240
 7167SOL    HW122026   0.876   4.324   5.517  1.0701  1.5212  0.7268
 7167SOL    HW222027   1.013   4.272   5.482  0.3644 -0.3069  0.5616
 7168SOL     OW22028   6.685   5.754   5.683 -0.3576  0.4105 -0.0084
 7168SOL    HW122029   6.601   5.710   5.672 -0.8187  1.6171 -1.9793
 7168SOL    HW222030   6.748   5.683   5.699 -1.2858 -0.8436 -1.5942
 7169SOL     OW22031   5.932   0.867   6.096  0.6076 -0.1663 -0.6875
 7169SOL    HW122032   5.857   0.874   6.037  0.4597 -0.0627 -0.4894
 7169SOL    HW222033   5.894   0.868   6.184  0.8150 -0.4864 -0.5931
 7170SOL     OW22034   6.484   4.316   0.726  0.4611 -0.7901  0.0928
 7170SOL    HW122035   6.530   4.308   0.809 -1.7758 -1.8045  1.3193
 7170SOL    HW222036   6.411   4.255   0.733 -0.0674 -0.5627 -2.4626
 7171SOL     OW22037   0.209   4.768   1.031  0.3722  0.2211  0.6365
 7171SOL    HW122038   0.126   4.786   0.987  0.0107 -2.4482 -0.0071
 7171SOL    HW222039   0.275   4.811   0.977 -0.5146  2.2753  1.0861
 7172SOL     OW22040   3.195   3.943   2.035  0.0685  0.1455  0.5532
 7172SOL    HW122041   3.227   3.854   2.025  0.8458  0.5269 -0.5637
 7172SOL    HW222042   3.261   3.987   2.088  0.7795  0.5878 -0.6564
 7173SOL     OW22043   2.023   5.231   2.261 -0.0338  0.0697  0.5823
 7173SOL    HW122044   2.019   5.145   2.219 -1.3646  0.9234 -1.1693
 7173SOL    HW222045   2.107   5.268   2.232 -0.3459  0.1202 -0.2891
 7174SOL     OW22046   4.845   7.059   0.720 -0.0325  0.2634 -0.0326
 7174SOL    HW122047   4.841   7.154   0.705  2.0244  0.3147 -0.5519
 7174SOL    HW222048   4.933   7.035   0.694 -0.7582 -1.9453 -0.6109
 7175SOL     OW22049   4.376   4.389   5.629  0.5392  0.0836 -0.2898
 7175SOL    HW122050   4.410   4.326   5.692  0.8750 -0.2144 -0.7604
 7175SOL    HW222051   4.454   4.432   5.593  0.2842  1.2891  0.5454
 7176SOL     OW22052   2.699   3.615   5.511  0.3196  0.6778 -0.0256
 7176SOL    HW122053   2.671   3.655   5.429  0.4417  1.7306  0.4314
 7176SOL    HW222054   2.730   3.689   5.565  0.7765 -0.0561  0.7492
 7177SOL     OW22055   3.941   4.848   2.286  0.7302 -0.1252 -0.7976
 7177SOL    HW122056   3.861   4.890   2.318  0.9730  0.1566 -0.5564
 7177SOL    HW222057   3.978   4.911   2.225  2.9597  1.6552  2.1496
 7178SOL     OW22058   6.132   1.588   3.823 -0.2898  0.1596  0.5985
 7178SOL    HW122059   6.140   1.500   3.861 -0.7540 -0.3314 -0.3954
 7178SOL    HW222060   6.060   1.580   3.760  1.0988  0.6408 -1.1344
 7179SOL     OW22061   7.191   4.842   1.680  0.2333 -0.1073  0.1995
 7179SOL    HW122062   7.100   4.845   1.709  0.2494 -0.1206  0.2527
 7179SOL    HW222063   7.189   4.789   1.600  0.4658 -1.7619  1.2446
 7180SOL     OW22064   6.117   3.620   6.813  0.2189 -0.2456 -0.0948
 7180SOL    HW122065   6.091   3.585   6.899 -1.1764 -0.9245 -0.7648
 7180SOL    HW222066   6.034   3.638   6.769  0.9259  0.1717 -1.2870
 7181SOL     OW22067   3.216   3.671   6.689 -0.0206 -0.0790  0.1968
 7181SOL    HW122068   3.292   3.709   6.733  1.1949  0.9769 -2.5641
 7181SOL    HW222069   3.152   3.742   6.686  0.2602  0.1599 -0.4658
 7182SOL     OW22070   2.533   4.013   5.053  0.5509 -0.0339  0.5417
 7182SOL    HW122071   2.482   3.999   4.974  0.8005 -0.7858  0.5090
 7182SOL    HW222072   2.619   3.974   5.034  0.8121  0.3200  0.9574
 7183SOL     OW22073   0.302   4.564   1.525 -0.2113  0.3371  0.6769
 7183SOL    HW122074   0.385   4.607   1.505 -1.1391  1.8659 -0.0650
 7183SOL    HW222075   0.295   4.571   1.620  0.5470  0.0880  0.7628
 7184SOL     OW22076   0.457   4.993   3.207  0.3927  0.1637 -0.8964
 7184SOL    HW122077   0.545   4.963   3.229 -0.1786 -0.9154 -0.0038
 7184SOL    HW222078   0.471   5.055   3.135  1.6113 -2.7772 -3.4302
 7185SOL     OW22079   4.753   7.159   1.142  0.6424  0.2225 -0.3054
 7185SOL    HW122080   4.769   7.075   1.099  0.0521 -0.2416  0.3544
 7185SOL    HW222081   4.808   7.157   1.220  0.9814  0.6570 -0.5265
 7186SOL     OW22082   6.342   4.366   4.182 -0.4583 -0.3147 -0.2167
 7186SOL    HW122083   6.377   4.436   4.237  0.0547 -0.0723 -0.8363
 7186SOL    HW222084   6.364   4.285   4.228 -1.6654 -0.0733  0.8572
 7187SOL     OW22085   3.779   3.285   7.017  0.7514  0.2489 -0.0291
 7187SOL    HW122086   3.726   3.225   7.069  0.2759  1.4428  0.9267
 7187SOL    HW222087   3.852   3.232   6.985 -0.5523 -1.2460 -0.6855
 7188SOL     OW22088   1.846   0.438   4.038  0.1001 -0.0864 -0.3992
 7188SOL    HW122089   1.894   0.456   4.119 -1.8950  0.8455  0.6552
 7188SOL    HW222090   1.754   0.451   4.062 -0.6895 -1.7157 -2.3410
 7189SOL     OW22091   7.359   3.913   7.170  0.5195 -0.4817 -0.5015
 7189SOL    HW122092   7.266   3.894   7.165  0.5246 -0.9612  0.8622
 7189SOL    HW222093   7.400   3.831   7.197  1.1500  0.1045  0.3843
 7190SOL     OW22094   2.322   3.590   6.003  0.3650 -0.5377 -0.2287
 7190SOL    HW122095   2.314   3.562   6.094 -0.7489  3.1552  0.9999
 7190SOL    HW222096   2.240   3.561   5.962  0.0607 -0.6846  0.4668
 7191SOL     OW22097   4.944   4.079   7.284 -0.0685 -0.7469 -0.9257
 7191SOL    HW122098   4.948   4.123   7.199  0.4824  0.7023 -0.1864
 7191SOL    HW222099   4.853   4.088   7.311  0.4438  2.1194  0.2462
 7192SOL     OW22100   0.259   6.399   7.322 -0.3964  0.0600  0.0177
 7192SOL    HW122101   0.200   6.423   7.393  1.7771  1.2564  1.5097
 7192SOL    HW222102   0.244   6.466   7.255 -0.6904  0.3597  0.3812
 7193SOL     OW22103   1.541   6.632   6.126  0.1059  0.4772  0.0050
 7193SOL    HW122104   1.548   6.553   6.072 -0.5144 -0.2017  0.8770
 7193SOL    HW222105   1.476   6.609   6.192 -0.9958  2.1492 -0.4439
 7194SOL     OW22106   6.062   2.490   5.993  0.0358  0.0342  0.1012
 7194SOL    HW122107   5.973   2.526   5.987  0.7186  1.9842  1.0209
 7194SOL    HW222108   6.048   2.395   5.998 -2.0855  0.3311  1.4664
 7195SOL     OW22109   4.330   3.515   1.747  0.3326  0.2527  0.0272
 7195SOL    HW122110   4.249   3.536   1.701  0.5883  2.0696  0.3347
 7195SOL    HW222111   4.302   3.478   1.831 -0.1831  0.8952  0.1415
 7196SOL     OW22112   2.050   1.997   5.052 -0.2550  0.2567 -0.2345
 7196SOL    HW122113   2.131   2.045   5.068  0.6894 -0.9875 -1.0707
 7196SOL    HW222114   1.984   2.045   5.102  1.1023  0.9210  1.0267
 7197SOL     OW22115   1.451   1.327   7.090 -0.0382  0.0834  0.5594
 7197SOL    HW122116   1.436   1.395   7.155  2.5672  1.2501  0.0757
 7197SOL    HW222117   1.534   1.286   7.115 -0.8447 -2.0374  0.0465
 7198SOL     OW22118   3.791   7.168   5.866  0.1372 -0.0232  0.2766
 7198SOL    HW122119   3.711   7.160   5.814  0.4009  0.3755 -0.2097
 7198SOL    HW222120   3.861   7.169   5.801  0.4377  1.0530  0.5899
 7199SOL     OW22121   0.264   2.006   4.867 -0.4510  0.0563  0.4132
 7199SOL    HW122122   0.257   2.042   4.779  0.1179 -2.0767 -0.5706
 7199SOL    HW222123   0.197   2.052   4.918 -2.1822 -0.0614 -1.6313
 7200SOL     OW22124   4.735   1.460   1.598 -0.0891  0.2164 -0.2537
 7200SOL    HW122125   4.823   1.494   1.578  0.0532 -0.1208 -0.2112
 7200SOL    HW222126   4.740   1.432   1.689  0.0642 -0.7404 -0.5468
 7201SOL     OW22127   3.905   4.293   2.402 -0.3561 -0.0090  0.2256
 7201SOL    HW122128   3.880   4.374   2.357  0.0567  0.4535  0.8078
 7201SOL    HW222129   3.969   4.252   2.344 -1.2431 -0.4019 -0.5148
 7202SOL     OW22130   3.578   5.988   7.025 -0.0328 -0.0302 -0.1223
 7202SOL    HW122131   3.639   6.034   6.968  1.0831 -1.9364 -0.5806
 7202SOL    HW222132   3.605   6.013   7.114  1.7063 -1.0995 -0.3037
 7203SOL     OW22133   6.977   3.354   2.244  0.1394  0.0049  0.4656
 7203SOL    HW122134   6.934   3.319   2.166 -1.1887 -0.6551  1.4471
 7203SOL    HW222135   7.069   3.327   2.236  0.7135  2.3661 -2.2242
 7204SOL     OW22136   2.952   2.545   0.287  0.5803  0.2665 -0.2350
 7204SOL    HW122137   2.880   2.486   0.265  0.0161  1.1620 -0.8727
 7204SOL    HW222138   2.922   2.594   0.363  1.1138 -0.3616  0.3965
 7205SOL     OW22139   1.025   2.893   6.941  0.6054 -0.4220 -0.1796
 7205SOL    HW122140   0.962   2.964   6.945  0.1717 -0.8268  0.3749
 7205SOL    HW222141   1.013   2.845   7.024  1.1126 -0.9436 -0.3960
 7206SOL     OW22142   6.899   1.419   7.174 -0.1053 -0.5743  0.0098
 7206SOL    HW122143   6.916   1.373   7.092 -0.7179 -1.6525  0.4666
 7206SOL    HW222144   6.852   1.355   7.228  0.8835 -0.1331  1.4545
 7207SOL     OW22145   2.814   7.252   5.324  0.2551 -0.0412 -0.1661
 7207SOL    HW122146   2.725   7.222   5.303 -0.2079  2.0959 -1.5737
 7207SOL    HW222147   2.806   7.288   5.413 -0.5621  0.9880 -0.6269
 7208SOL     OW22148   2.400   4.989   7.292  0.5845  0.2490 -0.3089
 7208SOL    HW122149   2.375   4.932   7.364  0.1179  0.9155  0.0665
 7208SOL    HW222150   2.430   5.070   7.333 -2.7168  1.9066 -0.8269
 7209SOL     OW22151   4.795   6.290   0.018 -0.1234  0.1616  0.2576
 7209SOL    HW122152   4.869   6.292   0.078  0.7857 -0.9799 -0.7913
 7209SOL    HW222153   4.829   6.324  -0.064 -1.3031  1.5025  0.2717
 7210SOL     OW22154   4.524   6.847   0.277  0.0446  0.3329 -0.1784
 7210SOL    HW122155   4.518   6.833   0.372  0.2772  0.9021 -0.0752
 7210SOL    HW222156   4.589   6.782   0.248 -1.1786 -0.9371 -0.2100
 7211SOL     OW22157   4.322   7.540   3.060 -0.7580  0.1057 -0.2948
 7211SOL    HW122158   4.258   7.500   3.119 -0.7885 -1.3407 -1.2630
 7211SOL    HW222159   4.407   7.506   3.090 -0.7035 -0.0483 -0.6243
 7212SOL     OW22160   6.716   0.083   6.764 -0.2850 -0.4948 -0.3204
 7212SOL    HW122161   6.640   0.128   6.726 -0.6319 -1.7420 -1.1728
 7212SOL    HW222162   6.763   0.047   6.689  0.6928 -0.4565  0.2590
 7213SOL     OW22163   3.759   4.514   5.196 -0.7378 -0.0889  0.0358
 7213SOL    HW122164   3.853   4.498   5.200 -0.6005  0.5325 -0.6598
 7213SOL    HW222165   3.749   4.607   5.216 -1.0008  0.3843 -2.0870
 7214SOL     OW22166   6.366   6.169   5.362  0.1681  0.3104 -0.8471
 7214SOL    HW122167   6.449   6.198   5.401 -0.4703  1.7341 -0.4964
 7214SOL    HW222168   6.365   6.208   5.275  0.4735 -0.8584 -1.4003
 7215SOL     OW22169   5.046   4.240   1.218  0.5023  0.5586 -0.2564
 7215SOL    HW122170   5.081   4.308   1.276 -0.1644  1.2429 -0.6431
 7215SOL    HW222171   4.990   4.287   1.157  1.6654 -0.0540 -1.8723
 7216SOL     OW22172   0.056   3.882   5.188  0.5845 -0.1044  0.4875
 7216SOL    HW122173   0.113   3.860   5.114  2.9457  0.4179  2.0169
 7216SOL    HW222174   0.116   3.889   5.263 -1.1778  2.7321  1.8261
 7217SOL     OW22175   6.605   1.858   3.060 -0.3053  0.1542  0.0122
 7217SOL    HW122176   6.574   1.768   3.069 -2.0508  0.5378 -1.5123
 7217SOL    HW222177   6.698   1.854   3.083 -1.0136 -1.4005  3.1180
 7218SOL     OW22178   0.697   6.612   3.820 -0.5987 -0.1046 -0.4696
 7218SOL    HW122179   0.711   6.682   3.884 -0.5691  0.9027 -1.5564
 7218SOL    HW222180   0.654   6.655   3.746  1.0041 -0.8547 -1.8952
 7219SOL     OW22181   1.004   2.114   3.286 -0.2102  0.6658 -0.6828
 7219SOL    HW122182   1.079   2.056   3.300 -0.4096  0.9531  2.3051
 7219SOL    HW222183   0.928   2.056   3.296 -0.3848  1.0499  0.3653
 7220SOL     OW22184   7.384   2.977   1.717 -0.0937  0.1258 -0.7049
 7220SOL    HW122185   7.357   3.069   1.717  0.1305  0.1911 -0.4843
 7220SOL    HW222186   7.443   2.969   1.642 -0.2523  0.1175 -0.8318
 7221SOL     OW22187   4.053   0.426   1.458  0.1017 -0.5866  0.3796
 7221SOL    HW122188   4.104   0.393   1.532 -0.8855  0.2559  1.4639
 7221SOL    HW222189   4.118   0.441   1.389  1.3610  0.6415  1.7697
 7222SOL     OW22190   4.959   7.357   4.098 -0.2481  0.0179  0.6579
 7222SOL    HW122191   5.031   7.366   4.160 -0.1125 -1.3619  0.7391
 7222SOL    HW222192   4.988   7.403   4.020  1.4028 -1.7403  0.1617
 7223SOL     OW22193   7.467   0.627   3.923  0.2130 -0.2807 -0.6663
 7223SOL    HW122194   7.391   0.573   3.944 -0.5996 -0.0257 -2.6510
 7223SOL    HW222195   7.431   0.715   3.911  1.0396  0.1048 -0.3716
 7224SOL     OW22196   3.320   0.048   6.197  0.6187  0.7688 -0.2520
 7224SOL    HW122197   3.277   0.040   6.283  1.5148  2.9671  0.4918
 7224SOL    HW222198   3.353  -0.039   6.178 -0.3336  0.0365  1.2451
 7225SOL     OW22199   2.361   6.829   3.088  0.5200  0.1356 -0.1643
 7225SOL    HW122200   2.394   6.882   3.016 -0.1349  2.3958  1.1031
 7225SOL    HW222201   2.266   6.839   3.084  0.4614  0.1493  0.8967
 7226SOL     OW22202   6.827   7.314   3.395  0.1576  0.2599 -0.6577
 7226SOL    HW122203   6.835   7.313   3.491  0.6388 -0.7360 -0.6944
 7226SOL    HW222204   6.765   7.384   3.377 -0.1194  0.3069  0.3998
 7227SOL     OW22205   6.316   4.264   1.431 -0.0196  0.4082 -0.2374
 7227SOL    HW122206   6.360   4.222   1.358  0.0569 -0.1088  0.1015
 7227SOL    HW222207   6.225   4.275   1.402 -0.1715 -0.4803 -0.1359
 7228SOL     OW22208   3.227   4.586   7.030  0.0503 -0.4046 -0.0613
 7228SOL    HW122209   3.301   4.586   7.091 -0.6286 -0.6706  0.7668
 7228SOL    HW222210   3.246   4.513   6.970  0.8951  0.0798 -0.4095
 7229SOL     OW22211   4.465   5.785   0.829 -0.0921 -0.4288 -0.3384
 7229SOL    HW122212   4.427   5.777   0.742  0.4790  2.2816 -0.9313
 7229SOL    HW222213   4.390   5.788   0.888 -0.4891 -2.1603 -0.7088
 7230SOL     OW22214   4.098   3.308   7.136 -0.2213  0.3939 -0.4897
 7230SOL    HW122215   4.134   3.255   7.207 -1.3145  0.0620 -0.1554
 7230SOL    HW222216   4.120   3.261   7.056  2.5175  1.6340 -0.5561
 7231SOL     OW22217   6.087   5.842   6.814  0.0603  0.1510 -0.9430
 7231SOL    HW122218   6.135   5.924   6.797 -1.9435  1.5981 -0.0064
 7231SOL    HW222219   6.061   5.849   6.906 -1.9410 -0.5588 -1.4190
 7232SOL     OW22220   5.618   5.683   4.961  0.4086  0.1959 -0.2866
 7232SOL    HW122221   5.618   5.767   4.914  0.7281 -1.0600 -2.7011
 7232SOL    HW222222   5.583   5.704   5.047  0.6252  2.8310 -0.7501
 7233SOL     OW22223   3.559   4.234   7.321  0.3854 -0.4288  0.1801
 7233SOL    HW122224   3.581   4.327   7.320 -1.6489  0.1217 -1.5160
 7233SOL    HW222225   3.638   4.189   7.292  0.8069  0.9689 -0.9248
 7234SOL     OW22226   3.133   0.485   2.493 -0.5147 -0.4476  0.2209
 7234SOL    HW122227   3.189   0.438   2.431 -0.4613 -0.5127  0.3184
 7234SOL    HW222228   3.139   0.577   2.466  0.1233 -0.3712  0.5984
 7235SOL     OW22229   3.374   6.293   2.721  0.1543  0.2670 -0.1051
 7235SOL    HW122230   3.437   6.328   2.658  1.7781  0.6587  1.6653
 7235SOL    HW222231   3.367   6.200   2.698  1.2788  0.2460 -0.4101
 7236SOL     OW22232   2.929   5.967   0.466 -0.4024 -0.5380  1.5269
 7236SOL    HW122233   3.006   6.010   0.428 -1.9254  1.8265  0.8739
 7236SOL    HW222234   2.919   5.887   0.414  1.1175 -0.4701  1.0744
 7237SOL     OW22235   4.178   1.058   2.107 -0.0079 -0.1282 -0.2315
 7237SOL    HW122236   4.177   1.107   2.188  2.4250  1.0035 -0.8173
 7237SOL    HW222237   4.244   0.990   2.120 -1.0047 -1.2196 -0.6090
 7238SOL     OW22238   2.147   5.216   4.436 -0.3359  0.5295  0.6637
 7238SOL    HW122239   2.071   5.254   4.480 -0.5786  0.9671 -0.1031
 7238SOL    HW222240   2.221   5.238   4.491 -0.4675  2.1751  0.2332
 7239SOL     OW22241   7.534   1.610   3.275  0.0801  0.1224 -0.4529
 7239SOL    HW122242   7.545   1.528   3.228 -1.1098 -0.4085  0.1655
 7239SOL    HW222243   7.582   1.674   3.222  0.7832 -0.8958 -1.0956
 7240SOL     OW22244   6.196   0.236   6.430 -0.2275 -0.1711  0.3340
 7240SOL    HW122245   6.116   0.244   6.481 -1.2151 -0.2566 -1.1538
 7240SOL    HW222246   6.247   0.313   6.452 -0.5825 -0.2514  1.5015
 7241SOL     OW22247   2.858   0.937   3.451 -0.6549  0.3362 -0.1723
 7241SOL    HW122248   2.918   0.867   3.425  1.4447  1.5670  1.0520
 7241SOL    HW222249   2.885   1.012   3.399 -2.3193  0.4970 -0.8491
 7242SOL     OW22250   0.967   3.390   5.164 -0.3396  0.0131 -0.0716
 7242SOL    HW122251   0.940   3.301   5.187 -1.9756  0.1853 -1.1186
 7242SOL    HW222252   0.930   3.445   5.233  1.3169 -0.1449  0.9944
 7243SOL     OW22253   5.311   2.109   7.267  0.4358 -0.1851 -0.0628
 7243SOL    HW122254   5.232   2.136   7.316  0.0251 -1.8522  0.2764
 7243SOL    HW222255   5.380   2.166   7.301 -0.5742  1.2292 -0.2626
 7244SOL     OW22256   6.154   1.808   4.704  0.2097  0.0382  0.4040
 7244SOL    HW122257   6.236   1.773   4.739  0.0284 -0.4078  0.3969
 7244SOL    HW222258   6.169   1.902   4.697  1.0843 -0.1641 -0.5893
 7245SOL     OW22259   2.546   4.685   5.606  0.1102  0.2556  0.2671
 7245SOL    HW122260   2.569   4.722   5.691 -1.5547 -2.3333  1.9912
 7245SOL    HW222261   2.614   4.620   5.589 -0.5201 -0.4989  0.5582
 7246SOL     OW22262   1.736   7.513   3.207 -0.6724 -0.2427  0.1237
 7246SOL    HW122263   1.708   7.445   3.146 -0.2619 -0.7604  0.4989
 7246SOL    HW222264   1.656   7.540   3.252 -0.7848 -0.7423  0.2331
 7247SOL     OW22265   5.714   0.606   5.078  0.0728  0.3820  0.3851
 7247SOL    HW122266   5.793   0.558   5.104  0.1107  0.7278  0.9195
 7247SOL    HW222267   5.695   0.663   5.153 -0.7072  0.2706  0.2786
 7248SOL     OW22268   0.740   7.455   2.468 -0.2638  0.1354  0.2947
 7248SOL    HW122269   0.760   7.493   2.553 -0.8929 -2.2004  1.5932
 7248SOL    HW222270   0.644   7.458   2.462 -0.2335  0.1264 -0.2338
 7249SOL     OW22271   5.289   2.848   5.410  0.9559  0.1870 -0.2625
 7249SOL    HW122272   5.238   2.904   5.469 -0.6845 -0.8132 -0.6680
 7249SOL    HW222273   5.287   2.762   5.451  2.1002  0.0616 -0.4479
 7250SOL     OW22274   7.233   1.053   5.206 -0.0862 -0.8366  0.3225
 7250SOL    HW122275   7.167   1.108   5.163 -0.8279 -2.5587 -0.8709
 7250SOL    HW222276   7.189   0.969   5.221  1.9531 -2.2599 -1.0813
 7251SOL     OW22277   7.543   4.117   7.142 -0.1188  0.0742 -0.0887
 7251SOL    HW122278   7.482   4.056   7.183  2.5744 -1.5910  1.7729
 7251SOL    HW222279   7.560   4.080   7.056  0.9264 -1.5037  0.7490
 7252SOL     OW22280   6.398   2.776   0.424 -0.4925  0.2233  0.3822
 7252SOL    HW122281   6.353   2.712   0.479 -0.4298  0.5849  0.8679
 7252SOL    HW222282   6.330   2.806   0.362 -0.6966  0.1637  0.5753
 7253SOL     OW22283   3.069   5.863   1.459  0.4310 -0.2599 -0.1554
 7253SOL    HW122284   3.079   5.933   1.395  2.2811  0.2112  0.5677
 7253SOL    HW222285   3.013   5.901   1.527  1.0349  0.3863  0.0019
 7254SOL     OW22286   6.886   1.647   6.005 -0.3151  0.6318  0.1990
 7254SOL    HW122287   6.853   1.703   6.076 -0.0296  0.6395  0.3251
 7254SOL    HW222288   6.818   1.580   5.995 -0.5072  0.8128  0.2632
 7255SOL     OW22289   3.758   0.456   5.048 -0.2435 -0.0416  0.1752
 7255SOL    HW122290   3.851   0.467   5.030 -0.1583 -1.0946 -0.0495
 7255SOL    HW222291   3.732   0.539   5.089  1.2191 -0.4294  1.9998
 7256SOL     OW22292   5.210   4.069   3.916 -0.3572  0.9174  0.1098
 7256SOL    HW122293   5.136   4.013   3.941  0.0328 -0.4390 -1.5555
 7256SOL    HW222294   5.284   4.035   3.965 -0.0052 -0.4664 -1.2935
 7257SOL     OW22295   2.878   0.709   1.321 -0.0274 -0.0130  0.4507
 7257SOL    HW122296   2.972   0.726   1.317  0.1373 -0.6781  1.1822
 7257SOL    HW222297   2.864   0.673   1.409 -0.4794 -2.7421 -0.6522
 7258SOL     OW22298   4.041   5.670   5.992  0.6947  0.5380  0.2170
 7258SOL    HW122299   4.037   5.685   5.897 -0.2683  0.6010  0.2631
 7258SOL    HW222300   4.072   5.580   6.000  1.7104  0.8351 -0.1328
 7259SOL     OW22301   0.480   7.522   2.787  0.0359 -0.0940  0.4081
 7259SOL    HW122302   0.428   7.566   2.854  1.0481  0.9845  0.5311
 7259SOL    HW222303   0.570   7.551   2.804  0.5541 -1.1786 -0.3525
 7260SOL     OW22304   6.298   5.531   0.772  0.4682 -0.0324 -0.5364
 7260SOL    HW122305   6.209   5.536   0.807  0.3778 -1.4952 -0.5231
 7260SOL    HW222306   6.354   5.522   0.850  0.7241  1.6673 -0.4900
 7261SOL     OW22307   6.638   3.064   3.465 -0.0458  0.1463  0.3391
 7261SOL    HW122308   6.573   3.127   3.434 -0.9541 -0.0963  1.6685
 7261SOL    HW222309   6.646   3.083   3.558  1.4920 -0.1182  0.2834
 7262SOL     OW22310   4.499   1.248   4.785 -0.1307 -0.2512 -0.1324
 7262SOL    HW122311   4.568   1.183   4.799 -0.4192 -1.1034 -2.2760
 7262SOL    HW222312   4.544   1.322   4.743 -0.4436 -0.7687 -1.4418
 7263SOL     OW22313   1.579   3.931   1.143 -0.2324  0.7435 -0.3011
 7263SOL    HW122314   1.524   3.906   1.069  0.9146 -1.9268 -0.3990
 7263SOL    HW222315   1.531   3.901   1.220 -0.3219  1.2699 -0.1518
 7264SOL     OW22316   7.419   4.554   5.414 -0.0346  0.2443  0.3970
 7264SOL    HW122317   7.350   4.616   5.437 -0.1779  0.5825 -0.9056
 7264SOL    HW222318   7.385   4.469   5.444 -1.9337  0.0818 -1.9343
 7265SOL     OW22319   4.956   1.430   4.867 -0.2492 -0.1647  0.0818
 7265SOL    HW122320   4.921   1.513   4.834 -0.0346 -0.0734  0.0806
 7265SOL    HW222321   5.013   1.399   4.797 -1.2877 -0.9365 -0.4407
 7266SOL     OW22322   7.177   7.008   3.662  0.2473  0.3257  0.3314
 7266SOL    HW122323   7.153   6.973   3.748  0.9856  0.0497  0.4328
 7266SOL    HW222324   7.273   7.002   3.659  0.3190  1.3802 -0.0642
 7267SOL     OW22325   5.194   3.692   1.927 -0.2890 -0.2697  0.0478
 7267SOL    HW122326   5.198   3.788   1.926 -0.9828 -0.2240  0.6718
 7267SOL    HW222327   5.183   3.668   1.835 -1.6960  0.3539  0.0233
 7268SOL     OW22328   2.534   2.861   4.497 -0.3089 -0.1392  0.0244
 7268SOL    HW122329   2.452   2.909   4.511  0.0059  0.1228  1.0742
 7268SOL    HW222330   2.591   2.922   4.451 -0.0452  0.3723  1.0041
 7269SOL     OW22331   1.040   7.360   1.095 -0.0383 -0.2443  0.2303
 7269SOL    HW122332   1.048   7.277   1.048 -2.1258 -0.6535  0.4985
 7269SOL    HW222333   1.129   7.379   1.126  1.2054 -0.6006 -2.7366
 7270SOL     OW22334   7.547   4.520   0.157 -0.9865 -0.3478 -0.3555
 7270SOL    HW122335   7.472   4.497   0.212 -0.2073 -0.1662  0.8330
 7270SOL    HW222336   7.511   4.527   0.069 -2.5320  0.5268  0.2914
 7271SOL     OW22337   4.948   4.519   0.374 -0.3563 -0.4348 -0.6286
 7271SOL    HW122338   4.936   4.524   0.469 -0.4495 -0.3821 -0.6428
 7271SOL    HW222339   4.859   4.522   0.338 -0.2868  0.4613 -0.7566
 7272SOL     OW22340   3.988   4.266   3.462 -0.5080 -0.1714 -0.2583
 7272SOL    HW122341   4.063   4.296   3.412 -0.5020 -1.5555 -1.1380
 7272SOL    HW222342   3.919   4.329   3.444 -0.1998 -0.0945 -1.2022
 7273SOL     OW22343   5.670   6.711   1.493 -0.3151 -0.1274  0.1352
 7273SOL    HW122344   5.647   6.790   1.443 -0.5623  0.5539  1.2945
 7273SOL    HW222345   5.627   6.640   1.446  1.8864  0.0291 -2.3595
 7274SOL     OW22346   7.054   1.020   4.149 -0.1038 -0.3294 -0.2549
 7274SOL    HW122347   7.125   0.963   4.118  0.9192  0.5524  0.4031
 7274SOL    HW222348   6.978   0.962   4.156  0.2458 -1.0695 -2.0103
 7275SOL     OW22349   3.337   7.157   3.423  0.0749  0.0593 -0.2954
 7275SOL    HW122350   3.369   7.170   3.333  2.0539 -1.3084  0.1516
 7275SOL    HW222351   3.311   7.245   3.452  0.3423  0.6878 -1.8435
 7276SOL     OW22352   1.667   6.629   4.703 -0.4165 -0.1016 -0.2312
 7276SOL    HW122353   1.669   6.593   4.792 -0.4422 -1.4496 -0.7538
 7276SOL    HW222354   1.576   6.619   4.676  0.1273 -2.5126 -1.4704
 7277SOL     OW22355   3.591   6.052   1.563 -0.4528  0.0342 -0.1404
 7277SOL    HW122356   3.513   6.100   1.590  0.6411  1.6729  0.2437
 7277SOL    HW222357   3.625   6.013   1.643 -1.8907 -2.3633 -0.5932
 7278SOL     OW22358   3.646   2.763   0.323 -0.6923 -0.6222 -0.4666
 7278SOL    HW122359   3.700   2.716   0.387  2.5032 -0.7196 -3.0175
 7278SOL    HW222360   3.591   2.694   0.284  2.2671 -2.0260 -2.5078
 7279SOL     OW22361   1.948   6.424   2.172 -0.4851  0.3986  0.2469
 7279SOL    HW122362   2.019   6.426   2.108 -1.1662 -0.5741 -0.5734
 7279SOL    HW222363   1.873   6.387   2.124 -0.9472 -0.5838  1.6637
 7280SOL     OW22364   1.617   7.134   4.157  0.3658  0.4602 -0.0344
 7280SOL    HW122365   1.699   7.178   4.135  2.9716 -1.8513  3.6902
 7280SOL    HW222366   1.611   7.141   4.253 -2.8334 -1.0857  0.0305
 7281SOL     OW22367   3.977   2.105   3.680  0.1665 -0.3338  0.7671
 7281SOL    HW122368   4.039   2.118   3.751 -0.6353 -0.1108  1.4469
 7281SOL    HW222369   3.980   2.187   3.631 -0.4583  0.1501  1.5101
 7282SOL     OW22370   4.634   2.417   4.420 -0.2353 -0.9410 -0.3924
 7282SOL    HW122371   4.694   2.413   4.345 -1.4250 -0.7768 -1.3896
 7282SOL    HW222372   4.554   2.374   4.388 -0.3797 -1.9000  1.1755
 7283SOL     OW22373   5.058   5.778   7.531  0.1276  0.5319  0.5628
 7283SOL    HW122374   5.074   5.708   7.594 -1.0303  0.3222  0.6435
 7283SOL    HW222375   5.057   5.734   7.446 -0.9626  0.3770  0.6451
 7284SOL     OW22376   6.796   5.729   6.231 -0.0064  0.1801  0.4706
 7284SOL    HW122377   6.860   5.788   6.273  0.8983 -0.2758 -0.2229
 7284SOL    HW222378   6.759   5.782   6.161  0.5907  0.0313  0.0343
 7285SOL     OW22379   6.604   4.352   4.721  0.4607  0.0487  0.4212
 7285SOL    HW122380   6.584   4.429   4.775  1.4208 -0.1319  1.0620
 7285SOL    HW222381   6.522   4.332   4.676 -0.0075  0.9853  0.8311
 7286SOL     OW22382   3.223   1.960   6.756  0.2130  0.2273  0.0142
 7286SOL    HW122383   3.279   1.982   6.682 -1.6747  1.4790 -1.1010
 7286SOL    HW222384   3.228   2.037   6.814 -1.5323  1.0854 -0.8839
 7287SOL     OW22385   4.574   0.730   0.930 -0.1025  0.6892 -0.1175
 7287SOL    HW122386   4.532   0.816   0.921  1.7305  1.6610  0.1851
 7287SOL    HW222387   4.642   0.729   0.863 -1.2551 -1.3192 -1.3594
 7288SOL     OW22388   1.301   5.898   4.088  0.0844  0.2870 -0.2320
 7288SOL    HW122389   1.331   5.830   4.149 -2.5692 -1.1814 -0.4351
 7288SOL    HW222390   1.381   5.944   4.063  1.8043 -1.7864  1.0891
 7289SOL     OW22391   1.788   2.201   2.537 -0.2974 -0.1590  0.1653
 7289SOL    HW122392   1.816   2.146   2.610  0.1183 -2.1945 -1.4053
 7289SOL    HW222393   1.829   2.161   2.460 -0.6621  1.9151 -1.1935
 7290SOL     OW22394   1.848   0.966   5.147  0.3251  0.2788 -0.0619
 7290SOL    HW122395   1.770   1.020   5.150 -0.0133 -0.2483  2.0806
 7290SOL    HW222396   1.906   1.002   5.214  1.4292 -0.0762 -0.7921
 7291SOL     OW22397   6.997   4.829   7.104  0.6050 -0.3080  0.5901
 7291SOL    HW122398   7.029   4.768   7.171  0.4468 -0.5456  0.4509
 7291SOL    HW222399   7.008   4.782   7.021 -1.3702 -0.9715  0.6362
 7292SOL     OW22400   7.447   2.027   1.623  0.0330 -0.2226 -0.2674
 7292SOL    HW122401   7.356   2.000   1.635 -0.1207  0.1886 -0.4837
 7292SOL    HW222402   7.494   1.946   1.605 -0.1002 -0.5791  0.9133
 7293SOL     OW22403   4.763   0.036   3.245  0.1648 -0.3095  0.0424
 7293SOL    HW122404   4.721   0.114   3.209 -1.4299 -1.0721  0.1627
 7293SOL    HW222405   4.836   0.018   3.185 -0.2788  0.4794 -0.7641
 7294SOL     OW22406   0.867   5.342   7.057 -0.4342  0.3551 -0.5936
 7294SOL    HW122407   0.776   5.319   7.077 -0.3059  0.1934 -0.1851
 7294SOL    HW222408   0.862   5.385   6.971 -1.0174  1.1736 -0.1696
 7295SOL     OW22409   7.057   0.514   2.479  0.5528 -0.1620  0.4359
 7295SOL    HW122410   7.063   0.597   2.526 -0.1840 -0.4166  0.9865
 7295SOL    HW222411   7.100   0.450   2.536 -0.9380 -0.6028  1.1106
 7296SOL     OW22412   3.765   3.455   4.963 -0.1922  0.1966  0.0628
 7296SOL    HW122413   3.715   3.504   4.898 -0.2315 -0.0545 -0.0983
 7296SOL    HW222414   3.727   3.480   5.047 -0.7063 -0.1305 -0.0712
 7297SOL     OW22415   0.309   6.361   3.131 -0.1320 -0.2859 -0.8117
 7297SOL    HW122416   0.237   6.354   3.193 -0.1352 -0.0896 -0.7922
 7297SOL    HW222417   0.279   6.426   3.067  0.8171  1.3047  0.2878
 7298SOL     OW22418   7.110   1.810   4.241 -0.0576 -0.8806  0.4286
 7298SOL    HW122419   7.136   1.740   4.301 -0.4017 -0.3466  1.2142
 7298SOL    HW222420   7.149   1.785   4.157 -0.5108 -2.2237  0.5909
 7299SOL     OW22421   2.874   7.228   1.752 -0.1839 -0.7846  0.0325
 7299SOL    HW122422   2.846   7.208   1.841  0.4740  0.9962  0.6919
 7299SOL    HW222423   2.792   7.231   1.701 -0.5255 -2.2030  0.4658
 7300SOL     OW22424   5.347   6.565   6.501  0.1000 -0.3363  0.2950
 7300SOL    HW122425   5.341   6.592   6.410  2.3092 -3.1171 -0.8082
 7300SOL    HW222426   5.415   6.622   6.538 -0.7677  0.7621  0.2751
 7301SOL     OW22427   2.488   7.307   4.851 -0.0646  0.4197  0.1119
 7301SOL    HW122428   2.495   7.284   4.758  0.5274  1.7223 -0.1864
 7301SOL    HW222429   2.460   7.398   4.851 -1.0905  0.1254  1.2462
 7302SOL     OW22430   6.958   0.648   4.300 -0.3593 -0.3145  0.7226
 7302SOL    HW122431   6.906   0.721   4.334 -2.0721 -1.0996 -0.1051
 7302SOL    HW222432   7.001   0.612   4.378  0.7814  1.7128  1.1050
 7303SOL     OW22433   4.042   6.827   6.318  0.0811 -0.4128  0.7274
 7303SOL    HW122434   4.122   6.874   6.293  0.1869  0.3514  2.3633
 7303SOL    HW222435   4.003   6.801   6.235  1.2823  0.4623 -0.1593
 7304SOL     OW22436   6.560   1.225   4.734 -0.0230 -0.0509 -0.6283
 7304SOL    HW122437   6.589   1.166   4.804 -1.9731 -1.1244 -0.6418
 7304SOL    HW222438   6.613   1.303   4.744  0.2382 -0.4592  1.6091
 7305SOL     OW22439   5.396   2.439   2.998  0.1030 -0.2422 -0.4972
 7305SOL    HW122440   5.379   2.347   3.017 -0.8375 -0.4702 -2.2198
 7305SOL    HW222441   5.456   2.467   3.067 -2.4795 -1.0848  2.2573
 7306SOL     OW22442   5.485   7.000   4.462 -0.7100  0.0606 -0.0244
 7306SOL    HW122443   5.529   7.085   4.459  0.6050 -0.5980 -0.0194
 7306SOL    HW222444   5.436   7.002   4.545 -0.2132  0.5857  0.2650
 7307SOL     OW22445   2.521   6.410   3.612 -0.4668  0.4881 -0.1534
 7307SOL    HW122446   2.605   6.372   3.640 -0.1647  2.8187  2.6407
 7307SOL    HW222447   2.461   6.336   3.607  0.4643 -0.7169  3.3788
 7308SOL     OW22448   1.496   3.125   2.159  0.4438  0.5193 -0.2802
 7308SOL    HW122449   1.525   3.084   2.241  2.4039  0.0098 -1.1611
 7308SOL    HW222450   1.575   3.168   2.125 -0.7170  2.0779 -1.1329
 7309SOL     OW22451   0.613   3.713   1.547 -0.7339 -0.3039 -0.0050
 7309SOL    HW122452   0.631   3.636   1.601  0.6677 -0.5518 -0.7988
 7309SOL    HW222453   0.565   3.679   1.472 -1.6550 -0.1211  0.4749
 7310SOL     OW22454   0.499   0.703   0.535 -0.0880  0.2942  0.0356
 7310SOL    HW122455   0.592   0.703   0.510 -0.5820  0.4744 -1.8848
 7310SOL    HW222456   0.470   0.792   0.520 -0.5288  0.2987  0.8804
 7311SOL     OW22457   2.470   6.924   1.927  0.1922  0.7932 -0.7270
 7311SOL    HW122458   2.429   6.839   1.912 -0.1481  1.0929 -1.5371
 7311SOL    HW222459   2.418   6.963   1.998  1.1903 -0.2172  0.6124
 7312SOL     OW22460   3.750   6.036   5.798 -0.1606 -0.6234 -0.6597
 7312SOL    HW122461   3.789   6.015   5.884 -0.1530  0.3466 -0.4101
 7312SOL    HW222462   3.825   6.040   5.739 -0.1678 -1.3237 -0.7232
 7313SOL     OW22463   2.747   1.999   7.001  0.2684  0.6274  0.5963
 7313SOL    HW122464   2.768   2.014   7.093 -1.3234 -2.1228  1.5305
 7313SOL    HW222465   2.822   1.949   6.967 -0.2202 -0.5067  1.1346
 7314SOL     OW22466   1.866   5.078   6.457  0.5224  0.1156 -0.1449
 7314SOL    HW122467   1.805   5.131   6.406  1.2999  0.4373 -0.7443
 7314SOL    HW222468   1.809   5.018   6.507 -0.3572  1.3169  0.3542
 7315SOL     OW22469   7.351   0.984   4.432  0.2111 -0.0552  0.2104
 7315SOL    HW122470   7.395   0.948   4.355  0.5778  0.0935  0.3477
 7315SOL    HW222471   7.287   1.046   4.396 -0.7917 -1.2162 -0.0479
 7316SOL     OW22472   6.168   4.359   3.584 -0.0289 -0.4644  0.2807
 7316SOL    HW122473   6.073   4.364   3.586  0.0074  0.3233  2.1748
 7316SOL    HW222474   6.194   4.351   3.676  1.7017 -1.7926 -0.2715
 7317SOL     OW22475   5.727   2.223   5.561 -0.6677  0.3172 -0.5814
 7317SOL    HW122476   5.767   2.253   5.643  1.9183  1.9082 -2.2801
 7317SOL    HW222477   5.762   2.135   5.549  2.0308  1.4180 -1.6799
 7318SOL     OW22478   5.731   2.197   1.024  0.0396  0.5483  0.4931
 7318SOL    HW122479   5.825   2.190   1.010 -0.2089 -0.9886 -0.6740
 7318SOL    HW222480   5.707   2.114   1.066 -0.7879  0.9419  0.8167
 7319SOL     OW22481   1.387   6.855   5.937  1.0595  0.4807  0.0543
 7319SOL    HW122482   1.373   6.767   5.971 -0.2176  0.6610  0.0524
 7319SOL    HW222483   1.457   6.845   5.873  2.1386 -0.2083  1.2927
 7320SOL     OW22484   1.770   1.852   1.410 -1.0155  0.5500 -0.2015
 7320SOL    HW122485   1.735   1.903   1.483 -0.3166  1.7039 -0.6461
 7320SOL    HW222486   1.841   1.800   1.449 -1.6615 -0.0251  0.2316
 7321SOL     OW22487   6.200   3.047   3.568  0.1752  0.8901 -0.6538
 7321SOL    HW122488   6.217   3.036   3.662  0.3569 -0.8873 -0.8626
 7321SOL    HW222489   6.113   3.088   3.565 -0.9638 -1.2238  0.3381
 7322SOL     OW22490   2.245   6.479   0.252 -0.6767  0.5793  0.0648
 7322SOL    HW122491   2.184   6.523   0.193 -0.4112  1.7316  0.6095
 7322SOL    HW222492   2.198   6.473   0.335 -1.0725 -1.0860 -0.2563
 7323SOL     OW22493   0.059   7.029   5.162 -0.1089  0.2774  0.5530
 7323SOL    HW122494   0.041   6.948   5.114 -0.8598  0.2089  0.9246
 7323SOL    HW222495   0.057   7.097   5.096  0.4267  0.0095  0.2528
 7324SOL     OW22496   4.379   1.312   3.142 -0.2206  0.0554  0.4787
 7324SOL    HW122497   4.310   1.248   3.128 -0.9058  0.7356  0.7059
 7324SOL    HW222498   4.340   1.378   3.199  0.5484  0.5514  0.4454
 7325SOL     OW22499   3.371   5.224   4.734  0.0257 -0.2703 -0.2087
 7325SOL    HW122500   3.329   5.306   4.706 -2.2345 -2.1508 -2.7799
 7325SOL    HW222501   3.313   5.187   4.799  0.6599 -0.2240  0.3978
 7326SOL     OW22502   2.207   3.215   4.939 -0.2907  1.0649 -0.2964
 7326SOL    HW122503   2.147   3.143   4.956 -1.5490  1.8464 -1.2603
 7326SOL    HW222504   2.252   3.229   5.023  1.2734 -1.8946 -0.4768
 7327SOL     OW22505   3.266   7.174   4.315  0.2035  0.5253 -0.0688
 7327SOL    HW122506   3.221   7.095   4.344  1.1132 -0.0880 -0.2875
 7327SOL    HW222507   3.229   7.244   4.369  1.9273 -0.5660  2.7261
 7328SOL     OW22508   3.378   2.019   6.012  0.1144 -0.0896 -0.5978
 7328SOL    HW122509   3.301   1.983   5.968 -0.4208 -0.0585  0.2968
 7328SOL    HW222510   3.414   2.082   5.950  0.1043 -0.9571 -1.5066
 7329SOL     OW22511   0.183   3.299   2.655  0.0988 -0.0302 -0.0419
 7329SOL    HW122512   0.202   3.222   2.600 -0.8486  1.0027 -1.9114
 7329SOL    HW222513   0.192   3.373   2.596  1.1673  1.3619  1.7745
 7330SOL     OW22514   3.962   3.519   2.868 -0.5089 -0.5538  0.2996
 7330SOL    HW122515   4.016   3.441   2.859  0.5455 -0.0123  1.6790
 7330SOL    HW222516   3.875   3.485   2.891 -0.8004 -1.4136 -1.7857
 7331SOL     OW22517   2.830   6.321   1.801 -0.1232 -0.7366 -0.2628
 7331SOL    HW122518   2.883   6.276   1.866  0.0197 -0.5227 -0.2289
 7331SOL    HW222519   2.761   6.365   1.852  0.7908  0.5701 -0.1027
 7332SOL     OW22520   5.686   2.008   0.403  0.4868 -0.9263 -0.5462
 7332SOL    HW122521   5.694   1.914   0.389 -1.2821 -1.3101  0.7258
 7332SOL    HW222522   5.676   2.018   0.497  0.8704  0.5730 -0.6386
 7333SOL     OW22523   2.529   2.683   3.985 -0.1407 -0.5433  0.0033
 7333SOL    HW122524   2.447   2.635   3.978 -1.1279  1.1042 -0.2397
 7333SOL    HW222525   2.535   2.708   4.077 -1.2614  1.5158 -0.4219
 7334SOL     OW22526   2.765   3.329   1.876  0.1252 -0.3470  0.4395
 7334SOL    HW122527   2.795   3.398   1.818 -0.6240  1.6471  2.2977
 7334SOL    HW222528   2.845   3.290   1.911  0.5878  0.9230  0.8361
 7335SOL     OW22529   2.088   0.320   7.064  0.1766 -0.0087 -0.0440
 7335SOL    HW122530   2.008   0.371   7.049  1.0683  0.9743 -1.6491
 7335SOL    HW222531   2.060   0.229   7.054 -0.4557  0.3788 -2.3100
 7336SOL     OW22532   5.438   0.101   3.103 -0.2164  0.0385  0.0316
 7336SOL    HW122533   5.390   0.052   3.170 -0.7749  0.3935 -0.0992
 7336SOL    HW222534   5.372   0.160   3.065 -0.1166 -0.7368 -1.3976
 7337SOL     OW22535   7.487   4.821   5.665 -0.0123  0.1214  0.4704
 7337SOL    HW122536   7.545   4.892   5.638 -0.8724  0.5943 -0.1606
 7337SOL    HW222537   7.429   4.861   5.730 -3.1842  1.2190 -2.7142
 7338SOL     OW22538   5.799   5.925   3.320  0.2130  0.2506  0.1788
 7338SOL    HW122539   5.742   5.875   3.263 -0.5887  0.2604  0.9580
 7338SOL    HW222540   5.816   6.006   3.271  0.4156 -0.1872 -0.4948
 7339SOL     OW22541   7.376   5.289   0.132 -0.1544 -0.9897 -0.6289
 7339SOL    HW122542   7.427   5.368   0.118  0.2178 -0.9211  0.9765
 7339SOL    HW222543   7.407   5.229   0.064  0.4071 -0.1626 -1.1228
 7340SOL     OW22544   0.997   0.555   5.128 -0.5224  0.4850 -0.1762
 7340SOL    HW122545   0.988   0.470   5.172 -2.9922  0.5981 -0.3107
 7340SOL    HW222546   1.062   0.602   5.179  0.8732 -1.4379 -0.0536
 7341SOL     OW22547   4.195   3.755   6.188 -0.3801 -1.0099  0.2478
 7341SOL    HW122548   4.122   3.738   6.128 -0.2501 -0.9574  0.0742
 7341SOL    HW222549   4.154   3.770   6.273 -0.4800 -3.5015  0.7316
 7342SOL     OW22550   5.326   1.631   4.180 -0.0967 -0.2475  0.0634
 7342SOL    HW122551   5.279   1.687   4.241 -1.5973  0.6083 -1.7726
 7342SOL    HW222552   5.328   1.680   4.098 -0.4588 -2.3928 -1.3167
 7343SOL     OW22553   4.588   5.633   2.637 -0.1169  0.8221  0.5198
 7343SOL    HW122554   4.680   5.639   2.662 -0.2874  0.3522  1.2799
 7343SOL    HW222555   4.552   5.565   2.693 -0.3994 -0.6931 -1.3796
 7344SOL     OW22556   3.414   5.795   5.893 -0.1717 -0.2829  0.4893
 7344SOL    HW122557   3.501   5.761   5.873 -0.6357 -1.6954  0.7628
 7344SOL    HW222558   3.381   5.738   5.963 -1.4739 -0.0312  0.1095
 7345SOL     OW22559   0.455   5.031   0.381 -0.6409  0.0917 -0.7859
 7345SOL    HW122560   0.438   5.034   0.286 -0.9185  3.5700 -0.7566
 7345SOL    HW222561   0.386   5.085   0.419  0.0430 -0.4373  1.3252
 7346SOL     OW22562   4.924   4.340   7.486 -0.9993 -0.4356 -0.2089
 7346SOL    HW122563   4.854   4.319   7.424 -0.1944 -0.2930 -1.1904
 7346SOL    HW222564   4.908   4.431   7.510 -1.3196 -0.4891 -0.2240
 7347SOL     OW22565   5.285   1.177   0.972 -0.0856 -0.0573  0.1350
 7347SOL    HW122566   5.292   1.262   0.928  1.0140  0.0997  0.5780
 7347SOL    HW222567   5.209   1.186   1.030 -1.3945 -0.1793 -1.4995
 7348SOL     OW22568   0.979   3.550   6.974  0.5574 -0.0514  0.1387
 7348SOL    HW122569   1.003   3.498   6.897 -4.0281 -1.5792 -0.5738
 7348SOL    HW222570   0.954   3.635   6.938 -1.9545 -0.8868 -0.2769
 7349SOL     OW22571   4.030   0.087   1.366 -0.5588 -0.1196 -0.0680
 7349SOL    HW122572   4.065   0.159   1.419  0.1143 -0.5233  0.0375
 7349SOL    HW222573   3.987   0.131   1.292 -2.2177  0.5074  1.1810
 7350SOL     OW22574   2.526   5.308   5.410  0.0582 -0.3296  0.5498
 7350SOL    HW122575   2.511   5.327   5.317 -0.2715  0.4538  0.7564
 7350SOL    HW222576   2.621   5.317   5.420  0.1065 -0.5052  0.2664
 7351SOL     OW22577   1.724   6.904   4.704  0.1051  0.2421  0.2234
 7351SOL    HW122578   1.719   6.812   4.732 -1.3676  0.0269 -0.6567
 7351SOL    HW222579   1.659   6.949   4.758 -1.4677  0.1458 -1.4771
 7352SOL     OW22580   1.706   3.271   2.084 -0.0142 -0.3050 -0.5697
 7352SOL    HW122581   1.747   3.316   2.010  0.5786 -1.0849 -0.7384
 7352SOL    HW222582   1.710   3.333   2.156 -1.3359  0.7747 -1.3933
 7353SOL     OW22583   6.027   2.006   0.138 -0.0407 -0.0769  0.3998
 7353SOL    HW122584   5.961   1.954   0.091 -0.5225  0.8024  0.0828
 7353SOL    HW222585   6.044   2.080   0.080  1.6404 -0.5557  0.2252
 7354SOL     OW22586   3.088   3.577   1.370 -0.0789  0.6918  0.1432
 7354SOL    HW122587   3.112   3.486   1.357 -3.0979 -0.3281  0.9478
 7354SOL    HW222588   3.121   3.598   1.458  1.8339  0.8830 -0.5786
 7355SOL     OW22589   0.785   2.816   5.199 -0.1063  0.4320  0.3438
 7355SOL    HW122590   0.800   2.761   5.276 -1.8735 -1.9190 -0.8885
 7355SOL    HW222591   0.839   2.777   5.130 -0.0430  1.3326 -0.1418
 7356SOL     OW22592   4.073   3.811   0.297 -0.3309  0.1348 -0.4509
 7356SOL    HW122593   4.042   3.838   0.383 -0.1720 -0.0683 -0.3297
 7356SOL    HW222594   4.091   3.717   0.306  1.2593  0.4255 -0.2403
 7357SOL     OW22595   7.174   7.249   2.616  0.4982 -0.1381 -0.3134
 7357SOL    HW122596   7.098   7.190   2.621 -1.8530  2.7136  0.0734
 7357SOL    HW222597   7.249   7.193   2.637 -1.7556 -2.5603  2.0762
 7358SOL     OW22598   6.231   2.048   4.232 -0.1569  0.9891  0.2241
 7358SOL    HW122599   6.297   1.994   4.275 -0.0248  1.3472  0.4765
 7358SOL    HW222600   6.248   2.137   4.264 -0.2504  1.2103 -0.3344
 7359SOL     OW22601   4.653   1.307   3.432 -0.2267 -0.1003 -0.1241
 7359SOL    HW122602   4.560   1.322   3.445 -0.3734 -1.4306  0.5362
 7359SOL    HW222603   4.690   1.393   3.413 -1.5522  0.4600 -0.1930
 7360SOL     OW22604   5.551   7.088   3.109  0.0129  0.0528  0.6078
 7360SOL    HW122605   5.642   7.082   3.079 -0.1894  0.1521 -0.0404
 7360SOL    HW222606   5.558   7.127   3.196  0.6082 -0.1908  0.6783
 7361SOL     OW22607   6.110   4.546   0.904 -0.0290 -0.2185 -0.2772
 7361SOL    HW122608   6.152   4.535   0.819 -0.2452  1.2167 -0.5935
 7361SOL    HW222609   6.183   4.552   0.966  0.1422 -0.7445 -0.4271
 7362SOL     OW22610   2.640   3.710   6.343  0.4540 -0.0530  0.1874
 7362SOL    HW122611   2.664   3.736   6.432  1.6461  0.5829 -0.2948
 7362SOL    HW222612   2.671   3.620   6.335 -0.0476 -0.2594  0.5540
 7363SOL     OW22613   3.019   0.213   4.957  0.4078  0.2577 -0.0274
 7363SOL    HW122614   3.019   0.124   4.922  1.8335  0.1030  0.3206
 7363SOL    HW222615   2.958   0.210   5.031  0.5148 -0.4520  0.0316
 7364SOL     OW22616   3.106   0.801   5.541  0.0185  0.0357 -0.5057
 7364SOL    HW122617   3.052   0.858   5.486 -1.0843  2.5150  2.8204
 7364SOL    HW222618   3.189   0.849   5.551 -0.6712  0.8803  1.7730
 7365SOL     OW22619   6.367   5.701   2.616 -0.1514 -0.0830  0.0227
 7365SOL    HW122620   6.340   5.725   2.704  0.1067  1.6106 -0.3282
 7365SOL    HW222621   6.375   5.605   2.619 -1.5413 -0.2004  1.4152
 7366SOL     OW22622   2.126   7.209   7.287  0.6114  0.0033 -0.0765
 7366SOL    HW122623   2.198   7.158   7.249  0.1148 -2.5406  2.0729
 7366SOL    HW222624   2.164   7.252   7.363  0.2860  0.1842 -0.0153
 7367SOL     OW22625   7.008   5.133   4.833  0.2021 -0.2684  0.4520
 7367SOL    HW122626   6.993   5.158   4.924 -0.8911  0.0349  0.1979
 7367SOL    HW222627   6.922   5.112   4.798  0.8259 -2.2768  0.0089
 7368SOL     OW22628   5.157   1.787   7.538 -0.1301  0.0933  0.6782
 7368SOL    HW122629   5.164   1.761   7.630 -2.4810 -0.4715  0.7661
 7368SOL    HW222630   5.135   1.880   7.542 -0.3892  0.0311  0.6889
 7369SOL     OW22631   1.763   1.279   6.843 -0.2022  0.3311  0.0170
 7369SOL    HW122632   1.819   1.274   6.921  1.1614  2.9010 -0.7086
 7369SOL    HW222633   1.814   1.237   6.774  0.1726  1.2579 -0.2820
 7370SOL     OW22634   2.999   5.599   3.188 -0.6631  0.1484  0.0244
 7370SOL    HW122635   3.037   5.570   3.271 -0.9570  0.8877  0.4334
 7370SOL    HW222636   2.944   5.526   3.160  0.2719 -0.5323 -0.0721
 7371SOL     OW22637   2.114   5.772   7.307  0.1634  0.4707  0.2402
 7371SOL    HW122638   2.165   5.714   7.363  0.5800  0.8229  0.2383
 7371SOL    HW222639   2.024   5.741   7.315  0.3936 -0.2399  0.1459
 7372SOL     OW22640   6.917   2.733   7.121 -0.6418  0.3045 -0.3982
 7372SOL    HW122641   7.006   2.734   7.155 -0.4029  0.6745 -1.0215
 7372SOL    HW222642   6.862   2.738   7.199 -0.1114  0.7618 -0.0433
 7373SOL     OW22643   1.160   3.955   6.112 -0.3073  0.1392  0.1055
 7373SOL    HW122644   1.075   3.999   6.104 -0.7189 -0.9680 -2.8186
 7373SOL    HW222645   1.145   3.867   6.079  1.9038 -0.2045 -0.1675
 7374SOL     OW22646   3.395   3.855   7.433 -0.0430 -0.5981 -0.6811
 7374SOL    HW122647   3.456   3.926   7.453 -0.5193 -0.9824  2.7556
 7374SOL    HW222648   3.450   3.778   7.421  0.2785 -0.5854  0.5889
 7375SOL     OW22649   0.492   3.198   4.271  0.0821 -0.2963 -0.3547
 7375SOL    HW122650   0.468   3.107   4.285 -0.9522 -0.0881 -0.7073
 7375SOL    HW222651   0.511   3.205   4.178 -0.7652  0.0488 -0.5082
 7376SOL     OW22652   0.906   5.004   1.121 -0.3828 -0.3066  0.0681
 7376SOL    HW122653   0.986   4.951   1.127 -0.1621 -0.1835 -1.3903
 7376SOL    HW222654   0.836   4.939   1.107 -0.2258 -0.2838 -0.8753
 7377SOL     OW22655   3.025   6.426   5.918  0.2305 -0.0648  0.5030
 7377SOL    HW122656   3.007   6.511   5.957 -0.5612 -0.8238  1.8492
 7377SOL    HW222657   3.116   6.408   5.940  0.2108  0.1508  0.7608
 7378SOL     OW22658   7.517   3.086   2.198 -0.0008 -0.3631  0.0907
 7378SOL    HW122659   7.542   3.009   2.147  0.4487 -0.1992  0.0593
 7378SOL    HW222660   7.589   3.098   2.260 -0.6308 -0.6865  0.9192
 7379SOL     OW22661   0.297   2.918   3.699 -0.7461 -0.5201 -0.2084
 7379SOL    HW122662   0.352   2.966   3.637 -0.7189  0.7069  0.7282
 7379SOL    HW222663   0.293   2.829   3.663  0.4773 -0.2198 -1.1755
 7380SOL     OW22664   3.110   5.052   2.575 -0.2076 -0.6371  0.2862
 7380SOL    HW122665   3.158   5.043   2.493  1.3319  1.1494  0.9257
 7380SOL    HW222666   3.019   5.061   2.548 -0.0022 -2.1850 -1.0837
 7381SOL     OW22667   7.307   3.430   5.919 -0.3095  0.6494  0.1527
 7381SOL    HW122668   7.298   3.336   5.904 -1.6126  0.3510  2.3254
 7381SOL    HW222669   7.369   3.438   5.991 -2.5340  1.1676  2.1357
 7382SOL     OW22670   6.259   2.315   5.019 -0.1349  0.5711 -0.1348
 7382SOL    HW122671   6.261   2.339   4.927  0.7180 -0.1668 -0.3190
 7382SOL    HW222672   6.299   2.389   5.064  0.2453  0.5565 -0.4460
 7383SOL     OW22673   4.291   4.678   5.973  0.3848  0.0434  0.3775
 7383SOL    HW122674   4.382   4.663   5.999  0.3136  0.4920  0.8958
 7383SOL    HW222675   4.266   4.758   6.018  0.0825  0.5521 -0.6684
 7384SOL     OW22676   1.631   7.177   2.450 -0.2892 -0.8301 -0.1596
 7384SOL    HW122677   1.576   7.141   2.381  0.9331 -0.9279 -1.1239
 7384SOL    HW222678   1.634   7.271   2.431  0.4154 -0.9205 -0.5303
 7385SOL     OW22679   6.376   4.078   1.950  0.0497  0.2674 -0.2448
 7385SOL    HW122680   6.312   4.101   1.882  0.6441 -0.8721 -1.2348
 7385SOL    HW222681   6.342   3.997   1.988 -0.3422  0.9663  0.9267
 7386SOL     OW22682   0.271   3.767   5.411  0.0713  0.2256  0.4127
 7386SOL    HW122683   0.341   3.831   5.427  1.6550 -1.1182 -0.7617
 7386SOL    HW222684   0.240   3.743   5.498  1.4103  0.4926  0.9901
 7387SOL     OW22685   4.543   3.059   4.711  0.3263 -0.3420 -0.2870
 7387SOL    HW122686   4.472   2.996   4.715  0.4958 -0.5628 -0.7183
 7387SOL    HW222687   4.542   3.101   4.797 -1.0632  0.4791 -0.6777
 7388SOL     OW22688   4.391   4.688   3.608 -0.1103  0.0407  0.2835
 7388SOL    HW122689   4.442   4.613   3.578 -1.6254 -1.3338  1.0137
 7388SOL    HW222690   4.393   4.748   3.533 -0.8667 -1.7780 -1.2936
 7389SOL     OW22691   1.948   1.365   2.032 -0.3342  0.4163 -0.4910
 7389SOL    HW122692   1.856   1.387   2.049 -0.2135  2.3929 -1.9371
 7389SOL    HW222693   1.985   1.346   2.118 -2.2122 -1.0336  0.0507
 7390SOL     OW22694   0.150   4.934   3.054 -0.5910 -0.4180  1.2527
 7390SOL    HW122695   0.191   4.990   3.119 -0.9830 -0.8316  1.8656
 7390SOL    HW222696   0.111   4.863   3.105  0.1829 -1.4309  0.4724
 7391SOL     OW22697   4.974   4.700   3.049 -0.1276 -0.6446  0.3289
 7391SOL    HW122698   4.984   4.707   3.144  0.4497  0.1648  0.2152
 7391SOL    HW222699   5.049   4.747   3.014 -0.6150 -0.5098 -0.5373
 7392SOL     OW22700   5.369   1.131   6.292  0.4112 -0.4641 -0.2276
 7392SOL    HW122701   5.286   1.100   6.328  0.4389 -3.0848 -2.1322
 7392SOL    HW222702   5.435   1.103   6.356  0.1084 -1.4418 -0.3243
 7393SOL     OW22703   0.401   2.318   0.053  0.1708  0.6328  0.0537
 7393SOL    HW122704   0.317   2.349   0.086  0.1200  0.2518  0.2866
 7393SOL    HW222705   0.465   2.345   0.120  0.2317  0.8816 -0.1010
 7394SOL     OW22706   1.965   6.167   0.139  0.5539  0.7033  0.0954
 7394SOL    HW122707   2.060   6.175   0.137  0.8596 -2.1531 -0.4363
 7394SOL    HW222708   1.948   6.091   0.194 -1.3250  0.2882 -0.9725
 7395SOL     OW22709   0.486   3.922   4.611 -0.1605  0.4202 -0.0814
 7395SOL    HW122710   0.522   3.894   4.527 -1.7880  0.0680 -0.6897
 7395SOL    HW222711   0.561   3.960   4.657  0.9707 -0.2384 -1.2978
 7396SOL     OW22712   7.023   3.250   1.583 -0.6126  0.0074 -0.1667
 7396SOL    HW122713   7.000   3.340   1.605 -2.1218 -0.7182  1.4651
 7396SOL    HW222714   7.114   3.241   1.611 -0.0470  1.3173 -1.4411
 7397SOL     OW22715   0.512   4.978   4.582 -0.7764  0.8717  0.3335
 7397SOL    HW122716   0.442   4.944   4.638 -0.9984 -0.8289 -0.9106
 7397SOL    HW222717   0.470   4.991   4.497  0.7103 -1.7394 -0.8938
 7398SOL     OW22718   3.019   1.963   6.953  0.1939  0.3107  0.7769
 7398SOL    HW122719   3.071   1.961   6.873  1.2921  3.7867  1.2247
 7398SOL    HW222720   3.075   2.007   7.017 -1.2685 -0.8521  3.0045
 7399SOL     OW22721   6.500   1.859   0.594 -0.2830 -0.1366 -0.3819
 7399SOL    HW122722   6.582   1.904   0.573  0.5295 -2.0538 -1.5961
 7399SOL    HW222723   6.517   1.767   0.574 -1.6918 -1.1553  2.5236
 7400SOL     OW22724   6.966   3.143   7.311  0.2432  0.0707 -0.0072
 7400SOL    HW122725   6.960   3.221   7.365  0.5590  0.4797 -0.5528
 7400SOL    HW222726   7.002   3.076   7.369 -0.2463  0.2621  0.5282
 7401SOL     OW22727   0.311   3.798   4.310  0.1780  0.3451 -0.3896
 7401SOL    HW122728   0.237   3.756   4.266  0.3127 -0.7830  0.3932
 7401SOL    HW222729   0.346   3.859   4.246 -0.6611 -0.0231 -1.2253
 7402SOL     OW22730   2.256   3.341   0.458 -0.4153 -0.0368  0.0750
 7402SOL    HW122731   2.351   3.333   0.456 -0.4887 -0.9757 -1.5784
 7402SOL    HW222732   2.229   3.331   0.367 -2.1589 -0.5608  0.6024
 7403SOL     OW22733   1.330   6.145   6.544 -0.4137  0.3661 -0.2981
 7403SOL    HW122734   1.402   6.083   6.531 -1.4822 -1.0399  0.1479
 7403SOL    HW222735   1.262   6.114   6.484 -0.9455  1.1610 -0.1117
 7404SOL     OW22736   3.719   6.284   5.284  0.5219 -0.0616 -0.4824
 7404SOL    HW122737   3.658   6.354   5.260  0.4669 -0.3142 -1.0926
 7404SOL    HW222738   3.728   6.232   5.205 -1.6580 -2.4367  0.6646
 7405SOL     OW22739   3.406   3.330   7.107 -0.2964  0.6994  0.4666
 7405SOL    HW122740   3.468   3.354   7.038  0.4167 -2.1061  0.0148
 7405SOL    HW222741   3.460   3.321   7.185 -0.2000 -1.0929  0.2193
 7406SOL     OW22742   0.428   2.657   6.360  0.3849  0.0193 -0.0264
 7406SOL    HW122743   0.440   2.665   6.266 -1.5840  0.5612 -0.2736
 7406SOL    HW222744   0.431   2.563   6.378 -0.0872 -0.1379 -0.7615
 7407SOL     OW22745   6.068   0.579   3.443  0.1213  0.0685 -0.0990
 7407SOL    HW122746   6.105   0.621   3.521 -1.2069  0.6366  0.2604
 7407SOL    HW222747   6.142   0.566   3.385  0.9204  0.9049  0.6949
 7408SOL     OW22748   2.968   2.142   4.581 -0.1877 -0.3278  0.1184
 7408SOL    HW122749   3.008   2.123   4.496  0.1272 -0.8197  0.3734
 7408SOL    HW222750   2.990   2.066   4.635  0.6899  0.5427  1.0189
 7409SOL     OW22751   3.216   6.171   5.933 -0.9089 -0.0295  0.6441
 7409SOL    HW122752   3.305   6.204   5.919 -1.4613  1.2929 -0.0130
 7409SOL    HW222753   3.212   6.090   5.883 -0.1862  0.1016  0.3580
 7410SOL     OW22754   6.026   1.587   4.802  0.0320 -0.2269 -0.0029
 7410SOL    HW122755   6.048   1.595   4.895  0.3812 -0.9876 -0.0176
 7410SOL    HW222756   6.071   1.661   4.761  2.9646 -1.9267 -0.0849
 7411SOL     OW22757   0.908   2.435   0.156  0.1487 -0.9147 -0.7566
 7411SOL    HW122758   0.911   2.506   0.093 -0.2543 -0.3462 -0.1536
 7411SOL    HW222759   0.870   2.362   0.108 -0.7846 -0.2944 -0.9939
 7412SOL     OW22760   2.357   1.821   0.684  0.7327 -0.3344  0.3204
 7412SOL    HW122761   2.338   1.774   0.765  0.1075  0.3482  0.5893
 7412SOL    HW222762   2.363   1.754   0.617 -0.7516 -0.7588  0.5826
 7413SOL     OW22763   3.291   7.366   1.533  0.0050  0.4359  0.1099
 7413SOL    HW122764   3.290   7.396   1.442  0.1453 -0.2573 -0.1301
 7413SOL    HW222765   3.203   7.384   1.565  0.4204  2.1843  0.3598
 7414SOL     OW22766   2.954   1.525   2.358  0.1772  0.2719  0.0167
 7414SOL    HW122767   2.873   1.477   2.376  0.9412 -0.5159  1.5289
 7414SOL    HW222768   3.023   1.468   2.390  1.1911  1.9733  1.0363
 7415SOL     OW22769   4.557   2.651   4.810  0.1741  0.3428  0.3456
 7415SOL    HW122770   4.575   2.638   4.717 -0.3857  1.5538  0.0487
 7415SOL    HW222771   4.632   2.701   4.842  0.4466 -0.2147  0.5916
 7416SOL     OW22772   5.653   3.338   5.585 -0.5386 -0.1333  0.2932
 7416SOL    HW122773   5.681   3.253   5.551  1.1757  1.1103 -1.6826
 7416SOL    HW222774   5.694   3.343   5.671  0.5639 -0.7390 -0.1731
 7417SOL     OW22775   4.191   3.091   2.663  0.4111 -0.3170  0.0156
 7417SOL    HW122776   4.139   3.096   2.744  0.9714  0.8778  0.3093
 7417SOL    HW222777   4.266   3.148   2.679  1.3735 -1.3386 -0.7472
 7418SOL     OW22778   6.798   3.803   3.793  0.5352 -0.7199  0.5906
 7418SOL    HW122779   6.851   3.802   3.873  2.3253  2.0987 -0.4525
 7418SOL    HW222780   6.722   3.857   3.816  0.7041 -0.4772  0.5762
 7419SOL     OW22781   5.973   0.300   4.698 -0.3814  0.3396 -0.1475
 7419SOL    HW122782   5.901   0.307   4.762  0.4017 -0.0048  0.7977
 7419SOL    HW222783   6.037   0.244   4.741  2.2081  3.6418  0.7289
 7420SOL     OW22784   2.624   7.212   0.147  0.1185  0.3055  0.0217
 7420SOL    HW122785   2.564   7.145   0.112  1.1545 -0.8610  0.4294
 7420SOL    HW222786   2.674   7.167   0.215  0.8883  1.4915  0.2743
 7421SOL     OW22787   5.110   2.574   5.699 -0.3393 -0.3866  0.3134
 7421SOL    HW122788   5.121   2.663   5.732 -0.0326 -0.3707  0.1644
 7421SOL    HW222789   5.130   2.579   5.606 -1.5653 -0.3580  0.0308
 7422SOL     OW22790   1.298   0.240   0.513  0.1803  0.4432  0.0871
 7422SOL    HW122791   1.275   0.333   0.510 -2.0432 -0.0576 -1.5423
 7422SOL    HW222792   1.393   0.239   0.525  0.2487  2.9117  0.3197
 7423SOL     OW22793   5.619   7.327   1.251 -0.1826  0.3150  0.8190
 7423SOL    HW122794   5.536   7.338   1.298 -0.4960 -0.1378  0.3792
 7423SOL    HW222795   5.595   7.283   1.170  0.6436 -1.0838  1.2879
 7424SOL     OW22796   1.364   2.109   2.358 -1.2970  0.2095  0.2051
 7424SOL    HW122797   1.447   2.156   2.367 -1.6167  0.4713  2.1527
 7424SOL    HW222798   1.374   2.059   2.277  1.4621 -1.1106  1.2143
 7425SOL     OW22799   6.739   7.240   6.291 -0.5164 -0.1011 -0.0355
 7425SOL    HW122800   6.741   7.202   6.379 -0.5215  0.5494  0.2465
 7425SOL    HW222801   6.830   7.266   6.275 -0.8053  1.2191  0.4110
 7426SOL     OW22802   3.110   3.080   2.302 -0.3952 -0.2629  0.5051
 7426SOL    HW122803   3.132   3.084   2.395  0.6246 -0.3670  0.2727
 7426SOL    HW222804   3.139   3.164   2.267 -1.5612  0.1312  0.4318
 7427SOL     OW22805   7.234   4.117   3.887  0.2952 -0.1177  0.0726
 7427SOL    HW122806   7.143   4.108   3.858  0.2729  0.7488 -0.1404
 7427SOL    HW222807   7.249   4.211   3.891  0.4888 -0.1920  2.3185
 7428SOL     OW22808   1.413   1.508   3.353 -0.8327 -0.0944 -0.9915
 7428SOL    HW122809   1.433   1.443   3.285 -1.1865 -0.9961 -0.2615
 7428SOL    HW222810   1.467   1.482   3.427  0.0362  1.2700 -1.1313
 7429SOL     OW22811   4.263   5.376   3.536 -0.6349  0.0431  0.2320
 7429SOL    HW122812   4.215   5.328   3.603 -1.4507  1.3109  0.5981
 7429SOL    HW222813   4.350   5.337   3.536 -0.6896 -0.1486  1.8588
 7430SOL     OW22814   4.485   6.874   2.084 -0.1371 -0.6013 -0.3390
 7430SOL    HW122815   4.565   6.909   2.044  0.3170 -0.2574  0.8483
 7430SOL    HW222816   4.432   6.951   2.102  1.1519 -0.3002  2.9151
 7431SOL     OW22817   2.513   0.980   5.304  0.1392  0.0135 -0.9588
 7431SOL    HW122818   2.569   0.915   5.347 -1.1532  0.2762  1.2605
 7431SOL    HW222819   2.452   0.928   5.252 -0.2829 -0.5253  0.0488
 7432SOL     OW22820   2.819   1.639   4.112  0.1406  0.3865  0.1856
 7432SOL    HW122821   2.785   1.717   4.068 -0.5142 -0.7769 -1.5132
 7432SOL    HW222822   2.834   1.577   4.040  1.3772 -0.7833  1.4043
 7433SOL     OW22823   3.925   3.373   0.224  0.3296 -0.6104 -0.0952
 7433SOL    HW122824   4.010   3.353   0.184 -0.3645 -0.2587 -1.8428
 7433SOL    HW222825   3.891   3.289   0.254  1.1087 -0.8085  0.2428
 7434SOL     OW22826   6.644   2.908   2.220 -0.6155  0.2313  0.5228
 7434SOL    HW122827   6.548   2.915   2.223 -0.5764  0.5786  1.1287
 7434SOL    HW222828   6.664   2.842   2.287 -0.4840 -0.4846 -0.2052
 7435SOL     OW22829   0.121   0.837   4.885 -0.2295 -0.5877 -0.2361
 7435SOL    HW122830   0.037   0.882   4.884  0.3589  0.5142 -1.1588
 7435SOL    HW222831   0.135   0.809   4.795  0.9506  0.3121 -0.3526
 7436SOL     OW22832   4.668   0.704   3.163 -0.0534  0.0965  0.1900
 7436SOL    HW122833   4.692   0.714   3.071 -1.5931  0.5611 -0.1976
 7436SOL    HW222834   4.696   0.615   3.185  0.9803  0.2355 -0.5098
 7437SOL     OW22835   4.303   1.747   7.263 -0.0387 -0.3981 -0.0019
 7437SOL    HW122836   4.303   1.838   7.236 -1.3430 -0.7759 -1.4142
 7437SOL    HW222837   4.224   1.738   7.317  0.7636 -0.4276  1.2067
 7438SOL     OW22838   2.221   0.256   5.114 -0.0557 -0.0874  0.0584
 7438SOL    HW122839   2.241   0.251   5.207 -0.2210  0.5913  0.1332
 7438SOL    HW222840   2.210   0.349   5.096 -1.2556 -0.2943 -0.3829
 7439SOL     OW22841   5.021   6.373   6.825  0.2313  0.0849 -0.4144
 7439SOL    HW122842   4.957   6.362   6.895 -0.4554  0.4360 -0.9786
 7439SOL    HW222843   5.100   6.332   6.859  0.4512  1.8000  1.2904
 7440SOL     OW22844   4.165   7.237   0.357  0.0229  0.7825 -0.3497
 7440SOL    HW122845   4.112   7.229   0.436 -1.4151 -1.1319 -1.4288
 7440SOL    HW222846   4.256   7.234   0.389 -0.5158 -0.1130  1.2167
 7441SOL     OW22847   7.085   0.271   7.009  0.2467 -0.3940  0.8529
 7441SOL    HW122848   7.016   0.209   6.987  0.5839 -0.3175 -0.5021
 7441SOL    HW222849   7.159   0.216   7.035  0.4006 -0.5638  0.0861
 7442SOL     OW22850   5.012   0.546   1.329 -0.2199 -0.5559 -0.5169
 7442SOL    HW122851   5.088   0.522   1.276  0.8729  1.8289 -0.1457
 7442SOL    HW222852   4.972   0.619   1.282 -1.8532 -1.2870 -0.3068
 7443SOL     OW22853   3.296   0.087   1.766  0.0084  0.3174  0.2170
 7443SOL    HW122854   3.232   0.089   1.838 -0.9560  0.0326 -0.6222
 7443SOL    HW222855   3.271   0.160   1.710 -0.4014 -0.5850 -0.8051
 7444SOL     OW22856   5.975   4.677   4.268 -0.5952  0.4618 -0.4586
 7444SOL    HW122857   5.970   4.604   4.330  2.3681  1.8621  1.6710
 7444SOL    HW222858   5.985   4.635   4.182  0.6375 -1.6524  0.6462
 7445SOL     OW22859   2.373   3.458   0.053  0.2486  0.4122  0.0663
 7445SOL    HW122860   2.452   3.493   0.093  0.2924  0.0683  0.2854
 7445SOL    HW222861   2.317   3.433   0.127  0.5605 -0.7466 -0.0669
 7446SOL     OW22862   4.891   1.433   2.676  0.6027  0.0716  0.1244
 7446SOL    HW122863   4.968   1.401   2.628 -0.4102  0.0678 -1.5958
 7446SOL    HW222864   4.872   1.364   2.739  0.4502 -1.2223 -1.2663
 7447SOL     OW22865   1.638   5.737   3.341 -0.3003 -0.2670  0.4717
 7447SOL    HW122866   1.710   5.734   3.278  0.4126 -0.4607  1.2770
 7447SOL    HW222867   1.594   5.653   3.331 -2.1115  0.8600 -1.9211
 7448SOL     OW22868   2.102   6.903   3.151 -0.0449 -0.5787  0.7547
 7448SOL    HW122869   2.024   6.941   3.191 -0.8381 -0.4146 -0.8772
 7448SOL    HW222870   2.092   6.809   3.165 -0.3082 -0.5268  0.9356
 7449SOL     OW22871   5.192   5.351   0.973  0.1021 -0.4444 -0.4218
 7449SOL    HW122872   5.267   5.388   0.926  0.4112 -0.1695  0.2776
 7449SOL    HW222873   5.167   5.274   0.922  0.8829 -0.5585 -0.6407
 7450SOL     OW22874   6.861   6.499   6.683  0.0776 -0.0488  0.6409
 7450SOL    HW122875   6.954   6.484   6.697 -0.0013 -0.7336  0.4293
 7450SOL    HW222876   6.823   6.412   6.672 -0.4556  0.2722 -0.1092
 7451SOL     OW22877   1.175   6.071   0.572 -0.3062  0.2074 -0.2719
 7451SOL    HW122878   1.253   6.073   0.517  0.0834 -0.3101  0.2530
 7451SOL    HW222879   1.181   5.989   0.620 -1.5456 -0.1999 -0.7561
 7452SOL     OW22880   4.841   6.727   5.372  0.1651  0.2909 -0.6424
 7452SOL    HW122881   4.783   6.781   5.426  0.9706  0.5472 -0.0079
 7452SOL    HW222882   4.927   6.768   5.381  0.6425 -0.6511 -0.7643
 7453SOL     OW22883   2.106   0.361   3.273  0.0441 -0.0427 -0.1356
 7453SOL    HW122884   2.112   0.435   3.213  1.7764  0.0944  0.1644
 7453SOL    HW222885   2.089   0.285   3.217  2.4445 -0.0440 -0.9343
 7454SOL     OW22886   0.599   2.304   6.998  0.3305 -0.3206  0.4213
 7454SOL    HW122887   0.602   2.216   6.960 -0.8300 -0.6353  1.0131
 7454SOL    HW222888   0.563   2.360   6.929  0.5043 -0.4272  0.2446
 7455SOL     OW22889   0.732   5.642   1.916  0.2526  1.0980 -0.2538
 7455SOL    HW122890   0.748   5.704   1.987  0.0301  0.2948  0.5088
 7455SOL    HW222891   0.696   5.564   1.959  0.4241  0.4722 -1.2091
 7456SOL     OW22892   1.727   1.141   2.021  0.0750 -0.3065 -0.2413
 7456SOL    HW122893   1.690   1.099   2.099 -1.7387  0.2095 -0.7681
 7456SOL    HW222894   1.660   1.204   1.994 -0.0208 -1.4614 -3.0410
 7457SOL     OW22895   0.662   5.294   5.523  0.6531  0.7211  0.1930
 7457SOL    HW122896   0.643   5.358   5.454 -0.2952 -0.8406 -1.0453
 7457SOL    HW222897   0.632   5.337   5.604 -1.0502  1.4103 -0.7467
 7458SOL     OW22898   7.041   5.649   2.729 -0.0173  0.9006 -0.2213
 7458SOL    HW122899   7.072   5.662   2.818  1.2307  1.1619 -0.6739
 7458SOL    HW222900   7.026   5.737   2.695  1.6315  0.9174 -0.9745
 7459SOL     OW22901   2.394   6.502   5.743  0.0890 -0.4127  0.1048
 7459SOL    HW122902   2.437   6.416   5.745  0.6893 -0.2058 -1.8201
 7459SOL    HW222903   2.428   6.548   5.820  4.4619  0.2170 -1.9238
 7460SOL     OW22904   4.983   7.195   6.068  0.2635 -0.2194 -0.4451
 7460SOL    HW122905   5.070   7.156   6.077  0.6191  0.3892 -1.1157
 7460SOL    HW222906   4.975   7.214   5.974  0.9365  3.0941  0.0419
 7461SOL     OW22907   5.587   6.451   1.661  0.1252 -0.4239  0.5571
 7461SOL    HW122908   5.582   6.447   1.565 -1.0777 -1.6125  0.6348
 7461SOL    HW222909   5.497   6.470   1.688  0.4650 -0.0806  1.4622
 7462SOL     OW22910   2.258   0.195   4.010  0.1599 -0.0443  0.2896
 7462SOL    HW122911   2.235   0.190   3.917  0.7041 -1.7777  0.2295
 7462SOL    HW222912   2.236   0.285   4.034  1.3940  0.9267 -1.8850
 7463SOL     OW22913   0.214   5.018   4.451  0.6077  0.1776  0.3150
 7463SOL    HW122914   0.124   5.037   4.478  0.2069  0.7771 -1.3382
 7463SOL    HW222915   0.210   4.930   4.413  0.3295  0.8480 -1.2930
 7464SOL     OW22916   4.903   0.766   3.477 -0.1890 -0.3926 -0.3175
 7464SOL    HW122917   4.962   0.715   3.422 -0.2950  0.7312 -1.4935
 7464SOL    HW222918   4.838   0.702   3.506  0.8719 -1.3815 -0.0029
 7465SOL     OW22919   2.321   4.226   5.961  0.5480  0.2117  0.1920
 7465SOL    HW122920   2.294   4.295   6.022 -0.3203 -0.9628  1.1850
 7465SOL    HW222921   2.369   4.272   5.892 -0.4084  1.8587  0.5830
 7466SOL     OW22922   2.123   2.858   5.972 -0.4285 -0.3694  0.3462
 7466SOL    HW122923   2.212   2.867   5.937 -0.9526  0.8499 -0.7696
 7466SOL    HW222924   2.072   2.823   5.899 -1.2997  1.0959  0.2056
 7467SOL     OW22925   3.780   1.029   5.885  0.2016  0.3393 -0.4366
 7467SOL    HW122926   3.735   0.945   5.879  0.8508 -0.0287 -0.2696
 7467SOL    HW222927   3.772   1.054   5.977 -1.4504  1.3052 -0.7879
 7468SOL     OW22928   2.851   4.746   5.316 -0.5595 -0.1232 -0.4487
 7468SOL    HW122929   2.936   4.716   5.284  0.7662  2.1036  0.8007
 7468SOL    HW222930   2.819   4.674   5.370  1.0508 -0.5639 -0.0422
 7469SOL     OW22931   3.614   6.259   0.988  0.5907  0.2014 -0.6184
 7469SOL    HW122932   3.577   6.321   1.050 -1.1325 -2.2812  1.0077
 7469SOL    HW222933   3.549   6.253   0.918 -1.1700 -2.4272  1.0914
 7470SOL     OW22934   2.957   0.857   7.321  0.2587 -0.0830 -0.0396
 7470SOL    HW122935   2.999   0.894   7.399 -0.6547 -1.0796  0.9719
 7470SOL    HW222936   2.898   0.789   7.356 -0.0511 -0.6661 -1.6166
 7471SOL     OW22937   3.597   1.749   0.300 -0.4798  0.2491 -0.0107
 7471SOL    HW122938   3.677   1.742   0.353 -1.2289 -0.0227  1.1409
 7471SOL    HW222939   3.540   1.806   0.351 -2.2688 -2.1967  0.9032
 7472SOL     OW22940   0.970   6.585   5.218  0.2564  0.0574 -0.2297
 7472SOL    HW122941   1.050   6.535   5.201  0.1268 -0.1317 -0.3000
 7472SOL    HW222942   0.980   6.665   5.167  0.2255 -0.1479 -0.5684
 7473SOL     OW22943   7.213   2.006   5.193 -0.1361  0.1534  0.4841
 7473SOL    HW122944   7.294   2.022   5.241  0.3169  1.5501 -0.6676
 7473SOL    HW222945   7.178   2.093   5.175 -0.8993 -0.3568 -0.6585
 7474SOL     OW22946   4.624   4.055   3.848  0.1595  0.2232  0.1060
 7474SOL    HW122947   4.583   3.973   3.876  0.8877  0.1447  0.9893
 7474SOL    HW222948   4.551   4.117   3.841 -0.2855 -0.2701  0.2809
 7475SOL     OW22949   6.036   6.267   5.389  0.3022  0.3737 -0.0343
 7475SOL    HW122950   6.027   6.214   5.468  0.8009  0.0176 -0.2164
 7475SOL    HW222951   6.103   6.332   5.410 -1.5293  2.1077  0.8134
 7476SOL     OW22952   0.792   6.426   3.024  0.5211  0.1654 -0.1991
 7476SOL    HW122953   0.701   6.433   3.054  0.6603 -0.1670  0.3153
 7476SOL    HW222954   0.808   6.332   3.018  0.3359  0.2181 -1.8509
 7477SOL     OW22955   6.021   5.853   4.257 -0.1054 -0.1756 -0.3073
 7477SOL    HW122956   6.001   5.858   4.350  0.1188  0.1850 -0.2768
 7477SOL    HW222957   5.965   5.783   4.224  0.8980 -1.3316  0.3729
 7478SOL     OW22958   7.337   5.545   3.732  0.2830  0.0232 -0.2415
 7478SOL    HW122959   7.266   5.589   3.780 -1.6791 -1.7926 -1.2832
 7478SOL    HW222960   7.373   5.483   3.796 -0.1444 -0.1560 -0.1712
 7479SOL     OW22961   1.945   1.312   3.897 -0.5018 -0.5800  0.0398
 7479SOL    HW122962   1.923   1.403   3.874 -0.4689 -1.0270 -1.9058
 7479SOL    HW222963   1.860   1.271   3.914 -0.7472 -0.7619 -1.4627
 7480SOL     OW22964   2.714   6.020   6.720 -0.0479 -0.0425  0.2362
 7480SOL    HW122965   2.767   5.940   6.727  0.4182  0.2871  0.4836
 7480SOL    HW222966   2.639   5.994   6.666 -0.2461 -0.8332  0.8747
 7481SOL     OW22967   5.318   1.876   2.809 -0.0935 -0.4250  0.0548
 7481SOL    HW122968   5.316   1.782   2.828  2.1910 -0.4899  0.2776
 7481SOL    HW222969   5.337   1.917   2.893 -0.5357  0.1972 -0.1439
 7482SOL     OW22970   4.323   6.965   6.637 -0.3405  0.1904  0.7805
 7482SOL    HW122971   4.391   7.029   6.659  0.6805 -0.4157 -0.4808
 7482SOL    HW222972   4.330   6.898   6.705  1.0703 -0.4025  0.0868
 7483SOL     OW22973   1.976   4.421   1.010 -0.0626 -0.0737 -0.0608
 7483SOL    HW122974   1.884   4.429   0.985 -0.3087 -0.7939  0.5792
 7483SOL    HW222975   2.022   4.407   0.927 -0.6430 -0.5974 -0.3075
 7484SOL     OW22976   1.005   2.620   7.526 -0.4145 -0.0267 -0.1879
 7484SOL    HW122977   0.953   2.566   7.467 -0.7593  0.0105  0.0834
 7484SOL    HW222978   1.088   2.572   7.534 -0.8059 -0.6398  0.2435
 7485SOL     OW22979   3.323   1.601   1.513 -0.1225 -0.0262 -0.3155
 7485SOL    HW122980   3.417   1.586   1.496  0.1266  1.4007 -0.2650
 7485SOL    HW222981   3.288   1.631   1.429 -0.2181  0.8884  0.0474
 7486SOL     OW22982   5.433   2.121   0.726  0.2790 -0.2508  0.7369
 7486SOL    HW122983   5.351   2.093   0.685 -0.8144  2.1387  1.1495
 7486SOL    HW222984   5.502   2.081   0.672 -1.1127  0.8767 -2.1028
 7487SOL     OW22985   0.640   4.605   3.674 -0.3189  0.2552 -0.4457
 7487SOL    HW122986   0.643   4.645   3.761 -0.0389 -0.6413 -0.0366
 7487SOL    HW222987   0.728   4.620   3.638  0.0402 -0.6593  0.0217
 7488SOL     OW22988   6.405   0.843   1.919  0.5544 -0.2129 -0.2423
 7488SOL    HW122989   6.409   0.933   1.887  4.5299 -0.1221  0.0143
 7488SOL    HW222990   6.409   0.789   1.841  4.2513  0.0001 -0.3695
 7489SOL     OW22991   6.341   3.370   7.093 -0.4208 -0.1041 -0.7218
 7489SOL    HW122992   6.405   3.324   7.147 -2.3198  1.0641  2.8008
 7489SOL    HW222993   6.372   3.460   7.091 -0.5463 -0.0709 -1.3234
 7490SOL     OW22994   5.089   5.308   1.989 -0.2986 -0.6135  0.1514
 7490SOL    HW122995   5.147   5.331   2.062 -2.9603 -1.2049  2.6172
 7490SOL    HW222996   5.044   5.390   1.967  1.1910 -0.1897 -1.6709
 7491SOL     OW22997   2.824   6.905   1.831 -0.3938 -0.9730  0.1452
 7491SOL    HW122998   2.915   6.935   1.839 -1.1262  0.9503  3.3085
 7491SOL    HW222999   2.820   6.827   1.887 -1.0812  0.3385  2.0581
 7492SOL     OW23000   0.160   4.551   4.172  0.8044  0.0577  0.5175
 7492SOL    HW123001   0.232   4.558   4.109  0.0911 -2.5004 -0.7173
 7492SOL    HW223002   0.190   4.485   4.235 -0.6859 -1.7001 -0.5071
 7493SOL     OW23003   7.182   5.550   4.410 -0.0093  0.7130 -0.1937
 7493SOL    HW123004   7.252   5.484   4.413 -1.7693 -1.2663  0.1904
 7493SOL    HW223005   7.152   5.548   4.320  0.3523  1.5060 -0.3382
 7494SOL     OW23006   1.193   3.422   2.679  0.0948 -0.4736 -0.2713
 7494SOL    HW123007   1.144   3.363   2.620 -2.2605  1.1829 -0.1351
 7494SOL    HW223008   1.253   3.469   2.621  0.4973 -1.4983 -0.7105
 7495SOL     OW23009   1.716   1.929   4.305  0.2680  0.2261 -0.4993
 7495SOL    HW123010   1.734   1.939   4.211  3.1880 -1.4931 -0.2539
 7495SOL    HW223011   1.662   1.850   4.310 -1.9453  1.6265 -0.7911
 7496SOL     OW23012   5.235   7.142   3.662  0.2354 -0.1490 -0.5731
 7496SOL    HW123013   5.222   7.171   3.752  1.6253  0.8459 -0.6712
 7496SOL    HW223014   5.151   7.102   3.637 -0.4114  0.2494  0.8909
 7497SOL     OW23015   1.902   1.210   6.071 -0.0601 -0.3831 -0.0556
 7497SOL    HW123016   1.832   1.194   6.135  0.5748  2.4884  1.5625
 7497SOL    HW223017   1.860   1.263   6.003  0.0894 -0.3598 -0.1296
 7498SOL     OW23018   1.218   2.837   6.137 -0.3758  0.1210 -0.0156
 7498SOL    HW123019   1.202   2.827   6.231  0.9709 -1.9401  0.0604
 7498SOL    HW223020   1.132   2.830   6.097 -1.0937  1.9219  1.0684
 7499SOL     OW23021   4.113   5.165   2.511  0.0547  0.0319 -0.3008
 7499SOL    HW123022   4.073   5.177   2.426 -1.2893 -1.9006 -0.0168
 7499SOL    HW223023   4.204   5.140   2.492  0.6037  2.3520 -1.0166
 7500SOL     OW23024   5.581   6.244   6.531 -0.5528 -0.1689 -0.1878
 7500SOL    HW123025   5.627   6.203   6.458 -1.5891 -0.2701 -0.8007
 7500SOL    HW223026   5.637   6.318   6.555 -0.9395  0.8446 -2.1483
 7501SOL     OW23027   3.615   4.889   1.799  0.6144  0.0551 -0.1286
 7501SOL    HW123028   3.603   4.982   1.781  0.8606 -0.0077 -0.6271
 7501SOL    HW223029   3.533   4.849   1.771  0.9644 -0.0316 -1.0642
 7502SOL     OW23030   4.228   6.080   5.914  0.0345  0.0633  0.0811
 7502SOL    HW123031   4.286   6.030   5.971 -0.5672 -2.8756 -1.6817
 7502SOL    HW223032   4.262   6.170   5.918  0.9227 -0.2979  3.7437
 7503SOL     OW23033   5.573   3.896   0.121 -0.4567  0.0999 -0.2138
 7503SOL    HW123034   5.524   3.930   0.047 -1.6048 -0.7370  0.1219
 7503SOL    HW223035   5.651   3.855   0.082 -0.3801  0.8075 -0.8216
 7504SOL     OW23036   6.402   5.996   1.676  0.0603  0.1003  0.0045
 7504SOL    HW123037   6.337   5.998   1.746  0.5400  0.3565  0.4468
 7504SOL    HW223038   6.351   6.009   1.596 -0.3831  0.7268  0.3806
 7505SOL     OW23039   2.475   3.566   3.039 -0.0532 -0.3094  0.5303
 7505SOL    HW123040   2.542   3.633   3.026  1.1981 -1.8023 -1.1918
 7505SOL    HW223041   2.521   3.495   3.083 -0.9655 -0.6630  0.9278
 7506SOL     OW23042   7.516   5.491   7.385  0.3879 -0.0824  0.1560
 7506SOL    HW123043   7.580   5.422   7.402 -0.7310 -1.2756 -0.2903
 7506SOL    HW223044   7.479   5.511   7.470 -1.4165 -2.2454 -0.0152
 7507SOL     OW23045   3.911   2.748   3.947  0.4457 -0.2705 -0.2454
 7507SOL    HW123046   3.821   2.777   3.929 -0.1199  0.0733  2.6229
 7507SOL    HW223047   3.901   2.660   3.983  1.0572  0.3026  1.4238
 7508SOL     OW23048   3.857   1.400   0.223 -0.2224  0.1397 -0.7851
 7508SOL    HW123049   3.763   1.403   0.201  0.1515  0.3977 -2.4799
 7508SOL    HW223050   3.889   1.321   0.180  0.3525  0.0761 -0.2504
 7509SOL     OW23051   6.814   0.660   6.501 -0.1016 -0.3975  0.2936
 7509SOL    HW123052   6.823   0.734   6.562 -0.0601 -0.7971  0.7792
 7509SOL    HW223053   6.902   0.647   6.466 -0.5792  1.5021 -1.8667
 7510SOL     OW23054   3.307   0.030   4.850 -0.3953  0.1389  0.0057
 7510SOL    HW123055   3.372  -0.016   4.902  0.1119  1.1959  0.3168
 7510SOL    HW223056   3.262  -0.040   4.802 -0.7714 -0.8431  1.7117
 7511SOL     OW23057   1.604   5.396   5.581  0.7755  0.5593  0.1402
 7511SOL    HW123058   1.648   5.480   5.566  0.2650  0.3048 -4.1927
 7511SOL    HW223059   1.668   5.331   5.552  0.0437 -0.3303  0.4813
 7512SOL     OW23060   6.969   0.764   2.618 -0.1531  0.2482  0.2599
 7512SOL    HW123061   6.897   0.826   2.604 -0.6004 -0.2643  0.2663
 7512SOL    HW223062   6.956   0.732   2.707  0.6074  0.8165  0.5860
 7513SOL     OW23063   1.360   7.468   3.605 -0.0403  0.6923 -0.1975
 7513SOL    HW123064   1.382   7.438   3.693 -0.9612  3.3532  1.0414
 7513SOL    HW223065   1.375   7.563   3.607 -0.5922  0.9136 -2.7557
 7514SOL     OW23066   6.737   4.848   2.629  0.2616 -0.2695  0.0175
 7514SOL    HW123067   6.756   4.818   2.540  2.0291  0.1988  0.1909
 7514SOL    HW223068   6.737   4.944   2.623  0.1932 -0.2386  0.4863
 7515SOL     OW23069   1.467   4.073   6.738 -0.7094  0.3447  0.6236
 7515SOL    HW123070   1.396   4.016   6.710  0.1765 -0.0809 -0.9224
 7515SOL    HW223071   1.495   4.117   6.657  0.3827  0.9299  1.3009
 7516SOL     OW23072   2.542   4.671   5.194 -0.1414  0.6401 -0.2394
 7516SOL    HW123073   2.548   4.738   5.262  2.8331 -0.2796  0.5604
 7516SOL    HW223074   2.531   4.589   5.241  1.9369 -0.0123 -0.7793
 7517SOL     OW23075   0.542   3.074   6.071 -0.0201  0.3658 -0.2089
 7517SOL    HW123076   0.463   3.126   6.059 -0.3624 -0.0681  0.1270
 7517SOL    HW223077   0.550   3.064   6.166  0.2812  0.1688 -0.2517
 7518SOL     OW23078   0.213   4.167   4.008  0.1714  0.0818 -0.2003
 7518SOL    HW123079   0.129   4.120   4.010 -0.0006  0.3538 -0.9262
 7518SOL    HW223080   0.279   4.098   4.022 -0.1690 -0.1155  0.4929
 7519SOL     OW23081   2.846   4.802   7.028  0.3988 -0.1523 -0.5966
 7519SOL    HW123082   2.778   4.810   7.094  1.9300 -0.4289  1.0903
 7519SOL    HW223083   2.798   4.794   6.945 -1.6542 -1.7338  0.6322
 7520SOL     OW23084   6.357   3.463   6.370 -0.5236 -0.4702 -0.2760
 7520SOL    HW123085   6.273   3.417   6.363 -1.5143  1.1915  0.3730
 7520SOL    HW223086   6.340   3.536   6.428  0.6615  1.4817 -2.2424
 7521SOL     OW23087   6.818   4.367   6.933  0.2192 -0.3113 -0.0372
 7521SOL    HW123088   6.755   4.341   6.866 -0.2002  2.2285 -0.7293
 7521SOL    HW223089   6.891   4.404   6.884  0.9562 -0.5225  0.8695
 7522SOL     OW23090   4.896   3.950   4.758  0.3350  0.3953 -0.0207
 7522SOL    HW123091   4.865   3.939   4.848  0.8916  1.2505  0.2854
 7522SOL    HW223092   4.861   4.035   4.730 -0.1346 -0.0228 -0.7464
 7523SOL     OW23093   5.319   0.794   4.848 -0.1795  0.2907 -0.2233
 7523SOL    HW123094   5.404   0.803   4.804  0.2293  1.6647  0.7655
 7523SOL    HW223095   5.342   0.788   4.941 -1.1817  1.2896  0.1055
 7524SOL     OW23096   6.248   2.462   4.800  0.0460 -0.0835 -0.4420
 7524SOL    HW123097   6.186   2.438   4.731 -1.5784  1.0659  0.5427
 7524SOL    HW223098   6.281   2.548   4.773 -0.5599  0.3479  0.1777
 7525SOL     OW23099   7.103   0.768   2.050 -0.4742  0.5250 -0.1748
 7525SOL    HW123100   7.166   0.702   2.024  0.2564  1.2489 -0.2712
 7525SOL    HW223101   7.047   0.724   2.115  0.6037  0.1081  0.4878
 7526SOL     OW23102   6.030   3.189   0.966 -0.3239 -0.3182  0.5219
 7526SOL    HW123103   5.950   3.138   0.953 -0.0048 -0.6307 -0.2899
 7526SOL    HW223104   6.031   3.251   0.893 -1.5183  1.9875  2.3340
 7527SOL     OW23105   7.020   7.450   2.420  0.5067  0.0503 -0.1920
 7527SOL    HW123106   7.048   7.540   2.437  2.4570 -0.8088  1.5019
 7527SOL    HW223107   7.062   7.398   2.488 -2.3382 -1.9059  0.2472
 7528SOL     OW23108   3.476   5.749   7.549 -0.2155  0.0050 -0.7767
 7528SOL    HW123109   3.423   5.684   7.501 -0.6799  1.1817 -1.9032
 7528SOL    HW223110   3.564   5.739   7.513  0.4299 -2.0232  1.1677
 7529SOL     OW23111   5.164   6.607   6.689  0.3728 -0.0647 -0.3812
 7529SOL    HW123112   5.216   6.638   6.763  0.1957  2.6281 -1.2818
 7529SOL    HW223113   5.229   6.575   6.627  0.7495  0.3932 -0.2343
 7530SOL     OW23114   1.634   2.665   6.954 -0.1706  0.1470  0.1846
 7530SOL    HW123115   1.647   2.759   6.963 -0.2858  0.2240 -0.4014
 7530SOL    HW223116   1.716   2.633   6.916  0.2725 -0.1539  1.3603
 7531SOL     OW23117   5.263   1.930   4.893 -0.2090  0.2970 -0.4343
 7531SOL    HW123118   5.317   1.978   4.956  1.0281 -1.5311 -0.0189
 7531SOL    HW223119   5.200   1.883   4.947 -0.1035 -0.1223 -0.6770
 7532SOL     OW23120   5.643   6.049   4.265  0.3649 -0.0396 -0.0580
 7532SOL    HW123121   5.686   6.109   4.204  2.5921 -1.1061  0.3501
 7532SOL    HW223122   5.649   5.963   4.223 -0.6855 -0.3429  0.3826
 7533SOL     OW23123   3.300   6.452   6.845 -0.3945  0.3738 -0.8321
 7533SOL    HW123124   3.356   6.462   6.923  2.1472 -1.7682 -2.2071
 7533SOL    HW223125   3.230   6.394   6.874  0.2216  0.0285  0.0257
 7534SOL     OW23126   1.782   4.425   3.229  0.0574  0.1643  0.0969
 7534SOL    HW123127   1.844   4.488   3.194  0.8674 -1.0703 -0.7785
 7534SOL    HW223128   1.836   4.360   3.275 -0.9224  1.4600  3.3677
 7535SOL     OW23129   0.932   1.910   6.605  0.1608 -0.2344 -0.0404
 7535SOL    HW123130   0.887   1.912   6.689 -0.8999  0.7434 -0.6030
 7535SOL    HW223131   1.006   1.970   6.616 -0.6390  0.7984 -0.1423
 7536SOL     OW23132   4.398   3.331   0.935  0.1602 -0.0192 -0.8341
 7536SOL    HW123133   4.444   3.344   0.852  2.6055  2.0627  0.6987
 7536SOL    HW223134   4.387   3.419   0.971 -1.3342 -0.8096  0.8345
 7537SOL     OW23135   0.894   1.098   2.549 -0.2001 -0.0693 -0.0851
 7537SOL    HW123136   0.894   1.160   2.622 -1.0898 -0.2970  0.1264
 7537SOL    HW223137   0.919   1.151   2.473 -0.4193  0.4366  0.1838
 7538SOL     OW23138   1.332   6.388   7.505 -0.2296 -0.5899 -0.1152
 7538SOL    HW123139   1.389   6.382   7.581  0.2695 -1.2781 -0.5351
 7538SOL    HW223140   1.254   6.434   7.537  0.2067 -0.3787  0.6647
 7539SOL     OW23141   7.485   0.312   4.231 -0.1075  0.1649 -0.2785
 7539SOL    HW123142   7.556   0.295   4.170  0.0746  2.3465 -0.7616
 7539SOL    HW223143   7.523   0.298   4.318  1.2798  2.2960 -0.4797
 7540SOL     OW23144   5.746   5.105   3.224 -0.2252  0.0992  0.5863
 7540SOL    HW123145   5.782   5.183   3.267  1.4171 -0.8818  1.0909
 7540SOL    HW223146   5.821   5.067   3.178 -0.9727 -1.2198  0.4148
 7541SOL     OW23147   4.417   1.278   7.115  0.1427 -0.1799 -0.2330
 7541SOL    HW123148   4.330   1.265   7.153 -0.0838 -1.1668 -1.0245
 7541SOL    HW223149   4.424   1.372   7.101  0.2629  0.2261  2.2339
 7542SOL     OW23150   2.029   5.653   4.038 -0.5511  0.0120  0.3626
 7542SOL    HW123151   2.101   5.590   4.040 -0.6835 -0.2118 -0.9146
 7542SOL    HW223152   1.950   5.600   4.051 -0.4652  0.3897  2.8734
 7543SOL     OW23153   5.705   2.494   5.285  0.1934  0.4473  0.0064
 7543SOL    HW123154   5.641   2.511   5.355  1.1785 -2.6987  1.8735
 7543SOL    HW223155   5.668   2.422   5.235  0.2708  1.6028 -1.8142
 7544SOL     OW23156   4.783   5.702   0.287  0.3832  0.4463 -0.2540
 7544SOL    HW123157   4.703   5.651   0.276  1.1450 -0.6931 -0.7555
 7544SOL    HW223158   4.817   5.712   0.198  2.0537 -1.2517  0.1178
 7545SOL     OW23159   5.641   6.627   4.623 -0.1660  0.0367 -0.5254
 7545SOL    HW123160   5.645   6.622   4.719 -0.3385 -3.3342 -0.5734
 7545SOL    HW223161   5.688   6.707   4.602  0.5883  0.4813  2.3526
 7546SOL     OW23162   7.160   1.970   1.049  0.3083  0.3154 -0.1667
 7546SOL    HW123163   7.176   1.878   1.029 -1.3422 -0.1278  0.4090
 7546SOL    HW223164   7.231   1.994   1.109  0.6678 -0.6037 -0.2054
 7547SOL     OW23165   7.118   5.299   2.224 -0.0196  0.5601 -0.3785
 7547SOL    HW123166   7.187   5.325   2.162 -0.3200  0.8540 -0.5930
 7547SOL    HW223167   7.119   5.203   2.223  0.7499  0.5522  0.0248
 7548SOL     OW23168   1.476   5.139   5.583  0.2050 -0.0258  1.1604
 7548SOL    HW123169   1.567   5.164   5.566  0.4887 -1.8511 -0.3320
 7548SOL    HW223170   1.425   5.217   5.563  1.3189  0.5627  0.4943
 7549SOL     OW23171   3.973   0.597   5.605 -0.1765 -0.5591  0.7211
 7549SOL    HW123172   3.906   0.567   5.666 -1.7674  0.1560 -0.6010
 7549SOL    HW223173   3.957   0.690   5.594  0.6400 -0.4976 -0.1042
 7550SOL     OW23174   1.058   0.159   0.348 -0.1821 -0.1853  0.0617
 7550SOL    HW123175   1.020   0.140   0.434 -0.2968  0.6570  0.2016
 7550SOL    HW223176   1.151   0.141   0.359 -0.1051  0.4713  0.5284
 7551SOL     OW23177   3.524   4.433   2.332 -0.1529 -0.3624 -0.3065
 7551SOL    HW123178   3.436   4.470   2.330  0.4033  1.1108  0.8401
 7551SOL    HW223179   3.558   4.444   2.243 -0.9809 -0.6155 -0.6577
 7552SOL     OW23180   2.705   3.181   3.840 -0.7868 -0.1753  0.2281
 7552SOL    HW123181   2.747   3.096   3.828 -0.6984 -0.0988 -0.0111
 7552SOL    HW223182   2.612   3.163   3.831 -0.8105 -0.3610  0.8535
 7553SOL     OW23183   3.298   3.276   2.226 -0.1245 -0.1274  0.1820
 7553SOL    HW123184   3.389   3.252   2.244 -0.1202 -0.8120 -0.7013
 7553SOL    HW223185   3.296   3.295   2.133 -0.8198  0.2440  0.2650
 7554SOL     OW23186   1.141   5.283   0.183  0.0562 -0.2796 -0.2737
 7554SOL    HW123187   1.066   5.313   0.133 -0.6204  1.0185  1.4352
 7554SOL    HW223188   1.113   5.287   0.275  2.3362  0.6889  0.4583
 7555SOL     OW23189   2.881   5.439   6.405  0.2546  0.2051  0.2495
 7555SOL    HW123190   2.944   5.373   6.375 -0.6121 -0.4427 -0.1601
 7555SOL    HW223191   2.822   5.392   6.464  1.0344  1.1376  1.8536
 7556SOL     OW23192   0.772   6.610   6.716 -0.3164  0.0251 -0.2986
 7556SOL    HW123193   0.792   6.520   6.690  0.8863 -0.0353  0.7595
 7556SOL    HW223194   0.808   6.618   6.804 -0.7113  1.4472 -0.2495
 7557SOL     OW23195   4.004   5.613   0.556 -0.1268 -0.1037  0.5944
 7557SOL    HW123196   3.990   5.705   0.535  2.8611  0.4227  0.4158
 7557SOL    HW223197   4.053   5.615   0.639  1.4553 -1.3820 -0.2433
 7558SOL     OW23198   2.728   1.629   4.372 -0.0099  0.6289 -0.0051
 7558SOL    HW123199   2.773   1.615   4.289  0.8200 -0.5794  0.6116
 7558SOL    HW223200   2.711   1.541   4.405 -1.3541  1.0806  0.5765
 7559SOL     OW23201   0.272   1.036   4.034 -0.2226 -0.0607 -0.2509
 7559SOL    HW123202   0.292   1.128   4.017 -0.9157 -0.0071 -0.8348
 7559SOL    HW223203   0.273   0.995   3.947 -3.7847  0.1932 -0.5462
 7560SOL     OW23204   3.924   4.993   7.269 -0.7149 -0.2339  0.1405
 7560SOL    HW123205   3.936   4.909   7.224 -1.2902  0.3775 -1.2336
 7560SOL    HW223206   3.928   5.058   7.199  0.3608  0.9589  1.2610
 7561SOL     OW23207   0.085   2.463   2.496  0.5159  0.6939  0.2066
 7561SOL    HW123208   0.127   2.421   2.421 -1.5684  1.3987 -1.4561
 7561SOL    HW223209  -0.009   2.457   2.477 -0.0958  0.9257  2.7778
 7562SOL     OW23210   6.206   1.103   5.459 -0.5823 -0.5901  1.0402
 7562SOL    HW123211   6.300   1.121   5.454 -0.0083 -3.3926 -0.5654
 7562SOL    HW223212   6.201   1.018   5.503 -2.1746 -1.4448 -0.6724
 7563SOL     OW23213   0.745   6.234   7.115 -1.0641  0.4767  0.5241
 7563SOL    HW123214   0.748   6.217   7.209 -2.4300  0.6573  0.6205
 7563SOL    HW223215   0.675   6.298   7.104  0.6414  2.3094 -0.3751
 7564SOL     OW23216   0.903   6.050   2.822  0.0377 -0.5191  0.0028
 7564SOL    HW123217   0.870   6.110   2.888 -2.3239  1.0374 -2.4071
 7564SOL    HW223218   0.857   5.968   2.839 -1.8352  0.3569 -0.6527
 7565SOL     OW23219   3.412   5.778   5.375 -0.0366 -0.0985 -0.3229
 7565SOL    HW123220   3.463   5.821   5.444 -0.4490  0.1323 -0.1544
 7565SOL    HW223221   3.425   5.833   5.298 -1.5123  1.0510  0.1815
 7566SOL     OW23222   5.461   4.241   3.795  0.2346 -0.0762  0.0756
 7566SOL    HW123223   5.497   4.174   3.736  1.2011  1.9306 -1.7773
 7566SOL    HW223224   5.366   4.231   3.787  0.2165 -3.3678  2.5420
 7567SOL     OW23225   5.894   5.946   7.469  0.2171  0.0817  0.0647
 7567SOL    HW123226   5.852   5.956   7.383 -1.5435  1.8575  1.0657
 7567SOL    HW223227   5.938   6.030   7.484  3.4337 -1.3306 -0.4600
 7568SOL     OW23228   5.125   2.160   6.828  0.1339 -0.1768 -0.5672
 7568SOL    HW123229   5.168   2.081   6.795 -0.5894  0.4157 -3.1130
 7568SOL    HW223230   5.039   2.160   6.786 -0.3662  1.3315  0.3750
 7569SOL     OW23231   6.120   3.406   6.547 -0.0938 -0.4641  0.3866
 7569SOL    HW123232   6.064   3.470   6.505  0.7654 -0.2351 -0.4572
 7569SOL    HW223233   6.081   3.321   6.525  1.4982 -0.5123 -2.8498
 7570SOL     OW23234   6.163   4.367   7.078  0.2275 -0.7075 -0.3665
 7570SOL    HW123235   6.096   4.371   7.146  0.5075 -1.7051 -0.0044
 7570SOL    HW223236   6.245   4.356   7.125  0.9641  2.4720 -0.7008
 7571SOL     OW23237   6.291   1.135   0.335  0.3694 -0.6777  0.0118
 7571SOL    HW123238   6.358   1.086   0.382  0.0930 -0.8464  0.2321
 7571SOL    HW223239   6.209   1.112   0.378  0.1441 -0.6213 -0.3772
 7572SOL     OW23240   5.752   2.296   3.087  0.4826 -0.4867 -0.3957
 7572SOL    HW123241   5.767   2.264   2.998 -1.1942 -0.7972 -0.5942
 7572SOL    HW223242   5.719   2.220   3.135 -1.5395  0.3717 -0.3289
 7573SOL     OW23243   5.966   3.009   1.362 -0.1734 -0.2191  0.1103
 7573SOL    HW123244   5.962   2.914   1.364 -0.3310 -0.2073  2.9018
 7573SOL    HW223245   6.056   3.028   1.334  0.1311 -1.1803  0.3943
 7574SOL     OW23246   1.858   3.870   5.208  0.6015  0.0106  0.5908
 7574SOL    HW123247   1.785   3.871   5.270  0.4654 -0.1015  0.4324
 7574SOL    HW223248   1.819   3.842   5.125  0.2397  2.6411 -0.2222
 7575SOL     OW23249   1.191   4.065   2.052  0.1158 -0.1539  0.0599
 7575SOL    HW123250   1.260   4.013   2.094 -0.0814  0.0692  0.6717
 7575SOL    HW223251   1.231   4.095   1.971  0.3316 -1.0153 -0.1690
 7576SOL     OW23252   0.076   3.110   0.374  0.1670  0.0446  0.0804
 7576SOL    HW123253   0.053   3.203   0.376 -3.6354 -0.7728  0.2126
 7576SOL    HW223254   0.104   3.094   0.284  0.4347  1.2078 -0.0526
 7577SOL     OW23255   7.190   5.308   4.656  0.7080 -0.8831 -0.1413
 7577SOL    HW123256   7.114   5.267   4.698  1.4417 -1.4189  0.7124
 7577SOL    HW223257   7.153   5.377   4.601 -0.3472 -0.6913  0.7707
 7578SOL     OW23258   4.637   1.047   1.070  0.2687 -0.2533 -0.2737
 7578SOL    HW123259   4.706   1.036   1.005  0.6307 -0.9164  0.2058
 7578SOL    HW223260   4.636   1.141   1.089  1.7357 -0.3600  0.4538
 7579SOL     OW23261   0.574   0.103   4.346 -0.3235 -0.2285  0.4482
 7579SOL    HW123262   0.585   0.016   4.385  0.6230 -0.6728 -0.7482
 7579SOL    HW223263   0.480   0.107   4.325 -0.8131 -0.0811  2.4136
 7580SOL     OW23264   2.917   5.027   0.223  0.3085 -0.2350  0.4001
 7580SOL    HW123265   2.918   5.069   0.309 -0.4154 -1.2934  0.9625
 7580SOL    HW223266   2.952   4.939   0.239  0.4465 -0.3411 -0.4453
 7581SOL     OW23267   2.699   6.222   7.038  0.1964 -0.1763  0.3166
 7581SOL    HW123268   2.773   6.232   7.098  0.0593 -0.5072  0.5440
 7581SOL    HW223269   2.629   6.275   7.077  0.3238  0.1581  0.0881
 7582SOL     OW23270   5.525   5.123   0.300  0.0142  0.3569 -0.2569
 7582SOL    HW123271   5.610   5.136   0.340  0.3631 -1.5496 -0.2805
 7582SOL    HW223272   5.487   5.210   0.294  1.0733  0.9991  1.7148
 7583SOL     OW23273   0.306   5.753   6.066  0.5603  0.5592 -0.0384
 7583SOL    HW123274   0.284   5.705   5.986 -0.8343 -0.0086  0.6437
 7583SOL    HW223275   0.400   5.739   6.077  0.4725 -0.7428 -0.6965
 7584SOL     OW23276   2.030   1.952   0.621 -0.5046 -0.4417  0.3696
 7584SOL    HW123277   2.077   1.872   0.643  1.0285  0.6453  1.2915
 7584SOL    HW223278   2.099   2.014   0.596 -1.7031  0.3779 -1.0406
 7585SOL     OW23279   5.755   2.456   4.026  0.5142 -0.0759 -0.3040
 7585SOL    HW123280   5.741   2.380   4.081 -0.0983 -1.2184 -1.9501
 7585SOL    HW223281   5.811   2.423   3.955 -0.8775  0.6235 -1.7758
 7586SOL     OW23282   4.009   1.178   3.484 -0.1287  0.2142  0.3721
 7586SOL    HW123283   3.944   1.129   3.535  1.3762  0.2323  2.4268
 7586SOL    HW223284   4.058   1.112   3.437 -0.0201 -0.0243  0.8119
 7587SOL     OW23285   7.452   4.596   2.765 -0.6547  0.3751  0.3604
 7587SOL    HW123286   7.446   4.623   2.673  0.6778  1.4992  0.5606
 7587SOL    HW223287   7.541   4.563   2.774 -0.2327  1.7331  1.5716
 7588SOL     OW23288   3.690   6.034   1.150  0.0610 -0.2206 -0.4336
 7588SOL    HW123289   3.649   6.115   1.120  0.3885  0.1436  0.0925
 7588SOL    HW223290   3.776   6.033   1.108  0.0281 -0.3351 -0.4996
 7589SOL     OW23291   0.804   2.230   7.543 -0.0228  0.1088 -0.1485
 7589SOL    HW123292   0.875   2.244   7.480  0.1652 -0.6421 -0.1146
 7589SOL    HW223293   0.729   2.274   7.504  0.2621  0.2314 -0.5688
 7590SOL     OW23294   0.403   6.318   2.643  0.5361  0.5265  0.3817
 7590SOL    HW123295   0.467   6.276   2.700 -2.1885 -1.5041  2.1829
 7590SOL    HW223296   0.401   6.263   2.565 -0.2432 -0.4864  1.0926
 7591SOL     OW23297   6.199   2.770   3.000 -0.3954  0.3347 -0.3831
 7591SOL    HW123298   6.237   2.749   3.086  0.5512  1.1105 -0.5905
 7591SOL    HW223299   6.116   2.724   2.999 -0.8369  1.0044  1.3226
 7592SOL     OW23300   6.808   0.972   7.377  0.4141 -0.1243 -0.4155
 7592SOL    HW123301   6.791   0.885   7.413  0.9559  0.0131  0.1748
 7592SOL    HW223302   6.843   0.955   7.289  1.7956 -0.5586  0.1944
 7593SOL     OW23303   3.714   1.151   1.511 -0.2364  0.1586 -0.4811
 7593SOL    HW123304   3.794   1.202   1.519 -1.5389  2.1492  0.8434
 7593SOL    HW223305   3.743   1.062   1.492  2.1886  1.1955 -2.1423
 7594SOL     OW23306   3.674   1.297   4.782 -0.1436 -0.3198  0.0727
 7594SOL    HW123307   3.603   1.307   4.718  0.7776  0.8800 -0.8009
 7594SOL    HW223308   3.694   1.386   4.811  2.2207 -0.3690 -1.1073
 7595SOL     OW23309   1.888   6.872   7.496 -0.4006  0.6213  0.2042
 7595SOL    HW123310   1.952   6.890   7.564 -0.2871 -0.4511  0.3975
 7595SOL    HW223311   1.890   6.950   7.440 -1.7553  2.3230  2.3548
 7596SOL     OW23312   0.750   4.919   4.652 -0.3659  0.1377  0.1895
 7596SOL    HW123313   0.656   4.925   4.631 -0.7121 -0.1954  1.5329
 7596SOL    HW223314   0.753   4.923   4.748  0.8045 -2.0566  0.2966
 7597SOL     OW23315   3.751   0.537   4.103 -0.2883 -0.4674 -0.6386
 7597SOL    HW123316   3.838   0.549   4.066  1.8102  0.0190  3.8009
 7597SOL    HW223317   3.696   0.601   4.058  1.7143 -0.3399 -3.1194
 7598SOL     OW23318   0.906   3.530   4.805 -0.5330 -0.1622 -0.1510
 7598SOL    HW123319   0.861   3.612   4.786  1.4971  0.9323 -0.5710
 7598SOL    HW223320   0.951   3.507   4.724  2.4705  0.7603  1.0722
 7599SOL     OW23321   2.984   5.571   2.422 -0.1099 -0.0024 -0.3719
 7599SOL    HW123322   2.956   5.583   2.513  1.8904 -0.5175  0.3695
 7599SOL    HW223323   2.991   5.659   2.387  1.2575  0.3669  0.7225
 7600SOL     OW23324   1.796   4.374   4.920 -0.5895 -0.2584 -0.1197
 7600SOL    HW123325   1.706   4.352   4.943 -0.7520  1.1318  0.6706
 7600SOL    HW223326   1.804   4.349   4.828 -2.5529  1.8043 -0.9422
 7601SOL     OW23327   3.455   2.356   0.203 -0.4181 -0.6394  0.0132
 7601SOL    HW123328   3.533   2.384   0.154  0.0631 -1.5144  0.2433
 7601SOL    HW223329   3.426   2.434   0.250 -1.2435  0.3925 -2.0999
 7602SOL     OW23330   4.384   0.707   0.280  0.8574 -0.0202  0.0051
 7602SOL    HW123331   4.313   0.645   0.298  0.4477  0.4674  0.0729
 7602SOL    HW223332   4.410   0.687   0.190  1.4229 -0.9741  0.3591
 7603SOL     OW23333   2.302   7.262   6.714  0.1526  0.3109  0.1610
 7603SOL    HW123334   2.277   7.295   6.627 -1.7259 -0.8463  0.2114
 7603SOL    HW223335   2.396   7.246   6.707  0.5202  2.5355 -0.8686
 7604SOL     OW23336   5.734   6.960   0.678  0.0695  0.4294 -0.0507
 7604SOL    HW123337   5.769   6.964   0.589 -0.1813  1.6108 -0.1221
 7604SOL    HW223338   5.655   6.907   0.670  1.0994 -1.1328 -0.1386
 7605SOL     OW23339   5.243   6.431   1.470  0.1299 -0.3141 -0.0850
 7605SOL    HW123340   5.321   6.414   1.417  0.0090 -1.0124 -0.0514
 7605SOL    HW223341   5.275   6.440   1.559  0.1248 -1.1058  0.0025
 7606SOL     OW23342   2.013   5.445   6.373 -0.3040  0.4354  0.0850
 7606SOL    HW123343   2.022   5.390   6.451 -0.8135 -1.2895 -1.0414
 7606SOL    HW223344   1.919   5.448   6.355 -0.1601  0.4780 -0.7019
 7607SOL     OW23345   7.075   1.477   3.676  0.2400 -0.4076 -0.4245
 7607SOL    HW123346   7.066   1.531   3.597 -0.9352 -0.4089 -0.3045
 7607SOL    HW223347   6.985   1.455   3.701  0.6017 -0.4977  0.8652
 7608SOL     OW23348   2.794   4.436   2.198  0.1968  0.1820 -0.2713
 7608SOL    HW123349   2.775   4.401   2.285 -1.1756  0.7736 -0.3116
 7608SOL    HW223350   2.714   4.422   2.148  1.8912 -2.9014 -2.4349
 7609SOL     OW23351   5.974   5.131   3.954 -0.2110  0.6538  0.3231
 7609SOL    HW123352   5.921   5.146   3.876 -0.5624  0.3478  0.5030
 7609SOL    HW223353   5.937   5.053   3.994  0.8406 -0.0021  0.0485
 7610SOL     OW23354   0.495   5.848   6.941 -0.1384  0.1415 -0.6981
 7610SOL    HW123355   0.421   5.898   6.907 -0.1216  1.9744  1.6769
 7610SOL    HW223356   0.462   5.807   7.021  0.9616 -0.2784 -0.4371
 7611SOL     OW23357   0.668   4.729   5.064 -0.2728  0.1941  0.1175
 7611SOL    HW123358   0.613   4.784   5.119 -0.7099 -0.2334  0.1159
 7611SOL    HW223359   0.607   4.675   5.015  0.1470 -1.5505  1.4107
 7612SOL     OW23360   1.758   2.927   5.624 -0.0188  0.5712 -0.4473
 7612SOL    HW123361   1.701   2.859   5.661 -0.6733  2.1621  1.6487
 7612SOL    HW223362   1.821   2.945   5.694  0.8382  1.3213 -1.4033
 7613SOL     OW23363   7.244   0.279   0.511 -0.8004  0.1674 -0.5240
 7613SOL    HW123364   7.248   0.296   0.417 -3.1663 -1.2292 -0.9429
 7613SOL    HW223365   7.236   0.184   0.518 -0.2211  0.2125  1.1248
 7614SOL     OW23366   2.142   5.063   2.942 -0.0559  1.0335  0.0163
 7614SOL    HW123367   2.205   5.071   3.014 -1.6256 -1.6485  1.8958
 7614SOL    HW223368   2.069   5.118   2.969  0.3759  2.0562 -0.8527
 7615SOL     OW23369   2.280   5.178   4.859 -0.4046  0.4437 -0.2346
 7615SOL    HW123370   2.258   5.229   4.937 -0.7699 -0.4034  0.2415
 7615SOL    HW223371   2.294   5.089   4.892  1.6069  0.4990 -0.8418
 7616SOL     OW23372   0.535   3.718   5.782  0.8391  0.1245 -0.1603
 7616SOL    HW123373   0.580   3.776   5.721  1.1454  0.3118  0.2399
 7616SOL    HW223374   0.602   3.656   5.811  0.7813  0.2421  0.2381
 7617SOL     OW23375   3.084   1.466   2.724  0.1821  0.0198 -0.2423
 7617SOL    HW123376   2.989   1.476   2.730  0.2912  0.3471  1.1880
 7617SOL    HW223377   3.097   1.371   2.725 -0.1436 -0.0436 -0.9980
 7618SOL     OW23378   7.120   3.075   0.193  0.7810  0.2114 -0.1410
 7618SOL    HW123379   7.059   3.042   0.259 -0.3371  2.8994  0.3088
 7618SOL    HW223380   7.197   3.101   0.243 -0.1429  2.4318  0.2223
 7619SOL     OW23381   5.350   5.766   1.487  0.0924 -0.1493  0.7603
 7619SOL    HW123382   5.364   5.675   1.513  0.7153 -0.4331 -0.4721
 7619SOL    HW223383   5.354   5.764   1.391 -0.8108  1.0333  0.6764
 7620SOL     OW23384   0.732   4.816   5.572  0.0960 -0.3732  0.4758
 7620SOL    HW123385   0.661   4.765   5.611 -0.1262  0.2175  0.8602
 7620SOL    HW223386   0.714   4.906   5.599  1.5051 -0.3303  1.3554
 7621SOL     OW23387   5.791   2.559   7.308 -0.2562  0.1845 -0.2281
 7621SOL    HW123388   5.700   2.542   7.334 -0.6818  3.1250  0.5641
 7621SOL    HW223389   5.842   2.493   7.356 -1.8241 -0.3280  0.8214
 7622SOL     OW23390   0.102   7.264   4.097 -0.1933  0.0808  0.4194
 7622SOL    HW123391   0.133   7.351   4.073  2.8848 -0.7146  1.0531
 7622SOL    HW223392   0.079   7.271   4.189 -1.2336  0.4803  0.1493
 7623SOL     OW23393   5.440   2.950   0.348  0.3001  0.1872  0.0162
 7623SOL    HW123394   5.492   2.995   0.282 -0.9298  3.2483  0.9468
 7623SOL    HW223395   5.374   2.903   0.298  0.4641  1.0148 -1.0099
 7624SOL     OW23396   1.642   3.749   3.627  0.1105  0.0138 -0.5680
 7624SOL    HW123397   1.620   3.720   3.538  0.4373  0.5456 -0.8303
 7624SOL    HW223398   1.667   3.669   3.673 -0.0867 -0.2716 -0.9497
 7625SOL     OW23399   6.248   6.347   6.222 -0.3689 -0.1769 -0.6272
 7625SOL    HW123400   6.325   6.297   6.193  0.2114 -0.3809  1.1702
 7625SOL    HW223401   6.269   6.437   6.199  0.3387 -0.2548 -0.3197
 7626SOL     OW23402   0.997   3.705   5.080  0.3058  0.0431  0.7794
 7626SOL    HW123403   1.065   3.639   5.091  0.9245  0.4486 -0.3796
 7626SOL    HW223404   0.921   3.657   5.048  0.6856 -0.1579  0.1578
 7627SOL     OW23405   2.099   2.949   4.843  0.5637  1.1202 -0.2161
 7627SOL    HW123406   2.047   2.986   4.772 -1.3534 -1.3894 -0.2297
 7627SOL    HW223407   2.127   2.863   4.811  1.6919  0.9140  1.1920
 7628SOL     OW23408   5.671   1.837   2.968 -0.4304 -0.0242 -0.6628
 7628SOL    HW123409   5.598   1.832   3.030 -1.3231  5.1195 -0.8743
 7628SOL    HW223410   5.748   1.846   3.023 -0.2152 -2.5530 -0.4483
 7629SOL     OW23411   5.289   2.826   0.183  0.4717 -0.2258 -0.5317
 7629SOL    HW123412   5.225   2.887   0.146  0.0258 -1.0907 -1.1982
 7629SOL    HW223413   5.313   2.769   0.110  1.1823 -0.6098 -0.0072
 7630SOL     OW23414   2.120   1.043   1.094 -0.2653 -0.6242 -0.1952
 7630SOL    HW123415   2.160   1.113   1.042  1.4186 -0.6239  1.0099
 7630SOL    HW223416   2.032   1.075   1.112 -0.4243 -0.0222 -1.8744
 7631SOL     OW23417   6.512   6.394   5.609 -0.2289  0.0592 -0.1784
 7631SOL    HW123418   6.445   6.404   5.677  2.0426 -0.0086  2.2529
 7631SOL    HW223419   6.537   6.484   5.587  1.0060  0.1192  1.2818
 7632SOL     OW23420   3.638   0.852   0.139  0.8433 -0.2104  0.4926
 7632SOL    HW123421   3.680   0.876   0.056  1.9186  0.4598  1.1973
 7632SOL    HW223422   3.656   0.926   0.197 -0.1962 -0.5105  1.2239
 7633SOL     OW23423   0.593   3.575   0.563  0.0523 -0.1125 -0.0553
 7633SOL    HW123424   0.668   3.630   0.542  0.2284 -0.8870 -1.6285
 7633SOL    HW223425   0.537   3.629   0.619  1.0730  0.9961 -0.0844
 7634SOL     OW23426   5.126   4.367   5.172  0.2781 -0.2504  0.1131
 7634SOL    HW123427   5.079   4.307   5.114  1.8432 -0.0986 -1.4159
 7634SOL    HW223428   5.179   4.421   5.113 -1.9316  3.5613  1.2943
 7635SOL     OW23429   7.272   1.278   2.232 -0.2907  0.0456 -0.1980
 7635SOL    HW123430   7.356   1.322   2.248 -1.2948  1.3759  1.8756
 7635SOL    HW223431   7.219   1.344   2.187 -0.3327 -0.7124 -1.2962
 7636SOL     OW23432   6.133   6.683   0.096 -0.7121 -0.3064 -0.5740
 7636SOL    HW123433   6.133   6.705   0.190  0.0387 -2.1127 -0.1042
 7636SOL    HW223434   6.120   6.767   0.052  0.2162  0.7937  1.1157
 7637SOL     OW23435   7.454   2.019   0.406  0.2386 -0.0792  0.2209
 7637SOL    HW123436   7.366   1.997   0.377  0.9333  0.4617 -2.4988
 7637SOL    HW223437   7.486   1.939   0.448 -0.4481 -1.3623 -1.5733
 7638SOL     OW23438   6.381   7.520   5.574 -0.0552 -0.6114  0.1510
 7638SOL    HW123439   6.310   7.571   5.534 -0.9925 -0.8129  1.4809
 7638SOL    HW223440   6.444   7.507   5.503 -1.8667 -1.4082 -1.4080
 7639SOL     OW23441   1.707   0.181   0.211  0.2910 -0.2706  0.6288
 7639SOL    HW123442   1.754   0.256   0.248 -0.6577  0.1357  1.0522
 7639SOL    HW223443   1.646   0.220   0.149 -0.0399 -0.7161  0.6709
 7640SOL     OW23444   2.515   5.045   2.425  0.0856 -0.7019  0.2866
 7640SOL    HW123445   2.423   5.026   2.444  0.2051 -0.7104  0.8614
 7640SOL    HW223446   2.556   5.053   2.511  0.5060 -0.1255  0.0340
 7641SOL     OW23447   1.706   6.792   3.573 -0.5059  0.1372  0.2368
 7641SOL    HW123448   1.793   6.777   3.611 -0.5657  1.8452  1.1517
 7641SOL    HW223449   1.648   6.733   3.620  0.2724 -1.7211 -1.0364
 7642SOL     OW23450   5.245   0.433   3.332 -0.1313 -0.2976 -0.1049
 7642SOL    HW123451   5.324   0.441   3.385 -0.2417 -0.0471  0.0224
 7642SOL    HW223452   5.207   0.348   3.357 -0.1643 -0.1970  0.1922
 7643SOL     OW23453   1.897   4.387   6.931  0.0171  0.5196 -0.1273
 7643SOL    HW123454   1.925   4.296   6.921  1.7551  0.9630  0.3140
 7643SOL    HW223455   1.933   4.432   6.854 -3.2447  0.4020 -1.9152
 7644SOL     OW23456   1.400   5.022   1.941  0.3093 -0.1983  0.1239
 7644SOL    HW123457   1.415   5.117   1.938 -0.0101 -0.1282  0.5813
 7644SOL    HW223458   1.311   5.011   1.907  1.0071 -0.5158 -1.6623
 7645SOL     OW23459   6.418   1.002   2.573 -0.0750 -0.2684 -0.2945
 7645SOL    HW123460   6.482   1.051   2.623 -0.7643  0.7174 -0.3456
 7645SOL    HW223461   6.464   0.976   2.493  0.5289 -0.4095  0.0938
 7646SOL     OW23462   2.569   6.752   4.857  0.6151 -0.2447  0.5300
 7646SOL    HW123463   2.623   6.819   4.900 -0.8403  1.2795  0.0799
 7646SOL    HW223464   2.614   6.735   4.774  0.9412  0.2501  0.5984
 7647SOL     OW23465   0.637   5.641   0.095  0.1450 -0.7565  0.2305
 7647SOL    HW123466   0.631   5.687   0.012  0.0590  0.7403  1.0357
 7647SOL    HW223467   0.722   5.667   0.131 -0.9371  0.8064  1.8130
 7648SOL     OW23468   3.874   3.495   7.165 -0.0441 -0.0774  0.0635
 7648SOL    HW123469   3.785   3.503   7.131 -1.0669 -2.1164  2.0109
 7648SOL    HW223470   3.892   3.401   7.163  2.0908  0.2808 -0.2317
 7649SOL     OW23471   4.808   6.460   0.798  0.0125 -0.5946  0.4315
 7649SOL    HW123472   4.799   6.382   0.742 -2.6382 -1.0900  1.4088
 7649SOL    HW223473   4.834   6.425   0.883 -3.2284 -0.7900  1.4692
 7650SOL     OW23474   0.301   4.492   1.156 -0.5456 -0.4640  0.0051
 7650SOL    HW123475   0.241   4.553   1.112 -0.3025  0.2565  0.6441
 7650SOL    HW223476   0.248   4.451   1.224 -0.2711  0.3626  0.7387
 7651SOL     OW23477   2.908   1.550   6.989  0.0520  0.1280  0.2892
 7651SOL    HW123478   2.823   1.560   7.031 -0.9692  0.4572 -1.7265
 7651SOL    HW223479   2.919   1.629   6.937  0.9937 -0.4969 -0.5106
 7652SOL     OW23480   7.447   3.190   6.260  0.3267 -0.0245  0.0777
 7652SOL    HW123481   7.494   3.203   6.177 -1.4172 -0.2630 -1.0117
 7652SOL    HW223482   7.390   3.267   6.266 -0.3660 -0.5603  0.4735
 7653SOL     OW23483   4.660   0.605   6.457 -0.1271  0.9742 -0.4063
 7653SOL    HW123484   4.730   0.669   6.448 -0.0750  1.0058  0.1827
 7653SOL    HW223485   4.588   0.653   6.496  0.0936  0.5641  0.5414
 7654SOL     OW23486   7.252   4.787   5.509  0.6808  0.0233 -0.4457
 7654SOL    HW123487   7.244   4.878   5.478 -1.3577 -0.2288 -0.8139
 7654SOL    HW223488   7.342   4.780   5.540  1.3224  1.7580 -1.7405
 7655SOL     OW23489   6.820   2.274   4.677  0.2386 -0.0990  0.1701
 7655SOL    HW123490   6.779   2.297   4.594 -2.3689 -1.6772  0.9250
 7655SOL    HW223491   6.896   2.221   4.653  1.2679  1.8642 -1.2224
 7656SOL     OW23492   4.612   0.474   5.425 -0.7811  0.7832  0.2569
 7656SOL    HW123493   4.568   0.558   5.415 -0.1285  1.0434 -0.5310
 7656SOL    HW223494   4.627   0.466   5.519 -2.8048  0.5139  0.6089
 7657SOL     OW23495   6.520   6.436   0.895  1.1696  0.0564  0.4878
 7657SOL    HW123496   6.546   6.528   0.905  1.2748 -0.1583  2.9177
 7657SOL    HW223497   6.478   6.415   0.979 -0.7487 -1.5444 -0.7842
 7658SOL     OW23498   0.680   2.843   7.388 -0.5800 -0.2738 -0.3332
 7658SOL    HW123499   0.648   2.924   7.429  0.8884 -0.4435  1.2638
 7658SOL    HW223500   0.627   2.774   7.428 -0.8923 -0.2306 -0.6651
 7659SOL     OW23501   1.188   5.436   0.942 -0.3406 -0.0032 -0.4234
 7659SOL    HW123502   1.154   5.510   0.892 -1.3632 -0.3081 -0.1991
 7659SOL    HW223503   1.111   5.382   0.959  0.4815 -1.4551 -1.1458
 7660SOL     OW23504   4.665   1.747   4.611 -0.3326  0.4686 -0.2117
 7660SOL    HW123505   4.722   1.821   4.589 -0.4736  1.8483  3.4092
 7660SOL    HW223506   4.577   1.775   4.584 -0.3756  1.6758  1.1009
 7661SOL     OW23507   6.702   0.451   4.122 -0.1219  0.3220  0.0744
 7661SOL    HW123508   6.718   0.389   4.192 -1.3709  1.9236  1.8732
 7661SOL    HW223509   6.618   0.424   4.084  0.3034 -0.2404 -0.4779
 7662SOL     OW23510   2.931   7.133   7.554 -0.1570  0.4045  0.1412
 7662SOL    HW123511   2.922   7.225   7.581 -0.1581  0.1378  1.0982
 7662SOL    HW223512   2.969   7.089   7.631 -2.7581 -0.9397  0.7778
 7663SOL     OW23513   3.109   1.785   5.637  0.1875  0.1183  0.2370
 7663SOL    HW123514   3.052   1.863   5.639 -0.4046 -0.1524 -2.2661
 7663SOL    HW223515   3.100   1.752   5.548  3.7525 -0.3841 -0.0520
 7664SOL     OW23516   3.196   4.548   4.422  0.7387  0.0439 -0.0683
 7664SOL    HW123517   3.143   4.556   4.501 -0.4919  0.2152 -0.8861
 7664SOL    HW223518   3.170   4.464   4.384 -1.6781  1.6681 -2.3506
 7665SOL     OW23519   4.734   5.058   3.296  0.0254 -0.3282  0.3453
 7665SOL    HW123520   4.716   4.978   3.247 -0.0293 -0.3419  0.3890
 7665SOL    HW223521   4.764   5.120   3.229  0.5653 -0.5416  0.3859
 7666SOL     OW23522   2.976   3.834   4.080 -0.5989 -0.7222  0.3177
 7666SOL    HW123523   2.887   3.849   4.112 -0.3794 -1.6340  1.4162
 7666SOL    HW223524   3.023   3.800   4.156  0.4760 -1.0265 -0.4683
 7667SOL     OW23525   5.037   5.146   4.395 -0.1579 -0.5346  0.0064
 7667SOL    HW123526   5.080   5.231   4.401  0.0590 -0.7354  1.6996
 7667SOL    HW223527   5.077   5.093   4.464 -3.6244 -0.4578  2.3395
 7668SOL     OW23528   6.630   5.644   7.156 -0.2412  0.1498 -0.0734
 7668SOL    HW123529   6.591   5.731   7.159 -2.0796 -0.5507 -1.4729
 7668SOL    HW223530   6.593   5.603   7.078  1.5113 -1.4813 -0.1483
 7669SOL     OW23531   3.555   5.529   0.231 -0.2455  0.0441  0.3270
 7669SOL    HW123532   3.625   5.594   0.227 -0.1446  0.0053  1.3614
 7669SOL    HW223533   3.555   5.490   0.143 -0.0466  1.1449 -0.1869
 7670SOL     OW23534   7.278   0.273   1.185 -0.6320 -0.4946 -0.0627
 7670SOL    HW123535   7.324   0.206   1.135 -0.1004 -1.2185  1.3417
 7670SOL    HW223536   7.250   0.337   1.119  1.8400 -0.3301 -1.0660
 7671SOL     OW23537   0.703   0.639   5.538  0.0218 -0.0563  0.4470
 7671SOL    HW123538   0.678   0.732   5.544 -0.0535 -0.0203 -0.3107
 7671SOL    HW223539   0.635   0.593   5.587 -0.1619  0.2635  0.4962
 7672SOL     OW23540   5.992   4.567   6.660  0.1688 -0.1842  0.0263
 7672SOL    HW123541   5.920   4.603   6.710 -1.2239 -2.0628 -0.5152
 7672SOL    HW223542   6.002   4.477   6.692  0.2244 -0.9457 -1.9873
 7673SOL     OW23543   0.061   2.479   5.575  0.8573  0.4218 -0.1052
 7673SOL    HW123544  -0.019   2.510   5.531  1.5842  2.2625 -0.2289
 7673SOL    HW223545   0.111   2.435   5.506  0.6825  0.7273 -0.4321
 7674SOL     OW23546   2.855   4.041   4.757  0.1676  0.0428  0.6726
 7674SOL    HW123547   2.917   4.027   4.828  0.4191 -1.2597  0.2267
 7674SOL    HW223548   2.812   4.124   4.778  1.9329  0.8996  1.0771
 7675SOL     OW23549   1.473   3.200   2.691 -0.0258 -0.3832  0.4280
 7675SOL    HW123550   1.506   3.258   2.622  1.1366 -0.8452  0.5844
 7675SOL    HW223551   1.420   3.136   2.644 -1.4166  0.8258  0.2632
 7676SOL     OW23552   5.324   2.765   4.334  0.0583  0.4649 -0.1004
 7676SOL    HW123553   5.257   2.764   4.267 -0.9812  2.0645  0.8585
 7676SOL    HW223554   5.294   2.701   4.399  0.0557  0.3522 -0.2123
 7677SOL     OW23555   2.181   4.558   0.585  0.4286  0.6828  0.2917
 7677SOL    HW123556   2.210   4.495   0.519 -2.6690  0.7509 -1.3333
 7677SOL    HW223557   2.241   4.633   0.574  1.2901 -0.1456 -0.9894
 7678SOL     OW23558   3.876   6.881   2.394  0.0965 -0.3842  0.6005
 7678SOL    HW123559   3.936   6.807   2.404 -0.6357 -1.2885 -1.1546
 7678SOL    HW223560   3.921   6.955   2.436  2.4673 -0.9902 -0.6880
 7679SOL     OW23561   0.675   3.324   6.403 -0.4083  0.2681  0.0920
 7679SOL    HW123562   0.754   3.289   6.361 -1.0133 -1.4536  0.3255
 7679SOL    HW223563   0.639   3.385   6.339  1.1130  1.1043 -0.0087
 7680SOL     OW23564   5.803   1.390   6.199 -0.0196 -0.6303 -0.6011
 7680SOL    HW123565   5.780   1.348   6.282 -1.5586  1.1777 -0.0571
 7680SOL    HW223566   5.831   1.317   6.143 -0.5519 -2.1032  0.9491
 7681SOL     OW23567   2.955   1.483   6.621  0.0319  0.0076 -0.2868
 7681SOL    HW123568   2.882   1.542   6.602 -0.3502 -0.6864 -1.0448
 7681SOL    HW223569   3.003   1.526   6.692 -0.8352  0.7064 -0.1050
 7682SOL     OW23570   1.691   4.781   1.887  0.4205  0.3613 -0.0097
 7682SOL    HW123571   1.736   4.834   1.953  3.8606  0.0243 -1.8301
 7682SOL    HW223572   1.673   4.842   1.816 -0.7530  0.1834  0.1266
 7683SOL     OW23573   2.285   3.763   2.233  0.0257  0.0736 -0.2025
 7683SOL    HW123574   2.257   3.792   2.147 -0.1649  0.0566 -0.1472
 7683SOL    HW223575   2.235   3.683   2.249  1.7058 -1.2354 -1.0389
 7684SOL     OW23576   3.558   1.332   6.687  0.2772  0.0923  0.2973
 7684SOL    HW123577   3.613   1.408   6.672 -0.3800  0.5217  0.0074
 7684SOL    HW223578   3.553   1.323   6.782  2.3670 -1.0890  0.3485
 7685SOL     OW23579   1.331   2.878   4.695 -0.1388 -0.1882  0.1228
 7685SOL    HW123580   1.237   2.879   4.676  0.0472  0.7192 -0.8825
 7685SOL    HW223581   1.369   2.827   4.623  0.1786 -0.1799  0.2862
 7686SOL     OW23582   0.200   6.030   2.340 -0.2371  0.0630  0.1882
 7686SOL    HW123583   0.181   5.972   2.266 -3.1925 -0.3183  1.1207
 7686SOL    HW223584   0.256   5.977   2.397  1.5780  0.1425 -1.3910
 7687SOL     OW23585   0.034   4.080   3.741  0.2927  0.6002  0.4908
 7687SOL    HW123586   0.125   4.052   3.736  0.1507  0.3318 -3.0507
 7687SOL    HW223587  -0.016   4.007   3.704 -1.3681  0.9392  1.9121
 7688SOL     OW23588   6.793   6.044   3.725 -0.3335  0.0072  0.1949
 7688SOL    HW123589   6.794   5.949   3.729 -1.8305 -0.0138  0.6959
 7688SOL    HW223590   6.885   6.069   3.723  0.1223 -1.5149 -2.3266
 7689SOL     OW23591   5.854   5.607   6.474  0.0526  0.1410  0.1430
 7689SOL    HW123592   5.814   5.526   6.507 -2.5802  1.7848  1.2594
 7689SOL    HW223593   5.858   5.664   6.550  0.3727  1.6313 -0.9513
 7690SOL     OW23594   2.280   4.970   3.978 -0.0229 -0.9442 -0.5961
 7690SOL    HW123595   2.278   4.893   3.921  0.6257 -0.2305 -1.6194
 7690SOL    HW223596   2.359   4.959   4.031  0.9056 -0.2948 -1.7856
 7691SOL     OW23597   7.373   6.106   0.524  0.2943  0.3519  0.3823
 7691SOL    HW123598   7.428   6.175   0.487 -0.2419  0.1311 -0.8922
 7691SOL    HW223599   7.324   6.148   0.594  0.7880  0.9844  0.3533
 7692SOL     OW23600   3.583   5.567   3.632  0.4222 -0.5003  0.0034
 7692SOL    HW123601   3.650   5.589   3.696  0.3327 -1.5742  0.4846
 7692SOL    HW223602   3.624   5.585   3.547  0.6077  0.7370  0.3311
 7693SOL     OW23603   5.196   1.372   5.406 -0.2755 -0.1376 -0.5969
 7693SOL    HW123604   5.185   1.295   5.462 -0.2133 -0.6871 -1.3344
 7693SOL    HW223605   5.114   1.420   5.415  0.0855  0.2887  0.7101
 7694SOL     OW23606   4.501   4.547   1.909 -0.2065 -0.1983 -0.2090
 7694SOL    HW123607   4.467   4.470   1.863 -0.2534  0.2808 -0.9980
 7694SOL    HW223608   4.450   4.620   1.874 -1.7946 -0.0314  2.1914
 7695SOL     OW23609   5.281   0.066   0.698  0.5823 -0.0486  0.5400
 7695SOL    HW123610   5.209   0.072   0.760 -0.1199 -0.3234 -0.2327
 7695SOL    HW223611   5.337  -0.004   0.732  0.4527  0.1242  1.1070
 7696SOL     OW23612   0.674   2.233   0.879 -0.4613  0.2336 -0.3069
 7696SOL    HW123613   0.747   2.199   0.828  0.0943  0.2622  0.4492
 7696SOL    HW223614   0.715   2.280   0.952 -1.2040 -0.5656  0.6690
 7697SOL     OW23615   0.437   0.807   1.379  0.0399 -0.6357 -0.2010
 7697SOL    HW123616   0.531   0.794   1.366  0.1192 -0.1452 -0.1534
 7697SOL    HW223617   0.402   0.817   1.290  0.4355  1.7544 -0.1585
 7698SOL     OW23618   7.537   2.298   2.764  0.2122 -0.0116 -0.1318
 7698SOL    HW123619   7.482   2.362   2.810 -1.0979 -1.4608  0.4011
 7698SOL    HW223620   7.504   2.213   2.793  4.0841 -1.0493  1.8768
 7699SOL     OW23621   7.035   3.547   6.340  0.3955 -0.3560 -0.6579
 7699SOL    HW123622   7.117   3.564   6.293  0.3815 -1.2532 -1.0359
 7699SOL    HW223623   6.967   3.551   6.272  0.0898  0.5810 -0.3139
 7700SOL     OW23624   3.996   6.575   3.056 -0.1881 -0.0297 -0.3353
 7700SOL    HW123625   3.926   6.539   3.111  0.7466 -3.8924 -1.3881
 7700SOL    HW223626   3.951   6.631   2.993 -1.9815 -0.4398  0.5209
 7701SOL     OW23627   1.679   1.738   0.660 -0.3026 -0.5744 -0.3771
 7701SOL    HW123628   1.681   1.703   0.571 -0.9475 -1.8212  0.0900
 7701SOL    HW223629   1.610   1.689   0.705 -1.2344  1.2810  0.3203
 7702SOL     OW23630   5.038   3.576   0.074  0.1213  0.6795  0.3717
 7702SOL    HW123631   5.004   3.489   0.053 -0.0034  0.6739  0.5887
 7702SOL    HW223632   4.996   3.598   0.157 -0.9678  1.5499 -0.3892
 7703SOL     OW23633   3.659   5.812   3.807 -0.0248  0.6818  0.0689
 7703SOL    HW123634   3.640   5.818   3.714  0.5727 -0.6663 -0.1593
 7703SOL    HW223635   3.726   5.878   3.823  0.5518  0.2801 -0.6547
 7704SOL     OW23636   2.127   3.559   2.609 -0.1154 -0.3319  0.2137
 7704SOL    HW123637   2.200   3.527   2.662  0.4904 -1.6712 -1.3432
 7704SOL    HW223638   2.072   3.482   2.595  0.2793 -0.2844 -1.9195
 7705SOL     OW23639   5.669   4.714   3.634 -0.7135  0.1664  0.1776
 7705SOL    HW123640   5.690   4.628   3.670  1.7229 -0.1248 -1.6575
 7705SOL    HW223641   5.612   4.695   3.558 -0.2350  0.1567 -0.1839
 7706SOL     OW23642   3.379   3.597   5.406  0.0846 -0.1931  0.3087
 7706SOL    HW123643   3.325   3.556   5.339 -0.2984  0.3027  0.3024
 7706SOL    HW223644   3.410   3.525   5.461  0.2279 -0.5795 -0.2785
 7707SOL     OW23645   6.888   5.549   3.853  0.2857  0.0516  0.5115
 7707SOL    HW123646   6.895   5.466   3.806  1.2302  0.2707  0.2451
 7707SOL    HW223647   6.804   5.544   3.899 -0.4447 -0.3548 -0.8278
 7708SOL     OW23648   3.127   6.972   4.429  0.4025 -0.0478  0.0252
 7708SOL    HW123649   3.186   6.906   4.394  0.0233  0.5830 -1.9085
 7708SOL    HW223650   3.045   6.925   4.447  0.4268 -0.2758 -0.4584
 7709SOL     OW23651   4.305   2.878   1.228  0.0223  0.4340 -0.2519
 7709SOL    HW123652   4.234   2.864   1.291 -0.3389 -0.6895 -0.8964
 7709SOL    HW223653   4.274   2.951   1.173 -1.1276 -0.7347 -1.2062
 7710SOL     OW23654   1.164   6.326   3.426  0.1045  0.0083  0.1032
 7710SOL    HW123655   1.236   6.368   3.380 -1.1962  1.3154 -0.8348
 7710SOL    HW223656   1.150   6.244   3.380  1.2261 -0.4416  0.5437
 7711SOL     OW23657   0.706   1.839   2.521  0.3615  0.3315  0.5439
 7711SOL    HW123658   0.673   1.915   2.569  0.1086 -0.6339  1.9614
 7711SOL    HW223659   0.778   1.806   2.574  1.3987  0.3652 -0.7701
 7712SOL     OW23660   3.291   2.019   3.061  0.1362 -0.2488  0.8795
 7712SOL    HW123661   3.365   2.074   3.087 -0.1375 -0.2133  1.5972
 7712SOL    HW223662   3.264   1.975   3.141 -0.2404 -0.7234  0.4988
 7713SOL     OW23663   4.866   3.076   3.352 -0.5215  0.0354 -0.1776
 7713SOL    HW123664   4.777   3.095   3.383 -0.4092 -0.5077  0.5301
 7713SOL    HW223665   4.894   3.001   3.405 -0.4115 -1.1385 -1.8070
 7714SOL     OW23666   1.399   5.053   5.295  0.1252 -0.6793 -0.4301
 7714SOL    HW123667   1.363   5.005   5.369  0.5160 -0.6243 -0.1999
 7714SOL    HW223668   1.340   5.126   5.283  1.6607  1.0778  1.7922
 7715SOL     OW23669   4.592   1.038   2.348 -0.8329  0.0676 -0.0462
 7715SOL    HW123670   4.636   0.999   2.273  1.3187  0.5537  0.8883
 7715SOL    HW223671   4.617   1.130   2.345 -0.7669  0.1102  1.2043
 7716SOL     OW23672   1.023   4.445   2.130  0.3109  0.1959 -0.0124
 7716SOL    HW123673   1.091   4.512   2.128  2.7797 -2.1026  0.3013
 7716SOL    HW223674   1.027   4.410   2.219 -1.7803  0.3642  0.2100
 7717SOL     OW23675   0.963   1.159   6.978  0.4080  0.1239  0.6664
 7717SOL    HW123676   1.046   1.161   6.929  0.2692 -0.1582  0.4135
 7717SOL    HW223677   0.965   1.075   7.024 -0.3441 -0.5110 -0.4234
 7718SOL     OW23678   6.716   1.394   3.221 -0.4853  0.1284  0.0301
 7718SOL    HW123679   6.648   1.341   3.180  0.1306 -0.5201 -0.1662
 7718SOL    HW223680   6.791   1.388   3.161  0.5382 -1.1025  1.3825
 7719SOL     OW23681   1.072   5.803   3.945  0.1629 -0.2175 -0.0757
 7719SOL    HW123682   0.990   5.764   3.975 -0.8286  0.6410 -1.5402
 7719SOL    HW223683   1.118   5.826   4.025 -1.6584  0.5686  0.8109
 7720SOL     OW23684   1.010   6.742   7.291 -0.1587  0.3801 -0.0558
 7720SOL    HW123685   1.080   6.691   7.251 -0.7957  1.2187 -2.3712
 7720SOL    HW223686   0.954   6.677   7.334  0.3336 -0.6167 -0.8902
 7721SOL     OW23687   2.132   7.403   6.280 -0.7690 -0.3782 -0.5884
 7721SOL    HW123688   2.080   7.325   6.263 -0.1720 -0.6453 -1.2542
 7721SOL    HW223689   2.199   7.403   6.211 -0.0936  0.1284  0.0445
 7722SOL     OW23690   3.103   3.671   0.647  0.3483  0.1992  0.2980
 7722SOL    HW123691   3.105   3.661   0.742  0.1504 -1.7460  0.1307
 7722SOL    HW223692   3.193   3.656   0.619  0.8430  2.7166  0.2849
 7723SOL     OW23693   4.055   6.059   7.530  0.1875  0.0701 -0.4161
 7723SOL    HW123694   4.100   6.109   7.462  0.1863  1.1925  0.3912
 7723SOL    HW223695   4.117   6.055   7.602 -0.6492  0.8728  0.3772
 7724SOL     OW23696   1.348   6.718   3.502 -0.7754  0.1013 -0.0692
 7724SOL    HW123697   1.325   6.811   3.510 -0.5110  0.0027  2.9286
 7724SOL    HW223698   1.264   6.674   3.489 -1.2588  0.5660  1.2879
 7725SOL     OW23699   5.108   2.056   7.564 -0.1983 -0.3876  0.5810
 7725SOL    HW123700   5.088   2.088   7.652 -1.8784 -0.6590  0.3258
 7725SOL    HW223701   5.129   2.136   7.514  1.5792 -0.3046  1.3841
 7726SOL     OW23702   0.253   5.006   2.586 -0.0387 -0.2199 -0.1543
 7726SOL    HW123703   0.230   5.094   2.558  1.0709  0.6663  1.5357
 7726SOL    HW223704   0.192   4.986   2.657 -0.2286 -0.7876 -0.4680
 7727SOL     OW23705   4.554   0.783   4.533  0.0342 -0.2186 -0.2145
 7727SOL    HW123706   4.518   0.871   4.547  0.5915  0.0285 -0.2919
 7727SOL    HW223707   4.636   0.798   4.484 -0.4149 -0.8584 -1.1970
 7728SOL     OW23708   4.244   0.420   5.491 -0.9018  0.7108  0.2932
 7728SOL    HW123709   4.253   0.502   5.539 -0.1936  1.5569 -1.1782
 7728SOL    HW223710   4.163   0.430   5.441 -2.0062 -0.4497  1.7956
 7729SOL     OW23711   7.170   5.689   2.340 -0.4212 -0.2106 -0.0726
 7729SOL    HW123712   7.121   5.762   2.379 -1.8454 -0.8018 -0.6699
 7729SOL    HW223713   7.123   5.611   2.369  0.5394 -0.8419 -0.1974
 7730SOL     OW23714   0.440   3.860   0.280 -0.3058 -0.2351  0.0593
 7730SOL    HW123715   0.519   3.834   0.326  0.1122  0.6180 -0.1527
 7730SOL    HW223716   0.452   3.829   0.191  0.1149  0.4984 -0.1496
 7731SOL     OW23717   2.783   3.342   7.006  0.0466 -0.0197  0.0302
 7731SOL    HW123718   2.809   3.250   7.009 -1.7989 -0.6064 -0.2221
 7731SOL    HW223719   2.864   3.390   6.992  1.1745 -1.5363  1.0904
 7732SOL     OW23720   5.298   3.106   3.061  0.3301  0.4549 -0.1846
 7732SOL    HW123721   5.311   3.014   3.086  2.3904  0.9168  0.6852
 7732SOL    HW223722   5.265   3.102   2.971 -3.2731 -1.1768  1.0224
 7733SOL     OW23723   3.537   6.242   3.368  0.6450 -0.3288 -0.4922
 7733SOL    HW123724   3.518   6.272   3.457 -0.5752 -0.2726 -0.7493
 7733SOL    HW223725   3.591   6.164   3.379  1.0700  0.0686  0.2766
 7734SOL     OW23726   5.924   1.823   5.100 -0.0596  0.3396 -0.1176
 7734SOL    HW123727   5.850   1.786   5.149 -1.2332  1.8149 -0.6984
 7734SOL    HW223728   5.992   1.756   5.105 -1.7557 -1.5024 -0.3579
 7735SOL     OW23729   5.599   6.221   4.710  0.3096  0.2711  0.0425
 7735SOL    HW123730   5.590   6.159   4.783 -0.0982  1.3186  0.9048
 7735SOL    HW223731   5.511   6.229   4.674  0.3624  0.3535 -0.0721
 7736SOL     OW23732   0.696   3.725   3.542 -0.1435 -0.0680 -0.1138
 7736SOL    HW123733   0.643   3.786   3.595  0.1334 -0.2912  0.4328
 7736SOL    HW223734   0.651   3.641   3.550 -0.1874 -0.0686 -0.3654
 7737SOL     OW23735   7.192   2.628   5.905  0.4114 -0.0496  0.2906
 7737SOL    HW123736   7.264   2.627   5.843  0.0778 -1.5360 -0.1012
 7737SOL    HW223737   7.233   2.645   5.990  0.8698  2.0141 -0.2792
 7738SOL     OW23738   6.841   2.923   6.192  0.0917 -0.0877 -0.1035
 7738SOL    HW123739   6.932   2.922   6.162  0.4967 -2.6541  0.9650
 7738SOL    HW223740   6.790   2.903   6.113  0.7235 -1.5701 -0.1660
 7739SOL     OW23741   0.470   0.550   2.836  0.6325 -0.2814  0.9090
 7739SOL    HW123742   0.563   0.538   2.852  0.5197 -0.0422  1.8067
 7739SOL    HW223743   0.434   0.461   2.835  0.8022 -0.3513  0.9946
 7740SOL     OW23744   1.519   3.402   3.474 -0.5927  0.3763 -0.3378
 7740SOL    HW123745   1.463   3.479   3.477  0.6953  1.3215  0.0642
 7740SOL    HW223746   1.485   3.351   3.400 -1.7977  1.0394 -0.2645
 7741SOL     OW23747   0.124   5.701   7.269  0.0952 -0.3873 -0.3225
 7741SOL    HW123748   0.063   5.627   7.283 -0.5391 -0.0571 -1.2295
 7741SOL    HW223749   0.182   5.671   7.199  1.7953 -1.1617  1.3272
 7742SOL     OW23750   3.727   4.438   1.101 -0.1550  0.2278  0.2441
 7742SOL    HW123751   3.813   4.412   1.068 -0.7826 -1.3242 -0.2743
 7742SOL    HW223752   3.746   4.482   1.184  1.2003  1.0106 -0.4293
 7743SOL     OW23753   4.552   7.559   0.900  0.4032  0.3062  0.3169
 7743SOL    HW123754   4.580   7.540   0.990 -0.8669  0.4461  0.7660
 7743SOL    HW223755   4.528   7.474   0.864  0.3994  0.3166  0.2945
 7744SOL     OW23756   3.340   4.169   3.942  0.1225  0.1321  0.4908
 7744SOL    HW123757   3.409   4.156   3.877 -0.0896 -0.4956  0.3779
 7744SOL    HW223758   3.259   4.173   3.890 -0.2085 -1.7858  0.7901
 7745SOL     OW23759   6.599   6.743   7.506 -0.0157  0.7177  0.4548
 7745SOL    HW123760   6.525   6.684   7.498  0.2149  0.3639  0.8623
 7745SOL    HW223761   6.673   6.693   7.472 -0.3192  1.8560 -2.0859
 7746SOL     OW23762   4.497   6.472   7.416 -0.4108  0.2290  0.3204
 7746SOL    HW123763   4.565   6.539   7.405 -2.0263  2.2230  1.6543
 7746SOL    HW223764   4.424   6.503   7.363 -0.8439 -1.0617  0.1252
 7747SOL     OW23765   6.993   7.012   7.472 -0.3689 -0.4157  0.1428
 7747SOL    HW123766   7.002   6.952   7.397  1.3367  0.8370 -0.7420
 7747SOL    HW223767   7.083   7.021   7.505 -0.3098  2.5893 -0.5833
 7748SOL     OW23768   3.526   1.288   3.273  0.7145 -0.2546  0.0665
 7748SOL    HW123769   3.490   1.371   3.305  0.7409  0.6264 -2.0199
 7748SOL    HW223770   3.449   1.235   3.250  0.5158  1.2596 -3.4734
 7749SOL     OW23771   4.201   4.714   2.386  0.0322 -0.6970  0.5752
 7749SOL    HW123772   4.210   4.661   2.465 -1.0321  1.0512  1.9342
 7749SOL    HW223773   4.143   4.786   2.411 -0.5118 -0.1871 -1.8632
 7750SOL     OW23774   5.981   5.287   2.395  0.0816  0.5815 -0.1012
 7750SOL    HW123775   5.979   5.231   2.317  0.9131 -1.1556  1.0611
 7750SOL    HW223776   6.014   5.371   2.363  0.7784 -0.2093 -1.5494
 7751SOL     OW23777   7.028   4.097   0.559 -0.1841  0.1465 -0.3198
 7751SOL    HW123778   7.111   4.141   0.538 -0.4806  0.3915 -1.0169
 7751SOL    HW223779   7.052   4.029   0.622  0.2271  1.5744  1.1373
 7752SOL     OW23780   2.201   7.430   4.967 -0.1866  0.1843  0.1840
 7752SOL    HW123781   2.159   7.495   5.023  0.0088 -0.7557  1.4833
 7752SOL    HW223782   2.259   7.480   4.911 -0.5332  1.1914  0.7012
 7753SOL     OW23783   2.366   4.311   4.163 -0.2657  0.5672 -0.2614
 7753SOL    HW123784   2.443   4.281   4.115 -1.3305 -1.7660 -0.6525
 7753SOL    HW223785   2.343   4.394   4.121  1.5761  0.9425 -0.6177
 7754SOL     OW23786   7.258   0.503   6.205  0.0099  0.0260 -0.3919
 7754SOL    HW123787   7.220   0.535   6.287  1.2396 -1.0174  0.6388
 7754SOL    HW223788   7.350   0.530   6.209  0.1880 -0.4391 -1.2118
 7755SOL     OW23789   5.370   5.405   4.891  0.3638 -0.0492  0.2421
 7755SOL    HW123790   5.335   5.490   4.916  2.0185  1.1670 -1.2737
 7755SOL    HW223791   5.457   5.402   4.931  0.6349 -0.6622 -0.3633
 7756SOL     OW23792   6.668   1.377   6.726 -0.2578 -0.4708 -0.0326
 7756SOL    HW123793   6.674   1.471   6.707  1.4185 -0.8489 -1.7107
 7756SOL    HW223794   6.670   1.336   6.640  1.1758 -2.1189  0.7450
 7757SOL     OW23795   5.711   0.874   2.648 -0.3359  0.3029 -0.2851
 7757SOL    HW123796   5.718   0.912   2.735  0.1806 -0.6095  0.0817
 7757SOL    HW223797   5.748   0.786   2.656 -0.6046  0.0703 -1.3390
 7758SOL     OW23798   3.342   3.937   0.798  0.6842  0.4246 -0.3271
 7758SOL    HW123799   3.407   3.965   0.862  1.8592  0.8023 -1.6293
 7758SOL    HW223800   3.364   3.986   0.718  0.0586 -0.9655 -1.3907
 7759SOL     OW23801   2.904   6.557   0.604  0.2226 -0.3184 -0.2122
 7759SOL    HW123802   2.895   6.531   0.512  0.5346  1.3209 -0.7388
 7759SOL    HW223803   2.832   6.513   0.649 -0.3668 -0.5733 -1.3732
 7760SOL     OW23804   5.640   2.254   0.304 -0.2387  0.1652  0.1977
 7760SOL    HW123805   5.641   2.170   0.350  0.5246 -1.2313 -2.1831
 7760SOL    HW223806   5.714   2.302   0.341 -0.3977 -0.3745  1.2716
 7761SOL     OW23807   7.328   3.408   6.787  0.3005 -0.1430  0.0290
 7761SOL    HW123808   7.329   3.452   6.702 -0.7353  1.4658  0.7842
 7761SOL    HW223809   7.327   3.315   6.766  1.1618  0.1998 -1.6883
 7762SOL     OW23810   1.474   2.040   2.903 -0.0553  0.3159 -0.4883
 7762SOL    HW123811   1.438   2.102   2.840  1.2097  2.6944  0.9207
 7762SOL    HW223812   1.465   1.954   2.862 -1.6248  1.4504 -2.7170
 7763SOL     OW23813   0.039   5.313   4.296 -0.0064 -0.8151 -0.0015
 7763SOL    HW123814   0.064   5.362   4.217  1.0783 -2.2775 -0.6060
 7763SOL    HW223815   0.122   5.292   4.339 -0.6108  0.9773  2.2336
 7764SOL     OW23816   5.215   0.877   0.298 -0.3294  0.3094 -0.4969
 7764SOL    HW123817   5.279   0.825   0.347 -0.2720 -0.7190 -1.6153
 7764SOL    HW223818   5.245   0.967   0.307  0.2849  0.0231  0.4447
 7765SOL     OW23819   5.679   1.408   7.413 -0.1842 -0.1409  0.0203
 7765SOL    HW123820   5.666   1.502   7.408 -0.5378 -0.2192 -0.6624
 7765SOL    HW223821   5.610   1.371   7.358 -0.6483 -0.8492  1.0381
 7766SOL     OW23822   1.584   3.613   2.224 -0.5314 -0.1440  0.3163
 7766SOL    HW123823   1.534   3.568   2.156  0.3292 -0.3935 -0.1640
 7766SOL    HW223824   1.569   3.706   2.206 -0.3246 -0.2081 -0.2102
 7767SOL     OW23825   1.968   3.623   4.263 -0.1824  0.6066  1.1055
 7767SOL    HW123826   1.919   3.703   4.245  0.3820  0.8209  0.4896
 7767SOL    HW223827   2.051   3.634   4.215 -1.2672 -1.6312 -1.5120
 7768SOL     OW23828   0.045   6.132   5.559 -0.0255 -0.7182 -0.2350
 7768SOL    HW123829   0.057   6.179   5.477  0.7181  1.6583  1.1135
 7768SOL    HW223830  -0.044   6.098   5.554  0.3517 -1.5069 -2.3966
 7769SOL     OW23831   3.920   3.326   3.149  0.1421  0.1703  0.3154
 7769SOL    HW123832   3.970   3.321   3.231 -0.7186 -1.8023  0.7631
 7769SOL    HW223833   3.985   3.311   3.080  0.2880 -2.1928  0.8868
 7770SOL     OW23834   1.626   0.040   7.095  0.3294 -0.2539  0.6183
 7770SOL    HW123835   1.693   0.046   7.163  1.5238  0.4005 -0.5760
 7770SOL    HW223836   1.672   0.005   7.019 -0.8946 -0.6115  0.0203
 7771SOL     OW23837   7.301   7.452   2.495 -0.1738 -0.3475 -0.0991
 7771SOL    HW123838   7.258   7.368   2.511 -1.5000 -0.1874 -2.4554
 7771SOL    HW223839   7.341   7.444   2.409  0.6185  1.0837  0.0936
 7772SOL     OW23840   4.534   5.671   6.867 -0.2093 -0.2770  0.0564
 7772SOL    HW123841   4.500   5.701   6.951  0.4899 -0.3255  0.3571
 7772SOL    HW223842   4.615   5.624   6.889  0.6617  0.8003 -0.7529
 7773SOL     OW23843   7.078   1.940   3.676  0.1352 -0.2172 -0.1380
 7773SOL    HW123844   7.139   1.904   3.612 -0.2540  0.5715 -0.9664
 7773SOL    HW223845   6.999   1.887   3.666  1.1598 -2.4543  2.1737
 7774SOL     OW23846   3.372   5.727   3.835 -0.1716  0.1744  1.0118
 7774SOL    HW123847   3.452   5.711   3.784 -1.3376 -0.8421 -0.5718
 7774SOL    HW223848   3.404   5.763   3.918  1.8600  0.9700 -0.0410
 7775SOL     OW23849   0.180   1.578   6.053 -0.2548 -0.4762 -0.5729
 7775SOL    HW123850   0.107   1.546   6.106 -0.8739  0.1588 -1.0290
 7775SOL    HW223851   0.190   1.512   5.984  0.1451 -0.9838 -0.0385
 7776SOL     OW23852   3.840   0.307   2.511 -0.2148  0.1105  0.5799
 7776SOL    HW123853   3.786   0.301   2.433  1.0484  0.9180 -0.3953
 7776SOL    HW223854   3.800   0.378   2.563  0.4060  1.3450 -0.5717
 7777SOL     OW23855   3.892   3.906   4.792 -0.0245  0.0983  0.0412
 7777SOL    HW123856   3.820   3.903   4.730  0.5040 -1.3804 -0.5463
 7777SOL    HW223857   3.878   3.987   4.841 -1.7713  0.1021 -0.3972
 7778SOL     OW23858   0.014   7.191   2.947 -0.3045 -0.2062  0.2046
 7778SOL    HW123859   0.088   7.225   2.897 -0.4306 -1.6083 -0.9764
 7778SOL    HW223860   0.052   7.121   3.001 -0.3893  0.5260  1.2547
 7779SOL     OW23861   6.067   5.281   0.825 -0.3716 -0.3685  0.4969
 7779SOL    HW123862   6.035   5.198   0.790 -0.0773  0.2886 -1.4280
 7779SOL    HW223863   6.156   5.261   0.856 -0.2019 -0.7225 -0.2026
 7780SOL     OW23864   4.861   6.750   6.641  0.1738  0.4471 -0.0328
 7780SOL    HW123865   4.782   6.771   6.590 -0.5864  0.1205  0.9850
 7780SOL    HW223866   4.864   6.817   6.709 -0.2025 -0.5469  0.9856
 7781SOL     OW23867   3.900   1.046   4.608 -0.1397 -0.2895  0.4041
 7781SOL    HW123868   3.995   1.049   4.618 -0.1019  0.8280 -0.0942
 7781SOL    HW223869   3.885   1.072   4.517 -0.9883  1.3733  0.9752
 7782SOL     OW23870   5.101   0.958   5.743  0.3968 -0.0938 -0.4444
 7782SOL    HW123871   5.090   0.938   5.650 -1.4577 -1.0618 -0.0630
 7782SOL    HW223872   5.103   0.872   5.785 -0.7333  0.3605  0.5880
 7783SOL     OW23873   5.119   0.755   2.743 -0.1939  0.5620  0.1910
 7783SOL    HW123874   5.038   0.711   2.718 -0.1963  0.5809  0.1645
 7783SOL    HW223875   5.117   0.838   2.695  0.3333  0.1203 -0.6283
 7784SOL     OW23876   2.981   0.073   1.754 -0.3843 -0.3292  0.1235
 7784SOL    HW123877   3.036   0.141   1.715  1.1145 -2.3142 -1.4483
 7784SOL    HW223878   2.994   0.082   1.848  0.8809  0.6513 -0.1205
 7785SOL     OW23879   1.522   1.713   6.440  0.2249 -0.8610  0.4402
 7785SOL    HW123880   1.577   1.663   6.379  0.2411 -0.0368 -0.2387
 7785SOL    HW223881   1.433   1.686   6.419  0.1855 -0.1222 -0.3888
 7786SOL     OW23882   0.316   5.341   6.368  0.0282 -0.3633 -0.1755
 7786SOL    HW123883   0.371   5.267   6.391  0.5144  0.5907  1.9255
 7786SOL    HW223884   0.243   5.338   6.430 -0.2884  0.5251 -0.4811
 7787SOL     OW23885   6.434   2.459   2.973 -0.1539  0.1367 -0.2326
 7787SOL    HW123886   6.446   2.534   3.032 -0.1468  0.7594 -1.0048
 7787SOL    HW223887   6.339   2.449   2.967 -0.2462  1.4434 -1.7528
 7788SOL     OW23888   2.957   3.723   4.450 -0.1294  1.0570 -0.2884
 7788SOL    HW123889   2.998   3.773   4.521 -1.4018  0.7028  0.7409
 7788SOL    HW223890   3.030   3.700   4.392  1.0986  0.7320  1.2983
 7789SOL     OW23891   1.474   7.236   3.248 -0.4526  0.0305 -0.6871
 7789SOL    HW123892   1.512   7.269   3.167 -1.6698  0.3451 -1.1501
 7789SOL    HW223893   1.430   7.155   3.223  0.6566 -0.8125  0.0213
 7790SOL     OW23894   2.673   2.214   4.448  0.3484  0.0947 -0.2851
 7790SOL    HW123895   2.710   2.151   4.511  0.4352 -0.0895 -0.5193
 7790SOL    HW223896   2.740   2.282   4.441  0.6956 -0.2838 -0.7778
 7791SOL     OW23897   5.391   3.983   4.099 -0.7478 -0.3549 -0.0978
 7791SOL    HW123898   5.450   4.043   4.146  0.5108 -0.3827 -1.5739
 7791SOL    HW223899   5.440   3.901   4.093 -0.6594 -0.2204 -1.8179
 7792SOL     OW23900   6.050   0.678   0.890 -0.0090  0.4211  0.0512
 7792SOL    HW123901   6.057   0.707   0.799 -2.3567  1.8957  0.2570
 7792SOL    HW223902   5.998   0.746   0.932 -1.8694 -1.8776  1.6911
 7793SOL     OW23903   7.240   0.451   0.985 -0.1989  0.1024  0.6547
 7793SOL    HW123904   7.241   0.547   0.982  0.8544  0.0868 -1.0745
 7793SOL    HW223905   7.280   0.425   0.902 -0.7331 -1.8464  0.9735
 7794SOL     OW23906   6.868   2.440   5.367  0.6870  0.2287  0.3496
 7794SOL    HW123907   6.817   2.387   5.305  0.8254  1.2544 -0.6889
 7794SOL    HW223908   6.957   2.405   5.361  0.6432  0.1473  0.1599
 7795SOL     OW23909   5.438   7.297   0.021  0.5976  0.0779 -0.4242
 7795SOL    HW123910   5.468   7.206   0.019  1.5859  0.4011 -1.4520
 7795SOL    HW223911   5.507   7.344   0.067  0.1713  0.3491 -0.0502
 7796SOL     OW23912   6.203   2.823   1.912  0.3002  0.2862 -1.1341
 7796SOL    HW123913   6.190   2.740   1.960  1.3836 -1.4786 -3.6864
 7796SOL    HW223914   6.116   2.862   1.907 -0.3476 -1.0018 -0.3824
 7797SOL     OW23915   0.238   4.490   5.052 -0.0259 -0.0226  0.2697
 7797SOL    HW123916   0.333   4.494   5.064 -0.0257 -0.2937  0.3628
 7797SOL    HW223917   0.216   4.573   5.011  0.1793  0.2784  0.7645
 7798SOL     OW23918   6.742   0.433   2.104  0.4043  0.4180  0.3974
 7798SOL    HW123919   6.721   0.494   2.175 -0.1909  0.7407 -0.0444
 7798SOL    HW223920   6.671   0.444   2.041  1.8913  1.6013 -1.1945
 7799SOL     OW23921   0.728   3.366   3.263  0.1318  0.1133  0.0171
 7799SOL    HW123922   0.749   3.456   3.238  2.5985 -0.3935 -0.0387
 7799SOL    HW223923   0.664   3.337   3.197 -0.5899  1.7518 -0.0460
 7800SOL     OW23924   3.163   5.571   0.553 -0.3853 -0.0708  0.3406
 7800SOL    HW123925   3.245   5.600   0.591 -2.1903  1.6307  3.2711
 7800SOL    HW223926   3.159   5.616   0.468  1.5930 -0.1338  0.1614
 7801SOL     OW23927   1.774   0.902   2.273  0.1232 -0.0414 -0.1870
 7801SOL    HW123928   1.832   0.857   2.212  0.0330 -0.6307  0.1527
 7801SOL    HW223929   1.687   0.868   2.254  0.0194  0.1655 -0.0877
 7802SOL     OW23930   1.000   3.897   4.627 -0.5116 -0.3053 -0.1921
 7802SOL    HW123931   1.043   3.877   4.711  0.2692 -0.1898 -0.5555
 7802SOL    HW223932   1.060   3.861   4.561 -0.4424  0.8232 -0.7516
 7803SOL     OW23933   3.573   7.470   0.254  0.3627  0.1113 -0.0065
 7803SOL    HW123934   3.528   7.446   0.173  2.0612 -1.1800 -0.6212
 7803SOL    HW223935   3.649   7.412   0.258 -0.0054 -0.3415  2.8504
 7804SOL     OW23936   2.763   4.824   5.069 -0.0846  0.5997  0.0211
 7804SOL    HW123937   2.675   4.861   5.069  0.3471  1.7667  1.9097
 7804SOL    HW223938   2.775   4.789   5.157  1.1694  0.0149 -0.3521
 7805SOL     OW23939   2.858   3.926   2.941 -0.7561 -0.1676  0.2006
 7805SOL    HW123940   2.856   3.900   3.033  1.0373 -2.8267 -0.3950
 7805SOL    HW223941   2.939   3.888   2.907 -0.7281  1.8058 -2.2170
 7806SOL     OW23942   4.973   4.354   1.947  0.3189  0.3774 -0.2435
 7806SOL    HW123943   4.992   4.432   1.998 -2.0124  0.3821  0.6943
 7806SOL    HW223944   4.933   4.387   1.866  0.7515  0.2073 -0.5307
 7807SOL     OW23945   6.194   1.300   3.850  0.3711  0.6242 -0.3493
 7807SOL    HW123946   6.169   1.311   3.942  0.4154  1.7909 -0.4618
 7807SOL    HW223947   6.278   1.254   3.853  1.1489  2.0367  0.2606
 7808SOL     OW23948   4.707   1.573   5.064  0.3293  0.0755 -0.3967
 7808SOL    HW123949   4.667   1.615   4.988  1.0335  1.4001 -0.0583
 7808SOL    HW223950   4.639   1.574   5.131  0.4514  1.0454 -0.2726
 7809SOL     OW23951   5.761   7.180   5.842 -0.0545  1.0435  0.2596
 7809SOL    HW123952   5.826   7.118   5.875 -0.1693  0.7113 -0.1189
 7809SOL    HW223953   5.762   7.253   5.904  0.9940  1.2427  0.0172
 7810SOL     OW23954   5.307   3.290   4.984  0.2495 -0.2174 -0.0186
 7810SOL    HW123955   5.298   3.385   4.984  0.3756 -0.2060  0.4964
 7810SOL    HW223956   5.334   3.269   4.894 -1.8169  0.0217 -0.7527
 7811SOL     OW23957   2.746   5.344   1.654  0.2269  0.0662 -0.1077
 7811SOL    HW123958   2.842   5.352   1.657  0.4193 -1.8502  1.5845
 7811SOL    HW223959   2.721   5.334   1.746 -1.6633  0.8210 -0.5037
 7812SOL     OW23960   6.949   2.125   3.145 -0.1759 -0.2401 -0.1404
 7812SOL    HW123961   6.914   2.115   3.233  0.8362 -0.2702  0.2751
 7812SOL    HW223962   7.012   2.197   3.152  0.7374 -0.9759 -0.5828
 7813SOL     OW23963   1.782   6.383   0.067 -0.4967 -0.6210  0.2151
 7813SOL    HW123964   1.742   6.353  -0.015  1.6669 -0.5224 -0.9582
 7813SOL    HW223965   1.832   6.308   0.099 -1.1980 -0.6086  1.3823
 7814SOL     OW23966   7.421   6.605   7.536  0.3468  0.9045 -0.2398
 7814SOL    HW123967   7.383   6.679   7.489 -0.0108  0.4169 -0.7367
 7814SOL    HW223968   7.355   6.536   7.530  0.6093  0.5894  0.3455
 7815SOL     OW23969   0.323   5.887   3.678 -0.4285  0.3266 -0.1244
 7815SOL    HW123970   0.369   5.875   3.761 -1.1406  0.5423  0.3095
 7815SOL    HW223971   0.388   5.926   3.620 -0.2416  1.2371  0.6727
 7816SOL     OW23972   4.191   3.446   1.979 -0.4406  0.9061 -0.0300
 7816SOL    HW123973   4.278   3.444   2.018  0.2306  0.0573 -1.4822
 7816SOL    HW223974   4.168   3.538   1.975  1.1808  1.3097 -1.2332
 7817SOL     OW23975   3.032   6.613   7.419  0.2990 -0.0777  0.0015
 7817SOL    HW123976   3.051   6.704   7.397  0.3393 -0.1049 -0.0729
 7817SOL    HW223977   2.989   6.619   7.505 -0.6639  0.0916 -0.4887
 7818SOL     OW23978   2.608   3.102   5.336  0.7022  0.2991  0.9224
 7818SOL    HW123979   2.692   3.106   5.289 -0.7379  0.3680 -1.8255
 7818SOL    HW223980   2.577   3.192   5.338 -0.6101 -0.0677 -0.7330
 7819SOL     OW23981   0.307   1.229   5.862  0.3014  0.3252 -0.2838
 7819SOL    HW123982   0.377   1.226   5.928 -1.3635  2.5461  1.7671
 7819SOL    HW223983   0.258   1.148   5.876  0.3411  0.4732  0.8270
 7820SOL     OW23984   2.124   5.603   5.979 -0.0366  0.0878 -0.3737
 7820SOL    HW123985   2.209   5.647   5.968  0.4848 -1.3793 -3.1095
 7820SOL    HW223986   2.146   5.518   6.017 -0.5694  0.5705  1.0449
 7821SOL     OW23987   0.766   3.752   4.653  0.0520 -0.0344  0.2963
 7821SOL    HW123988   0.842   3.807   4.641  3.0520 -3.4591  1.7758
 7821SOL    HW223989   0.750   3.713   4.566 -1.3191  2.0333 -0.4526
 7822SOL     OW23990   3.053   0.664   2.078  0.0363  0.1910  0.6962
 7822SOL    HW123991   3.044   0.695   1.988  1.9424  0.9867  0.7327
 7822SOL    HW223992   3.104   0.731   2.122 -1.7644  0.3565  2.7178
 7823SOL     OW23993   3.539   3.279   7.355 -0.6306  0.3052  0.2512
 7823SOL    HW123994   3.611   3.231   7.314  0.0742  1.7169 -0.2086
 7823SOL    HW223995   3.501   3.216   7.416  1.2486 -0.3673  0.8176
 7824SOL     OW23996   3.775   6.721   0.192 -0.0795  1.1148  0.4262
 7824SOL    HW123997   3.694   6.765   0.166  0.5275  1.7001 -0.4786
 7824SOL    HW223998   3.843   6.760   0.138  0.5186 -0.7857 -0.2609
 7825SOL     OW23999   3.128   3.290   1.434  0.0159  0.3481  0.2414
 7825SOL    HW124000   3.186   3.236   1.380  0.2682  1.7956 -1.0278
 7825SOL    HW224001   3.040   3.271   1.402 -0.1507 -1.0504  1.4379
 7826SOL     OW24002   4.016   3.154   1.379  0.0499 -0.2133  0.5516
 7826SOL    HW124003   3.953   3.171   1.448 -0.0145 -3.8770  1.5639
 7826SOL    HW224004   4.094   3.122   1.425  0.5448 -1.2901 -0.9689
 7827SOL     OW24005   5.859   0.236   4.130 -0.3072  0.6519  0.1424
 7827SOL    HW124006   5.949   0.219   4.103 -0.3446  3.3918 -2.1836
 7827SOL    HW224007   5.806   0.175   4.079  0.1343 -1.0464  1.6026
 7828SOL     OW24008   7.297   1.460   6.252 -0.3987  0.1659 -0.0076
 7828SOL    HW124009   7.235   1.452   6.324 -1.5387 -0.9886 -1.0706
 7828SOL    HW224010   7.243   1.474   6.175  0.7693  0.7968 -0.7423
 7829SOL     OW24011   0.600   2.389   1.619  0.0309 -0.2147  0.2080
 7829SOL    HW124012   0.506   2.407   1.607  0.2722  0.0077 -1.6138
 7829SOL    HW224013   0.627   2.450   1.688 -1.1716 -0.3172  0.7896
 7830SOL     OW24014   5.960   4.133   3.490  0.0611 -0.2778  0.4044
 7830SOL    HW124015   5.911   4.059   3.453  0.5095 -0.6658  0.5794
 7830SOL    HW224016   5.953   4.202   3.424  1.9168 -1.3648 -1.0370
 7831SOL     OW24017   5.113   6.975   0.594  0.0997 -0.2051 -0.2726
 7831SOL    HW124018   5.094   6.913   0.524 -0.6508 -0.4545  0.1354
 7831SOL    HW224019   5.122   7.059   0.549 -0.0818 -0.4089 -0.7000
 7832SOL     OW24020   0.627   6.053   6.792 -0.2711  0.1122  0.3855
 7832SOL    HW124021   0.600   5.971   6.832  2.8287 -1.4956 -0.4863
 7832SOL    HW224022   0.663   6.105   6.864 -1.6284  0.4654  0.8305
 7833SOL     OW24023   5.426   3.560   2.846 -0.8289 -0.0915 -0.2196
 7833SOL    HW124024   5.392   3.474   2.825 -0.2730 -0.5830  0.8258
 7833SOL    HW224025   5.472   3.549   2.929  2.0922  0.4413 -1.6110
 7834SOL     OW24026   1.121   1.010   4.318  0.0733  0.3438  0.3911
 7834SOL    HW124027   1.164   1.083   4.361 -0.6730  0.6862  0.5808
 7834SOL    HW224028   1.028   1.033   4.320 -0.1469 -0.5016  0.2469
 7835SOL     OW24029   6.498   7.029   5.075  0.1345 -0.1558  0.1657
 7835SOL    HW124030   6.432   7.022   5.145 -1.4050  0.8964 -1.1023
 7835SOL    HW224031   6.453   6.998   4.997  0.8051  1.4967 -0.9273
 7836SOL     OW24032   1.869   3.976   3.212  0.3907  0.3111  0.1287
 7836SOL    HW124033   1.837   3.895   3.251 -0.2456  0.8336  0.7268
 7836SOL    HW224034   1.964   3.972   3.219  0.3115  0.0933  1.1197
 7837SOL     OW24035   5.051   6.951   5.429 -1.0376 -0.1526  0.1326
 7837SOL    HW124036   4.966   6.966   5.470 -0.3496  1.5831  1.0493
 7837SOL    HW224037   5.087   7.039   5.416  1.0175 -0.8462  0.6912
 7838SOL     OW24038   1.340   6.573   5.841  0.2048  0.2831  0.5912
 7838SOL    HW124039   1.412   6.542   5.787 -0.7619  1.0861 -1.2339
 7838SOL    HW224040   1.331   6.507   5.910  2.9249  0.3918  1.1519
 7839SOL     OW24041   7.482   5.330   1.714 -0.4670  0.7008  0.2842
 7839SOL    HW124042   7.521   5.248   1.744 -1.9318 -0.9804 -2.0340
 7839SOL    HW224043   7.428   5.359   1.788 -0.8082 -1.0597  0.7852
 7840SOL     OW24044   6.619   5.402   0.684 -0.7279 -0.2048 -0.2090
 7840SOL    HW124045   6.633   5.393   0.778  0.8444  1.2139 -0.2563
 7840SOL    HW224046   6.697   5.363   0.644 -1.2215 -0.4941 -0.9129
 7841SOL     OW24047   4.668   0.964   6.421  0.1834  0.4809  0.7127
 7841SOL    HW124048   4.610   0.910   6.367  1.0319  0.6954 -0.4527
 7841SOL    HW224049   4.729   0.902   6.461 -1.5061  0.1056  2.9019
 7842SOL     OW24050   4.579   5.884   2.201  0.6411  0.3357 -0.0360
 7842SOL    HW124051   4.623   5.798   2.200  1.0948  0.5592  0.2888
 7842SOL    HW224052   4.642   5.942   2.244  0.3362  0.8337 -0.2588
 7843SOL     OW24053   7.447   5.412   5.317  0.3064 -0.0185 -0.4420
 7843SOL    HW124054   7.383   5.369   5.260  0.5807  0.5741 -1.2132
 7843SOL    HW224055   7.483   5.483   5.264  2.8209 -1.3362 -0.6728
 7844SOL     OW24056   1.810   6.407   2.713  0.3300  0.1036  0.2123
 7844SOL    HW124057   1.813   6.356   2.794 -0.2466 -0.1350  0.0921
 7844SOL    HW224058   1.720   6.440   2.710 -0.1618 -1.2402 -1.1451
 7845SOL     OW24059   7.035   3.235   3.100 -0.2550  0.6203  0.3826
 7845SOL    HW124060   7.026   3.315   3.151 -0.3853  0.2099  1.0210
 7845SOL    HW224061   6.966   3.177   3.132  0.4871 -0.1317  0.6916
 7846SOL     OW24062   1.945   1.802   3.742 -0.2809  0.0261 -0.6110
 7846SOL    HW124063   2.022   1.855   3.763 -0.2274 -0.8153  1.4559
 7846SOL    HW224064   1.870   1.857   3.765 -0.2515 -0.1759 -0.0311
 7847SOL     OW24065   4.611   4.551   4.489  0.3874  0.1689 -0.3033
 7847SOL    HW124066   4.576   4.485   4.429 -0.8480  0.2727  0.2886
 7847SOL    HW224067   4.684   4.590   4.440  0.4573 -0.8775 -1.0820
 7848SOL     OW24068   6.639   7.508   1.347 -0.7061  0.0101 -0.7774
 7848SOL    HW124069   6.544   7.519   1.339 -1.4206 -4.1214  0.1692
 7848SOL    HW224070   6.653   7.479   1.437  1.1660 -1.5519 -1.5132
 7849SOL     OW24071   4.200   5.521   5.755  0.0868  0.1928 -0.5811
 7849SOL    HW124072   4.257   5.473   5.816  0.8231  2.0261  0.2348
 7849SOL    HW224073   4.252   5.528   5.675 -0.8267 -2.0933 -1.4584
 7850SOL     OW24074   0.147   0.004   4.900 -0.0093  0.2508 -0.2584
 7850SOL    HW124075   0.157   0.092   4.936  2.3484  0.1883 -0.5748
 7850SOL    HW224076   0.234  -0.018   4.866  0.2140 -3.1436  1.9827
 7851SOL     OW24077   6.464   5.512   3.310  0.0092  0.0979  0.1183
 7851SOL    HW124078   6.490   5.593   3.267  0.3130 -1.7267 -3.4789
 7851SOL    HW224079   6.391   5.538   3.368 -0.5807  2.7668 -1.6520
 7852SOL     OW24080   2.888   4.325   1.256  0.4081 -0.0831  0.0580
 7852SOL    HW124081   2.815   4.383   1.278  1.4335  1.0687  0.5015
 7852SOL    HW224082   2.873   4.246   1.309 -0.4195  0.2022  0.2608
 7853SOL     OW24083   0.694   2.207   4.429 -0.1314  0.1555 -0.2371
 7853SOL    HW124084   0.636   2.281   4.448 -0.7730 -0.1911 -0.8320
 7853SOL    HW224085   0.673   2.182   4.339 -0.1908 -0.9904  0.0805
 7854SOL     OW24086   3.713   3.350   2.859  0.8380 -0.7545 -0.5116
 7854SOL    HW124087   3.735   3.265   2.897 -0.6448 -1.3659 -0.9449
 7854SOL    HW224088   3.618   3.358   2.871  0.7894  0.3610 -1.4310
 7855SOL     OW24089   3.587   2.956   5.373  0.0086 -0.3777 -0.7493
 7855SOL    HW124090   3.598   3.050   5.358 -1.1088 -0.0295  0.3968
 7855SOL    HW224091   3.518   2.930   5.312  1.8760 -0.9927 -2.7144
 7856SOL     OW24092   4.663   5.402   2.013  0.2388 -0.7599 -0.0846
 7856SOL    HW124093   4.690   5.372   2.099 -1.1518  0.7613  0.9330
 7856SOL    HW224094   4.742   5.443   1.977  0.9778 -1.8787  0.2100
 7857SOL     OW24095   5.505   3.910   3.668 -0.1455  0.3600 -0.4678
 7857SOL    HW124096   5.578   3.848   3.667  0.5065  1.1081 -1.2699
 7857SOL    HW224097   5.433   3.862   3.708  1.1958  0.0799  1.8124
 7858SOL     OW24098   1.748   6.547   2.967  0.3389  0.1493  0.0960
 7858SOL    HW124099   1.711   6.580   3.049  0.3227  0.3694  0.0015
 7858SOL    HW224100   1.768   6.455   2.985 -1.5763 -0.3779 -0.2750
 7859SOL     OW24101   0.519   1.636   2.490  0.7450 -0.1767  0.2498
 7859SOL    HW124102   0.499   1.602   2.577  2.2832 -0.2972  0.5890
 7859SOL    HW224103   0.586   1.703   2.505  1.7317 -0.8554 -0.9031
 7860SOL     OW24104   4.552   4.706   3.929  0.6098 -0.4661 -0.2173
 7860SOL    HW124105   4.587   4.750   3.851  1.3723 -0.6770  0.0025
 7860SOL    HW224106   4.615   4.637   3.949 -1.3738 -2.8162 -1.5325
 7861SOL     OW24107   4.337   2.346   6.928  0.3436  0.4746 -0.1476
 7861SOL    HW124108   4.377   2.271   6.973  1.3016  1.5973  0.9249
 7861SOL    HW224109   4.366   2.422   6.977 -3.1817  1.4052  0.8071
 7862SOL     OW24110   3.420   2.715   0.624  0.2625 -0.2023  0.5993
 7862SOL    HW124111   3.480   2.789   0.610  0.9754 -1.0632 -1.2152
 7862SOL    HW224112   3.476   2.646   0.660  0.1990 -0.7289 -0.2891
 7863SOL     OW24113   2.573   5.109   1.325 -0.0325 -0.2959  0.0735
 7863SOL    HW124114   2.576   5.121   1.420  2.1826 -0.8520  0.1302
 7863SOL    HW224115   2.513   5.035   1.312  0.0785 -0.5825  1.0998
 7864SOL     OW24116   5.535   0.035   2.444  0.3800 -0.3269  0.1013
 7864SOL    HW124117   5.448   0.069   2.422  0.5929  1.3102  1.5348
 7864SOL    HW224118   5.580   0.027   2.360  0.6317  4.0768 -0.4322
 7865SOL     OW24119   4.255   2.183   5.086  0.3010 -0.1997 -0.1166
 7865SOL    HW124120   4.348   2.201   5.069  0.3584 -1.2511 -0.9891
 7865SOL    HW224121   4.208   2.239   5.025  0.4243 -1.1086 -1.0749
 7866SOL     OW24122   3.792   5.708   2.829  0.3316 -0.3412 -0.2419
 7866SOL    HW124123   3.825   5.618   2.821  0.4878 -0.4015  0.9476
 7866SOL    HW224124   3.739   5.720   2.750  0.7071 -1.3056 -0.6663
 7867SOL     OW24125   3.679   5.103   6.501 -0.0172 -0.0768 -0.0017
 7867SOL    HW124126   3.706   5.186   6.540  1.1330 -0.9770  1.1956
 7867SOL    HW224127   3.750   5.080   6.442 -0.1898 -0.3644 -0.0974
 7868SOL     OW24128   6.687   3.996   7.030  0.3540 -0.0915 -0.1795
 7868SOL    HW124129   6.595   4.022   7.042  0.2479  1.5273 -3.4751
 7868SOL    HW224130   6.683   3.917   6.975  0.9227  0.2499 -0.7225
 7869SOL     OW24131   4.842   4.374   5.679  0.5523 -0.3014 -0.0061
 7869SOL    HW124132   4.900   4.313   5.634 -0.3995 -0.9572 -0.3807
 7869SOL    HW224133   4.791   4.320   5.740 -1.1992 -0.1436 -1.2405
 7870SOL     OW24134   1.637   0.414   3.776  0.2315  0.0866 -0.1567
 7870SOL    HW124135   1.582   0.427   3.699  0.5880  1.6235 -0.1803
 7870SOL    HW224136   1.647   0.501   3.813  0.4251 -0.5730  1.3968
 7871SOL     OW24137   7.300   3.230   1.024 -0.5221 -0.7223  0.6435
 7871SOL    HW124138   7.342   3.265   0.945 -1.1424 -0.5966  0.3613
 7871SOL    HW224139   7.300   3.135   1.011 -0.8370 -0.6867  0.3818
 7872SOL     OW24140   0.304   1.288   6.833  0.0457 -0.2336 -0.1228
 7872SOL    HW124141   0.212   1.284   6.855 -0.2678  1.2070 -1.0736
 7872SOL    HW224142   0.323   1.202   6.795 -0.0407 -1.7638  2.9830
 7873SOL     OW24143   5.787   7.481   3.507  0.1087  0.6717 -0.3435
 7873SOL    HW124144   5.767   7.389   3.488 -4.7602  1.2004  0.9043
 7873SOL    HW224145   5.817   7.481   3.598  1.4126  0.2989 -0.7419
 7874SOL     OW24146   0.026   5.192   5.281 -0.0592 -0.8085  0.0809
 7874SOL    HW124147  -0.027   5.259   5.323 -0.9695 -2.6305  2.0299
 7874SOL    HW224148   0.113   5.202   5.320 -0.5533 -1.6186  1.4259
 7875SOL     OW24149   4.112   7.475   7.506  0.5860  0.6128  0.1871
 7875SOL    HW124150   4.157   7.394   7.531  1.4907  1.2297  0.5873
 7875SOL    HW224151   4.118   7.531   7.583 -1.6279  0.4097  0.5596
 7876SOL     OW24152   0.060   0.934   2.748  0.6019 -0.2231  0.4141
 7876SOL    HW124153   0.145   0.890   2.757  1.5109  1.5754  1.0095
 7876SOL    HW224154   0.082   1.024   2.727 -1.2313 -0.2605 -2.1349
 7877SOL     OW24155   5.044   1.819   3.452  0.2306  0.6150  0.1020
 7877SOL    HW124156   5.069   1.727   3.454  1.0078  0.8273  2.0122
 7877SOL    HW224157   5.125   1.866   3.432  0.4660  1.0366  1.9296
 7878SOL     OW24158   4.753   4.769   2.133  0.0325 -0.2174 -0.4334
 7878SOL    HW124159   4.677   4.733   2.088  0.2528 -1.2305 -0.0468
 7878SOL    HW224160   4.816   4.788   2.064 -0.2083 -0.3010 -0.6754
 7879SOL     OW24161   5.089   1.309   7.204  0.2127 -0.5663 -0.1629
 7879SOL    HW124162   5.137   1.337   7.282  1.7798 -2.9407 -0.1674
 7879SOL    HW224163   5.141   1.339   7.130 -1.0402  1.2898 -0.3490
 7880SOL     OW24164   6.649   4.735   0.442  0.1076  0.4668 -1.0004
 7880SOL    HW124165   6.681   4.697   0.523 -0.2056  0.6131 -0.8065
 7880SOL    HW224166   6.621   4.660   0.390 -2.3109  0.4831  0.1389
 7881SOL     OW24167   2.021   1.073   2.064  0.3800  0.0841  0.1196
 7881SOL    HW124168   2.078   1.147   2.086  1.0684 -0.3107 -0.3010
 7881SOL    HW224169   1.933   1.109   2.066  0.8227  1.5021 -2.3220
 7882SOL     OW24170   3.097   7.110   6.163 -0.8019  0.1401 -0.6779
 7882SOL    HW124171   3.062   7.183   6.214 -1.6947  0.5522 -1.8459
 7882SOL    HW224172   3.099   7.142   6.073  0.0252 -0.8380 -1.0314
 7883SOL     OW24173   3.332   1.013   4.353  0.4109 -0.4817  0.0090
 7883SOL    HW124174   3.268   1.084   4.345 -0.1825 -1.0655 -0.5262
 7883SOL    HW224175   3.404   1.039   4.295 -0.4109 -0.9497 -1.2645
 7884SOL     OW24176   6.261   4.000   4.195  0.2102 -0.1715 -0.0369
 7884SOL    HW124177   6.188   4.061   4.198  2.1107  2.3884 -1.6978
 7884SOL    HW224178   6.330   4.043   4.246  2.1265 -0.0804 -2.5143
 7885SOL     OW24179   7.018   4.596   2.668  0.1187  0.9269 -0.2161
 7885SOL    HW124180   6.942   4.587   2.610  0.4203 -0.4640 -0.4290
 7885SOL    HW224181   7.066   4.670   2.632  0.5854 -0.2166 -2.1270
 7886SOL     OW24182   6.917   1.652   6.627  0.3855 -0.7767  0.5427
 7886SOL    HW124183   6.930   1.628   6.719  0.8041  0.5178  0.8391
 7886SOL    HW224184   6.977   1.595   6.578  0.3305 -1.3055  1.0843
 7887SOL     OW24185   2.246   5.058   0.918  0.3059  0.2616  0.5631
 7887SOL    HW124186   2.168   5.110   0.938  1.5278  2.6912 -0.4185
 7887SOL    HW224187   2.304   5.073   0.993  0.3711 -0.3360  0.6301
 7888SOL     OW24188   4.360   2.650   2.272  0.3707 -0.5400 -0.2111
 7888SOL    HW124189   4.423   2.629   2.202  0.3109 -1.7931  0.0848
 7888SOL    HW224190   4.327   2.565   2.301 -0.8513  0.0522  0.2148
 7889SOL     OW24191   1.330   0.073   3.032 -0.2352 -0.1111  0.4950
 7889SOL    HW124192   1.398   0.077   3.099 -0.6499 -0.9726  0.9833
 7889SOL    HW224193   1.260   0.020   3.071 -1.0948  0.5514 -0.0826
 7890SOL     OW24194   7.345   5.866   3.641 -0.0299 -0.4495  0.3960
 7890SOL    HW124195   7.338   5.830   3.729  0.5792  0.1420  0.6960
 7890SOL    HW224196   7.439   5.870   3.624 -0.0504  1.2789  0.5065
 7891SOL     OW24197   0.867   1.589   5.027 -0.1225  0.9955 -0.3331
 7891SOL    HW124198   0.880   1.681   5.048  2.6745  0.1928  2.2509
 7891SOL    HW224199   0.777   1.571   5.056 -0.2758  2.6262  0.3341
 7892SOL     OW24200   6.837   4.418   3.322  0.3673  0.0481 -0.2417
 7892SOL    HW124201   6.902   4.352   3.342 -1.1614 -1.6991 -0.7542
 7892SOL    HW224202   6.798   4.440   3.407 -1.8553 -2.7698 -0.3851
 7893SOL     OW24203   5.201   7.089   1.187  0.1070 -0.0893 -0.1078
 7893SOL    HW124204   5.188   6.996   1.204  0.1443 -0.3447 -1.4111
 7893SOL    HW224205   5.243   7.092   1.101 -1.5305  1.1941 -0.9065
 7894SOL     OW24206   4.169   6.336   6.581 -0.1462  0.1587  0.3821
 7894SOL    HW124207   4.174   6.262   6.521 -0.4960  0.8205 -0.4735
 7894SOL    HW224208   4.076   6.354   6.590 -0.1159 -0.1018  1.3493
 7895SOL     OW24209   4.149   7.266   3.709 -0.0935  0.0015  0.1107
 7895SOL    HW124210   4.069   7.271   3.762  1.2811  2.0671  2.1559
 7895SOL    HW224211   4.132   7.323   3.634 -0.2187  1.2847  1.0759
 7896SOL     OW24212   5.992   6.384   2.596 -0.3117 -0.0400 -0.7315
 7896SOL    HW124213   6.046   6.453   2.557  0.0187  1.7227  2.5524
 7896SOL    HW224214   6.054   6.329   2.644 -0.8857 -1.2545 -1.3134
 7897SOL     OW24215   4.700   6.842   0.568 -0.3688  0.0708 -0.2010
 7897SOL    HW124216   4.756   6.832   0.491 -0.0872  1.4357 -0.2057
 7897SOL    HW224217   4.734   6.921   0.611 -0.8390 -0.3958  1.0531
 7898SOL     OW24218   7.370   5.937   0.144  0.0494 -0.3781  0.2019
 7898SOL    HW124219   7.397   6.024   0.115  2.4009 -1.0290  0.2342
 7898SOL    HW224220   7.406   5.877   0.078 -1.7914 -1.3668 -0.0002
 7899SOL     OW24221   4.685   6.588   6.166 -0.2172 -0.2049  0.3275
 7899SOL    HW124222   4.606   6.616   6.119 -0.3394  0.1363  0.7222
 7899SOL    HW224223   4.717   6.668   6.208 -0.0764 -0.4859  0.7678
 7900SOL     OW24224   3.460   6.505   2.127 -0.1997 -0.4451  0.0833
 7900SOL    HW124225   3.533   6.563   2.109 -0.5749 -0.4859 -1.7295
 7900SOL    HW224226   3.500   6.426   2.163  0.4153  0.4384  1.4122
 7901SOL     OW24227   3.390   5.579   0.707  0.3010 -0.0832  0.3524
 7901SOL    HW124228   3.455   5.537   0.651 -0.4407  0.3653 -0.8752
 7901SOL    HW224229   3.428   5.665   0.726  0.7788 -0.4183  0.9924
 7902SOL     OW24230   1.986   4.976   5.146 -0.1202  0.2047 -0.2508
 7902SOL    HW124231   1.906   5.017   5.114  0.1838  0.7262 -0.3542
 7902SOL    HW224232   1.956   4.905   5.201 -0.6743  1.3510  0.9763
 7903SOL     OW24233   6.146   5.803   5.901  0.3448  0.3101  0.6863
 7903SOL    HW124234   6.166   5.831   5.990  1.9771  0.5281  0.2860
 7903SOL    HW224235   6.195   5.864   5.845 -2.3567  1.5791 -0.4760
 7904SOL     OW24236   2.839   2.554   1.663  0.5663 -0.2029  0.8228
 7904SOL    HW124237   2.934   2.540   1.663  0.5514 -0.3224  0.4757
 7904SOL    HW224238   2.813   2.535   1.573  0.0574 -1.1961  1.1748
 7905SOL     OW24239   2.308   3.031   2.432  0.3503  0.1268  0.1242
 7905SOL    HW124240   2.381   3.093   2.437  1.6198 -1.3812  0.9078
 7905SOL    HW224241   2.255   3.050   2.510  0.6210  0.3503  0.2548
 7906SOL     OW24242   5.960   0.856   7.025 -0.3747 -0.4317 -0.5615
 7906SOL    HW124243   5.975   0.937   6.976 -1.3753  0.6927  0.9352
 7906SOL    HW224244   5.980   0.786   6.962  1.8172  0.9291 -1.4998
 7907SOL     OW24245   2.565   0.250   5.058 -0.4553  0.2615  0.0011
 7907SOL    HW124246   2.510   0.227   5.132 -1.9210 -1.5402 -1.5341
 7907SOL    HW224247   2.650   0.272   5.097 -2.0163  2.5716  2.3992
 7908SOL     OW24248   3.282   0.544   3.755  0.1766 -0.0059  0.2695
 7908SOL    HW124249   3.327   0.628   3.748  2.6658 -1.3048 -0.4124
 7908SOL    HW224250   3.206   0.562   3.811  1.3210  2.3984  1.1796
 7909SOL     OW24251   1.010   3.481   4.563  1.0035 -0.0152  1.1691
 7909SOL    HW124252   1.065   3.410   4.529 -0.8888 -0.5169 -1.1860
 7909SOL    HW224253   1.038   3.558   4.513 -0.0650 -0.1909  0.2486
 7910SOL     OW24254   0.118   1.966   4.379  0.4044 -0.2904 -0.3705
 7910SOL    HW124255   0.053   1.902   4.410  0.9470 -0.8757 -0.4087
 7910SOL    HW224256   0.066   2.039   4.347 -0.4395 -1.9910 -3.3230
 7911SOL     OW24257   7.177   4.811   6.168 -0.3556 -0.1043  0.0336
 7911SOL    HW124258   7.245   4.767   6.118  0.0620 -0.0398  0.5336
 7911SOL    HW224259   7.168   4.758   6.248 -0.6462  0.0821  0.1262
 7912SOL     OW24260   6.580   3.183   2.429 -0.8907  0.1491  0.4727
 7912SOL    HW124261   6.563   3.236   2.506 -1.4211  1.0204 -0.2361
 7912SOL    HW224262   6.541   3.098   2.449  1.2248 -0.5072  2.2134
 7913SOL     OW24263   1.162   0.775   1.072 -0.3238 -0.2359 -1.0968
 7913SOL    HW124264   1.181   0.698   1.019  0.5034 -1.0114  0.2602
 7913SOL    HW224265   1.248   0.816   1.086  0.1583 -2.1244  2.6570
 7914SOL     OW24266   1.766   3.883   1.895  0.2641 -0.0328 -0.3599
 7914SOL    HW124267   1.813   3.892   1.978  0.8851  0.2089 -0.7297
 7914SOL    HW224268   1.835   3.882   1.829 -0.2522  0.3470 -0.9153
 7915SOL     OW24269   5.467   6.149   1.461  0.5543 -0.3280 -0.2605
 7915SOL    HW124270   5.382   6.137   1.420 -0.3147  1.2364  0.9847
 7915SOL    HW224271   5.511   6.215   1.407  0.3292  0.0502  0.0186
 7916SOL     OW24272   0.988   2.553   5.237  0.0702 -0.3653  0.0374
 7916SOL    HW124273   0.932   2.516   5.305 -0.7397  0.8419  0.0615
 7916SOL    HW224274   1.047   2.613   5.284 -0.2274  0.1741 -0.2689
 7917SOL     OW24275   2.432   4.671   4.951  0.2120 -0.1062  0.4864
 7917SOL    HW124276   2.436   4.758   4.913  0.2171 -0.0464  0.6243
 7917SOL    HW224277   2.490   4.675   5.027 -0.0702 -0.1225  0.7078
 7918SOL     OW24278   3.248   3.048   2.838 -0.8752  0.0038  0.4643
 7918SOL    HW124279   3.316   2.981   2.831  0.3836  1.0688  1.8908
 7918SOL    HW224280   3.261   3.104   2.762 -1.9599 -1.3472 -0.7582
 7919SOL     OW24281   4.858   6.367   6.248 -0.8531  0.5074  0.0402
 7919SOL    HW124282   4.825   6.325   6.327 -2.3362 -0.0705 -0.8307
 7919SOL    HW224283   4.920   6.433   6.279 -0.9291 -0.1265  1.6272
 7920SOL     OW24284   3.782   4.441   3.343  0.3498 -0.0180 -0.2251
 7920SOL    HW124285   3.725   4.514   3.366 -0.5225 -0.2181 -1.6955
 7920SOL    HW224286   3.751   4.410   3.258  3.0478  0.2862 -1.4334
 7921SOL     OW24287   5.596   1.111   2.344 -0.0450  0.4805 -0.0687
 7921SOL    HW124288   5.565   1.076   2.261  0.3443  1.7705 -0.8020
 7921SOL    HW224289   5.646   1.189   2.319  3.9549 -1.4683  0.9597
 7922SOL     OW24290   6.756   7.079   1.882 -0.1507  0.0367 -0.3489
 7922SOL    HW124291   6.770   7.111   1.793  0.9690 -0.5614 -0.4073
 7922SOL    HW224292   6.844   7.074   1.920 -0.7657  2.6633  1.6728
 7923SOL     OW24293   0.245   2.135   1.587 -0.5635  0.1334  0.1257
 7923SOL    HW124294   0.287   2.191   1.652 -0.2660  0.1229 -0.0548
 7923SOL    HW224295   0.159   2.175   1.572 -1.9810 -1.5601  2.8334
 7924SOL     OW24296   4.863   4.060   2.689 -0.3600 -0.6508 -0.0875
 7924SOL    HW124297   4.918   4.026   2.760  0.4314 -0.2955 -0.5208
 7924SOL    HW224298   4.855   3.986   2.628  2.4707  0.2198 -1.6979
 7925SOL     OW24299   3.879   5.621   0.843  0.1638 -0.4562 -0.5682
 7925SOL    HW124300   3.935   5.572   0.904  1.1300  0.8460 -0.3609
 7925SOL    HW224301   3.834   5.554   0.793  2.0840 -1.5782 -0.8875
 7926SOL     OW24302   7.478   4.648   2.448 -0.5421 -0.3116 -0.0772
 7926SOL    HW124303   7.471   4.737   2.412 -1.3141 -0.7561 -1.0665
 7926SOL    HW224304   7.397   4.606   2.422 -0.3804 -1.1792  0.7839
 7927SOL     OW24305   6.838   7.300   2.752  0.0129 -0.2993 -0.8449
 7927SOL    HW124306   6.857   7.250   2.831  1.5648 -2.9869 -2.7682
 7927SOL    HW224307   6.910   7.363   2.745 -1.0732  1.2290  0.7025
 7928SOL     OW24308   3.672   3.318   5.678  0.6814 -0.0246 -0.0163
 7928SOL    HW124309   3.720   3.236   5.670  0.4891 -0.0886 -0.5078
 7928SOL    HW224310   3.726   3.382   5.631  0.2662 -0.1044 -0.5986
 7929SOL     OW24311   3.635   0.660   6.905 -0.5924 -0.0480 -0.0230
 7929SOL    HW124312   3.541   0.652   6.917 -0.4967 -2.3497 -0.3853
 7929SOL    HW224313   3.668   0.571   6.912  1.5239  0.6535 -0.3038
 7930SOL     OW24314   5.058   4.800   3.902 -0.0649 -0.4131 -0.1087
 7930SOL    HW124315   5.108   4.863   3.849 -0.9874  0.0870 -0.4155
 7930SOL    HW224316   5.092   4.811   3.991  0.1460  0.1452 -0.2531
 7931SOL     OW24317   1.231   2.746   3.986  0.3409 -0.1904 -0.3113
 7931SOL    HW124318   1.193   2.685   3.923  0.1456 -1.0370  0.5951
 7931SOL    HW224319   1.325   2.733   3.978  0.3440  0.1716 -0.8773
 7932SOL     OW24320   2.827   1.266   3.039 -0.2828  0.1760 -0.2209
 7932SOL    HW124321   2.822   1.196   2.974 -0.3595 -1.0768  1.0789
 7932SOL    HW224322   2.889   1.233   3.105 -0.9982  0.9403  0.8731
 7933SOL     OW24323   5.091   3.499   3.203 -0.6809 -0.4315 -0.3981
 7933SOL    HW124324   5.136   3.428   3.249 -1.3664 -2.2505 -2.3722
 7933SOL    HW224325   5.157   3.569   3.196 -0.1132 -0.6511  1.9348
 7934SOL     OW24326   2.911   3.594   5.169 -0.0957  0.2209  0.5137
 7934SOL    HW124327   2.970   3.606   5.244  0.6891 -0.1896 -0.0325
 7934SOL    HW224328   2.963   3.618   5.093 -0.5160 -0.5012 -0.0096
 7935SOL     OW24329   3.591   0.330   3.862  0.1453 -0.0948 -0.6122
 7935SOL    HW124330   3.542   0.265   3.812 -0.1819  1.4767 -2.4685
 7935SOL    HW224331   3.545   0.413   3.847  0.4409  0.6023  1.8010
 7936SOL     OW24332   3.006   0.172   4.649  0.3147  0.0345  0.5281
 7936SOL    HW124333   3.014   0.191   4.742 -0.5328 -2.7740  1.2665
 7936SOL    HW224334   2.913   0.152   4.637  0.8871 -2.4683 -0.2531
 7937SOL     OW24335   4.216   1.258   5.716 -0.1741  0.0032  0.9251
 7937SOL    HW124336   4.184   1.239   5.804 -0.3600  1.0448  1.1059
 7937SOL    HW224337   4.247   1.349   5.721  0.7437 -0.2490  0.1736
 7938SOL     OW24338   3.846   2.118   7.373 -0.3870  0.4342 -0.0389
 7938SOL    HW124339   3.860   2.136   7.280  0.1732  0.8810  0.1295
 7938SOL    HW224340   3.889   2.034   7.388 -0.3609  0.4282 -0.1483
 7939SOL     OW24341   4.512   0.243   5.935  0.0371  0.8410 -0.2206
 7939SOL    HW124342   4.583   0.181   5.922 -0.3936  0.0849  0.9206
 7939SOL    HW224343   4.453   0.227   5.861 -0.2023 -0.3165  0.1955
 7940SOL     OW24344   6.335   2.487   3.823  0.4001 -0.1157  0.6217
 7940SOL    HW124345   6.285   2.566   3.804 -2.4348 -1.2042  2.8567
 7940SOL    HW224346   6.404   2.517   3.883  1.0072  0.9888 -0.5500
 7941SOL     OW24347   1.515   1.668   5.496 -0.2817  0.1015 -0.1024
 7941SOL    HW124348   1.488   1.751   5.535 -0.1508 -1.1301  2.8970
 7941SOL    HW224349   1.462   1.602   5.541 -1.6271 -1.4287 -3.5610
 7942SOL     OW24350   7.347   4.123   2.905  0.0787  0.7176 -0.3445
 7942SOL    HW124351   7.354   4.217   2.918  1.0857  0.7897 -1.3208
 7942SOL    HW224352   7.265   4.111   2.856 -1.2051  0.8561  1.6452
 7943SOL     OW24353   4.876   5.692   4.890 -0.3900  0.3146 -0.0477
 7943SOL    HW124354   4.893   5.712   4.798 -0.5679 -3.1035 -0.9272
 7943SOL    HW224355   4.791   5.732   4.907  0.8386  3.4431 -0.4012
 7944SOL     OW24356   2.980   4.716   4.930  0.1306  0.1524 -0.2281
 7944SOL    HW124357   2.956   4.799   4.973  1.8878 -0.0236  1.2274
 7944SOL    HW224358   2.992   4.655   5.002 -0.2046 -1.1483 -1.2360
 7945SOL     OW24359   0.161   2.191   6.684  0.4242 -0.1538  0.1781
 7945SOL    HW124360   0.096   2.132   6.723 -0.4763  0.3002 -0.6014
 7945SOL    HW224361   0.215   2.134   6.629 -0.6728 -0.2453 -0.8662
 7946SOL     OW24362   2.558   6.855   0.844  0.6387 -0.4359  0.0669
 7946SOL    HW124363   2.636   6.845   0.897 -0.8859 -2.1258  2.1641
 7946SOL    HW224364   2.558   6.779   0.786  1.2362  0.3215 -0.9628
 7947SOL     OW24365   0.932   5.070   4.413 -0.2714 -0.0636 -0.4091
 7947SOL    HW124366   0.978   5.152   4.391  1.4318 -0.9035 -0.1996
 7947SOL    HW224367   0.849   5.098   4.451  0.7026  1.6340  0.6213
 7948SOL     OW24368   7.407   3.346   3.322  0.1846  0.0705  0.0437
 7948SOL    HW124369   7.434   3.428   3.281 -0.1799 -0.0308 -0.4111
 7948SOL    HW224370   7.478   3.285   3.304 -0.9773 -0.6715 -2.5765
 7949SOL     OW24371   1.381   3.433   1.245  0.1298  0.0567 -0.3461
 7949SOL    HW124372   1.325   3.507   1.223 -1.1152 -0.2517  1.5902
 7949SOL    HW224373   1.451   3.471   1.297  0.7041  0.1492 -1.1550
 7950SOL     OW24374   4.142   5.757   1.254 -0.4542 -0.4335  0.1660
 7950SOL    HW124375   4.129   5.663   1.267 -3.4730 -0.0302  0.6853
 7950SOL    HW224376   4.178   5.788   1.338 -2.6914 -0.6649  1.2760
 7951SOL     OW24377   5.063   5.929   5.295 -0.1379  0.1122 -0.6366
 7951SOL    HW124378   5.151   5.965   5.310 -0.7785  2.1265 -1.4207
 7951SOL    HW224379   5.004   5.992   5.337 -1.2813 -0.3595 -1.4821
 7952SOL     OW24380   4.439   0.869   3.388  0.1080  0.4336 -0.4539
 7952SOL    HW124381   4.480   0.932   3.328 -0.5023  0.7581 -0.5358
 7952SOL    HW224382   4.368   0.831   3.338  0.3111 -0.1406 -0.3138
 7953SOL     OW24383   5.413   0.627   5.065 -0.1689 -0.1632  0.7378
 7953SOL    HW124384   5.400   0.701   5.125  0.6123  0.6691 -0.0850
 7953SOL    HW224385   5.508   0.615   5.062 -0.2503 -0.7215  0.2980
 7954SOL     OW24386   2.310   0.918   0.741  0.3110 -0.2933 -0.3718
 7954SOL    HW124387   2.287   0.923   0.648  0.6077 -1.8142 -0.5545
 7954SOL    HW224388   2.395   0.874   0.742  0.1698 -0.5741  0.6398
 7955SOL     OW24389   2.613   1.035   6.158  0.0128  0.9726  0.0180
 7955SOL    HW124390   2.599   1.120   6.116 -0.3172  1.0009  0.1799
 7955SOL    HW224391   2.689   1.049   6.215  0.8976  0.7386 -1.0794
 7956SOL     OW24392   3.823   1.302   2.341  0.0975  0.3505 -0.0042
 7956SOL    HW124393   3.763   1.255   2.399 -1.2553  1.7634 -0.2024
 7956SOL    HW224394   3.892   1.334   2.399 -0.4408  0.4807  0.5781
 7957SOL     OW24395   3.991   7.102   6.641  0.6166  0.1463  0.2723
 7957SOL    HW124396   3.912   7.072   6.686  0.1436  0.1539 -0.5420
 7957SOL    HW224397   4.005   7.192   6.673  0.3826  0.0950  0.5197
 7958SOL     OW24398   5.062   5.445   4.978  0.0988 -0.0932  0.1844
 7958SOL    HW124399   5.085   5.411   5.064  1.0851  0.8801  0.3422
 7958SOL    HW224400   5.015   5.526   4.996 -0.6315 -0.4300 -0.1895
 7959SOL     OW24401   0.013   1.110   3.906 -0.3094  0.0232 -0.4412
 7959SOL    HW124402   0.078   1.078   3.968 -1.1303 -1.8301 -0.4716
 7959SOL    HW224403   0.064   1.146   3.834  0.6651  2.0403  1.1492
 7960SOL     OW24404   5.898   1.512   3.167  0.4739  0.3300 -0.5545
 7960SOL    HW124405   5.850   1.477   3.092  2.4000 -0.1544 -1.6181
 7960SOL    HW224406   5.830   1.532   3.231 -0.9327 -3.6584 -0.5416
 7961SOL     OW24407   1.799   5.370   6.958 -0.6841  0.0499 -0.1026
 7961SOL    HW124408   1.790   5.465   6.965  0.2695  0.1241  0.3269
 7961SOL    HW224409   1.890   5.353   6.983 -0.4694 -0.8535 -1.4128
 7962SOL     OW24410   7.441   6.721   4.360  0.1398 -0.0894 -0.4525
 7962SOL    HW124411   7.490   6.641   4.340  0.0349 -0.4260  0.5573
 7962SOL    HW224412   7.392   6.740   4.280  2.2223  0.5200 -1.6435
 7963SOL     OW24413   6.455   2.427   1.065  0.2861 -0.3969  0.0815
 7963SOL    HW124414   6.383   2.489   1.074  3.0062  2.9643  0.9074
 7963SOL    HW224415   6.444   2.365   1.137 -1.9050 -0.2541 -0.0738
 7964SOL     OW24416   0.859   0.010   2.258  0.4859 -0.2682 -0.3638
 7964SOL    HW124417   0.924   0.063   2.305 -1.0298 -0.1033  1.7038
 7964SOL    HW224418   0.820  -0.045   2.326  0.0754 -2.0753 -1.9716
 7965SOL     OW24419   6.611   1.686   1.232  0.0500 -0.2811  0.2205
 7965SOL    HW124420   6.588   1.674   1.140 -0.0692  0.6738  0.1174
 7965SOL    HW224421   6.698   1.645   1.240  0.9655  1.3473 -0.7923
 7966SOL     OW24422   0.032   0.775   6.811 -0.3347  0.5179  0.0828
 7966SOL    HW124423   0.117   0.765   6.854  0.3191  2.9268 -0.5336
 7966SOL    HW224424   0.025   0.699   6.754  0.6256 -0.5824  1.3601
 7967SOL     OW24425   5.134   0.121   4.059  0.2386  0.3358 -0.1542
 7967SOL    HW124426   5.168   0.203   4.095  1.6097 -0.5661  0.7352
 7967SOL    HW224427   5.174   0.053   4.114 -0.2365 -0.9593 -1.3470
 7968SOL     OW24428   0.830   5.792   0.920 -0.7242 -0.2097 -0.0898
 7968SOL    HW124429   0.752   5.739   0.912 -3.0292  2.6267  1.5645
 7968SOL    HW224430   0.800   5.874   0.959  2.9600  1.3751 -0.1123
 7969SOL     OW24431   0.809   7.421   6.757  0.1427  0.6121 -0.1789
 7969SOL    HW124432   0.852   7.478   6.694 -1.1826  1.4176 -0.3964
 7969SOL    HW224433   0.728   7.395   6.715  0.8458 -1.7568 -0.2160
 7970SOL     OW24434   0.838   1.054   1.701 -0.4799 -0.2634 -0.0957
 7970SOL    HW124435   0.779   1.124   1.673 -1.2713 -0.8653  0.0398
 7970SOL    HW224436   0.925   1.095   1.702 -0.7818  0.4268 -1.0314
 7971SOL     OW24437   2.689   0.231   2.105 -0.1283 -0.1183  0.0889
 7971SOL    HW124438   2.617   0.200   2.051  0.1066 -0.8662  0.1797
 7971SOL    HW224439   2.747   0.276   2.044  0.0308 -0.7729 -0.2605
 7972SOL     OW24440   6.626   5.981   4.990 -0.3032 -0.0060 -0.2955
 7972SOL    HW124441   6.580   5.937   4.918 -2.0429  0.0550  0.7057
 7972SOL    HW224442   6.575   5.957   5.068  1.9061 -0.6284  1.0440
 7973SOL     OW24443   7.525   5.076   1.787  0.0918 -0.0405 -0.1392
 7973SOL    HW124444   7.535   5.010   1.718 -0.8559 -0.1936 -0.1446
 7973SOL    HW224445   7.489   5.028   1.861  0.9150  0.1667  0.4113
 7974SOL     OW24446   4.768   7.359   6.948 -0.7533 -0.0413  0.2557
 7974SOL    HW124447   4.703   7.372   6.879 -0.4143 -1.8132 -0.4595
 7974SOL    HW224448   4.852   7.354   6.901 -0.3303  0.3092  0.9567
 7975SOL     OW24449   3.725   5.183   3.338 -0.2706 -0.0900 -0.3690
 7975SOL    HW124450   3.756   5.104   3.293 -1.9598 -0.2147 -1.3952
 7975SOL    HW224451   3.703   5.244   3.268 -0.6857  0.6191  0.3566
 7976SOL     OW24452   1.963   1.294   1.721  0.4954 -0.4300 -0.1760
 7976SOL    HW124453   1.953   1.199   1.709  0.4135 -0.8398  2.4993
 7976SOL    HW224454   1.946   1.308   1.814  0.9288  2.1859 -0.4206
 7977SOL     OW24455   3.358   0.828   4.980  0.0331  0.0129 -0.1275
 7977SOL    HW124456   3.445   0.854   5.010 -0.5278  0.9940  0.7255
 7977SOL    HW224457   3.347   0.872   4.895  0.4681 -0.3540 -0.3797
 7978SOL     OW24458   5.503   3.216   4.172  0.0756  0.3493  0.0163
 7978SOL    HW124459   5.531   3.152   4.237 -0.2726 -0.2342 -0.3994
 7978SOL    HW224460   5.560   3.292   4.187 -0.1255  0.3088  1.1266
 7979SOL     OW24461   4.177   0.618   7.067 -0.1438 -0.0243  0.7242
 7979SOL    HW124462   4.158   0.692   7.010 -0.9788  0.0542  1.0875
 7979SOL    HW224463   4.181   0.656   7.155 -0.7846 -0.4294  0.9357
 7980SOL     OW24464   0.451   1.343   4.223  0.2496 -0.0274 -0.0292
 7980SOL    HW124465   0.446   1.417   4.283  1.5076  0.4395 -0.4697
 7980SOL    HW224466   0.390   1.366   4.152  0.0802  0.2295  0.1959
 7981SOL     OW24467   7.159   4.536   3.581  0.3772 -0.2218 -0.3768
 7981SOL    HW124468   7.124   4.554   3.494 -0.4849 -0.1893 -0.0321
 7981SOL    HW224469   7.248   4.505   3.565  0.5443  0.6261 -1.2197
 7982SOL     OW24470   4.922   2.991   0.199 -0.0694  0.0521 -0.3893
 7982SOL    HW124471   4.968   3.043   0.265  0.5988 -1.8399  0.7377
 7982SOL    HW224472   4.992   2.945   0.152 -0.6634 -1.5091  0.1638
 7983SOL     OW24473   7.237   3.325   4.710  0.0266 -0.5828 -0.1327
 7983SOL    HW124474   7.231   3.403   4.654  0.4631 -0.8889 -0.6160
 7983SOL    HW224475   7.204   3.354   4.795 -1.4064 -0.3109 -0.7522
 7984SOL     OW24476   0.014   4.030   6.768  0.2305  0.3751 -0.3772
 7984SOL    HW124477   0.074   4.056   6.698  0.6193 -1.5352 -0.7979
 7984SOL    HW224478   0.064   3.969   6.821 -1.4788 -1.8076 -1.1124
 7985SOL     OW24479   1.545   6.510   2.789 -1.1343  0.1723  0.3739
 7985SOL    HW124480   1.464   6.543   2.827 -0.7544  2.0426 -0.3520
 7985SOL    HW224481   1.615   6.554   2.837 -0.4642 -1.9326  1.4590
 7986SOL     OW24482   5.633   1.105   2.928 -0.0343  0.4027 -0.0907
 7986SOL    HW124483   5.588   1.061   3.000  0.3278  0.9166  0.4596
 7986SOL    HW224484   5.719   1.064   2.924  0.4905  1.3818  0.7565
 7987SOL     OW24485   2.613   2.786   0.307 -0.0231  0.2642 -0.5975
 7987SOL    HW124486   2.637   2.865   0.257 -0.2692  1.1666  0.6731
 7987SOL    HW224487   2.697   2.746   0.329  0.2154  1.4623  0.7542
 7988SOL     OW24488   4.213   4.089   7.026 -0.6854 -0.2005  0.4763
 7988SOL    HW124489   4.210   4.140   6.945 -0.0434  0.7972  1.0605
 7988SOL    HW224490   4.217   4.154   7.095  0.3331 -1.0397  1.2370
 7989SOL     OW24491   5.300   2.162   5.391  0.0576  0.0389  0.3527
 7989SOL    HW124492   5.396   2.156   5.393  0.0313 -0.3690  0.4203
 7989SOL    HW224493   5.270   2.086   5.441 -0.3323 -1.2591 -1.7113
 7990SOL     OW24494   0.974   2.593   7.070  0.1040 -0.3236 -0.6842
 7990SOL    HW124495   0.903   2.578   7.132 -0.3695  0.9552 -0.8896
 7990SOL    HW224496   0.932   2.585   6.984  0.2845  0.1143 -0.8106
 7991SOL     OW24497   1.416   5.548   0.566  0.1639 -0.2186 -0.4942
 7991SOL    HW124498   1.501   5.516   0.538  0.0258 -0.9082 -0.1567
 7991SOL    HW224499   1.353   5.485   0.530  0.0399 -1.7102  2.0453
 7992SOL     OW24500   0.895   2.408   5.457 -0.4627 -0.4757 -0.3409
 7992SOL    HW124501   0.821   2.377   5.509 -0.7828 -0.4462 -0.7632
 7992SOL    HW224502   0.961   2.340   5.465 -1.2077 -1.3482 -1.3683
 7993SOL     OW24503   5.637   0.619   7.389 -0.7070 -0.1543  0.2241
 7993SOL    HW124504   5.670   0.680   7.323 -0.3315 -0.0369  0.5150
 7993SOL    HW224505   5.616   0.539   7.339 -2.0708  0.5101 -0.2979
 7994SOL     OW24506   5.815   5.509   0.552 -0.3244  0.4001 -0.0109
 7994SOL    HW124507   5.752   5.573   0.585 -0.2277  0.6543 -0.3053
 7994SOL    HW224508   5.864   5.557   0.485  2.9189  1.5112  2.8443
 7995SOL     OW24509   0.936   7.463   2.907  0.2011 -0.5746  0.3405
 7995SOL    HW124510   1.030   7.447   2.901  0.3000 -0.3598  1.1690
 7995SOL    HW224511   0.928   7.538   2.966 -0.4715 -0.2918 -0.0875
 7996SOL     OW24512   2.362   6.458   0.709 -0.4281 -0.9456  0.0048
 7996SOL    HW124513   2.286   6.514   0.722  0.2766  0.6741 -2.1730
 7996SOL    HW224514   2.409   6.459   0.793 -1.1021  0.7275  0.3890
 7997SOL     OW24515   5.848   2.693   6.646 -0.2556 -0.0438  0.4672
 7997SOL    HW124516   5.892   2.776   6.662  2.6950 -1.5283  0.7381
 7997SOL    HW224517   5.785   2.712   6.577  0.1134  2.4443  0.7281
 7998SOL     OW24518   7.030   5.484   0.366 -0.6553  0.3064 -0.8071
 7998SOL    HW124519   7.027   5.575   0.396  3.1413  0.0975  0.8325
 7998SOL    HW224520   7.102   5.482   0.303 -0.0977 -1.6468 -0.1878
 7999SOL     OW24521   0.848   2.157   1.483 -0.7788  0.2414  0.1709
 7999SOL    HW124522   0.942   2.170   1.496 -1.1577  1.3634  2.3640
 7999SOL    HW224523   0.841   2.114   1.398  1.6657  0.7595 -0.3781
 8000SOL     OW24524   7.304   7.383   5.053  0.2722 -0.0137  0.0676
 8000SOL    HW124525   7.300   7.476   5.075  1.7434  0.2408 -0.6230
 8000SOL    HW224526   7.327   7.381   4.960  0.9560 -1.0677  0.2364
 8001SOL     OW24527   3.412   1.692   7.289  0.1150 -0.0712 -0.4793
 8001SOL    HW124528   3.418   1.754   7.216  0.9757 -0.1650 -0.4984
 8001SOL    HW224529   3.319   1.675   7.299 -0.1070  0.9654 -0.6995
 8002SOL     OW24530   1.458   1.264   0.617  0.3489  0.4026 -0.2421
 8002SOL    HW124531   1.471   1.347   0.663  1.4397  1.9738 -3.1189
 8002SOL    HW224532   1.546   1.229   0.605 -0.0336 -0.7214  0.1103
 8003SOL     OW24533   0.773   4.715   2.960  0.3598 -0.1253 -0.1632
 8003SOL    HW124534   0.729   4.631   2.945  0.9459 -0.6445  0.9315
 8003SOL    HW224535   0.705   4.780   2.945  0.2896 -0.6673 -2.6512
 8004SOL     OW24536   1.250   6.273   5.582 -0.3802 -0.1532  0.0909
 8004SOL    HW124537   1.339   6.279   5.546  0.6978 -1.2678  2.3402
 8004SOL    HW224538   1.196   6.323   5.521  1.3336 -1.4766 -2.7070
 8005SOL     OW24539   7.279   1.019   3.099 -0.2422  0.6489 -0.2852
 8005SOL    HW124540   7.357   1.061   3.135  0.6262  0.4295 -1.8236
 8005SOL    HW224541   7.308   0.982   3.015 -1.3019 -1.8803  0.3800
 8006SOL     OW24542   7.516   2.152   4.260 -0.3791  0.2341  0.3577
 8006SOL    HW124543   7.590   2.202   4.226 -0.1371 -1.0491 -1.1246
 8006SOL    HW224544   7.443   2.174   4.201 -0.7620  0.2745  0.8382
 8007SOL     OW24545   0.057   4.702   2.145 -0.0929 -0.5204  0.7430
 8007SOL    HW124546   0.073   4.736   2.233 -0.3534 -0.8904  0.9334
 8007SOL    HW224547   0.136   4.725   2.096 -0.1862  0.1950  0.9191
 8008SOL     OW24548   3.351   6.089   1.096  0.2675 -0.4415  0.3916
 8008SOL    HW124549   3.403   6.169   1.109 -1.3270  0.5334  1.0373
 8008SOL    HW224550   3.403   6.021   1.139  1.0205  0.5005  1.0517
 8009SOL     OW24551   6.375   1.327   7.179  0.0477  0.3329 -0.2850
 8009SOL    HW124552   6.466   1.320   7.152 -0.1420  3.6624 -2.4109
 8009SOL    HW224553   6.333   1.248   7.146  2.0442 -1.1519  0.5315
 8010SOL     OW24554   0.463   1.078   4.501 -0.4347  0.2511 -0.0308
 8010SOL    HW124555   0.368   1.070   4.494 -0.5461  2.2989 -2.0634
 8010SOL    HW224556   0.479   1.172   4.510  1.4244 -0.0376  0.1436
 8011SOL     OW24557   1.838   7.104   0.902  0.6354  0.4220  0.2803
 8011SOL    HW124558   1.905   7.085   0.836  0.7828 -0.6269  0.7109
 8011SOL    HW224559   1.861   7.048   0.976 -0.1570  0.7818  0.8103
 8012SOL     OW24560   2.307   4.374   6.907  0.2103 -0.3107  0.0266
 8012SOL    HW124561   2.306   4.281   6.927 -2.1414 -0.4450 -0.4612
 8012SOL    HW224562   2.290   4.417   6.991  0.4222 -0.3633  0.0966
 8013SOL     OW24563   3.561   2.023   6.192 -0.4819 -0.3671  0.5446
 8013SOL    HW124564   3.634   2.030   6.132  1.3073  0.7197  2.6938
 8013SOL    HW224565   3.483   2.021   6.136  1.0381  0.8700 -1.7598
 8014SOL     OW24566   1.638   0.973   4.509 -0.1615 -0.6676  0.4534
 8014SOL    HW124567   1.630   1.063   4.540 -1.5855 -0.5274 -0.2109
 8014SOL    HW224568   1.727   0.966   4.475  0.1123  0.3372  0.9404
 8015SOL     OW24569   7.393   1.507   0.720 -0.4509  0.1698  0.5391
 8015SOL    HW124570   7.409   1.599   0.701  2.1221  0.0753  1.6744
 8015SOL    HW224571   7.410   1.462   0.637  0.1217  0.6014  0.4094
 8016SOL     OW24572   2.527   0.424   1.033 -0.0915 -0.2081  0.2338
 8016SOL    HW124573   2.498   0.511   1.058  1.1962  0.3354 -0.0724
 8016SOL    HW224574   2.467   0.397   0.964  0.4424  1.1107 -0.7872
 8017SOL     OW24575   4.807   3.868   2.492  0.4566 -0.4540  0.3210
 8017SOL    HW124576   4.799   3.774   2.477  0.0480 -0.2832 -0.6292
 8017SOL    HW224577   4.729   3.905   2.450  1.1005  0.3914 -0.1643
 8018SOL     OW24578   3.349   6.217   2.365 -0.1884 -0.2433 -0.5200
 8018SOL    HW124579   3.419   6.221   2.300 -0.2137  0.5913 -0.5089
 8018SOL    HW224580   3.312   6.306   2.366 -1.1668 -0.6328 -0.4464
 8019SOL     OW24581   0.165   0.950   4.254 -0.5701  0.3613 -0.8512
 8019SOL    HW124582   0.212   0.979   4.175  1.5866  0.7039  0.4824
 8019SOL    HW224583   0.161   0.855   4.246  0.6785  0.2928 -0.8570
 8020SOL     OW24584   4.413   1.542   6.695 -0.3859  0.2654  0.0476
 8020SOL    HW124585   4.506   1.563   6.707 -0.4993  0.6397  0.3043
 8020SOL    HW224586   4.406   1.514   6.604 -0.0825  0.6091 -0.0847
 8021SOL     OW24587   4.178   0.106   5.170 -0.2578  0.0987 -0.2568
 8021SOL    HW124588   4.136   0.034   5.124 -0.6984  1.1745 -1.6161
 8021SOL    HW224589   4.245   0.138   5.109  2.7827 -1.6771  1.8976
 8022SOL     OW24590   0.240   5.042   5.911 -0.1014 -0.1799 -0.0685
 8022SOL    HW124591   0.184   5.119   5.897 -0.5271 -0.3735  0.5259
 8022SOL    HW224592   0.266   5.048   6.003 -1.3816 -1.5454  0.4228
 8023SOL     OW24593   4.768   6.341   2.883 -0.2069  0.0252  0.0455
 8023SOL    HW124594   4.798   6.336   2.793 -0.7649  1.9180 -0.2953
 8023SOL    HW224595   4.673   6.338   2.877 -0.2288 -0.7220  0.6514
 8024SOL     OW24596   2.766   4.889   1.791  0.4333  0.3995  0.3220
 8024SOL    HW124597   2.774   4.802   1.829 -1.6156  0.6808  1.5758
 8024SOL    HW224598   2.843   4.936   1.823  0.5843 -0.4218  1.2165
 8025SOL     OW24599   4.057   0.560   4.035  0.3417  0.2990  0.1546
 8025SOL    HW124600   4.058   0.550   4.131 -2.1628  0.0000  0.2190
 8025SOL    HW224601   4.061   0.654   4.021  1.2372  0.3233  0.5256
 8026SOL     OW24602   2.442   3.095   0.588  0.2755 -0.1136  0.0653
 8026SOL    HW124603   2.423   3.008   0.552  0.2809 -0.0958  0.0204
 8026SOL    HW224604   2.378   3.106   0.659  0.4737 -0.2800  0.2708
 8027SOL     OW24605   3.335   7.354   7.520  0.4938  0.1552 -0.1668
 8027SOL    HW124606   3.286   7.424   7.564  0.3051 -0.3342  0.4054
 8027SOL    HW224607   3.267   7.301   7.478  0.6806  0.7310 -1.2411
 8028SOL     OW24608   2.959   6.238   2.332  0.1532  0.0627 -0.7381
 8028SOL    HW124609   3.013   6.246   2.410 -0.9612 -0.1525  0.0732
 8028SOL    HW224610   3.018   6.203   2.265  1.5098  1.6848 -0.4467
 8029SOL     OW24611   3.808   2.583   1.646  0.2751 -0.2102  0.0503
 8029SOL    HW124612   3.828   2.584   1.740 -1.4729 -0.2241  0.4585
 8029SOL    HW224613   3.742   2.514   1.636  0.8733 -0.6081 -1.2928
 8030SOL     OW24614   2.785   6.020   5.426 -0.0650 -0.5814  0.1497
 8030SOL    HW124615   2.797   6.050   5.335  0.0155  0.5052  0.4968
 8030SOL    HW224616   2.833   6.085   5.478 -1.1037 -0.5083  1.0387
 8031SOL     OW24617   5.309   2.387   2.291  0.2744  0.0783  0.2418
 8031SOL    HW124618   5.397   2.375   2.255  0.5044 -0.1817  0.8766
 8031SOL    HW224619   5.277   2.298   2.306 -0.7183  0.1098 -1.4186
 8032SOL     OW24620   3.658   3.315   2.292  0.0932  0.3735  0.9898
 8032SOL    HW124621   3.625   3.261   2.220 -1.7196  0.9140  1.3733
 8032SOL    HW224622   3.751   3.324   2.273 -0.1723 -0.1705 -0.8501
 8033SOL     OW24623   0.817   6.109   2.193  0.6497 -0.1244  0.9153
 8033SOL    HW124624   0.894   6.166   2.204  0.3933  0.3805  0.1898
 8033SOL    HW224625   0.754   6.142   2.257  0.2604  0.8569  0.0588
 8034SOL     OW24626   1.592   7.001   7.446  0.7619  0.0623 -0.2267
 8034SOL    HW124627   1.685   6.980   7.439  0.0965 -3.0852 -0.8832
 8034SOL    HW224628   1.553   6.967   7.366 -1.0912  0.5786  0.3972
 8035SOL     OW24629   5.158   1.709   4.547  0.2779  0.5969  0.1773
 8035SOL    HW124630   5.188   1.770   4.479  1.7157 -1.2202 -0.9130
 8035SOL    HW224631   5.229   1.707   4.611  0.7301 -0.6404 -0.3220
 8036SOL     OW24632   4.686   3.723   4.020  0.6572  0.1926 -0.1109
 8036SOL    HW124633   4.709   3.631   4.005 -0.8277 -0.4952  1.4422
 8036SOL    HW224634   4.671   3.728   4.114 -0.5777  1.7082 -0.3511
 8037SOL     OW24635   4.322   2.096   3.534  0.3208  0.1849 -0.6011
 8037SOL    HW124636   4.390   2.161   3.554  0.1788  0.5995 -1.3976
 8037SOL    HW224637   4.369   2.013   3.526  0.3382 -0.0947  1.7520
 8038SOL     OW24638   4.526   1.862   5.553  0.1151  0.2387 -0.1068
 8038SOL    HW124639   4.483   1.934   5.507  0.8509 -0.0738 -1.3390
 8038SOL    HW224640   4.589   1.827   5.489 -0.0625 -1.3415  0.5429
 8039SOL     OW24641   0.081   6.743   6.066  0.4761 -0.1579 -0.3779
 8039SOL    HW124642  -0.009   6.709   6.066  0.4236 -0.5423  3.7437
 8039SOL    HW224643   0.128   6.686   6.005 -1.4995 -1.7009 -0.5908
 8040SOL     OW24644   3.265   5.579   4.225  0.8248 -0.1123 -0.4817
 8040SOL    HW124645   3.190   5.617   4.180 -0.4915 -1.9729  0.0420
 8040SOL    HW224646   3.262   5.486   4.204  2.5972 -0.3455  0.1200
 8041SOL     OW24647   6.829   6.500   5.625  0.8339  0.2914  0.3249
 8041SOL    HW124648   6.916   6.538   5.616  0.0633  2.2767  0.6676
 8041SOL    HW224649   6.808   6.509   5.718 -0.8120  2.5313 -0.1773
 8042SOL     OW24650   4.501   5.506   2.395  0.0787 -0.1528  0.3676
 8042SOL    HW124651   4.410   5.518   2.369  0.3172 -1.8642 -1.4883
 8042SOL    HW224652   4.512   5.565   2.470 -2.3429  0.5885  0.2406
 8043SOL     OW24653   3.889   2.395   0.353 -0.0179  0.2891  0.6735
 8043SOL    HW124654   3.891   2.316   0.409 -0.8651  0.2979  0.7385
 8043SOL    HW224655   3.970   2.391   0.303  0.3628 -0.1679  1.3029
 8044SOL     OW24656   2.291   3.747   3.713  0.5011  0.4380  0.5859
 8044SOL    HW124657   2.316   3.674   3.769  0.5357  0.0274  0.0481
 8044SOL    HW224658   2.304   3.714   3.624  0.1499  0.9693  0.3321
 8045SOL     OW24659   6.538   5.761   3.207  0.6222  0.3033  0.5230
 8045SOL    HW124660   6.632   5.780   3.204  0.6959 -0.1618 -0.6072
 8045SOL    HW224661   6.502   5.830   3.262  1.5340  0.8854  0.4192
 8046SOL     OW24662   7.323   2.105   2.688  0.2748  0.0295  0.0548
 8046SOL    HW124663   7.285   2.183   2.649 -1.7740 -0.2267  1.3677
 8046SOL    HW224664   7.261   2.080   2.756 -0.4480 -4.0508 -1.7741
 8047SOL     OW24665   7.327   3.101   3.633 -0.9549  0.2127 -0.0497
 8047SOL    HW124666   7.406   3.065   3.672 -0.9262  0.9441  0.5733
 8047SOL    HW224667   7.301   3.035   3.568  0.5168  0.2662 -0.7381
 8048SOL     OW24668   4.429   0.023   2.234 -0.3346 -0.4286  0.1301
 8048SOL    HW124669   4.399   0.095   2.290  0.7942  1.3407 -1.4068
 8048SOL    HW224670   4.462  -0.043   2.295 -0.2745  0.8762  1.5781
 8049SOL     OW24671   3.818   0.502   4.381 -0.3983  0.3416 -0.0010
 8049SOL    HW124672   3.788   0.507   4.290  1.1863  0.8312 -0.5274
 8049SOL    HW224673   3.804   0.590   4.416 -1.0474  0.1419  0.2471
 8050SOL     OW24674   4.016   1.912   6.397 -0.1537  0.0460  0.5596
 8050SOL    HW124675   3.932   1.888   6.435 -0.4264  0.8751  0.5090
 8050SOL    HW224676   4.030   1.850   6.326 -0.9497  0.1914  0.2666
 8051SOL     OW24677   4.182   2.040   2.698  0.0187 -0.2164 -0.1845
 8051SOL    HW124678   4.222   1.956   2.675  1.3239  0.7290 -1.5123
 8051SOL    HW224679   4.090   2.030   2.674 -0.1642 -1.7332  1.0194
 8052SOL     OW24680   3.056   4.870   0.430 -0.3836  0.0732 -0.3058
 8052SOL    HW124681   3.099   4.956   0.432  0.0688 -0.1657  0.5929
 8052SOL    HW224682   3.099   4.824   0.358 -0.1138  0.3402 -0.3178
 8053SOL     OW24683   2.255   7.333   5.454 -0.2956 -0.1928  0.4029
 8053SOL    HW124684   2.296   7.388   5.521  1.0647 -0.0089 -0.5481
 8053SOL    HW224685   2.243   7.392   5.379 -0.1389 -0.8357 -0.1325
 8054SOL     OW24686   1.678   0.397   5.235 -0.2842  0.4584 -0.5243
 8054SOL    HW124687   1.606   0.359   5.184 -0.3053 -0.2539  0.0146
 8054SOL    HW224688   1.649   0.389   5.326  0.7124 -0.3601 -0.2634
 8055SOL     OW24689   0.361   0.717   7.517 -0.1168 -0.0025  0.2254
 8055SOL    HW124690   0.271   0.686   7.521 -0.2845  0.3922 -0.4595
 8055SOL    HW224691   0.397   0.695   7.603 -1.2548  1.0377  1.0127
 8056SOL     OW24692   1.873   0.820   5.415 -1.1502  0.6161 -0.2984
 8056SOL    HW124693   1.939   0.890   5.414  0.9428 -1.2515 -0.5153
 8056SOL    HW224694   1.916   0.747   5.460 -1.6078 -1.9771 -3.6626
 8057SOL     OW24695   2.856   5.913   4.215 -0.3494 -0.8925  0.2506
 8057SOL    HW124696   2.873   5.874   4.129  2.1333  1.9303 -0.7190
 8057SOL    HW224697   2.923   5.877   4.272 -0.2452 -0.6612  0.2744
 8058SOL     OW24698   0.189   5.905   5.195 -0.1773  0.0646  0.3596
 8058SOL    HW124699   0.192   5.941   5.106 -0.0688 -0.7197  0.0394
 8058SOL    HW224700   0.248   5.962   5.246  0.6170 -0.1372 -0.3139
 8059SOL     OW24701   4.315   2.408   1.020  0.0195 -0.3915 -0.0982
 8059SOL    HW124702   4.294   2.404   1.114 -0.3403 -0.6418 -0.1860
 8059SOL    HW224703   4.343   2.499   1.006 -0.2744 -0.2537  0.1820
 8060SOL     OW24704   5.451   7.463   5.884  1.0448  0.5123  0.1397
 8060SOL    HW124705   5.540   7.466   5.921  1.1736 -0.5942 -0.0236
 8060SOL    HW224706   5.436   7.370   5.867  0.1768  0.7804 -0.6409
 8061SOL     OW24707   0.282   7.489   0.371 -0.0368 -0.0235 -0.0417
 8061SOL    HW124708   0.226   7.512   0.445 -0.4508  1.5349 -0.7994
 8061SOL    HW224709   0.233   7.422   0.322 -0.4362  0.0471  0.2621
 8062SOL     OW24710   0.435   5.197   4.855 -0.1012 -0.5456  0.0864
 8062SOL    HW124711   0.509   5.136   4.859  1.0498  0.8657  1.8834
 8062SOL    HW224712   0.474   5.281   4.829 -1.5798 -0.3849 -1.9052
 8063SOL     OW24713   5.730   4.932   7.386 -0.0653  0.3899  0.3036
 8063SOL    HW124714   5.639   4.934   7.358 -0.0382 -0.3910  0.1357
 8063SOL    HW224715   5.754   4.839   7.381  1.1474  0.7450 -0.9555
 8064SOL     OW24716   6.972   1.134   3.388 -0.2980  0.6219  0.2596
 8064SOL    HW124717   7.025   1.187   3.328  1.8060  0.2679  1.6670
 8064SOL    HW224718   7.032   1.066   3.419 -1.8744 -0.3694  1.2915
 8065SOL     OW24719   2.550   4.869   5.407  0.3165 -0.1625  0.2496
 8065SOL    HW124720   2.557   4.795   5.469 -0.7480 -0.2994  0.2187
 8065SOL    HW224721   2.567   4.946   5.461 -0.7515 -0.2700  0.7629
 8066SOL     OW24722   0.660   1.484   3.087 -0.4002 -0.3681  0.1002
 8066SOL    HW124723   0.643   1.574   3.116 -0.2517 -0.5826  0.8827
 8066SOL    HW224724   0.655   1.432   3.168  2.8555 -0.6105  0.2444
 8067SOL     OW24725   3.998   7.174   6.364 -0.7714  0.3928  0.0475
 8067SOL    HW124726   3.919   7.199   6.413  0.0777  3.8425 -0.1099
 8067SOL    HW224727   4.056   7.136   6.430 -1.0192  1.6589  1.0395
 8068SOL     OW24728   4.822   1.002   3.605 -0.0187  1.0887 -0.0693
 8068SOL    HW124729   4.786   1.042   3.526 -0.3825  0.1286 -0.4105
 8068SOL    HW224730   4.867   0.923   3.573  2.2282  2.1138  0.3485
 8069SOL     OW24731   6.195   1.366   0.769  0.0364 -0.0531 -0.0515
 8069SOL    HW124732   6.262   1.416   0.816 -0.9696 -0.7157  2.2220
 8069SOL    HW224733   6.232   1.353   0.682  1.9895  1.2994  0.4950
 8070SOL     OW24734   3.457   3.169   5.653  0.0027  0.3864 -0.2278
 8070SOL    HW124735   3.521   3.236   5.673 -1.3601  2.0878 -1.2473
 8070SOL    HW224736   3.496   3.088   5.685  1.6984  1.6439  1.0729
 8071SOL     OW24737   1.951   2.061   6.609  0.2879 -0.4189  0.2843
 8071SOL    HW124738   1.929   1.972   6.637  1.6288 -0.9611 -0.2997
 8071SOL    HW224739   2.009   2.048   6.534 -0.0176  0.9679 -0.2193
 8072SOL     OW24740   6.089   6.833   5.550  0.0054  1.0458  0.4024
 8072SOL    HW124741   6.101   6.842   5.455  0.4386 -0.4393  0.3014
 8072SOL    HW224742   6.170   6.869   5.587 -0.3662  2.0761  0.2491
 8073SOL     OW24743   5.984   6.397   3.734  0.3054  0.2364  0.0928
 8073SOL    HW124744   5.933   6.321   3.764 -0.1789  1.1913  1.8703
 8073SOL    HW224745   5.941   6.424   3.653 -2.5976  1.4387  1.8776
 8074SOL     OW24746   2.420   7.228   5.100 -0.4891 -0.2822  0.2813
 8074SOL    HW124747   2.442   7.243   5.008 -0.1991  0.3726  0.4553
 8074SOL    HW224748   2.349   7.164   5.098 -1.5156  0.8497 -0.4554
 8075SOL     OW24749   5.819   4.254   0.506 -0.3032  0.6961  0.2231
 8075SOL    HW124750   5.774   4.234   0.588 -1.2476  1.0390 -0.1998
 8075SOL    HW224751   5.798   4.180   0.449  1.1332 -0.0151  0.5718
 8076SOL     OW24752   3.892   2.778   2.435 -0.2004 -0.5812 -0.4638
 8076SOL    HW124753   3.824   2.788   2.368 -0.1710  0.2279 -0.3740
 8076SOL    HW224754   3.906   2.866   2.470  0.0863 -0.9216  0.3178
 8077SOL     OW24755   2.897   6.152   3.022  0.1404  0.3379  0.2481
 8077SOL    HW124756   2.967   6.111   3.074  0.9308  1.7003  0.3084
 8077SOL    HW224757   2.867   6.225   3.075  0.9820  1.7827 -1.1678
 8078SOL     OW24758   3.318   1.584   5.566  0.1785  0.2995  0.6740
 8078SOL    HW124759   3.330   1.646   5.638  0.1697  0.6143  0.4035
 8078SOL    HW224760   3.256   1.627   5.507 -0.1445 -0.1364  0.6845
 8079SOL     OW24761   2.736   0.585   5.635  0.0117  1.0586  0.7232
 8079SOL    HW124762   2.687   0.548   5.561 -0.3055  1.0501  0.9334
 8079SOL    HW224763   2.789   0.512   5.667 -0.9757  0.6254  1.4438
 8080SOL     OW24764   0.694   4.650   2.257  0.5716 -0.5951 -0.1871
 8080SOL    HW124765   0.599   4.646   2.269  0.4200 -0.6640 -1.2852
 8080SOL    HW224766   0.714   4.572   2.206  0.9357  0.4103 -1.6396
 8081SOL     OW24767   0.844   6.788   6.364  0.8728  0.1511  0.0082
 8081SOL    HW124768   0.846   6.770   6.458 -2.1367 -1.2050 -0.0554
 8081SOL    HW224769   0.845   6.701   6.323 -0.0185  0.6072 -1.0578
 8082SOL     OW24770   0.038   6.093   0.712 -0.2190  0.5370 -0.1909
 8082SOL    HW124771  -0.051   6.091   0.678 -0.1542 -0.3991 -0.3317
 8082SOL    HW224772   0.057   6.002   0.736  0.7180  0.7096 -0.2297
 8083SOL     OW24773   1.377   6.688   6.647  0.1146  0.0613  0.4514
 8083SOL    HW124774   1.452   6.638   6.676  0.6345  0.9076  0.6017
 8083SOL    HW224775   1.414   6.760   6.596 -0.6505 -0.1060 -0.3796
 8084SOL     OW24776   1.549   0.156   0.611  0.0183 -0.4306 -0.2374
 8084SOL    HW124777   1.588   0.071   0.629  1.0087  0.3454  1.6354
 8084SOL    HW224778   1.505   0.181   0.692 -1.9169  0.0390 -1.3631
 8085SOL     OW24779   2.830   6.794   1.350  0.4572  0.1365 -0.3701
 8085SOL    HW124780   2.770   6.767   1.420  1.0854  1.5223  0.7440
 8085SOL    HW224781   2.861   6.880   1.377  0.6038  0.7852 -2.4540
 8086SOL     OW24782   0.662   4.415   4.341 -0.4162 -0.0304  0.3331
 8086SOL    HW124783   0.598   4.406   4.270  0.6915 -0.5505 -0.6384
 8086SOL    HW224784   0.668   4.509   4.356 -0.1355  0.1519 -0.7883
 8087SOL     OW24785   3.382   3.661   6.356 -0.2152 -0.6586 -0.1993
 8087SOL    HW124786   3.360   3.577   6.316  0.0244 -0.2194 -1.2960
 8087SOL    HW224787   3.469   3.647   6.395 -0.6342 -1.2123  0.5650
 8088SOL     OW24788   1.055   0.618   4.875 -0.0010  0.0208 -0.0547
 8088SOL    HW124789   1.042   0.590   4.965 -0.5478 -1.1783 -0.4826
 8088SOL    HW224790   1.035   0.541   4.822 -0.4514  0.9043 -1.2446
 8089SOL     OW24791   5.752   0.468   7.100  0.1901  0.1124 -0.5219
 8089SOL    HW124792   5.673   0.434   7.142  0.1849  0.0790 -0.5590
 8089SOL    HW224793   5.721   0.540   7.045  0.2679  0.5315 -0.0239
 8090SOL     OW24794   4.219   1.061   3.962 -0.0406  0.0544  0.6071
 8090SOL    HW124795   4.305   1.100   3.978 -0.7288  2.1078 -0.3420
 8090SOL    HW224796   4.199   1.081   3.871 -1.2286 -1.0078  0.6011
 8091SOL     OW24797   0.889   6.873   2.221 -0.1567  0.0153 -0.0044
 8091SOL    HW124798   0.858   6.797   2.271  0.5967 -1.2334 -1.3543
 8091SOL    HW224799   0.809   6.914   2.187 -0.5183 -1.8624 -1.5995
 8092SOL     OW24800   1.088   1.031   1.414 -0.5127  0.2257 -0.2208
 8092SOL    HW124801   1.102   1.092   1.486  1.5464  0.6506 -0.9201
 8092SOL    HW224802   1.109   0.945   1.451 -1.4353  0.1779  0.2130
 8093SOL     OW24803   5.113   0.778   5.508 -0.3567  0.4879  0.3750
 8093SOL    HW124804   5.206   0.754   5.509 -0.2105  1.0630  0.8651
 8093SOL    HW224805   5.068   0.698   5.534  0.2085  1.0442  3.4635
 8094SOL     OW24806   1.155   3.259   0.872 -0.2809  0.4960 -0.1047
 8094SOL    HW124807   1.086   3.211   0.827  1.1935 -0.7793 -1.0871
 8094SOL    HW224808   1.122   3.269   0.962 -1.9729  0.4647 -0.6844
 8095SOL     OW24809   7.228   5.538   4.124  0.9657  0.0173  0.0778
 8095SOL    HW124810   7.258   5.447   4.114 -1.0356 -0.4628 -2.8002
 8095SOL    HW224811   7.301   5.583   4.165  2.5313 -2.6210  0.4077
 8096SOL     OW24812   5.213   0.358   4.429  0.4567 -0.0711 -0.3171
 8096SOL    HW124813   5.293   0.347   4.481 -0.2368 -0.0554  0.7931
 8096SOL    HW224814   5.235   0.320   4.344  1.3825 -0.8159  0.2195
 8097SOL     OW24815   0.101   0.516   2.885 -0.1779  0.0883 -0.2082
 8097SOL    HW124816   0.131   0.486   2.799  0.3860 -0.6695  0.2471
 8097SOL    HW224817   0.011   0.545   2.869 -0.3276 -0.7141 -0.9242
 8098SOL     OW24818   6.171   4.861   4.335  0.3948 -0.1138 -0.2585
 8098SOL    HW124819   6.115   4.927   4.376  0.9372  0.2727 -0.1133
 8098SOL    HW224820   6.112   4.791   4.309 -0.1897  0.4176 -0.3828
 8099SOL     OW24821   4.356   2.193   2.539 -0.1436 -0.5298  0.2175
 8099SOL    HW124822   4.302   2.145   2.601 -0.3243  0.0465  0.5115
 8099SOL    HW224823   4.443   2.154   2.547 -0.6825 -2.0603 -0.8871
 8100SOL     OW24824   1.902   5.016   7.524  0.0527  0.2730 -0.0135
 8100SOL    HW124825   1.920   4.926   7.498  0.6361  0.3135  0.2397
 8100SOL    HW224826   1.808   5.017   7.541 -0.1821  0.0186 -1.2037
 8101SOL     OW24827   4.562   4.162   0.666 -0.4148  0.4526 -0.2471
 8101SOL    HW124828   4.595   4.128   0.750 -2.2828  1.1076  0.8005
 8101SOL    HW224829   4.601   4.249   0.658 -0.8450  0.7114  0.3605
 8102SOL     OW24830   5.944   5.934   2.518  0.6803  0.0775  0.6942
 8102SOL    HW124831   5.979   5.929   2.607  0.5885  1.6128  0.8424
 8102SOL    HW224832   5.925   6.027   2.505  2.0005  0.1275 -1.4227
 8103SOL     OW24833   0.490   1.528   2.757  0.0225 -0.2163 -0.3736
 8103SOL    HW124834   0.423   1.508   2.823 -0.3888 -2.0592 -1.2850
 8103SOL    HW224835   0.569   1.484   2.788  0.6403  1.2720  0.2780
 8104SOL     OW24836   6.273   0.537   6.699  0.1435 -0.2586 -0.0825
 8104SOL    HW124837   6.315   0.478   6.761  0.6445  0.6402  0.4577
 8104SOL    HW224838   6.275   0.491   6.615  1.5704 -0.5258  0.0843
 8105SOL     OW24839   3.264   4.481   1.259 -0.0237  0.1780 -0.4094
 8105SOL    HW124840   3.212   4.402   1.247 -1.1718  0.7587  0.4959
 8105SOL    HW224841   3.338   4.453   1.313 -1.9156  0.1719  2.4496
 8106SOL     OW24842   7.278   6.246   3.073 -0.0236  0.3244  0.5925
 8106SOL    HW124843   7.189   6.274   3.092 -0.0509  0.5586  0.1289
 8106SOL    HW224844   7.329   6.327   3.068  0.1738  0.2056  0.6444
 8107SOL     OW24845   6.078   6.567   7.428  0.1137 -0.1550  0.0728
 8107SOL    HW124846   6.109   6.612   7.350  1.1405  1.6375  1.4426
 8107SOL    HW224847   6.118   6.615   7.501 -3.1454  0.1354  1.8418
 8108SOL     OW24848   3.169   1.436   1.660  0.6477 -0.4867 -0.2522
 8108SOL    HW124849   3.230   1.495   1.617  1.2768 -0.5667  0.5216
 8108SOL    HW224850   3.089   1.442   1.607  0.4519  1.5813  0.1779
 8109SOL     OW24851   6.350   6.096   7.454  0.4103 -0.0797 -0.0344
 8109SOL    HW124852   6.291   6.160   7.414 -0.5973 -1.0114 -0.0774
 8109SOL    HW224853   6.418   6.149   7.495 -1.3441  1.1399  1.4828
 8110SOL     OW24854   7.025   6.716   3.807 -0.9154 -0.2089 -0.3766
 8110SOL    HW124855   7.091   6.663   3.762 -0.9423 -0.1080 -0.5374
 8110SOL    HW224856   7.076   6.783   3.853 -0.7174 -1.6015  1.5500
 8111SOL     OW24857   4.130   3.865   0.805  0.3562  0.4272 -0.1733
 8111SOL    HW124858   4.168   3.943   0.846  0.1669 -0.5173  1.9316
 8111SOL    HW224859   4.037   3.886   0.796  0.3341  0.5167  0.2288
 8112SOL     OW24860   3.853   0.056   4.370  0.2349 -0.1692 -0.1180
 8112SOL    HW124861   3.904   0.035   4.292  0.4030 -0.5924  0.1020
 8112SOL    HW224862   3.917   0.090   4.433  0.0583  0.4290 -0.2541
 8113SOL     OW24863   5.633   7.351   7.391 -0.0747 -0.1616 -0.8027
 8113SOL    HW124864   5.564   7.343   7.456  0.9659 -2.7511  0.1195
 8113SOL    HW224865   5.588   7.350   7.306 -1.2031 -1.1630 -0.2070
 8114SOL     OW24866   1.607   7.122   0.470 -0.3836 -0.1352  0.3999
 8114SOL    HW124867   1.674   7.178   0.510  1.4445 -2.4173  0.7728
 8114SOL    HW224868   1.562   7.083   0.545 -1.6537  0.7895  0.1438
 8115SOL     OW24869   5.711   3.630   1.301  0.3366  0.2560  0.1691
 8115SOL    HW124870   5.690   3.537   1.304  0.8033  0.1620  0.5787
 8115SOL    HW224871   5.798   3.634   1.261  0.7986  0.4332  1.1766
 8116SOL     OW24872   6.643   5.756   1.815  0.3368  0.3616 -0.3630
 8116SOL    HW124873   6.639   5.758   1.719  0.7462  0.2694 -0.3822
 8116SOL    HW224874   6.552   5.767   1.843  0.0564 -0.7429 -0.7778
 8117SOL     OW24875   6.811   0.265   4.324 -0.1641  0.4025 -0.1122
 8117SOL    HW124876   6.788   0.338   4.382  0.4362 -1.8026  3.1423
 8117SOL    HW224877   6.904   0.278   4.306  0.2278 -0.0665  1.3980
 8118SOL     OW24878   1.323   5.957   5.331  0.5939 -0.3175 -0.3415
 8118SOL    HW124879   1.271   5.880   5.352  1.6406 -1.0846 -0.4406
 8118SOL    HW224880   1.413   5.932   5.352  0.8595  1.2307  0.5725
 8119SOL     OW24881   7.227   6.624   6.236  0.5550 -0.1767  0.1318
 8119SOL    HW124882   7.184   6.557   6.289  0.3841 -0.4916 -0.3944
 8119SOL    HW224883   7.156   6.685   6.214  0.3121 -0.7952 -0.8920
 8120SOL     OW24884   2.047   0.641   0.436  0.1889 -0.5659  0.6368
 8120SOL    HW124885   2.009   0.555   0.421  1.5559 -0.9812 -0.6948
 8120SOL    HW224886   2.136   0.623   0.467  1.4744  0.2612 -2.2043
 8121SOL     OW24887   2.898   1.828   1.577 -0.0409  0.2985 -0.0217
 8121SOL    HW124888   2.825   1.783   1.534  0.0132  1.7278 -1.7328
 8121SOL    HW224889   2.976   1.794   1.533  0.3223 -0.9057  1.5036
 8122SOL     OW24890   1.046   3.182   1.946  0.4921  0.2062 -0.4428
 8122SOL    HW124891   1.099   3.105   1.965  1.0453  0.6702 -0.0541
 8122SOL    HW224892   1.089   3.253   1.995 -0.8629  0.4768  0.3890
 8123SOL     OW24893   1.851   6.011   7.424  0.5202  0.1309 -0.1067
 8123SOL    HW124894   1.912   6.063   7.372  0.6686  0.9703  0.8704
 8123SOL    HW224895   1.793   6.076   7.463 -0.2258 -0.5699 -0.0372
 8124SOL     OW24896   4.992   6.840   0.375  0.0347 -0.2263  0.0616
 8124SOL    HW124897   4.992   6.754   0.335 -1.4480 -0.3838  0.3499
 8124SOL    HW224898   4.988   6.901   0.302 -1.6337 -0.4919 -0.1114
 8125SOL     OW24899   4.979   6.136   2.218  0.0941 -0.2683 -0.3861
 8125SOL    HW124900   5.033   6.213   2.234  1.9693 -1.2684 -1.5248
 8125SOL    HW224901   4.926   6.159   2.141 -1.3231  0.7680  0.8248
 8126SOL     OW24902   5.944   1.195   6.425  0.1694  0.6813 -0.1268
 8126SOL    HW124903   5.856   1.220   6.452  1.0136  2.1060  1.5800
 8126SOL    HW224904   5.997   1.274   6.442  2.0622 -0.6517  0.4677
 8127SOL     OW24905   5.555   5.429   1.879 -0.0987 -0.2347 -0.2037
 8127SOL    HW124906   5.495   5.500   1.899  0.2115 -0.2964  1.0132
 8127SOL    HW224907   5.627   5.470   1.831  0.6036  0.5055  1.3959
 8128SOL     OW24908   1.784   0.448   3.057 -0.4012  0.2508  0.1060
 8128SOL    HW124909   1.835   0.446   2.977 -1.2185  0.9144 -0.4494
 8128SOL    HW224910   1.762   0.356   3.075  0.2346  0.0519 -0.1324
 8129SOL     OW24911   7.163   0.561   6.760  0.2559  0.0571 -0.0065
 8129SOL    HW124912   7.108   0.618   6.813  0.3740 -0.2443  0.4411
 8129SOL    HW224913   7.114   0.479   6.755  0.7092 -0.2458  0.4766
 8130SOL     OW24914   3.209   3.273   0.531  0.3451  0.0311  0.3083
 8130SOL    HW124915   3.161   3.211   0.586 -0.8446  0.6574  0.0184
 8130SOL    HW224916   3.140   3.318   0.481  1.1862  1.5243  0.4562
 8131SOL     OW24917   5.991   3.701   2.185 -0.3598  0.0496  0.1812
 8131SOL    HW124918   5.992   3.703   2.281  1.9831  1.8377  0.2083
 8131SOL    HW224919   5.936   3.776   2.160 -0.1326  0.2097  0.1548
 8132SOL     OW24920   4.807   0.333   7.108  0.3885 -0.1893  0.6682
 8132SOL    HW124921   4.816   0.238   7.104  2.2505 -0.1575  2.4780
 8132SOL    HW224922   4.836   0.364   7.022 -0.5478 -1.2227 -0.0529
 8133SOL     OW24923   6.937   1.058   6.849  0.1011  0.0522  0.0852
 8133SOL    HW124924   6.902   1.144   6.870  1.7356  0.6214  0.6544
 8133SOL    HW224925   6.982   1.031   6.928 -1.4452 -1.9305  0.3575
 8134SOL     OW24926   5.132   1.378   2.447  0.1242 -0.4487 -0.4761
 8134SOL    HW124927   5.173   1.341   2.369  2.9401 -0.5766  0.9285
 8134SOL    HW224928   5.202   1.381   2.512 -1.9738  0.0904  1.9338
 8135SOL     OW24929   3.005   3.314   2.041  0.3629  0.8603 -0.3496
 8135SOL    HW124930   3.092   3.293   2.008 -0.6271  0.9601 -3.3142
 8135SOL    HW224931   3.008   3.408   2.059  0.3190  1.3681 -2.6501
 8136SOL     OW24932   1.583   4.145   2.197 -0.2414  0.2118 -0.3717
 8136SOL    HW124933   1.574   4.110   2.108 -0.7511 -0.0466 -0.2281
 8136SOL    HW224934   1.660   4.100   2.232 -0.9646 -0.8989 -0.1458
 8137SOL     OW24935   1.942   6.714   7.306  0.2102  0.1788  0.1608
 8137SOL    HW124936   1.909   6.757   7.385 -0.3593  0.0515 -0.0039
 8137SOL    HW224937   2.037   6.716   7.316  0.1508  0.3594  0.7458
 8138SOL     OW24938   2.826   1.600   1.843 -0.0020 -0.1541 -0.3672
 8138SOL    HW124939   2.769   1.653   1.900 -1.1709  0.3050 -1.8892
 8138SOL    HW224940   2.908   1.649   1.840  0.3407 -0.5386  1.4284
 8139SOL     OW24941   5.507   1.827   6.090  0.0865 -0.3566 -0.3739
 8139SOL    HW124942   5.505   1.877   6.172 -0.8345 -2.1925  0.7977
 8139SOL    HW224943   5.465   1.884   6.026 -1.0203  0.3599  0.9276
 8140SOL     OW24944   5.912   2.854   2.000 -0.2059 -0.3261 -0.6969
 8140SOL    HW124945   5.875   2.785   1.945 -1.3853 -0.3228  0.0569
 8140SOL    HW224946   5.934   2.810   2.082 -1.7176  0.3055  0.0903
 8141SOL     OW24947   3.037   6.828   6.497 -0.3473  0.2754  0.0343
 8141SOL    HW124948   3.057   6.845   6.589  1.4945 -1.1080 -0.0614
 8141SOL    HW224949   3.033   6.733   6.490  1.0773  0.2800 -1.5749
 8142SOL     OW24950   0.671   0.996   6.601  0.2020 -0.5175 -0.6577
 8142SOL    HW124951   0.709   0.978   6.687 -1.0996 -1.6855 -0.2884
 8142SOL    HW224952   0.701   1.084   6.579 -2.1529  1.3068  2.5628
 8143SOL     OW24953   1.977   7.479   7.384  0.0491  0.1145 -0.0004
 8143SOL    HW124954   1.988   7.570   7.359  0.3789  0.2001  0.4435
 8143SOL    HW224955   2.020   7.430   7.313 -1.2826  0.2329 -0.9213
 8144SOL     OW24956   5.402   7.131   4.036  0.6317  0.6442  0.1116
 8144SOL    HW124957   5.359   7.108   4.118  0.5747  0.7520  0.1125
 8144SOL    HW224958   5.495   7.118   4.054  0.5002 -1.6777 -0.5589
 8145SOL     OW24959   0.787   1.868   4.775  0.2777  0.1483  0.2154
 8145SOL    HW124960   0.754   1.957   4.789  0.1949 -0.1072  1.8468
 8145SOL    HW224961   0.732   1.813   4.831 -0.9763 -1.2444 -2.2125
 8146SOL     OW24962   4.375   5.630   7.381  0.3243 -0.4500 -0.0203
 8146SOL    HW124963   4.405   5.716   7.411 -1.3469  0.6971 -1.4433
 8146SOL    HW224964   4.411   5.622   7.293  0.1111 -1.0248 -0.0600
 8147SOL     OW24965   2.376   0.110   6.241 -0.1283  0.1171 -0.1283
 8147SOL    HW124966   2.283   0.130   6.230 -0.6764 -2.2702 -0.5074
 8147SOL    HW224967   2.401   0.154   6.323 -0.8668  2.8766 -1.2779
 8148SOL     OW24968   5.572   1.923   0.888  0.1924 -0.3062 -0.0202
 8148SOL    HW124969   5.517   1.848   0.863  1.2660 -1.4825  0.9694
 8148SOL    HW224970   5.517   1.976   0.946  0.7686 -2.8414  3.1508
 8149SOL     OW24971   5.802   1.465   1.820 -0.3943 -0.3275 -0.1627
 8149SOL    HW124972   5.708   1.483   1.824 -0.2233  0.4040  0.7904
 8149SOL    HW224973   5.809   1.372   1.837 -0.9784 -0.4950 -0.7711
 8150SOL     OW24974   5.777   7.200   6.253  0.5815 -0.4207  0.1729
 8150SOL    HW124975   5.704   7.149   6.219  1.1845 -1.0997 -0.1155
 8150SOL    HW224976   5.782   7.276   6.195  0.1390 -0.3907  0.1685
 8151SOL     OW24977   4.597   3.149   6.842  0.5821 -0.3102  0.1702
 8151SOL    HW124978   4.560   3.105   6.918 -0.1977  1.2091  0.7122
 8151SOL    HW224979   4.532   3.139   6.774  0.9827 -1.0917 -0.1080
 8152SOL     OW24980   5.287   2.581   0.955  0.2816 -0.2496  0.0123
 8152SOL    HW124981   5.342   2.566   0.878 -0.5475 -1.0759 -0.4392
 8152SOL    HW224982   5.280   2.495   0.996  0.0162  0.0212  0.5398
 8153SOL     OW24983   2.751   2.088   5.544 -0.3053 -0.6142  0.2809
 8153SOL    HW124984   2.815   2.052   5.605 -1.5327 -2.5213  0.5452
 8153SOL    HW224985   2.713   2.163   5.590 -0.0128 -0.9934  1.1697
 8154SOL     OW24986   3.986   4.182   6.158  0.2230 -0.4279  0.1537
 8154SOL    HW124987   3.982   4.264   6.207  1.4078 -0.7764  0.8743
 8154SOL    HW224988   4.071   4.183   6.115 -0.5169 -0.4464 -1.3770
 8155SOL     OW24989   4.955   3.587   5.623  0.7152  0.3597 -0.0527
 8155SOL    HW124990   4.934   3.671   5.663  1.6926 -0.0316  1.3669
 8155SOL    HW224991   4.873   3.538   5.627 -0.0235  1.4112 -1.4370
 8156SOL     OW24992   3.245   2.951   0.175 -0.5403 -0.1175 -0.3731
 8156SOL    HW124993   3.258   2.961   0.269 -0.7521  0.8235 -0.4285
 8156SOL    HW224994   3.222   2.859   0.163  0.3763 -0.4593  0.3840
 8157SOL     OW24995   6.556   4.793   4.487 -0.0807 -0.0388 -0.0871
 8157SOL    HW124996   6.513   4.877   4.503 -0.8937 -0.8181  2.2136
 8157SOL    HW224997   6.623   4.812   4.421 -2.2130  1.7517 -1.8777
 8158SOL     OW24998   0.460   4.528   0.187  0.1539  0.0567  0.5998
 8158SOL    HW124999   0.414   4.599   0.232  0.8323 -1.3515  3.7469
 8158SOL    HW225000   0.393   4.462   0.170  0.0839  0.1784  0.3931
 8159SOL     OW25001   4.403   1.157   0.545 -0.1545  0.0131 -0.6413
 8159SOL    HW125002   4.397   1.098   0.471  0.0354  0.4315 -0.9947
 8159SOL    HW225003   4.315   1.196   0.553 -0.2604 -0.2628 -0.4505
 8160SOL     OW25004   0.528   6.208   1.154  0.7287  0.4892  0.2316
 8160SOL    HW125005   0.539   6.279   1.090  0.2158 -0.0076 -0.4074
 8160SOL    HW225006   0.549   6.128   1.106 -0.9256 -0.0262  0.2995
 8161SOL     OW25007   5.331   6.761   5.861  0.1778  0.1790  0.1954
 8161SOL    HW125008   5.421   6.733   5.846  0.1358 -0.4841  1.1330
 8161SOL    HW225009   5.279   6.703   5.805  0.3333  0.6409 -0.4370
 8162SOL     OW25010   2.650   3.047   3.411  0.5708  0.8073  0.1870
 8162SOL    HW125011   2.572   3.069   3.463  0.9115 -1.3873  1.7917
 8162SOL    HW225012   2.708   3.004   3.473  1.7556 -0.3938 -1.6545
 8163SOL     OW25013   7.077   0.251   4.179 -0.5034  0.6966 -0.0090
 8163SOL    HW125014   7.091   0.307   4.102 -1.1869 -2.1180 -2.3674
 8163SOL    HW225015   7.164   0.215   4.199 -0.5937  0.1876 -0.5190
 8164SOL     OW25016   1.942   4.559   6.721 -0.9302 -0.0376  0.5127
 8164SOL    HW125017   1.877   4.608   6.670  0.1874  1.5511  0.5339
 8164SOL    HW225018   1.993   4.511   6.656 -0.9163  0.2325  0.3220
 8165SOL     OW25019   1.843   1.020   1.759  0.4448  0.2927  0.3016
 8165SOL    HW125020   1.844   0.930   1.724  1.2441  0.3340  0.1931
 8165SOL    HW225021   1.852   1.008   1.854  0.4222  0.2533  0.2991
 8166SOL     OW25022   5.353   0.716   4.556 -0.3655  0.2409  0.0820
 8166SOL    HW125023   5.280   0.750   4.608 -0.9777  1.1127 -1.2808
 8166SOL    HW225024   5.408   0.793   4.541 -0.6075  0.1866 -1.1809
 8167SOL     OW25025   5.535   7.336   4.283  0.1844 -0.1849  0.0345
 8167SOL    HW125026   5.603   7.401   4.297 -0.7451  1.1013 -1.0699
 8167SOL    HW225027   5.577   7.268   4.231  1.3706 -0.8859  1.8231
 8168SOL     OW25028   4.159   0.687   2.583 -0.8307 -0.4636  0.1001
 8168SOL    HW125029   4.129   0.758   2.640  0.4908 -0.4860  0.8489
 8168SOL    HW225030   4.130   0.607   2.627 -1.1830 -0.4350 -0.0759
 8169SOL     OW25031   5.364   5.944   0.041 -0.3257  0.0287 -0.7903
 8169SOL    HW125032   5.398   5.855   0.055  0.7744  0.1170 -2.5178
 8169SOL    HW225033   5.349   5.979   0.129  1.5514 -1.0096 -0.0033
 8170SOL     OW25034   5.826   4.897   3.997 -0.0299  0.2860  0.5293
 8170SOL    HW125035   5.853   4.822   3.945 -2.2507  1.6333 -2.9515
 8170SOL    HW225036   5.732   4.885   4.009 -0.6859  2.8592 -1.1160
 8171SOL     OW25037   4.736   1.382   2.338  0.0653 -0.1253 -0.2372
 8171SOL    HW125038   4.757   1.474   2.357  1.0558 -0.3165 -0.3423
 8171SOL    HW225039   4.820   1.344   2.311  0.0692 -1.5247  1.5984
 8172SOL     OW25040   4.686   0.154   0.536  0.5024 -0.3572 -0.0400
 8172SOL    HW125041   4.731   0.192   0.460  0.5012  1.7849  0.9597
 8172SOL    HW225042   4.755   0.133   0.598  0.3761 -0.3980  0.0879
 8173SOL     OW25043   6.064   0.656   6.854  0.3594  0.3640  1.0336
 8173SOL    HW125044   6.145   0.655   6.803 -0.4726  0.6500 -0.3360
 8173SOL    HW225045   6.077   0.588   6.920  1.2230 -0.4681  0.0466
 8174SOL     OW25046   0.690   5.080   1.893  0.1017 -0.0528  0.0830
 8174SOL    HW125047   0.764   5.135   1.869  0.4230 -1.3001 -2.1374
 8174SOL    HW225048   0.729   5.005   1.938  0.2534 -0.7527 -1.1637
 8175SOL     OW25049   3.229   6.502   1.968 -0.2897  0.0412 -0.1200
 8175SOL    HW125050   3.153   6.474   2.019 -0.8088  0.6658 -0.5441
 8175SOL    HW225051   3.304   6.474   2.020 -0.7945 -1.1726 -0.0053
 8176SOL     OW25052   0.014   7.092   3.870  0.2235 -0.0284  0.1096
 8176SOL    HW125053   0.079   7.115   3.804  0.2372 -0.4213 -0.0188
 8176SOL    HW225054   0.056   7.112   3.954  1.3063 -2.1630  0.1352
 8177SOL     OW25055   2.110   6.837   1.404 -0.1855  0.2733 -0.2053
 8177SOL    HW125056   2.199   6.874   1.399 -0.5881  1.2139 -0.7442
 8177SOL    HW225057   2.117   6.752   1.361  0.4909  0.2621 -0.0955
 8178SOL     OW25058   1.312   1.090   4.928 -0.6061  0.1570  0.0262
 8178SOL    HW125059   1.289   0.998   4.936 -2.4214  0.5406 -0.1818
 8178SOL    HW225060   1.266   1.132   5.000  0.4148  0.8837  0.2774
 8179SOL     OW25061   3.751   0.148   5.716  0.6393  0.5760  0.0926
 8179SOL    HW125062   3.798   0.075   5.755 -1.0530  0.0495  1.2157
 8179SOL    HW225063   3.662   0.117   5.705  0.2525  1.9315 -0.9520
 8180SOL     OW25064   7.329   4.390   2.112 -0.7473 -0.1162 -0.1762
 8180SOL    HW125065   7.424   4.383   2.104 -0.8563 -1.4680 -0.5435
 8180SOL    HW225066   7.308   4.334   2.187 -1.0913  1.6693  1.1238
 8181SOL     OW25067   3.262   3.202   5.347 -0.1090 -0.2033  0.3240
 8181SOL    HW125068   3.175   3.199   5.386 -0.4145  1.8192 -0.0634
 8181SOL    HW225069   3.317   3.150   5.405 -1.9181 -3.2989 -0.5236
 8182SOL     OW25070   5.506   5.473   4.405  0.3934 -0.4529  0.2899
 8182SOL    HW125071   5.569   5.403   4.391 -0.4559 -1.2540  0.4071
 8182SOL    HW225072   5.422   5.429   4.415 -0.4527  0.6778 -1.3468
 8183SOL     OW25073   4.012   1.525   6.270  0.5208  0.0444  0.4567
 8183SOL    HW125074   4.065   1.450   6.243 -0.1306 -0.4075  0.4363
 8183SOL    HW225075   4.071   1.600   6.259  1.0061 -0.3945 -0.0102
 8184SOL     OW25076   4.991   3.415   4.733  0.2476  0.1788  0.2810
 8184SOL    HW125077   5.053   3.413   4.659 -2.2492  0.2776 -1.9537
 8184SOL    HW225078   4.980   3.323   4.758  1.4305  0.1798  0.8804
 8185SOL     OW25079   3.621   3.504   5.191 -0.1664 -0.3471  0.3138
 8185SOL    HW125080   3.627   3.599   5.202  0.2696 -0.5076  1.6411
 8185SOL    HW225081   3.528   3.485   5.204 -0.1040 -0.2043  0.9816
 8186SOL     OW25082   2.973   4.791   4.030  0.1854  0.1218 -0.5490
 8186SOL    HW125083   3.012   4.703   4.024  2.8872  1.2004 -0.4112
 8186SOL    HW225084   3.020   4.842   3.965  1.1207  2.2435  1.6337
 8187SOL     OW25085   6.304   3.153   0.662  0.0266 -0.4984  0.1574
 8187SOL    HW125086   6.374   3.142   0.598 -0.6005 -1.2347 -0.4248
 8187SOL    HW225087   6.274   3.064   0.680 -1.0176 -0.1704  0.1007
 8188SOL     OW25088   7.429   4.156   3.170 -0.0819  0.1938 -0.3869
 8188SOL    HW125089   7.387   4.136   3.087 -0.1422 -1.1758 -0.0539
 8188SOL    HW225090   7.383   4.234   3.202 -0.4210  0.4116 -1.3728
 8189SOL     OW25091   3.431   7.210   0.745 -0.1274 -0.0214 -0.5609
 8189SOL    HW125092   3.468   7.266   0.813  0.5425 -0.4664 -0.5404
 8189SOL    HW225093   3.499   7.143   0.730 -0.6399 -0.4486 -1.0285
 8190SOL     OW25094   0.380   0.358   0.364  0.0407  0.2854 -0.2689
 8190SOL    HW125095   0.450   0.399   0.313 -0.2822  1.0101 -0.1421
 8190SOL    HW225096   0.299   0.396   0.328 -0.2301  0.1814  0.2308
 8191SOL     OW25097   1.743   6.595   1.202  0.3810 -0.0971 -0.2627
 8191SOL    HW125098   1.759   6.688   1.191 -0.4883 -0.2643 -5.3216
 8191SOL    HW225099   1.657   6.580   1.162  0.1615 -2.9920  1.0029
 8192SOL     OW25100   0.614   3.158   0.482  0.0652 -0.6525 -0.9061
 8192SOL    HW125101   0.542   3.218   0.499 -0.2404 -1.6251  1.6364
 8192SOL    HW225102   0.590   3.114   0.400 -1.3794  0.2206 -0.9807
 8193SOL     OW25103   5.404   2.933   3.626 -0.3173  0.1505  0.0171
 8193SOL    HW125104   5.446   2.975   3.701 -0.4866  1.0121 -0.3560
 8193SOL    HW225105   5.416   2.995   3.554 -0.5420 -0.4681 -0.5596
 8194SOL     OW25106   1.887   5.833   6.370  0.4753 -0.2470  0.2677
 8194SOL    HW125107   1.975   5.806   6.344  0.6359  0.7074 -0.2261
 8194SOL    HW225108   1.869   5.783   6.449  1.2826 -0.7843  0.1233
 8195SOL     OW25109   5.867   4.834   3.093 -0.4076 -0.1553 -0.4341
 8195SOL    HW125110   5.788   4.787   3.122  0.1014 -0.6386  0.2010
 8195SOL    HW225111   5.939   4.783   3.130  0.1800  0.6549 -0.4585
 8196SOL     OW25112   4.454   2.657   2.958  0.4170  0.5874  0.3926
 8196SOL    HW125113   4.530   2.702   2.995 -0.8945  2.0498  1.4758
 8196SOL    HW225114   4.386   2.668   3.024 -0.4797 -1.5414 -0.0997
 8197SOL     OW25115   1.215   6.552   5.448 -0.3482  0.3863  0.1286
 8197SOL    HW125116   1.289   6.509   5.405  1.2684  1.1668  1.9697
 8197SOL    HW225117   1.255   6.620   5.502 -2.4279  0.9312  1.0894
 8198SOL     OW25118   1.168   2.703   0.851  0.1404  0.2467 -0.2792
 8198SOL    HW125119   1.102   2.758   0.893  0.0175 -1.6036  2.2447
 8198SOL    HW225120   1.245   2.712   0.907  0.5110 -1.1123 -0.5282
 8199SOL     OW25121   7.339   0.936   5.957  0.1918  0.5128 -0.7997
 8199SOL    HW125122   7.408   0.923   6.023 -2.1181  1.4237  1.9883
 8199SOL    HW225123   7.283   0.859   5.965 -0.2877  0.7729 -1.5485
 8200SOL     OW25124   5.768   3.166   0.543 -0.0939 -0.0675  0.3824
 8200SOL    HW125125   5.803   3.076   0.544  1.3427  0.4582  1.8231
 8200SOL    HW225126   5.803   3.204   0.463  0.4047 -0.3965  0.4370
 8201SOL     OW25127   4.219   2.935   0.803 -0.1482  0.3037 -0.2117
 8201SOL    HW125128   4.277   2.923   0.727  0.0983 -0.5007  0.0872
 8201SOL    HW225129   4.165   3.010   0.780  0.2232  0.3464 -1.0009
 8202SOL     OW25130   6.555   3.631   1.888 -0.4058  0.0872  0.4142
 8202SOL    HW125131   6.641   3.591   1.872  0.1232  0.4180  2.1639
 8202SOL    HW225132   6.574   3.724   1.897 -1.5803  0.8221 -3.3320
 8203SOL     OW25133   6.896   7.260   0.064 -0.3317  0.1787 -0.0782
 8203SOL    HW125134   6.977   7.305   0.087 -0.0708  0.0857 -0.7724
 8203SOL    HW225135   6.925   7.184   0.013 -0.8589  0.1740 -0.3801
 8204SOL     OW25136   4.972   4.168   7.005 -0.3085  0.1583 -0.0789
 8204SOL    HW125137   4.918   4.245   6.987  0.3100  0.1580 -2.2949
 8204SOL    HW225138   4.917   4.094   6.981  0.0200  0.0745 -0.6054
 8205SOL     OW25139   4.569   3.640   4.749  0.7894 -0.2808  0.6269
 8205SOL    HW125140   4.650   3.690   4.760  1.2843 -0.7869 -0.5421
 8205SOL    HW225141   4.583   3.589   4.669 -1.9159  2.0429 -1.5460
 8206SOL     OW25142   6.374   3.173   4.032 -0.0323 -0.2031 -0.5790
 8206SOL    HW125143   6.466   3.187   4.053 -0.1307 -0.3437 -0.0209
 8206SOL    HW225144   6.330   3.168   4.118 -1.0534  2.9219 -0.8031
 8207SOL     OW25145   5.102   0.303   2.284  0.6889 -0.2123  0.2569
 8207SOL    HW125146   5.131   0.214   2.263  0.5974 -0.4922  1.2706
 8207SOL    HW225147   5.115   0.311   2.379  0.9311  0.9428  0.1369
 8208SOL     OW25148   5.547   1.177   3.820  0.2708 -0.2241  0.2658
 8208SOL    HW125149   5.458   1.142   3.820 -0.4083  1.4217 -0.1455
 8208SOL    HW225150   5.561   1.206   3.910 -0.5607  1.7108 -0.1737
 8209SOL     OW25151   3.796   1.775   5.639  0.2083  0.7718 -0.0826
 8209SOL    HW125152   3.827   1.711   5.575 -1.9078  0.2893 -0.6735
 8209SOL    HW225153   3.790   1.857   5.590 -1.6884  0.3396 -0.6170
 8210SOL     OW25154   3.513   3.855   4.959 -0.2026  0.8718  0.1681
 8210SOL    HW125155   3.543   3.946   4.951  2.0127  0.4042  1.9963
 8210SOL    HW225156   3.529   3.833   5.051 -1.3763 -1.1684 -0.0695
 8211SOL     OW25157   2.095   7.050   0.441 -0.3620 -0.6326 -0.7303
 8211SOL    HW125158   2.006   7.016   0.432 -0.0321 -1.6879 -0.0950
 8211SOL    HW225159   2.093   7.134   0.394 -1.9383 -0.1772  0.0601
 8212SOL     OW25160   3.936   5.734   6.539  0.1669 -0.4409 -0.3875
 8212SOL    HW125161   3.898   5.770   6.619  0.0531 -0.7215 -0.3137
 8212SOL    HW225162   4.000   5.799   6.511 -1.1129  0.5379 -1.0962
 8213SOL     OW25163   2.534   0.770   7.514  0.2035 -0.2814 -0.0750
 8213SOL    HW125164   2.567   0.860   7.520 -2.2545  0.6627  0.6232
 8213SOL    HW225165   2.480   0.769   7.435 -1.2478 -0.5764  0.8875
 8214SOL     OW25166   0.186   1.079   2.464  0.0638  0.3470 -0.1414
 8214SOL    HW125167   0.270   1.122   2.480 -0.2785  0.6039  1.1290
 8214SOL    HW225168   0.133   1.145   2.419  0.4139  0.3276 -0.5791
 8215SOL     OW25169   5.935   7.132   6.801  0.1323 -0.7070  0.1733
 8215SOL    HW125170   5.874   7.119   6.873 -1.3782 -0.6929 -1.0300
 8215SOL    HW225171   5.976   7.217   6.819 -2.1861  0.5904 -0.2726
 8216SOL     OW25172   3.205   6.861   2.153 -0.4010  0.3317  0.2055
 8216SOL    HW125173   3.154   6.870   2.233 -1.6961 -2.9120 -0.1050
 8216SOL    HW225174   3.278   6.803   2.178  0.3423  0.9261 -0.5240
 8217SOL     OW25175   0.891   4.630   5.958  0.4559 -0.5427 -0.3561
 8217SOL    HW125176   0.802   4.619   5.925  0.9328  0.5538 -2.1495
 8217SOL    HW225177   0.880   4.652   6.051 -1.0748 -1.2850 -0.3271
 8218SOL     OW25178   2.444   6.391   7.455  0.9804  0.0306 -0.3805
 8218SOL    HW125179   2.489   6.333   7.516  3.9412  0.9380 -1.5185
 8218SOL    HW225180   2.444   6.476   7.498 -0.5594 -0.1204 -0.0242
 8219SOL     OW25181   4.210   2.397   4.146  0.1323 -0.5507  0.5364
 8219SOL    HW125182   4.187   2.370   4.057 -0.4201  0.9975  0.1808
 8219SOL    HW225183   4.130   2.384   4.196  0.2478 -0.7813  0.6652
 8220SOL     OW25184   6.525   1.733   7.150 -0.0532 -0.3099 -0.0735
 8220SOL    HW125185   6.477   1.684   7.084  1.1338  0.1238 -1.3019
 8220SOL    HW225186   6.609   1.753   7.109  0.1802  1.1922  1.0436
 8221SOL     OW25187   2.455   7.508   3.226  0.5877  0.4052  0.5217
 8221SOL    HW125188   2.389   7.563   3.268  0.2940  2.2013 -2.0251
 8221SOL    HW225189   2.404   7.444   3.175  0.7075  1.6395 -1.2540
 8222SOL     OW25190   0.185   0.334   5.475 -0.4323  0.0466  0.1594
 8222SOL    HW125191   0.190   0.320   5.380 -1.2853  0.7412 -0.0014
 8222SOL    HW225192   0.175   0.246   5.511 -0.0066 -0.2308 -0.3831
 8223SOL     OW25193   4.181   0.663   0.577 -0.0856 -0.6235 -0.2311
 8223SOL    HW125194   4.248   0.600   0.604  1.2373  0.7712 -0.1096
 8223SOL    HW225195   4.229   0.729   0.528 -1.6772 -0.4821 -1.6907
 8224SOL     OW25196   2.681   1.846   5.504  0.4649 -0.0602 -0.0083
 8224SOL    HW125197   2.650   1.836   5.414 -1.7419  1.2021  0.5569
 8224SOL    HW225198   2.703   1.939   5.512 -0.3032  0.0522  1.0127
 8225SOL     OW25199   2.519   2.897   6.126  0.5268 -0.1337  0.1399
 8225SOL    HW125200   2.533   2.829   6.059  1.1036 -0.1484  0.2660
 8225SOL    HW225201   2.456   2.957   6.087 -1.1658 -1.5304  0.6082
 8226SOL     OW25202   5.909   2.359   7.500  0.1435  0.0731  0.7403
 8226SOL    HW125203   5.938   2.277   7.459 -1.1766 -1.0211  1.9074
 8226SOL    HW225204   5.966   2.369   7.576  0.9919  0.8355  0.0396
 8227SOL     OW25205   0.973   7.146   3.282 -0.4677 -0.1833  0.5754
 8227SOL    HW125206   1.041   7.210   3.260 -0.5672  0.0330  0.8811
 8227SOL    HW225207   1.001   7.065   3.240 -0.6810  0.2278 -0.3977
 8228SOL     OW25208   2.616   5.593   5.693  0.5421  0.2169  0.8350
 8228SOL    HW125209   2.554   5.547   5.637 -0.2373  0.8784  1.1322
 8228SOL    HW225210   2.702   5.562   5.664  0.2231  1.1660 -1.3003
 8229SOL     OW25211   3.982   2.950   7.118 -0.5942  0.4149 -0.0048
 8229SOL    HW125212   3.989   3.004   7.197 -2.0242 -1.6089  1.6230
 8229SOL    HW225213   4.063   2.968   7.070 -0.4234  2.9867  1.0393
 8230SOL     OW25214   6.803   1.870   4.142  0.7586  0.2727  0.0688
 8230SOL    HW125215   6.787   1.838   4.053  0.7515  1.9599 -0.5665
 8230SOL    HW225216   6.883   1.824   4.169 -0.1281 -1.4963 -0.1382
 8231SOL     OW25217   5.773   0.108   5.295  0.1865 -0.1648 -0.5372
 8231SOL    HW125218   5.730   0.078   5.375  1.7350  2.0482  1.2494
 8231SOL    HW225219   5.746   0.199   5.286  3.3037  0.9021 -0.0923
 8232SOL     OW25220   4.982   5.295   5.453  0.3083 -0.2381  0.1608
 8232SOL    HW125221   5.031   5.226   5.409  0.7624 -0.2704  0.7014
 8232SOL    HW225222   5.050   5.352   5.491 -0.0651  0.0792  0.3588
 8233SOL     OW25223   3.652   2.726   6.631 -0.0393  0.0324 -0.0835
 8233SOL    HW125224   3.705   2.648   6.613  0.0785 -0.0717  0.6814
 8233SOL    HW225225   3.698   2.797   6.585  0.0811 -0.2733 -0.4408
 8234SOL     OW25226   2.945   4.580   3.441  0.0882  0.2332 -0.2041
 8234SOL    HW125227   2.981   4.558   3.527 -0.6760  0.4260  0.1756
 8234SOL    HW225228   2.881   4.511   3.423  1.2052 -0.5796 -1.2549
 8235SOL     OW25229   3.788   6.394   5.794 -0.5587 -0.2472 -0.3699
 8235SOL    HW125230   3.853   6.332   5.828  0.0682  0.8407  0.4950
 8235SOL    HW225231   3.708   6.371   5.840  0.5655  2.0404  3.0636
 8236SOL     OW25232   5.236   1.936   6.667 -0.4223  0.2264 -0.2752
 8236SOL    HW125233   5.325   1.940   6.632 -0.2069 -0.0549  0.2341
 8236SOL    HW225234   5.182   1.907   6.593 -0.0199 -0.0492 -0.4615
 8237SOL     OW25235   3.146   3.068   1.868  0.4269  0.1001 -0.3631
 8237SOL    HW125236   3.112   2.992   1.821  2.5842  0.0649 -1.9608
 8237SOL    HW225237   3.143   3.139   1.805  0.1293  0.9388  0.5658
 8238SOL     OW25238   5.548   0.397   6.300 -0.1905 -0.2602 -0.3125
 8238SOL    HW125239   5.625   0.451   6.317 -0.9178  1.1154 -1.2072
 8238SOL    HW225240   5.582   0.319   6.256  0.8845 -0.5951  1.0383
 8239SOL     OW25241   4.804   2.940   5.362  0.1614  0.0368 -0.1107
 8239SOL    HW125242   4.805   2.998   5.438  3.1065 -0.0616  0.0242
 8239SOL    HW225243   4.833   2.856   5.396  1.5486 -0.0010 -1.3219
 8240SOL     OW25244   4.203   3.310   0.221  0.3809  0.0595 -0.3585
 8240SOL    HW125245   4.232   3.391   0.262  2.5545 -0.7121 -0.2664
 8240SOL    HW225246   4.199   3.246   0.293  0.2010 -0.3077 -0.6892
 8241SOL     OW25247   5.758   1.720   5.689 -0.3046 -0.6070 -0.1000
 8241SOL    HW125248   5.750   1.715   5.784  0.3967 -0.9239 -0.0534
 8241SOL    HW225249   5.842   1.765   5.674 -0.3365 -0.6987 -0.5707
 8242SOL     OW25250   3.182   1.454   4.102  0.2897 -0.4847  0.0995
 8242SOL    HW125251   3.151   1.525   4.159  1.7178 -1.0482  1.6755
 8242SOL    HW225252   3.113   1.387   4.108 -0.9475  0.6200 -1.2014
 8243SOL     OW25253   2.053   5.227   4.182 -0.1976 -0.3126  0.4610
 8243SOL    HW125254   1.974   5.176   4.201  0.5501 -1.3718  0.7363
 8243SOL    HW225255   2.095   5.239   4.267  0.4199 -0.5387  0.1883
 8244SOL     OW25256   2.910   1.845   0.812  0.1765  0.5959  0.4721
 8244SOL    HW125257   2.994   1.870   0.772 -0.5192 -1.6874 -2.9042
 8244SOL    HW225258   2.932   1.773   0.871  0.8352  1.6584  1.5572
 8245SOL     OW25259   2.187   1.229   3.784 -0.0103  0.5616  0.4668
 8245SOL    HW125260   2.093   1.246   3.786 -0.2480 -0.4913 -0.7406
 8245SOL    HW225261   2.200   1.170   3.709  1.7532  1.5573 -0.0866
 8246SOL     OW25262   6.026   2.429   1.290  0.6509 -0.5319 -0.2134
 8246SOL    HW125263   5.966   2.355   1.299 -0.1315  0.1856  0.6260
 8246SOL    HW225264   6.037   2.462   1.379  0.0449  1.1045 -0.7128
 8247SOL     OW25265   5.506   4.917   3.679 -0.1543 -0.0946 -0.4575
 8247SOL    HW125266   5.562   4.840   3.678  2.2482  1.5386  0.5013
 8247SOL    HW225267   5.526   4.963   3.597 -1.9345 -0.6586 -1.2674
 8248SOL     OW25268   6.564   1.404   2.795 -0.8272 -0.2677 -0.7345
 8248SOL    HW125269   6.531   1.355   2.870 -0.5336 -0.4799 -0.7454
 8248SOL    HW225270   6.492   1.402   2.732 -1.1544  0.0934 -0.3799
 8249SOL     OW25271   2.890   2.860   4.933 -0.1839 -0.2910 -0.2687
 8249SOL    HW125272   2.804   2.885   4.901  0.1624  0.8399 -0.3779
 8249SOL    HW225273   2.929   2.811   4.860 -0.1368  0.6036 -0.8731
 8250SOL     OW25274   1.844   4.197   6.454  0.4077 -0.1448 -0.1690
 8250SOL    HW125275   1.787   4.173   6.527  0.4878 -0.6911 -0.2785
 8250SOL    HW225276   1.901   4.121   6.443  1.1665  0.3919 -0.0520
 8251SOL     OW25277   1.315   1.838   1.375  0.1736 -0.1233  0.2811
 8251SOL    HW125278   1.382   1.775   1.347 -0.2238 -0.7614  0.7596
 8251SOL    HW225279   1.361   1.896   1.435  0.1093 -1.0680  1.2666
 8252SOL     OW25280   4.107   1.223   1.124  0.2570 -0.7060 -0.0515
 8252SOL    HW125281   4.182   1.269   1.162  0.4682  0.2091 -1.5172
 8252SOL    HW225282   4.115   1.237   1.030 -1.8650 -0.4197 -0.2415
 8253SOL     OW25283   7.394   1.479   1.200 -0.4376  0.4048 -0.3206
 8253SOL    HW125284   7.378   1.446   1.112  3.2412  1.2734 -1.4836
 8253SOL    HW225285   7.402   1.400   1.254 -1.1141 -0.1938 -1.0695
 8254SOL     OW25286   1.009   1.680   4.447 -0.0266  0.1969 -0.1530
 8254SOL    HW125287   0.994   1.727   4.529 -2.3578 -0.9876  0.1891
 8254SOL    HW225288   1.025   1.748   4.382  0.8337  1.2084  1.0645
 8255SOL     OW25289   3.181   7.427   3.696 -0.3179 -0.0860 -0.1831
 8255SOL    HW125290   3.174   7.519   3.722  2.9987  0.3895 -0.5215
 8255SOL    HW225291   3.135   7.379   3.765 -1.6754  1.7624  0.2782
 8256SOL     OW25292   7.400   1.087   0.037  0.0455  0.1918  0.1571
 8256SOL    HW125293   7.467   1.099   0.104  0.1642 -1.0821  0.2795
 8256SOL    HW225294   7.410   0.996   0.008  0.8870  1.0411 -2.5455
 8257SOL     OW25295   2.504   3.215   2.633 -0.0383  0.0688  0.3327
 8257SOL    HW125296   2.565   3.146   2.660  0.0181  0.2450  0.6706
 8257SOL    HW225297   2.553   3.267   2.570  0.0061 -0.0492  0.2680
 8258SOL     OW25298   2.286   2.592   4.426 -0.5848 -0.4794 -0.4009
 8258SOL    HW125299   2.252   2.590   4.516 -1.2549 -0.0188 -0.6263
 8258SOL    HW225300   2.372   2.552   4.431 -0.7327 -0.7133  0.4000
 8259SOL     OW25301   0.297   1.741   1.256  0.4404 -0.0184 -0.3592
 8259SOL    HW125302   0.231   1.713   1.193  0.4014 -0.3942 -0.1531
 8259SOL    HW225303   0.296   1.837   1.251 -0.3933 -0.0063 -0.0770
 8260SOL     OW25304   4.358   1.059   1.218 -0.0010  0.1767 -0.6970
 8260SOL    HW125305   4.414   1.053   1.140  2.7883  0.9139  1.1038
 8260SOL    HW225306   4.400   1.126   1.272 -0.6779 -1.6871  2.3208
 8261SOL     OW25307   0.039   0.459   6.938  0.5442 -0.2734 -0.5431
 8261SOL    HW125308   0.117   0.477   6.885  2.7413 -1.1942  2.1284
 8261SOL    HW225309   0.063   0.383   6.991 -2.6773 -1.3640 -0.4273
 8262SOL     OW25310   2.641   0.155   7.365  0.4323  0.6856  0.3705
 8262SOL    HW125311   2.570   0.102   7.329  0.4140  0.0633  1.2830
 8262SOL    HW225312   2.717   0.134   7.312  0.1109  0.7978 -0.1445
 8263SOL     OW25313   1.975   3.956   6.536  0.2463 -0.0040  0.2088
 8263SOL    HW125314   2.057   3.935   6.492 -1.6359  0.8932 -4.2602
 8263SOL    HW225315   1.947   3.873   6.575  2.2735 -0.7784  0.1629
 8264SOL     OW25316   2.603   0.540   2.136 -0.1559 -0.3132 -0.0513
 8264SOL    HW125317   2.529   0.591   2.169 -2.3751 -2.0254 -2.0202
 8264SOL    HW225318   2.678   0.573   2.185 -2.0587  2.0471  1.5446
 8265SOL     OW25319   7.317   1.483   0.144 -0.5055  0.6260 -0.0564
 8265SOL    HW125320   7.275   1.559   0.102 -1.2779  1.3290  1.9030
 8265SOL    HW225321   7.408   1.488   0.115 -1.2280  0.3570 -2.6086
 8266SOL     OW25322   4.795   6.296   2.021  0.0865 -0.5594 -0.0112
 8266SOL    HW125323   4.837   6.346   1.951  0.1281 -0.5600  0.0131
 8266SOL    HW225324   4.799   6.353   2.097 -0.9519 -0.1044 -0.2847
 8267SOL     OW25325   6.028   0.349   6.644  0.8523 -0.0272 -0.2787
 8267SOL    HW125326   5.995   0.437   6.665 -0.3468 -0.1357 -1.5309
 8267SOL    HW225327   5.992   0.293   6.712  1.1393  0.3665  0.1977
 8268SOL     OW25328   0.509   6.660   6.606 -0.6291  0.4252 -0.2966
 8268SOL    HW125329   0.524   6.664   6.512  0.5642  0.4924 -0.1200
 8268SOL    HW225330   0.595   6.644   6.644 -1.0903  0.3757  0.7885
 8269SOL     OW25331   1.012   2.614   5.693 -0.3082 -0.1464  0.0541
 8269SOL    HW125332   1.098   2.638   5.659 -0.6481  0.6231 -0.2871
 8269SOL    HW225333   0.968   2.697   5.710 -1.6575 -0.4785 -1.4945
 8270SOL     OW25334   2.125   2.679   1.040  0.0479  0.0769 -0.1418
 8270SOL    HW125335   2.136   2.768   1.074  1.3388 -0.1459  0.0842
 8270SOL    HW225336   2.059   2.639   1.097 -0.1862  0.7397  0.0544
 8271SOL     OW25337   5.074   5.541   0.093 -0.4595  0.0271 -0.1203
 8271SOL    HW125338   5.079   5.467   0.033 -1.2982 -0.0168 -0.1581
 8271SOL    HW225339   5.047   5.503   0.176  0.2044  0.1525  0.1574
 8272SOL     OW25340   0.241   3.322   4.029  0.6546  0.0294  0.0743
 8272SOL    HW125341   0.266   3.308   3.938  1.0829 -1.8558  0.4427
 8272SOL    HW225342   0.159   3.372   4.025  1.2924  1.0183 -1.2851
 8273SOL     OW25343   6.848   6.105   4.286  0.4084 -0.2765 -0.0856
 8273SOL    HW125344   6.836   6.199   4.298  1.0143 -0.3417  1.1169
 8273SOL    HW225345   6.938   6.096   4.253  0.3641 -0.4412 -0.1646
 8274SOL     OW25346   0.206   5.933   5.730 -0.2711 -0.1483 -0.0978
 8274SOL    HW125347   0.167   5.964   5.648 -0.9108 -0.7164 -0.0198
 8274SOL    HW225348   0.300   5.927   5.712 -0.2946  0.5915 -0.5058
 8275SOL     OW25349   2.457   7.481   4.372 -0.3492  0.4739 -0.4924
 8275SOL    HW125350   2.398   7.535   4.425 -1.2341 -1.1785  0.2874
 8275SOL    HW225351   2.408   7.400   4.357  0.6684  0.1289 -2.1940
 8276SOL     OW25352   3.286   3.578   1.124 -0.2090  0.0986 -0.6447
 8276SOL    HW125353   3.216   3.582   1.189 -0.1550 -0.0565 -0.5758
 8276SOL    HW225354   3.335   3.659   1.136 -1.7047  1.2789 -2.2006
 8277SOL     OW25355   4.994   1.013   5.389 -0.2921 -0.0909 -0.8243
 8277SOL    HW125356   4.926   0.955   5.353 -0.3346 -0.3769 -0.3099
 8277SOL    HW225357   5.067   0.954   5.409 -0.7528 -0.1726  0.7546
 8278SOL     OW25358   3.958   2.749   4.635  0.1628  0.2305 -0.5773
 8278SOL    HW125359   3.954   2.837   4.672 -0.0917  0.7145 -1.6907
 8278SOL    HW225360   3.978   2.763   4.542 -2.3310 -0.7214 -1.3492
 8279SOL     OW25361   5.422   0.162   3.528 -0.0039 -0.1181  0.4301
 8279SOL    HW125362   5.415   0.115   3.611  1.1614 -1.4559 -0.1855
 8279SOL    HW225363   5.333   0.196   3.511 -0.0442  1.0705  2.6771
 8280SOL     OW25364   0.519   2.406   4.552  0.2673  0.0475  0.3411
 8280SOL    HW125365   0.548   2.472   4.615  0.7228  0.3461 -0.1808
 8280SOL    HW225366   0.453   2.450   4.500 -0.0230 -0.1651  0.5210
 8281SOL     OW25367   5.563   1.472   4.524 -0.3918  0.0710 -0.2872
 8281SOL    HW125368   5.501   1.445   4.592 -1.5370  0.8216 -1.0062
 8281SOL    HW225369   5.639   1.504   4.573 -0.1027 -1.8313  0.6095
 8282SOL     OW25370   3.396   3.161   1.664 -0.2279  0.1937  0.2561
 8282SOL    HW125371   3.473   3.122   1.623 -0.7576 -0.9376  0.3198
 8282SOL    HW225372   3.344   3.195   1.591 -0.1842  0.0165  0.1434
 8283SOL     OW25373   1.336   4.582   3.159 -0.0404 -0.8058  0.0762
 8283SOL    HW125374   1.410   4.607   3.103 -1.0093  0.4506 -0.7076
 8283SOL    HW225375   1.323   4.489   3.142  3.2330 -1.9056  2.5020
 8284SOL     OW25376   3.295   5.992   5.760  0.3151  0.2821  0.3359
 8284SOL    HW125377   3.317   5.981   5.668  2.2767  1.6899  0.5681
 8284SOL    HW225378   3.325   5.911   5.801 -3.1528 -1.6304 -0.5489
 8285SOL     OW25379   4.325   0.582   3.248 -0.0247 -0.1405 -0.6209
 8285SOL    HW125380   4.363   0.577   3.160  1.4850  0.0007 -0.0087
 8285SOL    HW225381   4.284   0.496   3.260  0.2534 -0.3748 -1.2537
 8286SOL     OW25382   1.629   5.535   1.251 -0.0981  0.2293 -0.1280
 8286SOL    HW125383   1.586   5.614   1.284  0.9558  0.4584  0.7315
 8286SOL    HW225384   1.711   5.530   1.299 -0.1888 -1.4611 -0.0810
 8287SOL     OW25385   6.754   1.937   5.582  0.1329 -0.7200 -0.3254
 8287SOL    HW125386   6.746   1.863   5.642  0.2454  0.3557  1.0865
 8287SOL    HW225387   6.826   1.989   5.619 -1.7326  1.5220  0.3727
 8288SOL     OW25388   1.475   4.021   2.759 -0.6741 -0.0482  0.2605
 8288SOL    HW125389   1.549   3.987   2.809 -0.9305 -0.1663  0.5626
 8288SOL    HW225390   1.441   3.944   2.712  0.3340  0.3007 -1.0866
 8289SOL     OW25391   5.153   5.317   7.472 -0.0899 -0.6418  0.2548
 8289SOL    HW125392   5.065   5.307   7.436 -0.0033 -1.3468  0.2211
 8289SOL    HW225393   5.191   5.229   7.467  0.4367 -0.4479  0.7318
 8290SOL     OW25394   0.506   1.502   5.917 -0.4753 -0.6654  0.0605
 8290SOL    HW125395   0.517   1.584   5.965  1.4443 -0.1506 -1.1431
 8290SOL    HW225396   0.428   1.517   5.863  0.6771  0.9907 -1.2365
 8291SOL     OW25397   3.600   1.413   5.630 -0.2312 -0.0692 -0.6118
 8291SOL    HW125398   3.510   1.435   5.605 -0.1581  1.6238  0.4559
 8291SOL    HW225399   3.600   1.417   5.725  0.8937 -0.3808 -0.5878
 8292SOL     OW25400   6.546   6.121   6.217 -0.2955  0.0838 -0.2420
 8292SOL    HW125401   6.509   6.142   6.303  0.7921  1.7520 -0.1322
 8292SOL    HW225402   6.604   6.194   6.198  2.1142 -1.8740 -0.8773
 8293SOL     OW25403   1.915   2.746   3.675 -0.3324 -0.1690  0.3806
 8293SOL    HW125404   2.000   2.706   3.656  0.0057  0.3071  0.8434
 8293SOL    HW225405   1.937   2.836   3.700 -0.9746 -0.0458  0.5129
 8294SOL     OW25406   3.346   2.461   2.646 -0.9704 -0.2442  0.3148
 8294SOL    HW125407   3.347   2.452   2.551  2.6712 -0.1404  0.2264
 8294SOL    HW225408   3.329   2.372   2.678 -3.6052 -0.0570 -0.3060
 8295SOL     OW25409   2.906   3.015   0.900 -0.2898 -0.9188 -0.2580
 8295SOL    HW125410   2.818   3.048   0.883  0.1083  0.2875 -0.0449
 8295SOL    HW225411   2.919   3.028   0.994 -0.9163 -3.7199  0.3216
 8296SOL     OW25412   4.258   1.876   0.194  0.4840  0.1523 -0.3691
 8296SOL    HW125413   4.271   1.967   0.166 -1.2091  0.2929 -0.7963
 8296SOL    HW225414   4.227   1.831   0.116  0.3937 -0.5685  0.0764
 8297SOL     OW25415   0.779   2.166   0.365  0.1299  0.2482 -0.3372
 8297SOL    HW125416   0.714   2.117   0.315 -1.3471  0.4072  1.3563
 8297SOL    HW225417   0.729   2.215   0.429  1.9255  0.3151  1.0989
 8298SOL     OW25418   5.640   3.292   2.823 -0.1355  0.3787 -0.2887
 8298SOL    HW125419   5.672   3.370   2.868  2.6927  0.2250 -1.8323
 8298SOL    HW225420   5.686   3.219   2.863  1.1336  0.0685 -2.1665
 8299SOL     OW25421   0.415   2.312   0.835 -0.6231 -0.2037  0.9060
 8299SOL    HW125422   0.432   2.369   0.760 -3.3331  1.0683  1.1230
 8299SOL    HW225423   0.494   2.259   0.844  1.1108  1.9314 -0.7400
 8300SOL     OW25424   6.983   6.896   3.410 -0.0184  0.0087 -0.3909
 8300SOL    HW125425   6.919   6.857   3.470 -0.1416 -1.6338 -1.5162
 8300SOL    HW225426   7.029   6.961   3.463  0.5665 -2.0530  1.8219
 8301SOL     OW25427   3.670   7.393   4.289  0.2476 -0.1640  0.5898
 8301SOL    HW125428   3.697   7.378   4.199  1.7332 -0.8071  1.1064
 8301SOL    HW225429   3.620   7.314   4.312  1.5949 -0.9691  0.9205
 8302SOL     OW25430   1.556   5.081   2.881 -0.0966 -0.0457  0.4979
 8302SOL    HW125431   1.586   5.003   2.836 -1.3808  0.2352 -0.9547
 8302SOL    HW225432   1.537   5.052   2.971  1.4845 -0.8731  0.5897
 8303SOL     OW25433   1.121   1.926   1.227  0.1588  0.1456 -0.2582
 8303SOL    HW125434   1.175   1.915   1.305  0.7555 -3.0555 -0.9802
 8303SOL    HW225435   1.031   1.932   1.260  0.4184 -1.0055  0.7111
 8304SOL     OW25436   3.955   7.173   5.663  1.0305 -0.0180  0.1260
 8304SOL    HW125437   3.981   7.113   5.594  2.8617  0.4411  0.3565
 8304SOL    HW225438   3.952   7.259   5.620  4.2735  0.6455  0.8995
 8305SOL     OW25439   6.455   7.389   5.111 -0.5236  0.1562  0.9218
 8305SOL    HW125440   6.531   7.422   5.064 -1.4728  0.0238 -0.8017
 8305SOL    HW225441   6.479   7.395   5.203  1.0766  1.2816  0.4739
 8306SOL     OW25442   6.484   6.511   3.501 -0.1102  0.2340  0.0593
 8306SOL    HW125443   6.573   6.548   3.506 -0.1880  0.5745 -0.8966
 8306SOL    HW225444   6.433   6.566   3.560 -0.1065  1.3528 -0.9403
 8307SOL     OW25445   6.045   6.166   6.256  0.4082 -0.2825 -0.0565
 8307SOL    HW125446   6.109   6.237   6.260  0.4228 -0.3540  1.2196
 8307SOL    HW225447   6.073   6.103   6.322 -1.9713  0.5640  1.9260
 8308SOL     OW25448   1.457   6.311   1.356  0.0782 -0.3721  0.0590
 8308SOL    HW125449   1.462   6.295   1.451  1.4546 -1.6580 -0.1872
 8308SOL    HW225450   1.375   6.358   1.344  0.2164  0.4624  1.9724
 8309SOL     OW25451   6.778   7.501   0.293  0.0309  0.0722 -0.2179
 8309SOL    HW125452   6.740   7.490   0.206  0.8896 -3.1438 -0.3065
 8309SOL    HW225453   6.702   7.514   0.350 -0.8574 -1.3500 -1.0167
 8310SOL     OW25454   7.131   6.874   0.562 -0.2413 -0.7711  0.3816
 8310SOL    HW125455   7.056   6.930   0.541 -0.0912 -0.5757  0.3690
 8310SOL    HW225456   7.114   6.792   0.515  1.1665  0.3993 -2.3409
 8311SOL     OW25457   0.010   2.952   3.617 -0.6773  0.1969 -0.0471
 8311SOL    HW125458   0.030   2.945   3.524 -0.3648 -0.8311  0.0803
 8311SOL    HW225459   0.095   2.954   3.661 -0.8024 -1.1279  0.3069
 8312SOL     OW25460   0.474   4.914   0.622 -0.4622 -0.0993  0.4618
 8312SOL    HW125461   0.401   4.908   0.684  0.5179 -0.0638  1.6676
 8312SOL    HW225462   0.434   4.943   0.540 -1.9071 -0.8360  0.8685
 8313SOL     OW25463   7.517   1.413   3.898 -0.1238  0.3208 -0.3715
 8313SOL    HW125464   7.476   1.445   3.978  0.4121  0.5080 -0.1647
 8313SOL    HW225465   7.465   1.450   3.827 -1.3502 -0.8365 -0.1176
 8314SOL     OW25466   2.288   4.462   0.842  0.2338 -0.0104  0.0845
 8314SOL    HW125467   2.259   4.371   0.842 -1.7202  0.5696  0.8736
 8314SOL    HW225468   2.237   4.504   0.772  0.3208  0.7006  0.4322
 8315SOL     OW25469   6.216   2.375   6.686  0.0170 -0.2027 -0.3823
 8315SOL    HW125470   6.231   2.303   6.624  2.0314  0.9826 -1.4134
 8315SOL    HW225471   6.179   2.445   6.633 -2.5130 -0.6089  0.7333
 8316SOL     OW25472   3.556   0.702   5.440  0.0838  0.1553 -0.3891
 8316SOL    HW125473   3.623   0.642   5.408 -0.1324 -0.7646  0.8103
 8316SOL    HW225474   3.473   0.656   5.425 -0.2882  1.1963 -1.6742
 8317SOL     OW25475   0.972   2.197   7.066 -0.5880 -0.1697  0.0459
 8317SOL    HW125476   0.916   2.258   7.019  0.3054  0.5907 -0.0684
 8317SOL    HW225477   1.061   2.219   7.038 -0.2576 -1.7333 -0.2214
 8318SOL     OW25478   4.187   1.027   5.320 -0.3621  0.4309  0.2871
 8318SOL    HW125479   4.093   1.015   5.332 -0.2285 -0.5279  0.4023
 8318SOL    HW225480   4.225   0.943   5.342  0.6513  1.1963  1.5618
 8319SOL     OW25481   7.372   3.522   6.533 -0.4067  0.2425 -0.4720
 8319SOL    HW125482   7.320   3.461   6.480  0.3456 -0.1151 -0.8111
 8319SOL    HW225483   7.369   3.604   6.485 -1.6486  0.5654  0.1216
 8320SOL     OW25484   5.351   5.325   0.236 -0.2284  0.4760  0.0554
 8320SOL    HW125485   5.351   5.396   0.300  0.8690  0.9904 -0.4859
 8320SOL    HW225486   5.258   5.311   0.216 -0.4442  2.9750 -1.1330
 8321SOL     OW25487   4.067   4.972   6.449 -0.5114  0.1219  0.7490
 8321SOL    HW125488   4.031   4.907   6.510  1.2664 -2.2774 -0.5683
 8321SOL    HW225489   4.011   4.965   6.372  0.4300 -0.8635  0.1222
 8322SOL     OW25490   3.450   4.173   3.117  0.6230  0.2379 -0.1349
 8322SOL    HW125491   3.436   4.109   3.048 -0.4528  1.6384 -1.2780
 8322SOL    HW225492   3.363   4.188   3.155  1.1926 -0.5339  1.6006
 8323SOL     OW25493   2.134   3.866   3.474 -0.2111  0.1205 -0.1982
 8323SOL    HW125494   2.152   3.938   3.534 -0.1515 -0.0358 -0.0295
 8323SOL    HW225495   2.131   3.908   3.388  0.3086  0.2530 -0.1578
 8324SOL     OW25496   1.225   2.677   2.781  0.5219 -0.8221  0.5635
 8324SOL    HW125497   1.181   2.754   2.817  4.3396  0.6942  2.6238
 8324SOL    HW225498   1.210   2.682   2.687 -0.3147  1.7995  0.7488
 8325SOL     OW25499   5.142   5.973   1.493 -0.3911  0.1743  0.5487
 8325SOL    HW125500   5.133   6.009   1.581 -0.8549  1.0332  0.1635
 8325SOL    HW225501   5.193   5.893   1.504  1.1812  1.2419  1.3765
 8326SOL     OW25502   6.853   0.173   5.923 -0.0849 -0.5540  0.4266
 8326SOL    HW125503   6.856   0.245   5.860  1.5262 -0.6557  0.3403
 8326SOL    HW225504   6.945   0.152   5.940 -0.5100 -1.7918  1.3768
 8327SOL     OW25505   4.088   5.364   0.390  0.5020 -0.2536 -0.2310
 8327SOL    HW125506   4.012   5.344   0.337  0.3245  0.9611 -0.4677
 8327SOL    HW225507   4.067   5.447   0.433  0.5320 -1.2915  1.9619
 8328SOL     OW25508   5.970   2.454   2.755 -0.2995  0.0864  0.0022
 8328SOL    HW125509   5.884   2.464   2.795  0.2968 -1.2655  1.7670
 8328SOL    HW225510   5.983   2.535   2.704 -3.3099 -0.4361 -1.8260
 8329SOL     OW25511   7.278   6.661   2.605  0.1254 -0.0003  0.0368
 8329SOL    HW125512   7.313   6.736   2.653  1.1090 -0.1233 -0.4507
 8329SOL    HW225513   7.347   6.595   2.611  0.3025 -0.0071 -1.5621
 8330SOL     OW25514   4.509   0.711   5.060 -0.2201 -0.3571  0.5393
 8330SOL    HW125515   4.453   0.772   5.014  2.8765 -0.2800 -3.6927
 8330SOL    HW225516   4.581   0.764   5.093  1.9580 -1.3159 -2.2574
 8331SOL     OW25517   6.903   0.221   0.238 -0.2207 -0.8898 -0.2917
 8331SOL    HW125518   6.904   0.157   0.309 -2.7039 -2.9044 -1.8884
 8331SOL    HW225519   6.974   0.194   0.180  1.4184  0.3991  1.0153
 8332SOL     OW25520   6.109   0.255   2.053 -0.3011  0.3179 -0.8042
 8332SOL    HW125521   6.169   0.256   2.128 -0.6709 -1.0282 -0.4482
 8332SOL    HW225522   6.141   0.323   1.995  1.6151 -0.3852 -0.6422
 8333SOL     OW25523   3.113   0.623   1.501 -0.1694  0.6483 -0.2881
 8333SOL    HW125524   3.068   0.616   1.585  0.9821 -0.0426  0.2954
 8333SOL    HW225525   3.176   0.695   1.513  0.3668  0.2031 -0.3646
 8334SOL     OW25526   4.056   5.734   1.567 -0.3248  0.4006 -0.0328
 8334SOL    HW125527   4.045   5.817   1.613 -1.3534  1.3900 -1.9601
 8334SOL    HW225528   3.968   5.696   1.563 -0.0976 -0.1033 -0.3942
 8335SOL     OW25529   0.866   2.528   2.263  0.0085 -0.0321 -0.4808
 8335SOL    HW125530   0.797   2.525   2.329 -1.3164 -0.3854 -1.8347
 8335SOL    HW225531   0.893   2.620   2.262  1.7361 -0.3950  2.1474
 8336SOL     OW25532   0.366   4.143   1.273 -0.2142  0.1084 -0.3570
 8336SOL    HW125533   0.349   4.049   1.269 -0.3987  0.1266 -0.0490
 8336SOL    HW225534   0.410   4.163   1.190  1.3268 -0.5429  0.2632
 8337SOL     OW25535   1.567   3.735   4.372  0.1371  0.0688 -0.4817
 8337SOL    HW125536   1.522   3.810   4.334  1.2420  0.5733 -0.8121
 8337SOL    HW225537   1.496   3.683   4.411 -0.4774  2.4067  1.7812
 8338SOL     OW25538   2.569   5.412   3.268  0.1274 -0.1340  0.1423
 8338SOL    HW125539   2.525   5.441   3.188  1.7697 -0.3610 -0.8969
 8338SOL    HW225540   2.577   5.491   3.321 -1.2192 -0.0289  0.2220
 8339SOL     OW25541   2.864   6.498   2.421 -0.5993 -0.0670  0.2671
 8339SOL    HW125542   2.880   6.410   2.388 -1.4133 -1.1003  2.4577
 8339SOL    HW225543   2.769   6.505   2.428 -0.5077  0.6587  0.9700
 8340SOL     OW25544   1.888   2.912   2.387  0.4497  0.0118 -0.4037
 8340SOL    HW125545   1.869   2.824   2.356 -1.4475  0.7017 -1.3699
 8340SOL    HW225546   1.897   2.964   2.307  1.3054  0.7542  0.1533
 8341SOL     OW25547   1.106   2.261   4.211  0.0135  0.1238  0.1769
 8341SOL    HW125548   1.149   2.213   4.282 -0.3207 -0.7161 -0.1797
 8341SOL    HW225549   1.047   2.198   4.172  0.9345  0.2511 -1.5152
 8342SOL     OW25550   2.592   6.431   4.003 -0.1627 -0.5169  0.6043
 8342SOL    HW125551   2.676   6.385   3.999 -0.6826 -1.5715  1.2404
 8342SOL    HW225552   2.533   6.378   3.949 -0.6838 -0.4036  1.0504
 8343SOL     OW25553   4.773   6.992   2.981 -0.0615 -0.4593  0.5266
 8343SOL    HW125554   4.843   7.057   2.979  1.0652 -1.6269  0.7350
 8343SOL    HW225555   4.810   6.916   2.936 -1.6073 -0.7250 -0.3637
 8344SOL     OW25556   2.989   3.499   5.493  0.4457  0.0973  0.1360
 8344SOL    HW125557   3.054   3.429   5.484  0.2879 -0.0675  0.2695
 8344SOL    HW225558   2.972   3.503   5.587 -0.8090 -0.8540 -0.0282
 8345SOL     OW25559   6.778   3.590   1.244  0.1197 -0.6358 -0.2902
 8345SOL    HW125560   6.816   3.531   1.178 -0.6316 -1.2315 -0.2073
 8345SOL    HW225561   6.688   3.603   1.214  0.1123  0.0273  0.0047
 8346SOL     OW25562   2.708   0.522   1.867 -0.1042  0.4035  0.4598
 8346SOL    HW125563   2.741   0.434   1.851  3.0293  1.5620 -0.3016
 8346SOL    HW225564   2.678   0.521   1.958  3.1964 -0.6566  1.6767
 8347SOL     OW25565   4.477   2.812   4.118 -0.0214 -0.4125  0.6326
 8347SOL    HW125566   4.420   2.889   4.122  1.5643  1.0647 -1.9854
 8347SOL    HW225567   4.430   2.750   4.062 -1.0363 -1.1657  2.2601
 8348SOL     OW25568   5.228   1.252   5.774  0.4462  0.0548  0.6242
 8348SOL    HW125569   5.309   1.233   5.821  0.3375 -0.1603  0.7275
 8348SOL    HW225570   5.204   1.168   5.733  1.0234  0.4413 -0.5703
 8349SOL     OW25571   6.736   4.994   6.872  0.1856 -0.1064  0.6169
 8349SOL    HW125572   6.767   4.962   6.957  0.7298  0.5567  0.6759
 8349SOL    HW225573   6.767   4.928   6.809 -0.2983 -0.6470  0.9339
 8350SOL     OW25574   0.253   6.980   1.222  0.3923  0.3051  0.2800
 8350SOL    HW125575   0.276   7.036   1.297 -0.4368 -0.3992  1.0720
 8350SOL    HW225576   0.286   6.894   1.246 -0.2485 -0.0141  0.0122
 8351SOL     OW25577   0.951   2.490   4.294  0.2151  0.4786 -0.2735
 8351SOL    HW125578   1.008   2.423   4.254 -1.2582 -0.6085 -0.6276
 8351SOL    HW225579   0.940   2.460   4.384 -1.2866 -0.3756 -0.7079
 8352SOL     OW25580   1.211   5.604   5.575 -0.2973  0.4111  0.7590
 8352SOL    HW125581   1.300   5.627   5.549 -0.6014  1.0100  0.2326
 8352SOL    HW225582   1.208   5.509   5.567  0.1043  0.4461  0.1660
 8353SOL     OW25583   1.022   1.466   5.277 -0.3115  0.1375 -0.5061
 8353SOL    HW125584   1.047   1.558   5.267  1.5275 -0.4140 -1.6840
 8353SOL    HW225585   0.940   1.458   5.228 -0.5754  1.1760 -0.2574
 8354SOL     OW25586   2.946   2.612   3.824 -0.3546 -0.1534  0.5081
 8354SOL    HW125587   2.913   2.657   3.747  1.1097  1.6288  0.8595
 8354SOL    HW225588   2.972   2.682   3.884 -1.0455 -1.4758  2.4749
 8355SOL     OW25589   2.381   5.851   7.289  0.5716  0.6567 -0.0283
 8355SOL    HW125590   2.388   5.906   7.211  0.1628 -0.4435 -0.8599
 8355SOL    HW225591   2.287   5.836   7.299  0.4862  1.9477  1.5325
 8356SOL     OW25592   3.795   4.203   3.983 -0.3391  0.2600  0.1075
 8356SOL    HW125593   3.884   4.174   3.964 -0.1500  0.8235  0.0936
 8356SOL    HW225594   3.742   4.124   3.980 -0.1901  0.1853 -1.9286
 8357SOL     OW25595   4.803   5.993   3.789  0.0961 -0.2850  0.8360
 8357SOL    HW125596   4.840   5.906   3.802  0.4450 -0.3369 -0.3627
 8357SOL    HW225597   4.731   5.981   3.728  1.9088  0.5790 -1.6351
 8358SOL     OW25598   2.238   0.866   6.827 -0.2216 -0.2455 -0.2632
 8358SOL    HW125599   2.175   0.803   6.862  0.2096  0.0507  1.1404
 8358SOL    HW225600   2.321   0.843   6.870  0.4412 -0.1094 -1.4363
 8359SOL     OW25601   4.258   4.239   4.967 -0.2093  0.0481  0.2875
 8359SOL    HW125602   4.211   4.174   4.916  0.6134  0.3339 -0.8681
 8359SOL    HW225603   4.324   4.189   5.015  0.1230 -0.0212 -0.2437
 8360SOL     OW25604   0.187   2.197   5.506 -0.2470  0.1750 -0.4110
 8360SOL    HW125605   0.105   2.206   5.553 -1.0135 -0.9001 -1.4809
 8360SOL    HW225606   0.162   2.187   5.414  1.0606 -0.2969 -0.7500
 8361SOL     OW25607   2.576   0.583   2.572 -0.1228  0.2734 -0.0707
 8361SOL    HW125608   2.662   0.540   2.576 -0.2327 -0.0062 -0.6227
 8361SOL    HW225609   2.527   0.545   2.645  0.1209  0.2087  0.0604
 8362SOL     OW25610   6.064   6.965   0.547  0.0836 -0.0532 -0.3995
 8362SOL    HW125611   6.033   6.911   0.474 -1.3401  0.4413 -0.1830
 8362SOL    HW225612   6.158   6.975   0.531 -0.1171 -0.3659 -1.8977
 8363SOL     OW25613   3.357   1.258   6.009  0.1342  0.1904 -0.2773
 8363SOL    HW125614   3.415   1.233   6.081 -0.1689 -0.7400 -0.3426
 8363SOL    HW225615   3.378   1.197   5.939  0.2515  0.9328 -0.9004
 8364SOL     OW25616   1.104   4.269   7.132  0.4792  0.2191 -0.2078
 8364SOL    HW125617   1.173   4.202   7.134 -0.5048 -0.8414 -0.5904
 8364SOL    HW225618   1.122   4.324   7.208  2.1604  0.4209 -0.7026
 8365SOL     OW25619   1.680   7.376   4.913 -0.4324 -0.0711  0.0043
 8365SOL    HW125620   1.691   7.301   4.972  0.5098 -0.7850 -1.0589
 8365SOL    HW225621   1.752   7.369   4.851  0.0270  2.0619  0.2246
 8366SOL     OW25622   6.526   0.363   4.977 -0.6732 -0.2919  0.3198
 8366SOL    HW125623   6.472   0.344   5.053 -0.7061 -0.1794  0.3248
 8366SOL    HW225624   6.616   0.365   5.010 -0.8706  2.5828  0.9281
 8367SOL     OW25625   0.482   0.497   7.044  0.0710  0.1611 -0.0896
 8367SOL    HW125626   0.567   0.460   7.019  0.5904  0.9147  0.4908
 8367SOL    HW225627   0.505   0.580   7.088 -1.0689  1.6341 -2.0992
 8368SOL     OW25628   0.339   3.918   4.043  0.0626  0.1059  0.0568
 8368SOL    HW125629   0.409   3.923   3.977 -0.4314 -0.2904 -0.5106
 8368SOL    HW225630   0.281   3.849   4.011 -1.3082  1.3186 -0.1929
 8369SOL     OW25631   3.601   6.010   2.532  0.3666 -0.1202 -0.1290
 8369SOL    HW125632   3.646   6.077   2.482  0.9463 -1.2010 -1.0954
 8369SOL    HW225633   3.668   5.944   2.551 -0.5343 -1.2119 -0.6272
 8370SOL     OW25634   6.308   0.800   4.082  0.2033 -0.4345 -0.2303
 8370SOL    HW125635   6.330   0.719   4.035  1.9099  0.4289 -1.0122
 8370SOL    HW225636   6.393   0.840   4.102 -0.5771  0.4630  1.4205
 8371SOL     OW25637   2.940   5.319   2.385 -0.0070  0.1469  0.1049
 8371SOL    HW125638   2.956   5.414   2.381 -0.8264  0.2728 -0.5685
 8371SOL    HW225639   2.933   5.300   2.478  3.1251  0.1900  0.4643
 8372SOL     OW25640   5.476   3.665   3.091 -0.1109  0.3442  0.5342
 8372SOL    HW125641   5.385   3.672   3.119  0.0753 -1.0905  1.6002
 8372SOL    HW225642   5.515   3.749   3.114 -1.4526  1.5202 -1.1950
 8373SOL     OW25643   3.113   5.025   6.259 -0.2674  0.2739  0.4319
 8373SOL    HW125644   3.104   5.109   6.304  1.0094 -0.1065  1.4543
 8373SOL    HW225645   3.197   5.030   6.214 -0.1427 -0.4896  0.5675
 8374SOL     OW25646   4.208   2.901   7.427  0.0628  0.0389 -0.2026
 8374SOL    HW125647   4.118   2.870   7.411 -0.6684  2.1036 -0.4204
 8374SOL    HW225648   4.233   2.859   7.510 -0.3038 -2.1416 -1.1352
 8375SOL     OW25649   6.508   2.823   3.077  0.4511  0.1417 -0.6055
 8375SOL    HW125650   6.511   2.822   3.173 -0.6406 -0.4669 -0.5533
 8375SOL    HW225651   6.580   2.766   3.050  0.1517 -0.4823 -0.1108
 8376SOL     OW25652   0.470   3.211   2.457 -0.4975  0.4238 -0.2219
 8376SOL    HW125653   0.512   3.296   2.446 -1.1126  0.8453  0.5202
 8376SOL    HW225654   0.443   3.185   2.369  2.3551 -0.4475 -0.9203
 8377SOL     OW25655   1.456   1.510   1.967  0.9120  0.0308 -0.0303
 8377SOL    HW125656   1.491   1.423   1.947  0.9135  0.1446 -0.5211
 8377SOL    HW225657   1.455   1.513   2.063 -0.1078 -0.9177  0.0071
 8378SOL     OW25658   3.820   7.067   1.671 -0.1630 -0.4875  0.1343
 8378SOL    HW125659   3.793   7.158   1.667  0.2741 -0.3677 -0.1398
 8378SOL    HW225660   3.750   7.019   1.626 -2.9186 -0.9139  4.3248
 8379SOL     OW25661   2.759   1.566   1.187 -0.0048  0.3962 -0.7039
 8379SOL    HW125662   2.757   1.473   1.209  0.5037  0.1846 -1.5059
 8379SOL    HW225663   2.764   1.568   1.091 -0.9316  1.2650 -0.7475
 8380SOL     OW25664   4.599   3.442   4.915  0.1996  0.0579 -0.8123
 8380SOL    HW125665   4.597   3.505   4.842  1.3815  1.4177  0.2725
 8380SOL    HW225666   4.559   3.489   4.988  0.8304 -0.5437 -0.0583
 8381SOL     OW25667   6.059   6.116   0.955 -0.1137  0.0304  0.1528
 8381SOL    HW125668   6.144   6.142   0.991  0.6030 -1.0558 -0.7097
 8381SOL    HW225669   6.057   6.021   0.965 -0.5055 -0.1442 -1.3445
 8382SOL     OW25670   6.586   0.837   4.387  0.4000 -0.0236  0.2598
 8382SOL    HW125671   6.637   0.897   4.441  1.5107 -1.5686  1.0015
 8382SOL    HW225672   6.640   0.824   4.309 -0.0180  0.2162 -0.0751
 8383SOL     OW25673   1.271   5.218   1.202 -0.4906  0.2702  0.2117
 8383SOL    HW125674   1.209   5.256   1.139 -0.4291  1.2532  0.7292
 8383SOL    HW225675   1.271   5.279   1.276  0.9158  0.1645  0.3268
 8384SOL     OW25676   7.335   1.603   7.001 -0.6602 -0.4149 -0.4445
 8384SOL    HW125677   7.320   1.509   7.005 -1.1417 -0.2977  1.0494
 8384SOL    HW225678   7.251   1.642   7.025  0.1018  0.3392  1.1926
 8385SOL     OW25679   7.353   2.273   7.149  0.2558 -0.2260  0.1756
 8385SOL    HW125680   7.375   2.365   7.166  1.3609 -0.5518  0.6160
 8385SOL    HW225681   7.271   2.258   7.195  0.3768  0.3927  0.6013
 8386SOL     OW25682   6.765   5.252   6.948  0.7537 -0.5854  0.4462
 8386SOL    HW125683   6.850   5.284   6.916 -0.2934  0.7294 -1.1781
 8386SOL    HW225684   6.749   5.172   6.898 -0.5093  1.0398 -1.9432
 8387SOL     OW25685   7.520   4.568   6.928 -0.4899 -0.1466  0.2575
 8387SOL    HW125686   7.545   4.509   6.999 -1.2176 -0.1165  0.5520
 8387SOL    HW225687   7.582   4.549   6.858 -0.0419 -0.4953  0.7390
 8388SOL     OW25688   4.933   1.402   0.301 -0.6297 -0.4360  0.4279
 8388SOL    HW125689   4.910   1.438   0.215  0.2781  1.0479  0.7659
 8388SOL    HW225690   4.900   1.467   0.363  0.4490 -0.5136  1.1087
 8389SOL     OW25691   2.398   0.559   3.557  0.3873 -0.4689  0.3114
 8389SOL    HW125692   2.412   0.504   3.635  0.8473  1.9215  2.0125
 8389SOL    HW225693   2.474   0.617   3.555  0.4836 -0.5586 -2.0966
 8390SOL     OW25694   4.604   6.428   0.167 -0.5600  0.0388 -0.2071
 8390SOL    HW125695   4.525   6.422   0.113  0.1006  2.8223 -1.6739
 8390SOL    HW225696   4.659   6.355   0.137 -0.1233  1.5904 -3.6090
 8391SOL     OW25697   5.281   7.500   4.664  0.2441  0.6497 -0.5509
 8391SOL    HW125698   5.309   7.578   4.713  1.0964 -0.0467  0.1239
 8391SOL    HW225699   5.189   7.488   4.688 -0.0117  1.6591 -0.9676
 8392SOL     OW25700   1.365   2.790   3.441 -0.5157  0.0510 -0.0344
 8392SOL    HW125701   1.362   2.727   3.513  2.2414  0.0334  0.1632
 8392SOL    HW225702   1.422   2.859   3.473  1.1711 -0.1814 -2.3274
 8393SOL     OW25703   2.532   1.475   1.609  0.0311 -0.2683  0.1535
 8393SOL    HW125704   2.451   1.451   1.655  0.1010  0.3807  0.6269
 8393SOL    HW225705   2.558   1.395   1.564 -1.3693 -0.2428 -0.7563
 8394SOL     OW25706   3.034   1.659   1.335  0.2897 -0.4777  0.9814
 8394SOL    HW125707   2.940   1.644   1.338  0.1391  0.3564  0.6689
 8394SOL    HW225708   3.068   1.587   1.282 -0.6402  1.1571 -2.0916
 8395SOL     OW25709   1.518   4.721   1.552 -0.0336  0.2058 -0.1170
 8395SOL    HW125710   1.449   4.778   1.587 -0.2498  0.9019 -1.5989
 8395SOL    HW225711   1.486   4.632   1.567 -0.7666  0.5030  0.1534
 8396SOL     OW25712   1.931   4.557   3.498 -0.1025  0.2241 -0.4874
 8396SOL    HW125713   1.840   4.537   3.520 -0.0426 -0.0561 -0.4892
 8396SOL    HW225714   1.934   4.555   3.403 -0.0909  0.2094 -0.4868
 8397SOL     OW25715   5.714   6.335   0.852 -0.3925  0.0295  0.4478
 8397SOL    HW125716   5.626   6.359   0.882  0.3156  0.2376  2.5870
 8397SOL    HW225717   5.754   6.418   0.828 -0.1000  0.2349  1.5664
 8398SOL     OW25718   7.432   5.463   7.132 -0.0978 -0.1044 -0.3080
 8398SOL    HW125719   7.452   5.469   7.225 -1.9518 -0.2760  0.1311
 8398SOL    HW225720   7.461   5.547   7.095  2.4030 -0.7358  0.0045
 8399SOL     OW25721   6.057   1.270   1.828  0.5089 -0.0741  0.4664
 8399SOL    HW125722   6.070   1.346   1.886 -0.3940 -0.4331  1.1631
 8399SOL    HW225723   5.987   1.297   1.769 -0.0373 -0.4632  0.9224
 8400SOL     OW25724   2.457   5.248   1.118 -0.5776 -1.1486 -0.0094
 8400SOL    HW125725   2.508   5.321   1.084 -1.6597 -0.1719  0.4089
 8400SOL    HW225726   2.496   5.229   1.204 -2.4513  1.3474  1.5385
 8401SOL     OW25727   3.244   6.848   7.457  0.0364  0.1241 -0.2444
 8401SOL    HW125728   3.276   6.920   7.510 -0.8825 -0.3648  1.0133
 8401SOL    HW225729   3.194   6.889   7.387  0.0360  0.7217  0.1046
 8402SOL     OW25730   4.784   5.259   1.691  0.3896  0.0152 -0.4245
 8402SOL    HW125731   4.778   5.175   1.737 -0.0340 -0.0670 -0.6317
 8402SOL    HW225732   4.876   5.266   1.666 -0.1784 -2.0061 -3.4539
 8403SOL     OW25733   6.419   3.809   3.695  0.0605  0.7480  0.4163
 8403SOL    HW125734   6.357   3.778   3.629  1.6043 -2.3350  0.2549
 8403SOL    HW225735   6.408   3.749   3.769  2.1442  0.7090  0.7556
 8404SOL     OW25736   2.876   6.856   0.651 -0.1280  0.5663  0.3233
 8404SOL    HW125737   2.870   6.765   0.623  0.0700  0.6125  0.1299
 8404SOL    HW225738   2.849   6.855   0.743 -1.8159  0.5766 -0.1437
 8405SOL     OW25739   4.976   0.681   0.897  0.0537 -0.0294  0.0522
 8405SOL    HW125740   4.990   0.654   0.988  0.5958 -0.0376 -0.0279
 8405SOL    HW225741   5.029   0.760   0.888 -0.3281  0.2031 -0.1420
 8406SOL     OW25742   6.869   1.501   3.879 -0.2708  0.5593  0.4213
 8406SOL    HW125743   6.787   1.501   3.928 -0.0569  1.2251  0.7893
 8406SOL    HW225744   6.904   1.413   3.893 -0.3877  0.6239  1.1775
 8407SOL     OW25745   6.572   3.843   2.868 -0.7156  0.2108 -0.4796
 8407SOL    HW125746   6.534   3.903   2.933  1.0229 -0.6731  1.4516
 8407SOL    HW225747   6.505   3.775   2.857 -0.6087 -0.2623  1.3623
 8408SOL     OW25748   1.422   6.885   2.673  0.3222 -0.0978 -0.5500
 8408SOL    HW125749   1.387   6.911   2.758  0.9321 -0.7313 -0.0942
 8408SOL    HW225750   1.383   6.947   2.611 -0.9898 -0.3049  0.0304
 8409SOL     OW25751   7.073   0.165   2.421 -0.3933  0.1436  0.1121
 8409SOL    HW125752   7.027   0.247   2.438  1.4023  1.1319  0.4275
 8409SOL    HW225753   7.165   0.190   2.409  0.2066 -1.8128  0.1459
 8410SOL     OW25754   2.948   6.649   0.108 -0.1904 -0.3233  0.6460
 8410SOL    HW125755   2.949   6.630   0.202  0.4323 -0.1606  0.6800
 8410SOL    HW225756   2.905   6.734   0.100 -0.1965 -0.3131  0.7903
 8411SOL     OW25757   3.010   1.015   0.212  0.1075  0.1923  0.1055
 8411SOL    HW125758   3.094   1.056   0.195  0.5811 -0.4605  0.8341
 8411SOL    HW225759   2.950   1.059   0.151  0.6964  1.5446  0.4563
 8412SOL     OW25760   4.555   2.527   1.632 -0.4064 -0.3005  0.1905
 8412SOL    HW125761   4.618   2.582   1.585 -0.7050 -1.4736 -1.6909
 8412SOL    HW225762   4.495   2.496   1.564 -2.0560 -0.5200  1.6781
 8413SOL     OW25763   0.093   5.805   5.426 -0.4991  0.2725 -0.4274
 8413SOL    HW125764   0.039   5.740   5.383  1.3436 -1.3193 -0.4605
 8413SOL    HW225765   0.110   5.871   5.359 -2.5302  0.9574 -0.3353
 8414SOL     OW25766   2.744   0.111   1.611 -0.4362  0.6314 -0.5193
 8414SOL    HW125767   2.815   0.104   1.676 -0.4455  0.7235 -0.4994
 8414SOL    HW225768   2.789   0.103   1.527 -0.2111  2.0550 -0.5652
 8415SOL     OW25769   3.770   0.141   5.196  0.6708  0.2431 -0.3193
 8415SOL    HW125770   3.780   0.232   5.168  0.8822  0.9881  1.9839
 8415SOL    HW225771   3.684   0.139   5.238  1.7230  0.0955  1.9723
 8416SOL     OW25772   3.703   6.617   3.680  0.1674  0.2237  0.0784
 8416SOL    HW125773   3.632   6.576   3.630 -0.1899  0.8102  0.1007
 8416SOL    HW225774   3.757   6.543   3.708 -1.3133 -0.4042  1.4491
 8417SOL     OW25775   2.117   5.667   5.572  0.5043  0.0781  0.1543
 8417SOL    HW125776   2.108   5.760   5.553 -1.2223 -0.1213 -0.1743
 8417SOL    HW225777   2.067   5.654   5.653  1.2627 -0.4676  0.5471
 8418SOL     OW25778   6.788   1.511   2.681 -0.5796 -0.0708 -0.3800
 8418SOL    HW125779   6.852   1.540   2.747 -0.2728 -1.3309 -0.1001
 8418SOL    HW225780   6.716   1.474   2.732  0.5703 -3.0054 -0.6824
 8419SOL     OW25781   1.220   2.018   3.025  0.5851 -0.0193  0.0000
 8419SOL    HW125782   1.297   2.049   2.977 -1.3674  2.9858 -1.4838
 8419SOL    HW225783   1.247   2.021   3.117  2.6368 -0.3759 -0.5445
 8420SOL     OW25784   3.157   0.721   0.293  0.3957  0.1511  0.3249
 8420SOL    HW125785   3.116   0.706   0.208  2.1291 -1.6934 -0.2819
 8420SOL    HW225786   3.207   0.801   0.282  0.7288 -0.1525 -0.4717
 8421SOL     OW25787   6.704   0.882   2.780  0.2101 -0.6214 -0.3295
 8421SOL    HW125788   6.676   0.960   2.731 -0.6004 -0.3920  0.4780
 8421SOL    HW225789   6.708   0.912   2.871 -0.3475 -1.5927  0.0213
 8422SOL     OW25790   3.873   7.552   0.311  0.0951 -0.8236 -0.2535
 8422SOL    HW125791   3.904   7.485   0.250  0.5845 -0.6570 -0.1960
 8422SOL    HW225792   3.883   7.511   0.397  0.0467 -0.8131 -0.2432
 8423SOL     OW25793   1.146   2.466   0.306  0.2584 -0.4648  0.0851
 8423SOL    HW125794   1.230   2.510   0.290 -0.4794  0.5602 -1.1358
 8423SOL    HW225795   1.110   2.451   0.219 -0.9782 -0.5787  0.6001
 8424SOL     OW25796   3.598   4.861   7.229  0.3924 -0.3156  0.0605
 8424SOL    HW125797   3.661   4.885   7.296 -1.6854  2.3938  1.2310
 8424SOL    HW225798   3.623   4.914   7.153  0.7266 -0.8162 -0.1841
 8425SOL     OW25799   3.544   4.520   7.447 -0.8415 -0.1484 -0.1475
 8425SOL    HW125800   3.458   4.503   7.486 -0.5912 -1.0691  0.0215
 8425SOL    HW225801   3.594   4.562   7.517 -0.9919 -0.0653 -0.0890
 8426SOL     OW25802   4.535   4.828   0.950  0.4734  0.4778 -0.3596
 8426SOL    HW125803   4.577   4.884   1.015  0.0273  0.5492 -0.1271
 8426SOL    HW225804   4.485   4.889   0.895 -0.5967  0.2557  0.3328
 8427SOL     OW25805   2.863   0.194   1.335  0.0424 -0.5564  0.2983
 8427SOL    HW125806   2.804   0.263   1.307 -1.1988 -1.6361  0.1378
 8427SOL    HW225807   2.941   0.239   1.366 -0.8822  0.9216  0.5500
 8428SOL     OW25808   4.551   6.368   6.298 -0.2422  0.1460 -0.2437
 8428SOL    HW125809   4.509   6.451   6.274 -1.8596 -0.0579  1.5820
 8428SOL    HW225810   4.644   6.382   6.281 -0.5682  2.0826 -0.6322
 8429SOL     OW25811   6.489   1.433   2.206  0.2687  0.2070 -0.0146
 8429SOL    HW125812   6.480   1.507   2.265 -1.7976 -0.9188  1.1974
 8429SOL    HW225813   6.516   1.472   2.123  3.2138  1.8440  1.5620
 8430SOL     OW25814   3.373   2.527   3.069  0.0691 -0.2358 -0.4082
 8430SOL    HW125815   3.296   2.482   3.034  0.1483 -0.1403 -0.7054
 8430SOL    HW225816   3.439   2.518   3.000  0.9756 -2.0480  0.6117
 8431SOL     OW25817   6.429   0.992   5.796  0.5750 -0.1525  0.3925
 8431SOL    HW125818   6.474   1.009   5.879  2.1959 -2.0747 -0.0103
 8431SOL    HW225819   6.338   1.015   5.813  0.8729 -0.3881  2.6740
 8432SOL     OW25820   0.792   0.179   1.180  0.2432  0.2508  0.2272
 8432SOL    HW125821   0.813   0.269   1.154 -1.2845  0.6214  0.1480
 8432SOL    HW225822   0.866   0.127   1.149  1.6900  1.6083  1.2328
 8433SOL     OW25823   2.647   3.354   6.671 -0.1331 -0.1625  0.0708
 8433SOL    HW125824   2.697   3.285   6.628  0.5511 -0.2114  0.9103
 8433SOL    HW225825   2.712   3.420   6.694 -0.8094  0.8761 -0.8958
 8434SOL     OW25826   2.753   3.322   3.358 -0.5875 -0.4096 -0.0068
 8434SOL    HW125827   2.710   3.245   3.321  1.5535 -1.2838 -0.8372
 8434SOL    HW225828   2.831   3.288   3.402 -0.7947  1.0790  1.6093
 8435SOL     OW25829   7.325   5.750   1.727  0.8012 -0.0418  0.1643
 8435SOL    HW125830   7.278   5.708   1.655 -0.3841  0.2487  0.7576
 8435SOL    HW225831   7.356   5.833   1.689  0.9917 -0.3133 -0.2807
 8436SOL     OW25832   3.193   7.401   0.992 -0.6564  0.0360 -0.5761
 8436SOL    HW125833   3.181   7.489   0.955  1.4581  0.4097 -0.4923
 8436SOL    HW225834   3.109   7.357   0.977 -2.3918  2.5950  0.9160
 8437SOL     OW25835   2.992   0.029   2.046 -0.1243  0.1427 -0.4540
 8437SOL    HW125836   2.915  -0.027   2.035  0.2497 -0.3565 -0.6025
 8437SOL    HW225837   2.964   0.098   2.106 -0.1062 -1.1693  1.1251
 8438SOL     OW25838   5.701   2.802   5.753  0.6146 -0.1918  0.1550
 8438SOL    HW125839   5.743   2.751   5.822  0.9941 -1.0600 -0.6962
 8438SOL    HW225840   5.649   2.867   5.800  0.0124 -1.4341  1.2790
 8439SOL     OW25841   4.719   5.155   5.550 -0.2539 -0.1827 -0.5771
 8439SOL    HW125842   4.792   5.217   5.548 -0.2503 -0.1778 -0.2965
 8439SOL    HW225843   4.706   5.131   5.458  0.5074 -0.6672 -0.5679
 8440SOL     OW25844   3.445   6.461   1.465 -0.0150  0.4074  0.0191
 8440SOL    HW125845   3.429   6.433   1.555 -0.9039  1.2670  0.1408
 8440SOL    HW225846   3.442   6.556   1.468 -0.0965  0.4488 -0.9311
 8441SOL     OW25847   5.234   7.460   2.772  0.2452  0.5611 -0.2297
 8441SOL    HW125848   5.290   7.459   2.849  0.9939 -1.4712 -0.7532
 8441SOL    HW225849   5.182   7.380   2.778 -0.5249  0.9558 -1.2442
 8442SOL     OW25850   6.464   1.650   6.126  0.0215  0.4147 -0.2351
 8442SOL    HW125851   6.483   1.568   6.080  0.4532  0.6714 -0.5270
 8442SOL    HW225852   6.550   1.689   6.141 -0.1617  0.6619  0.1878
 8443SOL     OW25853   7.470   3.655   0.638 -0.2641  0.2269  0.6829
 8443SOL    HW125854   7.545   3.709   0.613 -1.5275  2.1363  0.8018
 8443SOL    HW225855   7.506   3.567   0.648  1.7436  0.8802 -0.2714
 8444SOL     OW25856   7.270   2.837   5.184  0.2360 -0.4131 -1.0021
 8444SOL    HW125857   7.336   2.862   5.119 -0.8436 -0.1671 -2.0528
 8444SOL    HW225858   7.215   2.915   5.193  0.2910 -0.4863  0.1387
 8445SOL     OW25859   5.142   7.195   0.445  0.0568  0.3497 -0.4573
 8445SOL    HW125860   5.179   7.284   0.448 -0.4467  0.5540 -0.1329
 8445SOL    HW225861   5.082   7.196   0.371  0.6290  0.0430 -0.9312
 8446SOL     OW25862   3.507   6.215   6.410  0.7552  0.1391 -0.0460
 8446SOL    HW125863   3.598   6.186   6.405  0.6129 -0.1295 -1.9141
 8446SOL    HW225864   3.456   6.140   6.377  0.0075  0.8568 -0.5572
 8447SOL     OW25865   5.305   6.980   1.544 -0.1990 -0.1963 -0.6515
 8447SOL    HW125866   5.319   6.932   1.463 -1.4852 -0.4285 -0.7537
 8447SOL    HW225867   5.386   6.968   1.593 -0.7194 -3.1759 -0.3268
 8448SOL     OW25868   3.739   4.963   5.784  0.2209  0.1118  0.1594
 8448SOL    HW125869   3.769   5.032   5.725 -0.2577  1.0885  1.0197
 8448SOL    HW225870   3.670   4.918   5.735  0.1547  0.6027 -0.2053
 8449SOL     OW25871   4.412   0.847   0.649 -0.1949 -0.0785 -0.0100
 8449SOL    HW125872   4.503   0.876   0.651 -0.4831  0.8960 -0.2017
 8449SOL    HW225873   4.373   0.884   0.728  0.1273 -2.5186  1.3744
 8450SOL     OW25874   4.278   4.723   1.722  0.4555 -0.1410 -0.5259
 8450SOL    HW125875   4.205   4.756   1.670 -0.4658  0.4345  1.0863
 8450SOL    HW225876   4.333   4.800   1.738  0.4859 -0.2266 -0.2243
 8451SOL     OW25877   1.137   7.494   3.163  0.2579  0.3294  0.1710
 8451SOL    HW125878   1.077   7.559   3.125  0.5901  0.0375 -0.9115
 8451SOL    HW225879   1.129   7.418   3.105  3.2822  1.0267 -1.4007
 8452SOL     OW25880   3.283   1.813   2.438  0.1300 -0.0312  0.4886
 8452SOL    HW125881   3.278   1.730   2.486 -0.0784  0.4292  1.2662
 8452SOL    HW225882   3.208   1.864   2.469 -1.6275 -0.7095 -2.2467
 8453SOL     OW25883   6.145   2.417   6.292  0.5957 -0.0091  0.4949
 8453SOL    HW125884   6.174   2.327   6.277 -0.6675 -0.1858 -1.3123
 8453SOL    HW225885   6.052   2.416   6.269  0.4355  1.6562  0.9228
 8454SOL     OW25886   3.099   5.771   5.749 -0.1528  0.3099 -0.2677
 8454SOL    HW125887   3.124   5.767   5.657 -1.2449 -0.9423 -0.5314
 8454SOL    HW225888   3.088   5.865   5.767  0.2540  0.5786 -1.3457
 8455SOL     OW25889   6.225   3.298   2.272 -0.0911  0.2553  0.3168
 8455SOL    HW125890   6.201   3.258   2.356 -1.3440  1.0324  0.3523
 8455SOL    HW225891   6.243   3.224   2.214 -1.2584 -0.3487  0.6988
 8456SOL     OW25892   2.705   1.377   2.358 -0.2328  0.3394  0.2081
 8456SOL    HW125893   2.677   1.306   2.300 -0.8784 -0.2420  1.2018
 8456SOL    HW225894   2.695   1.341   2.446 -2.7829  2.3877  0.8828
 8457SOL     OW25895   7.066   4.704   6.876 -0.9370  0.1939 -0.0656
 8457SOL    HW125896   7.116   4.626   6.902 -1.2604  0.1907  0.5718
 8457SOL    HW225897   7.131   4.760   6.833 -1.1034 -1.2730 -2.4424
 8458SOL     OW25898   2.593   0.526   5.408  0.6201 -0.3374  0.3993
 8458SOL    HW125899   2.540   0.450   5.388 -2.4294  1.7154  0.0581
 8458SOL    HW225900   2.611   0.567   5.323 -1.0198  1.2740  0.7697
 8459SOL     OW25901   0.383   0.021   5.449 -0.0748 -0.2861  0.7559
 8459SOL    HW125902   0.392  -0.074   5.457 -0.7489 -0.2640  1.9943
 8459SOL    HW225903   0.471   0.055   5.465  0.7216 -0.7828 -2.0955
 8460SOL     OW25904   3.667   5.922   4.686 -0.6208  1.2944 -0.1920
 8460SOL    HW125905   3.596   5.894   4.743  0.1464  0.0033  0.1802
 8460SOL    HW225906   3.740   5.864   4.708 -0.1923  0.9545 -2.2315
 8461SOL     OW25907   3.820   1.426   7.095 -0.0092 -0.0070 -0.1544
 8461SOL    HW125908   3.737   1.456   7.132  0.1175  1.3954 -0.9498
 8461SOL    HW225909   3.886   1.466   7.150  0.1544  0.0145 -0.3663
 8462SOL     OW25910   0.143   1.250   0.008 -0.1164 -0.5517 -0.2477
 8462SOL    HW125911   0.097   1.312  -0.048 -0.7319 -1.0536 -0.3147
 8462SOL    HW225912   0.150   1.171  -0.045 -1.0740 -1.1739  0.4946
 8463SOL     OW25913   2.026   0.297   0.025  0.4769 -0.9498  0.3258
 8463SOL    HW125914   1.991   0.302  -0.064  0.1418 -2.1238  0.3784
 8463SOL    HW225915   2.027   0.388   0.056  2.8967 -0.1750 -1.7204
 8464SOL     OW25916   1.184   6.946   1.512  0.1046 -0.2314 -0.9099
 8464SOL    HW125917   1.187   7.042   1.522  0.8537 -0.4609  1.9439
 8464SOL    HW225918   1.214   6.931   1.422 -0.0010  2.1906 -1.4396
 8465SOL     OW25919   5.815   3.417   6.876  0.0323  0.8339 -0.2568
 8465SOL    HW125920   5.825   3.469   6.796  0.5227  1.1647  0.0178
 8465SOL    HW225921   5.757   3.469   6.931 -1.1478  0.1270 -0.8015
 8466SOL     OW25922   4.754   6.231   6.005 -0.2195  0.0757 -0.4715
 8466SOL    HW125923   4.792   6.144   6.022  1.0989  0.4305 -1.3991
 8466SOL    HW225924   4.689   6.215   5.936  0.4546 -0.1121 -1.0872
 8467SOL     OW25925   6.461   6.411   3.244  0.2579 -0.1397  0.0226
 8467SOL    HW125926   6.486   6.430   3.334 -1.6895 -1.0611  0.8185
 8467SOL    HW225927   6.443   6.497   3.205  1.2442  0.2736  0.4526
 8468SOL     OW25928   4.818   7.334   1.785  0.1724  0.3041 -0.3149
 8468SOL    HW125929   4.806   7.239   1.792 -1.2792  0.5508  0.8341
 8468SOL    HW225930   4.853   7.346   1.696  2.1538 -1.4408  0.1371
 8469SOL     OW25931   6.225   3.133   1.341  0.2009 -0.4271 -0.2231
 8469SOL    HW125932   6.307   3.090   1.363  0.1525 -0.2848  0.2277
 8469SOL    HW225933   6.241   3.171   1.254  0.6706 -0.2396 -0.0570
 8470SOL     OW25934   6.849   0.288   2.957 -0.5696 -0.4218 -0.0983
 8470SOL    HW125935   6.788   0.355   2.925  1.1879  0.5404 -1.5965
 8470SOL    HW225936   6.844   0.217   2.893  0.3225 -0.0498 -0.6029
 8471SOL     OW25937   1.475   2.250   0.238 -0.9317 -0.8080  0.4090
 8471SOL    HW125938   1.519   2.230   0.320 -1.2179 -2.4806  0.1959
 8471SOL    HW225939   1.455   2.343   0.243 -0.8999 -0.8725  2.2068
 8472SOL     OW25940   2.625   1.136   6.804  0.0470  0.2631 -0.3864
 8472SOL    HW125941   2.658   1.079   6.735  0.4897  2.1765 -1.8765
 8472SOL    HW225942   2.530   1.122   6.803  0.0892 -0.0333 -1.1269
 8473SOL     OW25943   7.191   7.553   1.202 -0.2649 -0.3576  0.2514
 8473SOL    HW125944   7.271   7.587   1.162 -2.2891  2.2833 -1.8998
 8473SOL    HW225945   7.126   7.622   1.190 -2.8275 -2.1735  2.3026
 8474SOL     OW25946   7.344   0.106   5.073  0.3268 -0.5406 -0.1706
 8474SOL    HW125947   7.396   0.184   5.091 -0.8148  0.2455 -0.1626
 8474SOL    HW225948   7.386   0.066   4.997 -0.3725  1.3526 -1.6313
 8475SOL     OW25949   0.611   2.462   5.554  0.6744 -0.1203  0.2980
 8475SOL    HW125950   0.670   2.464   5.630  0.1289 -1.1451  0.7640
 8475SOL    HW225951   0.578   2.372   5.551  0.3365  0.0228 -0.8940
 8476SOL     OW25952   5.809   2.065   6.717  0.0030  0.1805 -0.0721
 8476SOL    HW125953   5.849   2.106   6.640 -1.4046  0.1490 -0.8439
 8476SOL    HW225954   5.718   2.095   6.716 -0.5732 -1.4697  0.4239
 8477SOL     OW25955   7.135   4.970   7.494  0.3068 -0.3162  0.1281
 8477SOL    HW125956   7.088   4.917   7.558 -2.6890 -0.2161 -1.8040
 8477SOL    HW225957   7.074   5.039   7.470  2.0225  0.7301 -1.5174
 8478SOL     OW25958   5.839   4.515   0.707 -0.0154 -0.0534  0.0281
 8478SOL    HW125959   5.752   4.480   0.724 -0.2499  0.6697  0.3116
 8478SOL    HW225960   5.835   4.546   0.616 -0.3541  0.8479  0.3376
 8479SOL     OW25961   1.581   1.416   3.552  0.3708  0.5298 -0.2949
 8479SOL    HW125962   1.583   1.443   3.644 -0.9633 -0.4224  0.0534
 8479SOL    HW225963   1.672   1.397   3.530  0.7696  1.2679  0.6809
 8480SOL     OW25964   1.501   6.226   3.659 -0.3282 -0.1539 -0.0379
 8480SOL    HW125965   1.455   6.307   3.637 -1.3838  0.0813  2.6229
 8480SOL    HW225966   1.561   6.212   3.586 -2.2472  1.3606 -2.0382
 8481SOL     OW25967   0.909   2.854   3.469  0.0058  0.0145  0.9712
 8481SOL    HW125968   0.841   2.814   3.415  1.4057  0.2133 -1.0270
 8481SOL    HW225969   0.884   2.947   3.474  0.0733  0.0713  0.3238
 8482SOL     OW25970   1.744   0.163   2.165 -0.0931  0.1655  0.5446
 8482SOL    HW125971   1.802   0.182   2.092  0.5261 -2.2823  0.3178
 8482SOL    HW225972   1.802   0.158   2.241  0.1231 -2.4585  0.2890
 8483SOL     OW25973   5.867   5.465   6.875  0.2849  0.6055 -0.1075
 8483SOL    HW125974   5.875   5.494   6.965  1.9201 -1.1805  0.4038
 8483SOL    HW225975   5.859   5.369   6.881 -0.3022  0.5053 -1.8141
 8484SOL     OW25976   4.582   6.142   5.783  0.2237  0.2601  0.0015
 8484SOL    HW125977   4.599   6.054   5.815 -2.9631  0.3573  2.5103
 8484SOL    HW225978   4.571   6.132   5.689 -0.8896 -2.2614  0.3102
 8485SOL     OW25979   5.166   0.582   4.024  0.0557  0.0946 -0.6153
 8485SOL    HW125980   5.166   0.558   3.931 -1.4472  0.2592 -0.6813
 8485SOL    HW225981   5.254   0.616   4.040  0.5755 -0.6390 -1.7891
 8486SOL     OW25982   1.311   4.640   7.041  0.0809 -0.1277 -0.3890
 8486SOL    HW125983   1.315   4.654   7.135 -1.1468  1.7721 -0.5597
 8486SOL    HW225984   1.367   4.564   7.025  0.4641 -0.3680  1.8261
 8487SOL     OW25985   2.670   3.627   0.877  0.0246 -0.3241 -0.3506
 8487SOL    HW125986   2.752   3.578   0.868  0.9365  0.7184  1.7166
 8487SOL    HW225987   2.693   3.717   0.854 -1.0780 -0.3672 -1.7801
 8488SOL     OW25988   2.792   0.973   0.495  0.5786  0.4662  0.5470
 8488SOL    HW125989   2.857   1.031   0.535  1.1727  1.0617 -1.1647
 8488SOL    HW225990   2.724   1.032   0.463  0.5827  0.1270 -0.1181
 8489SOL     OW25991   6.661   5.497   4.836 -0.1631  0.4224 -0.0934
 8489SOL    HW125992   6.747   5.495   4.794  1.1717 -0.8020  2.4222
 8489SOL    HW225993   6.610   5.429   4.791  0.4309  0.6624 -1.1404
 8490SOL     OW25994   6.275   5.365   0.033 -0.1640  0.3698 -0.6753
 8490SOL    HW125995   6.302   5.300   0.098 -1.9338  1.1333  0.9164
 8490SOL    HW225996   6.241   5.313  -0.039 -2.0144 -0.5568  0.7728
 8491SOL     OW25997   2.588   1.840   6.200 -0.0790  0.7435 -0.3814
 8491SOL    HW125998   2.655   1.774   6.219  0.2914  0.7170 -1.6798
 8491SOL    HW225999   2.598   1.905   6.270  1.5839  0.9444 -0.7668
 8492SOL     OW26000   3.336   3.715   5.828 -0.1352 -0.3175 -0.0982
 8492SOL    HW126001   3.346   3.657   5.752  0.1521  1.0334 -1.1347
 8492SOL    HW226002   3.395   3.788   5.810  0.5118 -0.3204  1.8160
 8493SOL     OW26003   2.586   6.777   6.990 -0.2967  0.7142 -0.6927
 8493SOL    HW126004   2.547   6.761   7.075  0.7571  0.1208 -0.3088
 8493SOL    HW226005   2.637   6.699   6.971  0.0441  1.1275 -1.5551
 8494SOL     OW26006   2.010   2.552   4.395  0.0111 -0.0318  0.3844
 8494SOL    HW126007   2.105   2.553   4.382 -0.1324  2.0062 -0.9805
 8494SOL    HW226008   1.991   2.635   4.439 -1.2356 -0.0077 -0.1675
 8495SOL     OW26009   0.137   6.831   1.584 -0.0457  0.0414  0.6501
 8495SOL    HW126010   0.086   6.782   1.648 -0.9942  1.1812  0.7928
 8495SOL    HW226011   0.225   6.836   1.623  0.0444 -1.3914  0.6885
 8496SOL     OW26012   5.061   7.466   6.975 -0.0891  0.4904  0.2638
 8496SOL    HW126013   5.106   7.405   6.917 -0.7761  0.2002  0.0158
 8496SOL    HW226014   5.067   7.426   7.062 -1.8309 -0.7402 -0.1208
 8497SOL     OW26015   6.828   3.766   0.057 -0.1589  0.3934  0.2002
 8497SOL    HW126016   6.791   3.843   0.013 -0.4471  0.2494  0.1851
 8497SOL    HW226017   6.884   3.726  -0.009 -1.0963 -0.1848 -0.2637
 8498SOL     OW26018   2.558   6.930   0.444 -0.2324 -0.2748 -0.1177
 8498SOL    HW126019   2.464   6.940   0.432  0.0424  0.6447 -2.0099
 8498SOL    HW226020   2.575   6.837   0.427 -0.8643 -0.6303  1.0758
 8499SOL     OW26021   0.869   7.077   5.147 -0.1636 -0.5078 -0.5297
 8499SOL    HW126022   0.775   7.089   5.164  0.2926  0.3750  1.7192
 8499SOL    HW226023   0.911   7.100   5.230  2.1465  0.3367 -1.8562
 8500SOL     OW26024   0.313   4.766   2.690  0.1686 -0.3633 -0.2824
 8500SOL    HW126025   0.298   4.836   2.627 -1.8141 -0.7724 -0.3269
 8500SOL    HW226026   0.253   4.786   2.763  1.0950 -0.8895  0.6541
 8501SOL     OW26027   6.220   4.341   2.379  0.6399  0.1734  0.5872
 8501SOL    HW126028   6.127   4.326   2.364  1.0424 -1.6074 -0.4750
 8501SOL    HW226029   6.232   4.435   2.365 -0.9216  0.3633  0.3780
 8502SOL     OW26030   6.884   2.869   3.045 -0.0407 -0.0300  0.2783
 8502SOL    HW126031   6.861   2.894   3.134 -1.5118  0.6280 -0.2572
 8502SOL    HW226032   6.847   2.781   3.034 -0.1383  0.0191  0.2137
 8503SOL     OW26033   7.346   7.124   4.032 -0.0942 -0.0023  0.0443
 8503SOL    HW126034   7.432   7.094   4.001  0.0253  1.0590 -0.6983
 8503SOL    HW226035   7.348   7.219   4.020 -0.7824  0.2381  1.5207
 8504SOL     OW26036   5.739   2.383   6.617 -0.0305  0.1888  0.6535
 8504SOL    HW126037   5.731   2.464   6.566 -1.7748 -0.2827  0.1324
 8504SOL    HW226038   5.725   2.410   6.707  2.2829  0.8963  0.8826
 8505SOL     OW26039   5.043   6.721   1.953 -0.0875  0.5476 -0.3304
 8505SOL    HW126040   5.068   6.810   1.982 -2.4173  1.0853  0.2564
 8505SOL    HW226041   4.982   6.691   2.020  0.3971 -1.4054 -0.7075
 8506SOL     OW26042   4.563   0.065   4.682 -0.2044  0.1897  0.4063
 8506SOL    HW126043   4.588   0.155   4.704  1.8947 -0.0176 -0.8281
 8506SOL    HW226044   4.553   0.065   4.587  0.2855 -0.9797  0.3320
 8507SOL     OW26045   4.109   5.873   6.141  0.2689  0.1981  0.2665
 8507SOL    HW126046   4.094   5.788   6.100  1.1370  1.2566 -2.5519
 8507SOL    HW226047   4.204   5.877   6.154  0.2738  0.8296  0.0821
 8508SOL     OW26048   4.123   1.266   2.261 -0.0111 -0.0340 -0.1463
 8508SOL    HW126049   4.101   1.337   2.321  1.2898 -0.0261  0.3451
 8508SOL    HW226050   4.039   1.243   2.220 -0.8031  0.4140  1.1592
 8509SOL     OW26051   2.064   3.778   5.974 -0.2755 -0.0549  0.4839
 8509SOL    HW126052   2.103   3.733   6.049  0.5330 -0.6928 -0.3029
 8509SOL    HW226053   2.133   3.837   5.943 -1.1460  1.3993  1.1896
 8510SOL     OW26054   0.224   6.691   7.530  0.0631 -0.2307  0.3803
 8510SOL    HW126055   0.159   6.720   7.594  0.4249 -0.0431  0.6698
 8510SOL    HW226056   0.306   6.690   7.579  0.3719  0.0574 -0.1201
 8511SOL     OW26057   2.543   7.313   2.350 -0.1632 -0.2059  0.8536
 8511SOL    HW126058   2.477   7.369   2.392  1.0857  1.8647  0.1753
 8511SOL    HW226059   2.625   7.362   2.358  0.4041 -0.3101 -2.7288
 8512SOL     OW26060   5.980   0.560   4.279  0.4087  0.0479  0.1626
 8512SOL    HW126061   5.898   0.516   4.299  0.4282 -0.4488 -0.7721
 8512SOL    HW226062   6.042   0.526   4.344 -0.1412  0.4849  0.9128
 8513SOL     OW26063   7.489   5.307   2.354 -0.2738 -0.1208 -0.1950
 8513SOL    HW126064   7.531   5.299   2.440  0.6883 -0.8854 -0.7279
 8513SOL    HW226065   7.461   5.399   2.351  0.7942  0.2433  0.4291
 8514SOL     OW26066   0.420   0.962   6.019  0.2850  0.0418  0.2692
 8514SOL    HW126067   0.464   1.011   6.088 -1.2632 -0.6149  1.7986
 8514SOL    HW226068   0.480   0.889   6.000  1.1069  0.6947  0.2651
 8515SOL     OW26069   0.713   7.335   5.808  0.6857  0.3602 -0.4360
 8515SOL    HW126070   0.714   7.247   5.844 -1.5665  0.9339  1.2525
 8515SOL    HW226071   0.746   7.325   5.719 -1.1178 -2.4844 -0.9025
 8516SOL     OW26072   2.525   2.113   6.860 -0.3158  0.1024 -0.1764
 8516SOL    HW126073   2.592   2.050   6.886 -0.9745 -1.4837 -2.1035
 8516SOL    HW226074   2.567   2.166   6.791 -0.7606 -0.3352 -0.7892
 8517SOL     OW26075   3.816   1.604   3.148 -0.1253  0.0895  0.0435
 8517SOL    HW126076   3.763   1.634   3.073  0.5433 -1.8655 -1.2920
 8517SOL    HW226077   3.881   1.673   3.160 -1.3536  1.2978  0.0308
 8518SOL     OW26078   5.400   3.938   4.426  0.3939 -0.3295  0.1623
 8518SOL    HW126079   5.478   3.886   4.444  0.5494 -0.6899 -1.3944
 8518SOL    HW226080   5.431   4.010   4.371 -0.4786 -0.9621 -1.2131
 8519SOL     OW26081   6.589   2.098   4.386  0.4287 -0.3658  0.0708
 8519SOL    HW126082   6.606   2.083   4.293 -0.9838  1.7146 -0.5892
 8519SOL    HW226083   6.646   2.171   4.409 -1.5539  1.3273 -0.0915
 8520SOL     OW26084   0.177   6.250   4.845 -0.1453 -0.4336 -0.6650
 8520SOL    HW126085   0.138   6.249   4.933  1.2196  0.2998 -0.0096
 8520SOL    HW226086   0.113   6.295   4.790 -0.9791 -0.8211 -0.0236
 8521SOL     OW26087   0.992   1.236   6.647 -0.2572  0.6871  0.1963
 8521SOL    HW126088   1.073   1.198   6.680  0.3228  1.4715 -0.2716
 8521SOL    HW226089   0.923   1.200   6.702  0.4489  0.2451  0.7946
 8522SOL     OW26090   5.596   3.422   1.593 -0.4507  0.6156  0.1138
 8522SOL    HW126091   5.674   3.465   1.629  0.0371  1.3224 -1.7153
 8522SOL    HW226092   5.595   3.336   1.636  0.5991  1.0702  1.1157
 8523SOL     OW26093   6.836   1.898   6.408  0.4629  0.1564  0.0031
 8523SOL    HW126094   6.912   1.953   6.427  0.1502 -0.1168  2.2775
 8523SOL    HW226095   6.776   1.913   6.482 -1.0430 -0.7932 -0.9634
 8524SOL     OW26096   6.580   6.952   3.685  0.3448  0.2970  0.6711
 8524SOL    HW126097   6.486   6.966   3.668  0.4370  0.3050  0.1452
 8524SOL    HW226098   6.606   7.025   3.741  0.3309  1.0219 -0.2556
 8525SOL     OW26099   7.562   2.946   1.967  0.0004  0.0824 -0.0533
 8525SOL    HW126100   7.471   2.942   1.937  0.5936 -0.1662 -1.9393
 8525SOL    HW226101   7.601   3.015   1.914  1.3116 -0.9127 -0.4067
 8526SOL     OW26102   3.038   4.488   7.423  0.5449 -0.3798 -0.0537
 8526SOL    HW126103   3.013   4.531   7.341 -1.9769  0.7891  1.2004
 8526SOL    HW226104   3.046   4.395   7.400 -0.9220 -0.2006 -1.5030
 8527SOL     OW26105   0.590   0.407   0.178  0.0271  0.5184 -0.5424
 8527SOL    HW126106   0.663   0.349   0.202 -0.8576 -0.8568 -1.0799
 8527SOL    HW226107   0.614   0.441   0.092 -0.5711 -1.0817 -1.3977
 8528SOL     OW26108   5.922   2.178   1.584 -0.2154  0.2994 -0.2453
 8528SOL    HW126109   5.943   2.255   1.637 -1.9902 -0.9988  2.5516
 8528SOL    HW226110   5.975   2.108   1.622 -1.7791 -0.7378  0.1173
 8529SOL     OW26111   3.108   2.150   1.472 -0.1248  0.4184  0.8270
 8529SOL    HW126112   3.138   2.068   1.432 -1.2528  0.6952 -0.7252
 8529SOL    HW226113   3.165   2.163   1.547  0.1966 -1.6957  1.0130
 8530SOL     OW26114   2.189   0.535   1.817 -0.3386 -0.0340 -0.4066
 8530SOL    HW126115   2.260   0.508   1.759 -0.6464 -1.4216 -0.1722
 8530SOL    HW226116   2.113   0.486   1.787 -1.0604  0.9597 -0.2531
 8531SOL     OW26117   6.522   1.253   3.070  0.0551 -0.6091  0.1718
 8531SOL    HW126118   6.567   1.176   3.035 -0.5832 -0.4284 -1.0985
 8531SOL    HW226119   6.429   1.233   3.062 -0.1679  0.8605 -1.6290
 8532SOL     OW26120   5.244   1.008   6.744  0.1663 -0.5527 -0.0020
 8532SOL    HW126121   5.294   0.973   6.670 -0.3650  1.8049 -1.5886
 8532SOL    HW226122   5.185   1.072   6.705 -1.0084 -0.0972  2.3477
 8533SOL     OW26123   6.858   0.675   4.589  0.4235  0.4639 -0.3050
 8533SOL    HW126124   6.803   0.750   4.612  0.0847 -0.3606  1.7902
 8533SOL    HW226125   6.893   0.645   4.673  3.7240  0.6452 -1.4612
 8534SOL     OW26126   0.478   6.531   1.315  0.6665  0.1690 -0.2351
 8534SOL    HW126127   0.516   6.612   1.281  0.6462 -0.1093 -0.9279
 8534SOL    HW226128   0.394   6.557   1.351  1.1696  0.6591  0.6164
 8535SOL     OW26129   6.917   6.973   5.825  0.5224  0.5435  0.4193
 8535SOL    HW126130   6.918   6.915   5.749 -2.7198 -0.3322  0.8856
 8535SOL    HW226131   6.931   7.060   5.788  0.0165  0.0399 -1.0677
 8536SOL     OW26132   4.647   4.050   0.917  0.3653  0.5977 -0.1028
 8536SOL    HW126133   4.735   4.069   0.951  0.7279 -0.0755 -0.6404
 8536SOL    HW226134   4.595   4.033   0.996  0.7877  0.7046  0.2076
 8537SOL     OW26135   1.425   6.964   1.790  0.2426 -0.2008 -0.0769
 8537SOL    HW126136   1.483   6.988   1.717 -2.1317  0.3075 -1.9002
 8537SOL    HW226137   1.423   6.869   1.788  1.0327 -0.2321  0.0624
 8538SOL     OW26138   6.828   3.862   1.140 -0.0359 -0.1193 -0.0742
 8538SOL    HW126139   6.913   3.857   1.096 -0.8244 -0.7506 -1.5807
 8538SOL    HW226140   6.834   3.798   1.211  1.3310  1.0830  0.9755
 8539SOL     OW26141   7.011   6.336   1.333  0.2025 -0.5181  0.1939
 8539SOL    HW126142   7.006   6.244   1.360 -1.3449  0.2165  2.7301
 8539SOL    HW226143   7.040   6.383   1.411 -0.7911  1.3463 -0.4957
 8540SOL     OW26144   2.494   2.994   6.394 -0.3066  0.4637 -0.3429
 8540SOL    HW126145   2.485   2.991   6.299 -0.8948  1.7629 -0.3503
 8540SOL    HW226146   2.416   2.949   6.427  0.4771 -1.0278 -0.4596
 8541SOL     OW26147   0.368   1.744   7.563 -0.0887  0.7806 -0.2170
 8541SOL    HW126148   0.450   1.756   7.611 -0.4093 -2.1050  1.2634
 8541SOL    HW226149   0.302   1.784   7.620 -0.0484  0.4544  0.0639
 8542SOL     OW26150   2.316   5.818   3.597  0.2255  0.1185 -0.4312
 8542SOL    HW126151   2.384   5.774   3.649 -0.0686 -0.6276 -0.6567
 8542SOL    HW226152   2.361   5.890   3.554  0.6615  0.2248  0.1906
 8543SOL     OW26153   4.881   5.001   1.778 -0.5101  0.1029 -0.3019
 8543SOL    HW126154   4.972   5.025   1.798 -0.3228 -1.1978  0.5560
 8543SOL    HW226155   4.834   5.019   1.859 -0.6964 -0.7280 -0.2205
 8544SOL     OW26156   7.119   6.462   2.851 -0.1068 -0.1694  0.6688
 8544SOL    HW126157   7.115   6.440   2.944 -2.2110 -0.6736  0.4950
 8544SOL    HW226158   7.029   6.457   2.821  0.4608  0.5664 -1.2878
 8545SOL     OW26159   0.624   5.078   7.330  0.2489  0.1085 -0.4065
 8545SOL    HW126160   0.663   5.144   7.273 -0.4845  0.4112 -0.5641
 8545SOL    HW226161   0.542   5.055   7.287  0.3473 -0.6780 -0.1881
 8546SOL     OW26162   4.269   4.667   5.680 -0.9349 -0.1346  0.5371
 8546SOL    HW126163   4.270   4.670   5.776 -0.4511  0.7120  0.5170
 8546SOL    HW226164   4.293   4.576   5.659 -0.2941 -0.1361  1.2128
 8547SOL     OW26165   4.365   3.145   2.905 -0.3183  0.4837 -0.3192
 8547SOL    HW126166   4.454   3.139   2.871 -0.8192  1.7835 -1.9945
 8547SOL    HW226167   4.348   3.059   2.944  2.2332  0.7394  1.6590
 8548SOL     OW26168   3.513   0.911   2.157  0.2855  0.2554  0.1120
 8548SOL    HW126169   3.513   0.823   2.119 -1.2156  0.9438 -1.6126
 8548SOL    HW226170   3.593   0.951   2.122 -0.3367  0.3960 -1.2123
 8549SOL     OW26171   5.884   4.910   6.917  0.2491 -0.4122  0.0626
 8549SOL    HW126172   5.794   4.942   6.916  0.2878 -0.2869 -1.9095
 8549SOL    HW226173   5.889   4.858   6.997 -1.6515 -0.6786  0.0642
 8550SOL     OW26174   1.601   2.254   7.540 -0.0400 -0.1093  0.0033
 8550SOL    HW126175   1.534   2.294   7.485 -0.8943  0.7267  1.6123
 8550SOL    HW226176   1.556   2.231   7.621  1.2144 -1.2197  0.4254
 8551SOL     OW26177   4.590   3.599   0.790  0.0726 -0.7274  0.1234
 8551SOL    HW126178   4.541   3.675   0.820 -1.6460 -2.0526  0.9099
 8551SOL    HW226179   4.528   3.550   0.736  0.9770 -1.7656 -0.0161
 8552SOL     OW26180   1.967   6.699   4.971  0.3375  0.1297 -0.0920
 8552SOL    HW126181   1.980   6.670   4.881 -2.2673  0.8088 -0.7675
 8552SOL    HW226182   1.981   6.794   4.969  1.0845  0.0420  0.4196
 8553SOL     OW26183   3.783   4.481   3.982  0.1570  0.5602  0.8162
 8553SOL    HW126184   3.869   4.524   3.981  0.6695 -0.3941  1.9886
 8553SOL    HW226185   3.802   4.388   3.978 -0.8721  0.3456  0.3960
 8554SOL     OW26186   1.508   0.968   1.608 -0.0301  0.0398 -0.3027
 8554SOL    HW126187   1.434   0.985   1.668  2.9342  0.0551  3.7619
 8554SOL    HW226188   1.512   0.873   1.602 -1.0006  0.0495 -1.5312
 8555SOL     OW26189   4.938   1.894   1.914  0.0797 -0.0964  0.0727
 8555SOL    HW126190   4.988   1.813   1.909  0.7932  0.4005 -1.2083
 8555SOL    HW226191   4.988   1.950   1.973 -0.1460 -0.3926  0.5513
 8556SOL     OW26192   5.404   1.532   6.674  0.2659  0.7733 -0.2065
 8556SOL    HW126193   5.355   1.608   6.705 -1.5366 -0.2171 -0.5290
 8556SOL    HW226194   5.354   1.457   6.705  0.7366 -0.2756 -1.8905
 8557SOL     OW26195   2.162   5.426   0.183  0.1769  0.3364  0.0380
 8557SOL    HW126196   2.205   5.407   0.267 -1.2061 -0.9906  0.4828
 8557SOL    HW226197   2.080   5.377   0.186 -1.3115  2.6052 -0.8779
 8558SOL     OW26198   0.147   3.546   3.032  0.3535  0.0935  0.5564
 8558SOL    HW126199   0.094   3.549   3.112 -1.0557  2.3573 -0.3810
 8558SOL    HW226200   0.105   3.478   2.978 -1.9807  2.0959 -0.3267
 8559SOL     OW26201   2.232   3.213   6.857  0.0882 -0.2627 -0.0311
 8559SOL    HW126202   2.222   3.132   6.806  0.1905 -0.9445  1.0040
 8559SOL    HW226203   2.324   3.213   6.884  0.1112  0.2510 -0.1027
 8560SOL     OW26204   1.761   6.004   0.335 -0.1736 -0.3721  0.2206
 8560SOL    HW126205   1.759   5.909   0.324 -1.1460 -0.1278 -2.1479
 8560SOL    HW226206   1.854   6.025   0.346 -0.0304 -1.6486  1.9062
 8561SOL     OW26207   6.176   0.871   5.965 -0.2128  0.2058 -0.0324
 8561SOL    HW126208   6.235   0.796   5.959 -0.2636 -0.0327  1.8577
 8561SOL    HW226209   6.105   0.841   6.021 -1.5422  0.8923 -1.2565
 8562SOL     OW26210   5.868   2.720   1.707  0.4620  0.2435  0.0080
 8562SOL    HW126211   5.782   2.754   1.682  0.4531 -0.2649 -0.6537
 8562SOL    HW226212   5.927   2.794   1.696  0.1888  0.4658  0.0216
 8563SOL     OW26213   7.454   2.202   5.333  0.2410 -0.2999  0.0175
 8563SOL    HW126214   7.401   2.190   5.254 -0.0386  0.7640  0.0342
 8563SOL    HW226215   7.543   2.178   5.307 -0.1081 -1.4230 -0.2012
 8564SOL     OW26216   2.888   0.525   4.184  0.0404 -0.3957 -0.5396
 8564SOL    HW126217   2.862   0.439   4.150 -0.0184 -0.7096  0.2742
 8564SOL    HW226218   2.976   0.512   4.218 -0.6489 -0.6276  1.2503
 8565SOL     OW26219   0.519   6.472   2.872  0.0345  0.0426 -0.4609
 8565SOL    HW126220   0.490   6.485   2.781 -3.2518 -2.4180  0.0697
 8565SOL    HW226221   0.510   6.559   2.912  1.3721  1.1421 -2.3409
 8566SOL     OW26222   0.636   1.918   1.435  0.0050 -0.0038  0.9736
 8566SOL    HW126223   0.591   1.955   1.360 -0.2025 -2.3642 -0.1465
 8566SOL    HW226224   0.569   1.911   1.503 -0.2687  0.3546  0.7425
 8567SOL     OW26225   6.127   2.265   2.658  0.0729 -0.2485  0.1040
 8567SOL    HW126226   6.200   2.302   2.708 -0.7848 -0.0974  1.2762
 8567SOL    HW226227   6.053   2.323   2.677 -0.1830  0.0867 -1.7270
 8568SOL     OW26228   0.171   3.467   4.741 -0.5809 -0.3236 -0.2313
 8568SOL    HW126229   0.150   3.375   4.759  1.0266 -0.5719  0.5053
 8568SOL    HW226230   0.106   3.494   4.675 -1.7881 -1.6435  0.3571
 8569SOL     OW26231   5.865   7.179   1.296  0.3033  0.2789  0.3522
 8569SOL    HW126232   5.777   7.215   1.301 -0.1499 -0.8474  0.8479
 8569SOL    HW226233   5.876   7.154   1.204 -0.0589  0.0285  0.3766
 8570SOL     OW26234   6.873   3.623   2.659 -0.3789  0.4549  0.1926
 8570SOL    HW126235   6.887   3.546   2.714 -0.7435  1.4752  1.7768
 8570SOL    HW226236   6.864   3.587   2.571 -0.1880 -1.2853  0.8293
 8571SOL     OW26237   3.021   1.333   6.398  0.1261  0.0353 -0.2395
 8571SOL    HW126238   3.071   1.254   6.419  2.1027  0.9431 -1.2395
 8571SOL    HW226239   3.006   1.375   6.483 -0.5165 -1.1287  0.2492
 8572SOL     OW26240   2.684   5.624   6.373 -0.2264 -0.1224  0.1074
 8572SOL    HW126241   2.674   5.667   6.459 -0.4491  1.1855 -0.5427
 8572SOL    HW226242   2.770   5.584   6.376 -0.2360 -0.1025  0.9565
 8573SOL     OW26243   7.031   1.658   1.666  0.0438  0.4328  0.0769
 8573SOL    HW126244   7.007   1.654   1.573  0.9339 -1.2733 -0.1330
 8573SOL    HW226245   6.965   1.715   1.705 -1.2325  0.0247 -1.3469
 8574SOL     OW26246   3.673   5.877   5.582  0.4785 -0.2512  0.1061
 8574SOL    HW126247   3.671   5.920   5.667 -1.1627  0.3017 -0.1624
 8574SOL    HW226248   3.703   5.945   5.521  1.4508 -0.5846  0.2091
 8575SOL     OW26249   6.232   5.649   7.129  0.2006 -0.4545  0.3829
 8575SOL    HW126250   6.216   5.554   7.122  0.7767 -0.5102 -0.1994
 8575SOL    HW226251   6.170   5.678   7.196 -0.2976 -1.1675  0.2422
 8576SOL     OW26252   6.460   0.010   6.068  0.2627 -0.5816 -0.0655
 8576SOL    HW126253   6.510  -0.004   5.988  0.9502  1.3478 -0.0144
 8576SOL    HW226254   6.484  -0.064   6.125  0.7236 -1.2952 -1.1627
 8577SOL     OW26255   6.641   0.261   1.424 -0.7587  0.4091  0.2232
 8577SOL    HW126256   6.718   0.237   1.476 -0.4153 -0.1061 -0.5049
 8577SOL    HW226257   6.592   0.180   1.415 -0.1537  0.1811 -1.3282
 8578SOL     OW26258   0.850   3.745   6.378 -0.1314 -0.2604 -0.1229
 8578SOL    HW126259   0.774   3.755   6.320 -0.0870  2.8676  0.1482
 8578SOL    HW226260   0.812   3.745   6.466  0.0394 -0.9991 -0.0515
 8579SOL     OW26261   4.612   1.336   2.571 -0.2796  0.0201 -0.7047
 8579SOL    HW126262   4.649   1.347   2.484 -0.3874  1.1963 -0.6211
 8579SOL    HW226263   4.683   1.298   2.623  0.2276  0.5769 -0.9845
 8580SOL     OW26264   6.833   1.832   3.488 -0.2835 -0.0801  0.2155
 8580SOL    HW126265   6.834   1.775   3.565 -2.0954 -2.4025 -1.3390
 8580SOL    HW226266   6.829   1.771   3.414 -3.4995  2.0073 -1.5334
 8581SOL     OW26267   6.602   0.214   0.378 -0.1023  0.5646  0.3640
 8581SOL    HW126268   6.642   0.295   0.348  2.0185 -0.5689 -0.0543
 8581SOL    HW226269   6.588   0.163   0.298  1.6698 -0.7626  0.8232
 8582SOL     OW26270   6.781   0.231   7.238  0.2769 -0.0764 -0.0200
 8582SOL    HW126271   6.791   0.148   7.192 -0.3419 -0.0602 -0.1865
 8582SOL    HW226272   6.785   0.208   7.331 -1.8243 -0.5829 -0.0029
 8583SOL     OW26273   1.907   4.750   5.248 -0.5709  0.9593  0.4793
 8583SOL    HW126274   1.897   4.663   5.208 -2.3351  2.2731 -2.3082
 8583SOL    HW226275   1.927   4.732   5.340 -1.9831 -2.4012  0.2909
 8584SOL     OW26276   1.170   4.849   2.553 -0.0468 -0.1711 -0.0610
 8584SOL    HW126277   1.203   4.851   2.463  0.2199  1.5829  0.0451
 8584SOL    HW226278   1.083   4.810   2.546  0.5968 -1.5463 -0.8402
 8585SOL     OW26279   0.443   0.134   1.655  0.4766 -0.1691  0.1043
 8585SOL    HW126280   0.467   0.064   1.715 -1.2923 -1.2788 -0.3983
 8585SOL    HW226281   0.511   0.132   1.588  0.1596 -1.8212 -0.2133
 8586SOL     OW26282   6.609   2.726   3.808  0.2576 -0.2019 -0.3216
 8586SOL    HW126283   6.595   2.741   3.901 -0.5468  1.3788 -0.6690
 8586SOL    HW226284   6.542   2.779   3.765 -1.1614 -2.9627 -1.7707
 8587SOL     OW26285   2.248   5.580   7.492 -0.0257 -0.3857  0.1497
 8587SOL    HW126286   2.242   5.534   7.576 -1.6188 -0.4901  0.0185
 8587SOL    HW226287   2.270   5.670   7.516  0.3462 -0.5950  0.6155
 8588SOL     OW26288   3.444   2.387   6.958  0.7470  0.0460  0.3776
 8588SOL    HW126289   3.515   2.344   6.911 -0.3436 -0.7725 -0.5720
 8588SOL    HW226290   3.430   2.469   6.910 -0.2743 -0.7260 -0.6855
 8589SOL     OW26291   5.377   3.507   6.846  0.9701 -0.4440 -0.2584
 8589SOL    HW126292   5.340   3.497   6.934 -1.2291  0.1082 -1.0510
 8589SOL    HW226293   5.395   3.417   6.818 -1.5485 -0.9524 -0.4902
 8590SOL     OW26294   4.191   1.155   4.273 -0.4972  0.1331  0.4648
 8590SOL    HW126295   4.224   1.223   4.332 -0.6592  0.6980 -0.0910
 8590SOL    HW226296   4.251   1.157   4.199  0.2536 -1.1948  0.9883
 8591SOL     OW26297   6.556   0.994   5.545  0.0568 -0.4051  0.5576
 8591SOL    HW126298   6.642   0.953   5.556 -0.2777 -1.8078 -1.4691
 8591SOL    HW226299   6.515   0.987   5.631  1.3142 -1.3028  1.1157
 8592SOL     OW26300   2.233   1.554   5.661  0.2920  0.2559  0.1920
 8592SOL    HW126301   2.325   1.572   5.645  0.6968 -0.9168  1.0932
 8592SOL    HW226302   2.220   1.575   5.754 -0.5344  1.1141 -0.1025
 8593SOL     OW26303   7.501   5.562   0.104  0.5910 -0.0580  0.0637
 8593SOL    HW126304   7.418   5.568   0.151 -0.0611  0.1066 -1.0859
 8593SOL    HW226305   7.564   5.606   0.161  0.1449 -1.1767  1.4867
 8594SOL     OW26306   4.930   3.242   7.336  0.0382  0.4094  0.1313
 8594SOL    HW126307   4.992   3.170   7.345  1.0011  1.1152 -0.5867
 8594SOL    HW226308   4.985   3.318   7.314 -1.1192  0.9740 -0.9243
 8595SOL     OW26309   1.770   3.843   2.537  0.4191 -0.3777 -0.1884
 8595SOL    HW126310   1.790   3.889   2.618 -1.5173 -0.5380  0.4433
 8595SOL    HW226311   1.743   3.912   2.477 -0.4709 -0.4691  0.0932
 8596SOL     OW26312   2.828   6.844   0.917 -0.2444 -0.2246 -0.4140
 8596SOL    HW126313   2.894   6.797   0.968 -0.0555 -1.5362 -1.7925
 8596SOL    HW226314   2.835   6.935   0.946 -1.5950 -1.1738  3.3985
 8597SOL     OW26315   1.616   5.312   3.675  0.0886  0.8558 -0.0845
 8597SOL    HW126316   1.636   5.315   3.582  1.5917  1.4508  0.2394
 8597SOL    HW226317   1.520   5.309   3.679 -0.0123  1.4018 -1.6247
 8598SOL     OW26318   2.156   7.221   4.584 -0.1451  0.4571 -0.5567
 8598SOL    HW126319   2.079   7.165   4.594  1.4006 -1.7212 -0.0677
 8598SOL    HW226320   2.230   7.161   4.591  1.7554  2.8566  2.6277
 8599SOL     OW26321   2.764   3.207   3.085  0.6174  0.2355 -0.0634
 8599SOL    HW126322   2.750   3.113   3.100 -0.2841  0.3789  0.0853
 8599SOL    HW226323   2.850   3.212   3.043  0.1236 -0.7916 -1.2985
 8600SOL     OW26324   6.459   4.945   3.055  0.2641 -0.4882  0.1396
 8600SOL    HW126325   6.533   4.884   3.051  1.2327  0.6726 -0.0406
 8600SOL    HW226326   6.476   4.998   3.133 -0.8643 -0.7950  0.6191
 8601SOL     OW26327   6.909   0.950   4.954  0.1577 -0.4951  0.4253
 8601SOL    HW126328   6.942   1.022   5.007  0.3988 -0.4850  0.2644
 8601SOL    HW226329   6.954   0.873   4.988  1.5296 -0.2778 -0.7822
 8602SOL     OW26330   3.680   2.595   5.764 -0.0711  0.7031  0.0113
 8602SOL    HW126331   3.715   2.533   5.699  1.8351 -0.5364  2.0711
 8602SOL    HW226332   3.630   2.541   5.825 -2.0790  1.8888 -0.4859
 8603SOL     OW26333   0.032   6.806   2.217 -0.0246  0.3394 -0.1916
 8603SOL    HW126334  -0.002   6.850   2.295 -0.4634 -0.0613 -0.1506
 8603SOL    HW226335  -0.027   6.833   2.147  0.1294  0.3830 -0.3031
 8604SOL     OW26336   1.244   1.380   1.737  0.0733  0.3881 -0.5798
 8604SOL    HW126337   1.250   1.399   1.644  1.7812  0.0947 -0.5802
 8604SOL    HW226338   1.278   1.458   1.780  0.8437 -0.0884 -0.2967
 8605SOL     OW26339   1.355   1.698   0.551 -0.4201 -0.4272  0.2741
 8605SOL    HW126340   1.385   1.635   0.615 -0.6206 -1.1481 -0.3267
 8605SOL    HW226341   1.291   1.651   0.498  0.6815 -0.2807 -1.2853
 8606SOL     OW26342   2.120   6.107   6.727 -0.2245  0.7964  0.5869
 8606SOL    HW126343   2.085   6.123   6.639 -1.1718  0.4584  0.8938
 8606SOL    HW226344   2.215   6.103   6.714 -0.4259 -2.7826 -1.0310
 8607SOL     OW26345   7.268   2.043   5.840 -0.3897  0.0185  0.1239
 8607SOL    HW126346   7.289   2.133   5.815  1.1606 -0.0137  1.1744
 8607SOL    HW226347   7.236   2.003   5.759  1.1505  0.8792 -0.9743
 8608SOL     OW26348   0.733   2.640   5.414  0.9598  0.8494 -0.0718
 8608SOL    HW126349   0.700   2.565   5.462  0.0727 -0.6269 -2.7827
 8608SOL    HW226350   0.706   2.716   5.466 -1.8644 -0.5350  0.6454
 8609SOL     OW26351   0.901   0.722   2.358 -0.2206 -0.5688 -0.2356
 8609SOL    HW126352   0.975   0.681   2.313  1.4368  0.4857  1.3773
 8609SOL    HW226353   0.894   0.675   2.441  0.8032  1.3746  1.0301
 8610SOL     OW26354   2.780   3.894   1.649 -0.5662 -0.3849  0.3119
 8610SOL    HW126355   2.848   3.958   1.668 -1.8042  1.0378  0.1637
 8610SOL    HW226356   2.765   3.849   1.733 -1.3285  1.1947  1.0578
 8611SOL     OW26357   5.155   1.455   3.803  0.6488  0.2972  0.0158
 8611SOL    HW126358   5.217   1.503   3.748 -0.5542  0.6714 -1.0755
 8611SOL    HW226359   5.175   1.363   3.785 -0.8047  0.3706 -2.4514
 8612SOL     OW26360   3.012   3.204   5.475  0.6056  0.8813  0.2602
 8612SOL    HW126361   2.922   3.223   5.504  0.3637 -0.1034  0.1836
 8612SOL    HW226362   3.038   3.128   5.526  0.8945  0.3061 -0.7208
 8613SOL     OW26363   0.833   6.935   3.665  0.0495  0.2942  0.4150
 8613SOL    HW126364   0.864   6.907   3.579 -1.8276  0.7808 -0.4536
 8613SOL    HW226365   0.863   7.025   3.673  0.5613  0.1281  0.4747
 8614SOL     OW26366   2.852   0.579   2.235 -0.2595  0.7042  0.0157
 8614SOL    HW126367   2.908   0.546   2.305  1.1783  0.8637 -1.0261
 8614SOL    HW226368   2.910   0.631   2.179 -1.1641 -0.1126 -1.7713
 8615SOL     OW26369   0.541   1.544   5.085  0.1109 -0.2479 -0.3882
 8615SOL    HW126370   0.499   1.551   5.171 -0.6126  1.4017 -0.8366
 8615SOL    HW226371   0.528   1.453   5.059  0.2631 -0.7542  1.1904
 8616SOL     OW26372   5.645   0.813   0.017 -0.5245  0.0122 -0.0156
 8616SOL    HW126373   5.643   0.733  -0.035  0.0696  0.5691 -0.9218
 8616SOL    HW226374   5.594   0.876  -0.035 -1.9617 -0.0773  1.2260
 8617SOL     OW26375   5.640   6.189   6.048 -0.0134 -0.2897  0.1421
 8617SOL    HW126376   5.635   6.103   6.007  1.3433 -0.2374 -0.1715
 8617SOL    HW226377   5.684   6.173   6.132 -1.2736 -0.1378  0.8625
 8618SOL     OW26378   0.801   7.060   7.357  0.6043  0.1324 -0.1872
 8618SOL    HW126379   0.730   7.065   7.421  0.3832 -1.1664 -0.3099
 8618SOL    HW226380   0.879   7.039   7.409  0.5728 -0.1323 -0.2446
 8619SOL     OW26381   2.991   7.048   5.286 -0.4174  0.6305  0.2928
 8619SOL    HW126382   2.913   7.103   5.297  0.0847  1.1922  1.1581
 8619SOL    HW226383   3.031   7.079   5.205 -1.1126  0.2963 -0.1911
 8620SOL     OW26384   1.919   3.961   0.604  0.2924 -0.0854 -0.1138
 8620SOL    HW126385   1.890   3.872   0.623 -2.4664  1.1761  2.3681
 8620SOL    HW226386   1.962   3.990   0.684 -1.0924  1.6084  0.0520
 8621SOL     OW26387   1.100   2.785   6.706 -0.4122 -0.2658 -0.1394
 8621SOL    HW126388   1.085   2.831   6.789 -0.2942 -0.0458 -0.2378
 8621SOL    HW226389   1.145   2.850   6.651 -1.4627 -0.0481 -0.7548
 8622SOL     OW26390   4.219   1.737   6.733  0.4835  0.6340  0.1694
 8622SOL    HW126391   4.140   1.685   6.746  0.2884  0.2736 -2.1566
 8622SOL    HW226392   4.289   1.673   6.725  0.7166  0.8743  0.2493
 8623SOL     OW26393   2.749   5.921   1.973 -0.2013 -0.8382 -0.0594
 8623SOL    HW126394   2.703   6.004   1.972  0.6758 -0.3390 -1.0495
 8623SOL    HW226395   2.767   5.904   2.065 -0.3441  0.0837  0.1437
 8624SOL     OW26396   0.594   0.376   3.663 -0.2822 -0.0870 -0.1507
 8624SOL    HW126397   0.518   0.434   3.662  0.1191  0.4788 -2.0679
 8624SOL    HW226398   0.669   0.434   3.658  0.3525 -0.6171  2.2386
 8625SOL     OW26399   6.701   6.272   6.895 -0.1517 -0.0342  0.5802
 8625SOL    HW126400   6.714   6.341   6.960  0.2249 -0.3388  0.8396
 8625SOL    HW226401   6.681   6.194   6.947  1.0007 -0.4757  0.3903
 8626SOL     OW26402   0.343   5.158   1.325 -0.2418 -0.2392  0.1636
 8626SOL    HW126403   0.326   5.144   1.418  0.4560  0.1457  0.3610
 8626SOL    HW226404   0.320   5.076   1.283 -1.8186  0.0009  0.4955
 8627SOL     OW26405   2.546   2.380   0.713  0.2151  0.1591  0.0325
 8627SOL    HW126406   2.468   2.393   0.660  1.0846  0.7944 -1.1397
 8627SOL    HW226407   2.534   2.294   0.753 -1.6958  0.8130  0.9969
 8628SOL     OW26408   1.700   4.334   5.898 -0.9700  0.3115 -0.0282
 8628SOL    HW126409   1.682   4.389   5.822 -2.0062  1.0153  0.6921
 8628SOL    HW226410   1.766   4.272   5.868 -0.9303  0.9467 -1.3227
 8629SOL     OW26411   4.613   2.461   3.916  0.0916  0.4740  0.2601
 8629SOL    HW126412   4.693   2.413   3.938 -0.2670 -0.1718  0.1740
 8629SOL    HW226413   4.546   2.394   3.908  0.1799  0.6195 -2.8828
 8630SOL     OW26414   2.523   3.441   0.704  0.6278 -0.5541 -0.7208
 8630SOL    HW126415   2.559   3.522   0.739 -0.0499 -0.2152 -0.8094
 8630SOL    HW226416   2.591   3.408   0.645  2.0925 -1.4724  1.3597
 8631SOL     OW26417   7.403   2.531   2.186 -0.7240  0.3803  0.4048
 8631SOL    HW126418   7.436   2.456   2.136  0.9135  0.3721  1.4063
 8631SOL    HW226419   7.457   2.531   2.266 -0.4247  2.8271  0.2654
 8632SOL     OW26420   1.254   7.468   2.812 -0.2374 -0.1388 -0.0414
 8632SOL    HW126421   1.316   7.511   2.872 -0.0358  1.0191 -1.0382
 8632SOL    HW226422   1.309   7.419   2.752 -0.3798 -0.4333  0.0698
 8633SOL     OW26423   5.590   1.482   7.095  0.2092 -0.0138 -0.0652
 8633SOL    HW126424   5.658   1.424   7.063  0.3800  0.1400  0.0203
 8633SOL    HW226425   5.629   1.526   7.170  0.5336  1.1838 -0.9230
 8634SOL     OW26426   0.304   4.880   3.403  0.3247 -0.0129  0.1103
 8634SOL    HW126427   0.347   4.951   3.357 -1.7534  1.0713 -0.2939
 8634SOL    HW226428   0.295   4.811   3.338 -1.5811  1.0844 -0.8901
 8635SOL     OW26429   2.879   0.790   4.111  0.3992 -0.4841 -0.0333
 8635SOL    HW126430   2.959   0.798   4.058  2.0589 -2.3773  1.9436
 8635SOL    HW226431   2.872   0.696   4.128 -1.3387 -0.1686  1.2285
 8636SOL     OW26432   1.318   1.142   6.160  0.0791  0.0358 -0.0709
 8636SOL    HW126433   1.328   1.107   6.071  0.0818  0.1807 -0.1268
 8636SOL    HW226434   1.270   1.073   6.206 -0.0327  0.0126 -0.2175
 8637SOL     OW26435   3.565   2.319   3.306 -0.1227 -0.9279 -0.3004
 8637SOL    HW126436   3.558   2.251   3.373 -0.2290 -1.3083 -0.6929
 8637SOL    HW226437   3.532   2.277   3.226  0.9017 -0.7874 -0.8076
 8638SOL     OW26438   2.679   0.701   3.513 -0.1067  0.5129  0.0773
 8638SOL    HW126439   2.749   0.765   3.525  1.4915 -1.1641  0.2527
 8638SOL    HW226440   2.721   0.629   3.466 -1.4595 -0.9604  1.0280
 8639SOL     OW26441   0.019   4.406   1.992  0.0725 -0.2324  0.1167
 8639SOL    HW126442  -0.008   4.476   1.932 -1.0599 -0.4085  0.3964
 8639SOL    HW226443   0.028   4.328   1.936 -0.1470 -0.2032  0.0412
 8640SOL     OW26444   1.151   1.010   3.906  0.3649 -0.1005  0.1119
 8640SOL    HW126445   1.056   1.007   3.919  0.2909  0.2177 -0.3532
 8640SOL    HW226446   1.187   0.970   3.985 -0.0228  2.7999  1.9021
 8641SOL     OW26447   7.042   0.550   5.688 -1.1909  0.3499 -0.1847
 8641SOL    HW126448   7.063   0.509   5.772  0.4007 -0.1009 -0.7793
 8641SOL    HW226449   7.121   0.600   5.665 -1.0214 -0.7187 -2.1100
 8642SOL     OW26450   3.582   0.664   0.594  0.2268  0.4431  0.0088
 8642SOL    HW126451   3.576   0.603   0.667 -2.5579  0.2065 -0.3364
 8642SOL    HW226452   3.541   0.619   0.520 -0.8666  2.2544 -0.5583
 8643SOL     OW26453   5.672   0.472   0.096  0.1484  0.2089 -0.7894
 8643SOL    HW126454   5.630   0.443   0.015  0.6035 -0.5939 -0.7562
 8643SOL    HW226455   5.755   0.511   0.067  0.4602 -0.3703 -0.7016
 8644SOL     OW26456   4.323   4.320   0.749 -0.5081  0.4068 -0.4158
 8644SOL    HW126457   4.355   4.394   0.801  0.6721 -0.1216 -0.3548
 8644SOL    HW226458   4.403   4.279   0.715 -1.1884 -0.3178 -1.1689
 8645SOL     OW26459   5.094   5.013   1.355 -0.2553  0.2131  0.1869
 8645SOL    HW126460   5.070   4.922   1.341 -1.2416  0.3769  0.6738
 8645SOL    HW226461   5.171   5.009   1.412  0.1830 -0.3215 -0.4353
 8646SOL     OW26462   0.203   5.497   5.768 -0.5306  0.0187 -0.1797
 8646SOL    HW126463   0.246   5.533   5.691 -1.8373  0.2153 -0.8531
 8646SOL    HW226464   0.117   5.539   5.770 -0.8523 -0.6320  0.8859
 8647SOL     OW26465   0.512   1.264   0.094 -0.5374  0.0110  0.8720
 8647SOL    HW126466   0.469   1.190   0.051 -0.4779  1.2126 -1.3771
 8647SOL    HW226467   0.452   1.337   0.080  1.2246  1.2670 -0.5200
 8648SOL     OW26468   2.625   1.845   3.281 -0.7248 -0.4125  0.4942
 8648SOL    HW126469   2.632   1.939   3.301 -0.8783 -0.2078 -0.3722
 8648SOL    HW226470   2.550   1.839   3.222 -1.0240 -1.1543  0.9342
 8649SOL     OW26471   5.956   0.804   3.269 -0.6161 -0.0697  0.4473
 8649SOL    HW126472   6.020   0.873   3.253 -1.2674  0.5732  0.5479
 8649SOL    HW226473   6.001   0.741   3.325  0.2795 -0.1854 -0.3739
 8650SOL     OW26474   6.474   4.620   4.706  0.2163  0.3377  0.5479
 8650SOL    HW126475   6.515   4.668   4.634  0.1867  0.7430  0.7943
 8650SOL    HW226476   6.486   4.677   4.782  1.9233 -0.9221  1.2725
 8651SOL     OW26477   1.784   2.733   1.727 -0.3546  0.0134  0.3089
 8651SOL    HW126478   1.823   2.760   1.644  0.9747  0.9031  1.1844
 8651SOL    HW226479   1.693   2.711   1.705  0.0068  0.0909 -1.3878
 8652SOL     OW26480   2.652   2.631   7.406 -0.3150 -0.3606 -0.0468
 8652SOL    HW126481   2.720   2.645   7.339 -1.0012  2.9186 -0.2155
 8652SOL    HW226482   2.691   2.665   7.487 -2.1564  3.2995 -0.4810
 8653SOL     OW26483   2.372   5.465   5.538  0.1784  0.3668  0.1122
 8653SOL    HW126484   2.387   5.552   5.500 -3.2289 -0.3851 -3.6408
 8653SOL    HW226485   2.434   5.408   5.492 -0.8140  0.1661 -1.0237
 8654SOL     OW26486   1.092   0.427   0.810 -0.0898 -0.1922  0.0732
 8654SOL    HW126487   1.115   0.334   0.806  0.6081  0.0236 -2.6569
 8654SOL    HW226488   1.008   0.432   0.765  0.1494  0.5679 -0.2923
 8655SOL     OW26489   4.738   4.259   5.890 -0.4119 -0.1910  0.1437
 8655SOL    HW126490   4.757   4.184   5.946  3.2036  0.4188  0.0018
 8655SOL    HW226491   4.751   4.336   5.946  1.7269  0.3853 -1.0186
 8656SOL     OW26492   6.107   3.276   7.292  0.0937 -0.1211  0.2403
 8656SOL    HW126493   6.061   3.217   7.233 -1.2819 -2.2287  3.1561
 8656SOL    HW226494   6.179   3.224   7.328  0.0893  0.6149  1.3858
 8657SOL     OW26495   6.609   3.594   3.367  0.1090 -0.1455  0.3906
 8657SOL    HW126496   6.662   3.624   3.441  0.0106 -1.0379  0.8288
 8657SOL    HW226497   6.556   3.671   3.343  1.3329  0.6613  0.1597
 8658SOL     OW26498   0.911   5.662   4.125 -0.3583 -0.4267  0.1990
 8658SOL    HW126499   0.945   5.580   4.159 -0.1263 -0.4752 -0.1444
 8658SOL    HW226500   0.934   5.727   4.191  0.7587 -0.3922 -0.2026
 8659SOL     OW26501   0.840   0.908   1.480  0.4079 -0.1409  0.1983
 8659SOL    HW126502   0.835   0.946   1.568  1.1794  2.0165 -0.6323
 8659SOL    HW226503   0.909   0.957   1.436 -0.7442 -0.3689 -2.0059
 8660SOL     OW26504   1.429   0.032   7.266 -0.2797  0.0930  0.0148
 8660SOL    HW126505   1.481   0.053   7.189  0.8892  2.3920  1.3302
 8660SOL    HW226506   1.491  -0.006   7.328  0.0390  2.9061  1.6182
 8661SOL     OW26507   6.149   0.685   7.150  0.5842 -0.4455  0.3756
 8661SOL    HW126508   6.106   0.769   7.141  1.4831  0.0226  0.3015
 8661SOL    HW226509   6.080   0.620   7.136  0.3788  0.2428 -2.5141
 8662SOL     OW26510   6.312   5.675   5.402  0.3552  0.2789 -0.4888
 8662SOL    HW126511   6.287   5.632   5.320  0.1613 -0.7491  0.0911
 8662SOL    HW226512   6.247   5.744   5.414 -0.6239 -0.6488 -0.3611
 8663SOL     OW26513   5.690   3.508   3.199 -0.0148 -0.3183 -0.5016
 8663SOL    HW126514   5.754   3.513   3.128  0.5033  1.9924  0.0424
 8663SOL    HW226515   5.611   3.548   3.164 -0.7732 -1.9453 -0.7292
 8664SOL     OW26516   2.153   6.319   1.743  0.2369 -0.2813 -1.0745
 8664SOL    HW126517   2.223   6.374   1.777  0.0517  0.0623 -1.2499
 8664SOL    HW226518   2.120   6.273   1.820 -0.0581  0.3569 -0.8159
 8665SOL     OW26519   7.435   3.825   5.912 -0.2686  0.1284  0.6072
 8665SOL    HW126520   7.455   3.769   5.837  0.9836  1.3776 -0.0228
 8665SOL    HW226521   7.516   3.827   5.963  0.1691  2.3952 -0.0839
 8666SOL     OW26522   5.827   0.678   3.044 -0.4718 -0.1524  0.0017
 8666SOL    HW126523   5.883   0.736   3.096 -1.2499 -0.3489  1.1019
 8666SOL    HW226524   5.830   0.594   3.090 -0.4805 -0.5897 -0.7745
 8667SOL     OW26525   0.572   1.557   4.371 -0.1717  0.1629 -0.2346
 8667SOL    HW126526   0.541   1.647   4.367 -0.1269  0.2469  0.9929
 8667SOL    HW226527   0.660   1.563   4.407  0.1480 -0.3066 -0.9258
 8668SOL     OW26528   5.204   7.277   3.305  0.3814 -0.1401  0.2620
 8668SOL    HW126529   5.181   7.189   3.275  1.6267 -0.4166  0.0742
 8668SOL    HW226530   5.141   7.296   3.375  0.2471 -1.2722  0.4656
 8669SOL     OW26531   2.391   4.342   6.528 -0.5198 -0.4079 -0.1998
 8669SOL    HW126532   2.365   4.290   6.452  1.5079 -1.2925 -0.3510
 8669SOL    HW226533   2.482   4.316   6.545  0.9744  3.7070 -0.8052
 8670SOL     OW26534   0.488   0.779   2.028 -0.4658 -0.4524  0.5128
 8670SOL    HW126535   0.551   0.780   2.100 -0.0428 -1.9224  0.1986
 8670SOL    HW226536   0.441   0.862   2.036  1.6467  0.7870  0.6220
 8671SOL     OW26537   6.317   2.250   3.967 -0.1014  0.0948 -0.3469
 8671SOL    HW126538   6.348   2.316   3.905 -0.2072  1.0916  0.6167
 8671SOL    HW226539   6.309   2.170   3.916  0.6370  0.6792 -1.4118
 8672SOL     OW26540   4.054   4.392   4.182  0.5269  0.2963  0.6657
 8672SOL    HW126541   3.992   4.460   4.157  0.0415 -0.0486  0.9113
 8672SOL    HW226542   4.058   4.398   4.278  1.5218  0.8732  0.6062
 8673SOL     OW26543   5.278   6.889   0.832  0.5195  0.1974  0.0095
 8673SOL    HW126544   5.207   6.864   0.891  0.1414 -0.4204 -0.6844
 8673SOL    HW226545   5.238   6.953   0.772  0.3648 -0.6216 -0.7758
 8674SOL     OW26546   1.291   0.214   4.444  0.8954  0.3277 -0.4281
 8674SOL    HW126547   1.375   0.168   4.450  1.4632  1.3244 -0.5256
 8674SOL    HW226548   1.287   0.268   4.522  0.1116 -0.0630 -0.1853
 8675SOL     OW26549   3.907   2.336   3.091 -0.5118  0.2675 -0.2833
 8675SOL    HW126550   3.857   2.282   3.030 -0.3720 -0.6263  0.3709
 8675SOL    HW226551   3.980   2.370   3.039 -1.7521  1.5656 -1.2456
 8676SOL     OW26552   3.433   1.876   1.066 -0.1086  0.4864 -0.0680
 8676SOL    HW126553   3.389   1.812   1.122  0.2932  0.3115  0.0521
 8676SOL    HW226554   3.505   1.909   1.119  0.4763  0.0807 -0.5873
 8677SOL     OW26555   6.261   7.312   4.957 -0.2268 -0.1603  0.4498
 8677SOL    HW126556   6.203   7.299   5.032  0.3238 -0.6667  0.7968
 8677SOL    HW226557   6.339   7.352   4.993  0.4924 -1.4248  0.3491
 8678SOL     OW26558   2.353   5.219   0.665 -0.0368 -0.3755  0.2429
 8678SOL    HW126559   2.364   5.125   0.677 -3.4410 -0.7897  1.1457
 8678SOL    HW226560   2.361   5.256   0.753 -0.3819 -0.0534  0.1411
 8679SOL     OW26561   1.692   3.298   7.060 -0.1617  0.2249 -0.2111
 8679SOL    HW126562   1.777   3.278   7.021  1.3083 -3.2772  3.9656
 8679SOL    HW226563   1.628   3.256   7.003  1.2907 -0.4513 -1.3906
 8680SOL     OW26564   1.401   1.244   1.923 -0.2057 -0.3618 -0.6361
 8680SOL    HW126565   1.341   1.292   1.866 -0.2448  0.5120  0.1333
 8680SOL    HW226566   1.411   1.159   1.880 -0.5555  0.1305 -1.7355
 8681SOL     OW26567   1.675   4.462   0.197 -0.0428  0.4956 -0.6652
 8681SOL    HW126568   1.725   4.387   0.164  0.8394  0.5838  0.3958
 8681SOL    HW226569   1.632   4.429   0.276  0.7053  1.2001  0.0574
 8682SOL     OW26570   2.056   0.856   3.950  0.2334 -0.0644  0.2108
 8682SOL    HW126571   2.130   0.913   3.973  0.7642  0.0928 -1.7485
 8682SOL    HW226572   1.980   0.913   3.954  0.7136  0.7603 -1.3835
 8683SOL     OW26573   4.427   6.450   6.977  0.4972 -0.4995  0.5357
 8683SOL    HW126574   4.346   6.425   7.020 -0.0597  1.1753  0.5579
 8683SOL    HW226575   4.408   6.440   6.883  1.0738 -2.3309  0.5887
 8684SOL     OW26576   2.551   1.441   4.068  0.1963  0.3088  0.2098
 8684SOL    HW126577   2.629   1.437   4.123  0.2743  0.4990  0.1138
 8684SOL    HW226578   2.486   1.390   4.115  0.2383  0.5376  0.5214
 8685SOL     OW26579   4.895   4.870   6.928  0.2249  0.3469 -0.0406
 8685SOL    HW126580   4.933   4.939   6.873  0.3219 -0.9014 -1.5958
 8685SOL    HW226581   4.968   4.839   6.982  0.9822 -0.6298 -1.5527
 8686SOL     OW26582   5.461   5.369   1.167 -0.1306  0.3987  0.3840
 8686SOL    HW126583   5.414   5.287   1.183  0.0226  0.1567 -0.3979
 8686SOL    HW226584   5.476   5.370   1.073  0.1409  1.1814  0.4343
 8687SOL     OW26585   3.195   4.384   6.837  0.1734 -0.0303  0.0004
 8687SOL    HW126586   3.253   4.310   6.817 -1.0498 -1.1246  0.3082
 8687SOL    HW226587   3.118   4.343   6.876 -0.7367  1.3895 -0.2533
 8688SOL     OW26588   5.513   5.090   3.369 -0.2878 -0.5429  0.1027
 8688SOL    HW126589   5.529   5.164   3.428 -2.3414 -1.2810  1.6977
 8688SOL    HW226590   5.590   5.088   3.312  1.2492  0.9236  1.9929
 8689SOL     OW26591   0.024   4.002   2.903  0.0083  0.0177 -0.3396
 8689SOL    HW126592   0.063   3.993   2.816 -0.9300 -1.9323 -0.6106
 8689SOL    HW226593  -0.070   4.014   2.887  0.0764  1.9090  0.3809
 8690SOL     OW26594   1.490   2.546   6.686  0.1837  0.8368  0.6953
 8690SOL    HW126595   1.441   2.517   6.609  2.3388 -0.7593 -0.1994
 8690SOL    HW226596   1.502   2.640   6.672  0.8238  0.5324 -1.1709
 8691SOL     OW26597   6.896   2.962   5.691 -0.5636 -0.1832  0.5518
 8691SOL    HW126598   6.831   3.033   5.693 -2.4107 -1.7884  1.0495
 8691SOL    HW226599   6.888   2.926   5.602 -0.1928 -0.2635  0.5514
 8692SOL     OW26600   2.538   0.948   1.088  0.3623 -0.0575  0.1995
 8692SOL    HW126601   2.462   0.980   1.137  0.6868  1.3521 -0.1569
 8692SOL    HW226602   2.569   1.025   1.039 -0.5390 -1.5882 -3.0527
 8693SOL     OW26603   2.636   3.963   6.566 -0.0832  0.1395  0.0973
 8693SOL    HW126604   2.582   3.885   6.583  0.9359 -1.2261 -2.3985
 8693SOL    HW226605   2.599   4.001   6.487  2.8265 -1.2649 -2.1519
 8694SOL     OW26606   7.474   4.953   2.410  0.1226 -0.0268 -0.2864
 8694SOL    HW126607   7.424   5.017   2.461 -0.1477  0.5863 -1.2890
 8694SOL    HW226608   7.526   5.005   2.349  0.0983 -0.7464 -0.9432
 8695SOL     OW26609   0.343   2.051   2.037 -0.1163 -0.4020 -0.4065
 8695SOL    HW126610   0.280   2.042   2.107  0.9915 -0.3732  0.6253
 8695SOL    HW226611   0.416   2.100   2.075 -0.4574  1.6640 -2.2311
 8696SOL     OW26612   5.723   6.374   5.751 -0.1742 -0.3483 -0.4679
 8696SOL    HW126613   5.797   6.425   5.785 -0.1321  0.3965 -1.6065
 8696SOL    HW226614   5.679   6.340   5.829  1.0221 -0.3068  0.2501
 8697SOL     OW26615   0.747   1.955   7.328 -0.4357 -0.6390  0.1864
 8697SOL    HW126616   0.785   1.931   7.413  1.8214 -0.6119 -0.7520
 8697SOL    HW226617   0.745   2.051   7.330  0.1205 -0.6210  0.0132
 8698SOL     OW26618   5.119   2.859   1.813 -0.4287  0.3738 -0.0136
 8698SOL    HW126619   5.044   2.849   1.754 -0.4193 -2.5162  0.3090
 8698SOL    HW226620   5.191   2.813   1.768 -0.1268 -0.9117  1.6676
 8699SOL     OW26621   4.224   5.814   2.330 -0.4711 -0.6397 -0.2984
 8699SOL    HW126622   4.298   5.844   2.382 -0.6268 -1.5972  0.5086
 8699SOL    HW226623   4.218   5.876   2.257 -1.0803  1.5785  1.5330
 8700SOL     OW26624   1.258   5.158   4.291  0.2823 -0.6775 -0.2618
 8700SOL    HW126625   1.244   5.066   4.315  0.0986 -0.3821  0.8368
 8700SOL    HW226626   1.307   5.195   4.365 -1.3226  0.5739  0.2341
 8701SOL     OW26627   4.627   4.183   2.078 -0.0717  0.0569 -0.2407
 8701SOL    HW126628   4.685   4.164   2.153 -1.7026 -0.1071  1.0323
 8701SOL    HW226629   4.626   4.102   2.028 -0.9190 -0.6915  0.9460
 8702SOL     OW26630   0.472   3.466   4.148 -0.5621  0.4512  0.5727
 8702SOL    HW126631   0.418   3.516   4.208 -1.0325  0.1369  0.4137
 8702SOL    HW226632   0.421   3.388   4.128 -0.6456  0.7934 -0.6477
 8703SOL     OW26633   1.119   4.767   3.537  0.3985 -0.1567 -0.2532
 8703SOL    HW126634   1.134   4.734   3.448 -0.4005 -0.7686 -0.1734
 8703SOL    HW226635   1.150   4.697   3.594 -0.7901 -0.5776 -0.0781
 8704SOL     OW26636   6.888   2.397   1.597  0.5351 -0.5355  0.1497
 8704SOL    HW126637   6.842   2.417   1.679  0.4349  1.4103 -0.3412
 8704SOL    HW226638   6.819   2.371   1.537  0.5278 -1.2356  0.4460
 8705SOL     OW26639   5.037   7.162   2.687 -0.0585 -0.0438 -0.1387
 8705SOL    HW126640   5.026   7.172   2.781  2.0750 -1.3923  0.3212
 8705SOL    HW226641   4.953   7.129   2.656 -0.8334  0.5404  1.2357
 8706SOL     OW26642   4.578   6.945   0.013  0.3691  0.1298 -0.7550
 8706SOL    HW126643   4.564   6.902   0.098 -0.6363  0.4050 -0.7675
 8706SOL    HW226644   4.492   6.981  -0.010  0.2636 -1.1237 -2.5415
 8707SOL     OW26645   0.116   6.826   0.150 -0.0635  0.0459 -0.8219
 8707SOL    HW126646   0.175   6.901   0.163 -1.0592  0.7176  0.0569
 8707SOL    HW226647   0.117   6.780   0.234 -1.3906  0.5435 -0.4979
 8708SOL     OW26648   5.753   0.027   2.215 -0.2273  0.2711 -0.1857
 8708SOL    HW126649   5.825  -0.020   2.173 -0.7586 -0.0414 -0.7647
 8708SOL    HW226650   5.782   0.118   2.218 -0.0826  0.2604 -1.0365
 8709SOL     OW26651   6.355   0.026   0.723 -0.2975 -0.2593  0.2497
 8709SOL    HW126652   6.296   0.012   0.797 -0.4952  0.2526  0.1959
 8709SOL    HW226653   6.386  -0.061   0.700  0.4215 -0.3460  1.4741
 8710SOL     OW26654   1.865   4.726   2.208 -0.4935  0.1957 -0.0179
 8710SOL    HW126655   1.809   4.699   2.281 -0.7209  0.2045 -0.1885
 8710SOL    HW226656   1.842   4.818   2.193 -0.3586  0.2289 -0.0201
 8711SOL     OW26657   4.386   6.316   3.768  0.1115 -0.0574 -0.3852
 8711SOL    HW126658   4.322   6.304   3.838  0.3236 -3.8310 -0.6365
 8711SOL    HW226659   4.469   6.333   3.812 -0.2831  0.6093  0.1120
 8712SOL     OW26660   6.555   6.662   5.534 -0.1864  0.3663  0.5122
 8712SOL    HW126661   6.581   6.752   5.515  0.0378 -0.1037 -1.6808
 8712SOL    HW226662   6.474   6.671   5.584 -0.1852  1.7880  0.3044
 8713SOL     OW26663   3.825   3.027   6.194 -0.4696 -0.0473 -0.2984
 8713SOL    HW126664   3.761   2.970   6.151 -1.6783  1.5041 -0.6626
 8713SOL    HW226665   3.823   3.108   6.143  2.0295 -0.0318 -0.4874
 8714SOL     OW26666   1.116   2.740   3.244  0.0483 -0.3628 -0.2298
 8714SOL    HW126667   1.068   2.764   3.323 -0.1913 -0.8742 -0.2194
 8714SOL    HW226668   1.204   2.719   3.276 -0.1301 -0.8593 -0.0587
 8715SOL     OW26669   1.290   2.638   4.249 -0.1347 -0.2722 -1.0013
 8715SOL    HW126670   1.283   2.546   4.222  1.1820 -0.3016 -1.2925
 8715SOL    HW226671   1.289   2.687   4.166  0.3260 -0.1004 -0.9034
 8716SOL     OW26672   3.051   3.092   3.948 -0.0216 -0.2890 -0.1710
 8716SOL    HW126673   3.080   3.142   3.872  0.4187 -1.1892 -0.6015
 8716SOL    HW226674   3.016   3.158   4.008  1.5552  0.6832 -0.2662
 8717SOL     OW26675   4.759   6.473   1.523 -0.4794  0.1884  0.2295
 8717SOL    HW126676   4.786   6.445   1.436 -0.7019  2.1152 -0.5115
 8717SOL    HW226677   4.693   6.409   1.549  0.6457 -1.2811 -0.3453
 8718SOL     OW26678   4.347   2.932   2.074  0.0234  0.3922 -0.6347
 8718SOL    HW126679   4.319   2.868   2.009  0.3968  0.2426 -0.6526
 8718SOL    HW226680   4.307   2.902   2.156 -0.6440  0.7145 -0.8355
 8719SOL     OW26681   6.448   2.763   6.389  0.2016 -0.2115 -0.1501
 8719SOL    HW126682   6.451   2.677   6.429  0.6388 -1.2725 -2.3117
 8719SOL    HW226683   6.479   2.749   6.299  0.4149  2.2161 -0.5285
 8720SOL     OW26684   4.005   7.333   4.566  0.3040 -0.5113 -0.5936
 8720SOL    HW126685   3.977   7.425   4.568 -1.8108 -1.1159  0.3000
 8720SOL    HW226686   4.050   7.321   4.650  1.3019 -0.1033 -1.0600
 8721SOL     OW26687   4.190   3.329   4.333 -0.2733  0.3091  0.4719
 8721SOL    HW126688   4.237   3.290   4.406 -0.0420 -1.0148 -0.3662
 8721SOL    HW226689   4.149   3.255   4.288  1.5534  0.7747 -2.1550
 8722SOL     OW26690   4.792   2.651   6.503  0.6102  0.2493  0.1389
 8722SOL    HW126691   4.880   2.678   6.530  0.3075  0.0381  1.4574
 8722SOL    HW226692   4.768   2.711   6.433  0.9316  1.7979  1.2950
 8723SOL     OW26693   3.959   6.969   4.761  0.3362  0.0195 -0.6601
 8723SOL    HW126694   4.053   6.957   4.746  0.6298 -0.3715  1.3170
 8723SOL    HW226695   3.941   6.920   4.841 -0.7738  3.1766  1.1949
 8724SOL     OW26696   2.783   4.196   4.208 -0.2488 -0.2066  0.2415
 8724SOL    HW126697   2.806   4.117   4.256  0.2986  1.1492  2.3084
 8724SOL    HW226698   2.698   4.223   4.244 -0.6560 -0.0849 -0.7700
 8725SOL     OW26699   1.524   6.021   3.115 -0.0775 -0.1786 -0.6986
 8725SOL    HW126700   1.606   6.046   3.072  0.3139 -0.7333 -0.2835
 8725SOL    HW226701   1.514   6.084   3.186 -0.4820  0.4465 -1.2944
 8726SOL     OW26702   4.723   6.029   2.392 -0.4517 -0.6105  0.2362
 8726SOL    HW126703   4.811   6.061   2.371 -0.1320 -2.4359 -1.5378
 8726SOL    HW226704   4.665   6.100   2.364  0.4122  1.0019  2.2585
 8727SOL     OW26705   6.248   6.281   4.022 -0.2653  0.2156  0.1479
 8727SOL    HW126706   6.262   6.375   4.019  0.2442  0.2653  2.5039
 8727SOL    HW226707   6.329   6.245   4.058 -0.4082 -1.1740 -0.7872
 8728SOL     OW26708   2.856   6.821   2.905 -0.0394  0.3051 -0.2311
 8728SOL    HW126709   2.947   6.819   2.936  0.2062 -0.3084 -0.9666
 8728SOL    HW226710   2.846   6.906   2.863  0.0426  0.5740  0.2851
 8729SOL     OW26711   5.235   3.970   2.748 -0.0957 -0.7624 -0.5068
 8729SOL    HW126712   5.277   4.033   2.807  0.3515 -0.4818 -1.0990
 8729SOL    HW226713   5.142   3.976   2.768 -0.5439  2.6303 -2.7873
 8730SOL     OW26714   3.647   4.835   6.570 -0.6628  0.5845  0.4445
 8730SOL    HW126715   3.674   4.926   6.560 -0.7757  0.5814  0.0701
 8730SOL    HW226716   3.569   4.827   6.515 -0.5124  0.2041  0.2791
 8731SOL     OW26717   5.034   6.515   6.373 -0.5336  0.0988  0.2840
 8731SOL    HW126718   5.086   6.596   6.367 -1.0675  0.3411 -1.7844
 8731SOL    HW226719   5.070   6.470   6.450  0.4724  1.8072  0.8844
 8732SOL     OW26720   1.932   6.463   1.828 -0.0970 -0.1839 -0.0589
 8732SOL    HW126721   1.980   6.402   1.772 -0.5513 -2.0066  1.4383
 8732SOL    HW226722   1.870   6.408   1.876 -2.2943  1.8339 -0.4372
 8733SOL     OW26723   3.133   3.197   3.306  0.3672 -0.2895  0.0109
 8733SOL    HW126724   3.135   3.176   3.213  2.3284  2.2933 -0.6506
 8733SOL    HW226725   3.222   3.182   3.336  0.0738  0.1495  1.1597
 8734SOL     OW26726   2.709   0.158   5.621  0.3857  0.3194  0.0113
 8734SOL    HW126727   2.629   0.163   5.674 -0.4066 -1.1308 -0.9734
 8734SOL    HW226728   2.680   0.179   5.532  1.2619  0.5328 -0.2308
 8735SOL     OW26729   5.382   6.257   2.630  0.8777 -0.2834 -0.5098
 8735SOL    HW126730   5.441   6.332   2.617  0.3207  0.6046  1.5799
 8735SOL    HW226731   5.410   6.221   2.714  1.3260 -2.6631 -1.6168
 8736SOL     OW26732   0.609   2.823   1.536  0.2739 -0.7556 -0.3917
 8736SOL    HW126733   0.529   2.770   1.530  0.9736 -1.7135 -1.9116
 8736SOL    HW226734   0.638   2.811   1.626 -0.9391 -0.9091  0.0054
 8737SOL     OW26735   3.522   7.184   5.246  0.3857 -0.6043  0.0225
 8737SOL    HW126736   3.477   7.268   5.243 -0.6096 -1.0090  1.9443
 8737SOL    HW226737   3.452   7.120   5.255  1.2144 -1.5139  0.1803
 8738SOL     OW26738   6.829   6.198   6.632  0.4436  0.0341 -1.0057
 8738SOL    HW126739   6.764   6.173   6.698  1.3184  0.5596  0.0945
 8738SOL    HW226740   6.907   6.148   6.656  0.5099 -0.4575 -2.2073
 8739SOL     OW26741   2.048   7.325   1.821 -0.4083 -0.0779 -0.7257
 8739SOL    HW126742   2.009   7.260   1.880  0.2281 -0.4106 -0.6699
 8739SOL    HW226743   2.108   7.275   1.766 -0.2464  0.3948 -0.9849
 8740SOL     OW26744   4.254   1.689   0.384  0.1918 -0.1821 -0.2699
 8740SOL    HW126745   4.240   1.748   0.311 -0.8564  1.5896  1.2588
 8740SOL    HW226746   4.170   1.644   0.395  0.3006 -0.3480 -0.1000
 8741SOL     OW26747   0.071   5.060   6.660  1.1339  0.7522 -0.2476
 8741SOL    HW126748   0.060   4.970   6.631  2.7750  1.0886 -2.1301
 8741SOL    HW226749  -0.008   5.079   6.711  0.7385 -1.7101  0.1979
 8742SOL     OW26750   5.642   6.757   4.198 -0.3290 -0.3952 -0.1872
 8742SOL    HW126751   5.687   6.673   4.201 -1.3445 -0.9465  1.1493
 8742SOL    HW226752   5.703   6.816   4.154  1.2340 -1.3558  0.5816
 8743SOL     OW26753   7.406   6.860   5.615  0.5008  0.1141 -0.0527
 8743SOL    HW126754   7.452   6.778   5.598 -0.4670 -0.6362  0.7855
 8743SOL    HW226755   7.398   6.901   5.529 -0.5216 -1.5018 -0.7809
 8744SOL     OW26756   3.503   5.169   5.354  0.4364  0.6265  0.3361
 8744SOL    HW126757   3.517   5.223   5.432 -0.2488  0.8137  0.3342
 8744SOL    HW226758   3.591   5.139   5.330  0.4833 -1.3465  2.5366
 8745SOL     OW26759   0.496   0.615   4.848 -0.2613  0.1292 -0.0700
 8745SOL    HW126760   0.582   0.580   4.825 -0.6840 -0.3283 -1.0073
 8745SOL    HW226761   0.514   0.681   4.915  0.8716  0.4307 -0.6456
 8746SOL     OW26762   4.262   5.640   4.015 -0.1245  0.4040 -0.0193
 8746SOL    HW126763   4.298   5.578   4.079  1.8584  1.3033 -0.1845
 8746SOL    HW226764   4.301   5.614   3.932 -0.0852  1.2354 -0.2729
 8747SOL     OW26765   5.197   7.124   5.110 -0.1785 -0.1024 -0.4438
 8747SOL    HW126766   5.289   7.109   5.132 -0.3960 -0.1271  0.4837
 8747SOL    HW226767   5.168   7.042   5.071 -0.5130 -1.0508  1.7080
 8748SOL     OW26768   6.764   6.205   0.546  0.0698 -0.5001 -0.1106
 8748SOL    HW126769   6.671   6.187   0.561  0.2637 -1.0729  0.4552
 8748SOL    HW226770   6.804   6.118   0.542  0.5061 -0.2661 -0.8713
 8749SOL     OW26771   3.892   0.637   2.769  0.2412 -0.3420 -0.8731
 8749SOL    HW126772   3.961   0.572   2.755 -0.7327 -1.4211 -0.7664
 8749SOL    HW226773   3.821   0.610   2.711 -1.2435 -1.0067  1.1256
 8750SOL     OW26774   5.993   4.437   1.881 -0.4256 -0.3160  0.7563
 8750SOL    HW126775   6.017   4.353   1.920  0.6035 -0.4778 -0.1910
 8750SOL    HW226776   5.994   4.421   1.787 -1.1490  0.5249  0.5958
 8751SOL     OW26777   2.254   4.352   4.524  0.1442 -0.7087  0.4056
 8751SOL    HW126778   2.348   4.365   4.531 -0.0057 -0.1091  1.4432
 8751SOL    HW226779   2.224   4.424   4.468  0.0582  0.2368  1.6374
 8752SOL     OW26780   3.576   5.440   5.760 -1.0820 -0.9019  0.1557
 8752SOL    HW126781   3.509   5.389   5.807 -1.3933  1.1034  2.0531
 8752SOL    HW226782   3.537   5.527   5.749 -0.0505 -0.6358 -1.7838
 8753SOL     OW26783   7.416   7.034   4.438 -0.2058  0.1955 -0.0279
 8753SOL    HW126784   7.356   7.085   4.493 -0.5597  0.0461 -0.2705
 8753SOL    HW226785   7.406   6.944   4.469 -1.9401 -0.2370 -1.6442
 8754SOL     OW26786   5.750   3.192   5.190  0.5061  0.0435 -0.3847
 8754SOL    HW126787   5.731   3.279   5.153 -0.1158 -0.4255 -1.2022
 8754SOL    HW226788   5.673   3.171   5.242  0.7005  0.0164 -0.1040
 8755SOL     OW26789   4.391   1.143   2.667  0.2903  0.0869 -0.1213
 8755SOL    HW126790   4.325   1.212   2.674 -0.5268 -0.6429 -0.3894
 8755SOL    HW226791   4.465   1.185   2.624  0.3490  1.1505  0.9687
 8756SOL     OW26792   4.516   5.066   5.694  0.7579  0.4619  0.0138
 8756SOL    HW126793   4.538   5.036   5.782  0.3467  0.6670  0.1905
 8756SOL    HW226794   4.594   5.047   5.642 -0.1392 -2.7959 -0.3766
 8757SOL     OW26795   2.750   1.985   3.759  0.0861  0.9647  0.3448
 8757SOL    HW126796   2.677   1.946   3.808  1.1282 -0.0676  1.1433
 8757SOL    HW226797   2.789   2.048   3.820 -1.0954  2.7465 -0.6607
 8758SOL     OW26798   3.193   4.236   0.660  1.0908  0.0688 -0.3564
 8758SOL    HW126799   3.232   4.179   0.594 -0.8599 -2.8260  0.7815
 8758SOL    HW226800   3.178   4.318   0.614  1.6051 -1.1581 -2.9297
 8759SOL     OW26801   4.890   0.419   2.148 -0.8467 -0.6186  0.0396
 8759SOL    HW126802   4.876   0.347   2.086  1.3523 -1.5037  0.4509
 8759SOL    HW226803   4.965   0.390   2.200  0.1324  1.9838  0.2162
 8760SOL     OW26804   3.440   1.661   0.773  0.3726  0.2832  0.9819
 8760SOL    HW126805   3.506   1.642   0.839  3.9536  1.1270 -1.9954
 8760SOL    HW226806   3.447   1.756   0.759  0.2031  0.0643 -0.9317
 8761SOL     OW26807   6.620   0.229   6.576  0.0450  0.1050 -0.6310
 8761SOL    HW126808   6.554   0.171   6.535  0.4132 -0.4063 -0.5129
 8761SOL    HW226809   6.676   0.256   6.503  0.7034 -0.8089 -0.4907
 8762SOL     OW26810   7.229   4.880   3.205 -0.5052 -0.5044  0.4565
 8762SOL    HW126811   7.296   4.913   3.146 -0.6925 -1.3226 -0.2208
 8762SOL    HW226812   7.268   4.887   3.292  0.2850 -0.5527  0.1094
 8763SOL     OW26813   0.466   0.016   0.189  0.0615 -0.1893 -0.0347
 8763SOL    HW126814   0.399  -0.024   0.245 -1.3879  1.2839 -0.6715
 8763SOL    HW226815   0.514   0.075   0.248 -0.4710  0.2163 -0.0033
 8764SOL     OW26816   3.289   5.613   6.075  0.0845  0.0257 -0.1688
 8764SOL    HW126817   3.349   5.542   6.099  0.5610  0.0306 -1.3019
 8764SOL    HW226818   3.300   5.677   6.144  0.3782 -0.5702  0.3512
 8765SOL     OW26819   3.664   7.223   6.188 -0.2038  0.7181  0.3783
 8765SOL    HW126820   3.707   7.308   6.176 -1.0536  1.3852  1.7149
 8765SOL    HW226821   3.683   7.199   6.278 -0.7522 -0.0573  0.2950
 8766SOL     OW26822   4.970   0.185   4.402  0.0550 -0.0623  0.1744
 8766SOL    HW126823   5.054   0.230   4.394  0.3627 -0.8312 -1.1363
 8766SOL    HW226824   4.982   0.124   4.475  0.9545 -0.7751 -0.5369
 8767SOL     OW26825   3.888   4.994   2.953  0.2543  0.1388 -0.3066
 8767SOL    HW126826   3.930   5.078   2.970  1.2313 -0.5727  0.9281
 8767SOL    HW226827   3.849   5.004   2.866 -0.8164  2.3202  0.3386
 8768SOL     OW26828   0.883   5.695   3.695 -0.7196  0.2821 -0.3419
 8768SOL    HW126829   0.974   5.710   3.671 -0.4246 -2.2300 -1.0774
 8768SOL    HW226830   0.844   5.782   3.698  1.9204  1.5271  1.0765
 8769SOL     OW26831   7.195   3.930   4.102 -0.0665 -0.0029 -0.8374
 8769SOL    HW126832   7.220   4.005   4.048  1.6725  2.1564  2.5842
 8769SOL    HW226833   7.275   3.878   4.110 -0.4268 -0.5493 -0.7643
 8770SOL     OW26834   6.518   2.526   7.207  0.2084 -0.0169 -0.1840
 8770SOL    HW126835   6.579   2.548   7.136  0.1245 -0.0751 -0.2758
 8770SOL    HW226836   6.465   2.605   7.219  1.9412  0.9313  1.6232
 8771SOL     OW26837   4.656   6.041   7.024  0.0259  0.7587 -0.5732
 8771SOL    HW126838   4.654   5.966   7.084  0.0230  2.3036  1.4802
 8771SOL    HW226839   4.704   6.010   6.948 -0.1154 -1.3626  0.1275
 8772SOL     OW26840   7.536   5.995   6.390  0.2573 -0.3177  0.2228
 8772SOL    HW126841   7.610   6.017   6.333 -0.1991 -0.2893 -0.3620
 8772SOL    HW226842   7.576   5.949   6.464  0.8198 -0.6083 -0.2553
 8773SOL     OW26843   5.272   2.777   1.170 -0.1371  0.3259 -0.2076
 8773SOL    HW126844   5.260   2.708   1.105  0.8200  0.0936 -0.1510
 8773SOL    HW226845   5.366   2.784   1.181 -0.1844  1.9892 -0.5579
 8774SOL     OW26846   2.107   7.046   5.484  0.0509 -0.6296 -0.0418
 8774SOL    HW126847   2.034   6.993   5.452 -0.1306 -0.2874 -0.1983
 8774SOL    HW226848   2.076   7.137   5.477 -1.3000 -0.5688  4.2101
 8775SOL     OW26849   3.524   7.205   4.412  0.4463  0.1693 -1.1635
 8775SOL    HW126850   3.435   7.194   4.379  0.0053  0.7509 -0.2082
 8775SOL    HW226851   3.512   7.236   4.502  1.6083 -1.1941 -0.5167
 8776SOL     OW26852   5.733   5.812   1.533  0.3944 -0.3553 -0.2631
 8776SOL    HW126853   5.742   5.904   1.560 -2.6906  0.2998 -0.9861
 8776SOL    HW226854   5.705   5.816   1.442  1.5805 -2.1153 -0.7482
 8777SOL     OW26855   3.210   3.460   5.258  0.1023  0.1502 -0.2509
 8777SOL    HW126856   3.245   3.374   5.283 -1.0684  0.0710  1.2666
 8777SOL    HW226857   3.207   3.458   5.162  0.1915 -1.4662 -0.2425
 8778SOL     OW26858   0.262   4.357   4.354 -0.2999 -0.3486 -0.1517
 8778SOL    HW126859   0.332   4.297   4.328 -1.5751 -1.3308 -1.4386
 8778SOL    HW226860   0.274   4.368   4.449  1.8741 -0.0738 -0.4019
 8779SOL     OW26861   2.213   7.120   6.306 -0.1968 -0.0207 -0.0527
 8779SOL    HW126862   2.150   7.134   6.377 -1.0778  0.0644 -0.8332
 8779SOL    HW226863   2.281   7.184   6.322 -0.3063 -0.1078  0.8082
 8780SOL     OW26864   3.167   3.846   3.849 -0.1271  0.0418 -0.3270
 8780SOL    HW126865   3.125   3.869   3.932  0.9301 -0.8211  0.4903
 8780SOL    HW226866   3.131   3.761   3.827  0.2848 -0.1571 -0.2457
 8781SOL     OW26867   2.477   6.047   4.796 -0.0821  0.4715  0.1489
 8781SOL    HW126868   2.475   6.135   4.833 -1.8332  0.8039 -0.6623
 8781SOL    HW226869   2.404   6.044   4.734  0.7280 -1.1424 -0.8046
 8782SOL     OW26870   6.666   1.743   5.234 -0.1374 -0.2734  0.3522
 8782SOL    HW126871   6.722   1.821   5.241  1.5462 -1.4758  1.0847
 8782SOL    HW226872   6.664   1.724   5.140  0.4127 -0.0040  0.2803
 8783SOL     OW26873   0.313   7.548   4.679  0.3228 -0.1801 -1.0765
 8783SOL    HW126874   0.325   7.454   4.694  0.1665  0.0487  0.7119
 8783SOL    HW226875   0.219   7.557   4.663 -0.0346 -0.1254  0.8141
 8784SOL     OW26876   4.475   6.059   3.395 -0.2241 -0.4007 -0.7013
 8784SOL    HW126877   4.566   6.074   3.368  0.5541 -0.3429  1.7372
 8784SOL    HW226878   4.434   6.019   3.318  1.9656 -0.8604 -1.7193
 8785SOL     OW26879   0.684   1.336   5.788 -0.2189 -0.4860  0.2652
 8785SOL    HW126880   0.625   1.311   5.716 -1.1323  0.7677  0.5524
 8785SOL    HW226881   0.641   1.410   5.830  0.5644 -0.8642  1.8000
 8786SOL     OW26882   6.867   7.035   5.353 -0.2316 -0.7929  0.2858
 8786SOL    HW126883   6.782   7.078   5.362  0.0573 -0.1502 -0.0470
 8786SOL    HW226884   6.925   7.085   5.411  0.1178 -0.6910 -0.1472
 8787SOL     OW26885   6.003   1.337   6.744  0.1588 -0.1688  0.1207
 8787SOL    HW126886   5.936   1.399   6.773  0.5587  1.2610 -1.8014
 8787SOL    HW226887   6.023   1.364   6.654  3.1606 -0.6690  0.5460
 8788SOL     OW26888   1.170   2.146   4.453 -0.3212 -0.2117 -0.4842
 8788SOL    HW126889   1.261   2.161   4.475 -0.4299  1.5135 -1.0787
 8788SOL    HW226890   1.123   2.223   4.487 -1.2756 -0.2003 -1.7112
 8789SOL     OW26891   0.303   3.642   3.530 -0.5522 -0.5464  0.4363
 8789SOL    HW126892   0.348   3.593   3.599  1.8664 -0.4560 -0.9549
 8789SOL    HW226893   0.299   3.581   3.456 -1.7371 -0.1381  0.1364
 8790SOL     OW26894   6.051   5.680   7.313  0.2930 -0.4154 -0.0657
 8790SOL    HW126895   6.116   5.651   7.377  0.4681  0.6236  0.2462
 8790SOL    HW226896   6.002   5.749   7.358 -0.9261 -1.0475 -0.3600
 8791SOL     OW26897   5.427   2.348   5.922 -0.2340  0.3357 -0.3260
 8791SOL    HW126898   5.381   2.312   5.846  0.4065  0.2679 -0.6884
 8791SOL    HW226899   5.483   2.416   5.885  2.2270 -1.5578 -0.3573
 8792SOL     OW26900   0.203   2.411   4.878 -0.2339 -0.0151 -0.0069
 8792SOL    HW126901   0.277   2.410   4.938  0.1067 -1.1537 -0.4046
 8792SOL    HW226902   0.170   2.501   4.880 -0.0956  0.0232  1.6878
 8793SOL     OW26903   1.815   0.100   1.141 -0.2699  0.4187 -0.0488
 8793SOL    HW126904   1.878   0.165   1.172  0.5055 -0.0861 -0.5207
 8793SOL    HW226905   1.864   0.017   1.142 -0.6050  0.1872 -1.4012
 8794SOL     OW26906   5.979   6.820   1.973  0.0049 -0.4028  0.3037
 8794SOL    HW126907   6.065   6.784   1.954 -0.0804 -0.9628  0.9276
 8794SOL    HW226908   5.996   6.889   2.038  0.2157  1.0164 -1.2066
 8795SOL     OW26909   4.344   0.320   2.724 -0.1733 -0.3425 -0.3510
 8795SOL    HW126910   4.414   0.319   2.659 -0.9438 -1.3798 -1.1993
 8795SOL    HW226911   4.370   0.254   2.788 -0.5511 -1.0032 -0.8710
 8796SOL     OW26912   3.010   2.817   2.283 -0.2162 -0.0225  0.0590
 8796SOL    HW126913   3.047   2.905   2.280  0.4079 -0.2188  1.5497
 8796SOL    HW226914   2.975   2.803   2.195  3.8349 -0.0893 -1.7506
 8797SOL     OW26915   5.789   7.055   7.564  0.2652 -0.0555  0.6084
 8797SOL    HW126916   5.747   7.120   7.508  2.8519  1.2691  0.0506
 8797SOL    HW226917   5.738   7.055   7.645 -2.4026 -0.6135 -0.9616
 8798SOL     OW26918   3.154   5.809   5.464  0.2990 -0.1858  0.1049
 8798SOL    HW126919   3.145   5.823   5.369  0.2612 -0.7115  0.0293
 8798SOL    HW226920   3.248   5.810   5.479  0.2828  0.8572  0.2140
 8799SOL     OW26921   4.330   2.859   0.557  0.5625  0.7278 -0.4902
 8799SOL    HW126922   4.251   2.828   0.515 -1.5377  1.3301  2.6694
 8799SOL    HW226923   4.380   2.780   0.577 -0.9950 -0.0071  0.6287
 8800SOL     OW26924   5.046   2.711   4.844  0.2839 -0.0430 -0.1230
 8800SOL    HW126925   5.071   2.800   4.817 -0.4053  0.2511  0.1908
 8800SOL    HW226926   5.124   2.678   4.889  0.2736  0.7026  0.4744
 8801SOL     OW26927   2.494   5.798   4.369 -0.4944 -0.2015 -0.1332
 8801SOL    HW126928   2.400   5.799   4.355 -0.3345  1.2406 -1.3919
 8801SOL    HW226929   2.532   5.809   4.281  0.9355 -2.9652  0.0298
 8802SOL     OW26930   6.653   5.502   6.381 -0.6443  0.1341  0.0953
 8802SOL    HW126931   6.690   5.583   6.347 -3.0447  1.2259 -0.1555
 8802SOL    HW226932   6.602   5.467   6.308  0.1124 -1.4686  0.3031
 8803SOL     OW26933   3.377   3.107   3.375  0.1674  0.2412  0.3055
 8803SOL    HW126934   3.390   3.019   3.412 -0.9646  0.7169  1.9708
 8803SOL    HW226935   3.466   3.139   3.357  0.6430 -0.8630  0.6181
 8804SOL     OW26936   5.166   1.781   2.403 -0.3990 -0.3084  0.2233
 8804SOL    HW126937   5.236   1.836   2.367 -0.2377 -0.7821 -0.1943
 8804SOL    HW226938   5.139   1.827   2.483  0.7105 -0.3615  0.6482
 8805SOL     OW26939   2.652   5.988   5.703 -0.9947 -0.1833  0.4004
 8805SOL    HW126940   2.620   5.925   5.639  2.0809 -1.4496 -0.0527
 8805SOL    HW226941   2.700   6.053   5.652 -1.3412  0.6738  1.1442
 8806SOL     OW26942   4.992   6.982   7.358  0.2631 -0.2601  0.2507
 8806SOL    HW126943   4.945   6.923   7.416 -0.5170  0.2952  0.1980
 8806SOL    HW226944   4.926   7.044   7.328  1.3693  1.7030  1.6446
 8807SOL     OW26945   6.360   7.225   3.028  0.3758 -0.0108  0.4482
 8807SOL    HW126946   6.443   7.246   2.984 -0.1200  0.2769 -0.3825
 8807SOL    HW226947   6.325   7.310   3.054  1.3497 -0.2557  2.7559
 8808SOL     OW26948   3.285   0.134   3.268  0.2152  0.2383  0.5891
 8808SOL    HW126949   3.319   0.046   3.255 -0.2131 -0.0461  1.2925
 8808SOL    HW226950   3.332   0.188   3.205  0.3650 -0.5193  0.0316
 8809SOL     OW26951   1.157   1.379   7.478 -0.7027  0.0424  0.0770
 8809SOL    HW126952   1.120   1.457   7.437 -0.9172 -0.4775 -0.7297
 8809SOL    HW226953   1.187   1.325   7.405 -1.2784 -0.9864  0.5819
 8810SOL     OW26954   0.932   2.930   1.859 -0.3452 -0.2273 -0.1015
 8810SOL    HW126955   0.983   3.011   1.864  0.2818 -0.4370 -1.9946
 8810SOL    HW226956   0.912   2.921   1.766 -0.6462 -2.0903  0.1082
 8811SOL     OW26957   2.197   1.349   5.329  0.3320  0.0624 -0.0774
 8811SOL    HW126958   2.258   1.288   5.370 -0.3935 -1.1448 -0.7202
 8811SOL    HW226959   2.252   1.409   5.279  1.1190  0.5041  1.2739
 8812SOL     OW26960   2.399   0.677   4.822 -0.1711 -0.2600 -0.5191
 8812SOL    HW126961   2.392   0.772   4.819  1.9494 -0.0195  0.4522
 8812SOL    HW226962   2.407   0.651   4.730  0.1579  0.5916 -0.7387
 8813SOL     OW26963   1.576   4.883   4.352  0.5320  0.1393  0.3668
 8813SOL    HW126964   1.491   4.911   4.319 -0.1058 -1.4102  0.6038
 8813SOL    HW226965   1.639   4.937   4.304 -0.4436 -0.6968 -2.0373
 8814SOL     OW26966   4.100   5.721   7.118  0.5576 -0.0111  0.4402
 8814SOL    HW126967   4.069   5.676   7.039  0.4299  0.5358  0.1701
 8814SOL    HW226968   4.021   5.740   7.168  0.7749 -1.9276  1.5790
 8815SOL     OW26969   5.241   5.388   5.220  0.0958  0.5180 -0.1693
 8815SOL    HW126970   5.303   5.395   5.293  2.3990  0.2120 -1.9747
 8815SOL    HW226971   5.274   5.450   5.155 -2.2471  1.2329 -0.7756
 8816SOL     OW26972   5.284   6.099   3.674  0.0909 -0.0752 -0.1183
 8816SOL    HW126973   5.240   6.071   3.594  0.3330 -0.5229 -0.0979
 8816SOL    HW226974   5.240   6.051   3.744  1.9028 -2.0990 -0.2826
 8817SOL     OW26975   6.197   3.058   2.988 -0.2749  0.0046 -0.0884
 8817SOL    HW126976   6.278   3.087   3.031  0.2001 -0.8385 -0.3852
 8817SOL    HW226977   6.199   2.963   2.997 -1.0921 -0.0390 -0.3606
 8818SOL     OW26978   2.141   1.221   6.928 -0.6415 -0.2645  0.7847
 8818SOL    HW126979   2.213   1.178   6.975  0.0110  0.2928  0.3249
 8818SOL    HW226980   2.129   1.304   6.973  1.0441  0.9821 -0.8912
 8819SOL     OW26981   0.238   4.253   1.509  0.1948 -0.6724 -0.0540
 8819SOL    HW126982   0.286   4.220   1.433  0.0562  1.0458 -0.9481
 8819SOL    HW226983   0.154   4.208   1.506  0.6370 -1.5097 -0.2015
 8820SOL     OW26984   4.628   4.232   2.707  0.1792  0.0610  0.7122
 8820SOL    HW126985   4.688   4.303   2.683 -0.6777  1.4021  2.2400
 8820SOL    HW226986   4.685   4.159   2.730  1.1272  0.4795 -0.2317
 8821SOL     OW26987   5.799   0.683   0.507  0.2379 -0.0247 -0.3424
 8821SOL    HW126988   5.808   0.774   0.535  1.5398 -0.0243 -0.7033
 8821SOL    HW226989   5.789   0.688   0.412 -2.1693 -0.1450 -0.1599
 8822SOL     OW26990   5.122   3.173   1.512 -0.2110  0.1217 -0.0756
 8822SOL    HW126991   5.063   3.239   1.476  0.5318 -0.5867 -2.7974
 8822SOL    HW226992   5.114   3.098   1.453  1.6348 -0.8736  0.8449
 8823SOL     OW26993   3.531   1.464   6.320 -0.6900  0.5662  0.4410
 8823SOL    HW126994   3.570   1.496   6.402  0.2369 -1.1312  0.7262
 8823SOL    HW226995   3.499   1.376   6.342  1.9190 -1.0654 -1.5544
 8824SOL     OW26996   5.865   1.548   3.760 -0.1189  0.1795  0.3119
 8824SOL    HW126997   5.863   1.515   3.850 -0.4028 -0.0618  0.2202
 8824SOL    HW226998   5.784   1.514   3.721  0.5144 -0.6125 -0.3383
 8825SOL     OW26999   2.855   6.392   6.192  0.2277 -0.4187  0.4231
 8825SOL    HW127000   2.915   6.462   6.166 -0.5726 -0.0457 -0.4400
 8825SOL    HW227001   2.853   6.397   6.288  2.1238 -0.9152  0.5273
 8826SOL     OW27002   0.337   2.660   1.926  0.3151 -0.0511  0.0197
 8826SOL    HW127003   0.302   2.740   1.965  1.8474  1.8475 -2.2554
 8826SOL    HW227004   0.388   2.619   1.995  0.7006  1.7182  0.8154
 8827SOL     OW27005   1.186   6.817   2.186 -0.3219  0.1543  0.6614
 8827SOL    HW127006   1.221   6.729   2.202 -2.0888 -0.4569  1.4028
 8827SOL    HW227007   1.106   6.821   2.238  0.2081  2.5743  1.3858
 8828SOL     OW27008   0.607   2.487   3.282  0.1110  0.3312 -0.5908
 8828SOL    HW127009   0.669   2.549   3.245  2.4623 -1.6969 -0.2856
 8828SOL    HW227010   0.661   2.421   3.327 -2.3540  1.2488  4.5200
 8829SOL     OW27011   4.699   1.594   0.380 -0.1605 -0.0285  0.3878
 8829SOL    HW127012   4.756   1.632   0.313  0.4159 -0.8955  0.3669
 8829SOL    HW227013   4.733   1.629   0.463 -1.0777  1.3020  0.2291
 8830SOL     OW27014   1.142   3.692   5.454 -0.4354  0.9612  0.2113
 8830SOL    HW127015   1.184   3.753   5.392  1.1805  0.3875  0.6732
 8830SOL    HW227016   1.080   3.746   5.502  0.1857  2.0185 -0.1243
 8831SOL     OW27017   0.258   4.643   6.822 -0.2442  0.2264  0.2850
 8831SOL    HW127018   0.258   4.550   6.797  0.0246 -0.2762  1.9954
 8831SOL    HW227019   0.324   4.683   6.766  0.2956 -0.8191  0.1471
 8832SOL     OW27020   2.929   7.523   3.982 -0.1912  0.0457  0.3009
 8832SOL    HW127021   2.836   7.528   4.007 -0.7695 -1.4777 -1.3457
 8832SOL    HW227022   2.938   7.587   3.912 -0.7623 -1.6781 -1.4652
 8833SOL     OW27023   7.515   4.331   3.802 -0.0163 -0.3954  0.5772
 8833SOL    HW127024   7.556   4.254   3.763  0.3489  0.3651 -0.6071
 8833SOL    HW227025   7.587   4.380   3.842 -0.0571 -0.0513  0.2351
 8834SOL     OW27026   7.510   2.605   4.423 -0.0342  0.1126  0.6216
 8834SOL    HW127027   7.486   2.682   4.475  1.8416 -1.0625  3.4529
 8834SOL    HW227028   7.560   2.641   4.350 -1.1426  1.7009  0.5839
 8835SOL     OW27029   6.780   2.675   6.686 -0.2956  0.1780  0.6529
 8835SOL    HW127030   6.794   2.712   6.599 -0.4085  1.6306  1.2344
 8835SOL    HW227031   6.863   2.691   6.732 -0.7178  0.6796  1.2474
 8836SOL     OW27032   6.277   2.900   4.402 -0.0655  0.0946 -0.4769
 8836SOL    HW127033   6.369   2.883   4.421 -0.0696  0.4880 -0.0730
 8836SOL    HW227034   6.236   2.814   4.397  0.0355 -0.0459  0.8423
 8837SOL     OW27035   0.228   3.100   6.532  0.1621  0.2496  0.2074
 8837SOL    HW127036   0.157   3.095   6.468  0.3956 -0.3509 -0.0179
 8837SOL    HW227037   0.307   3.079   6.481  0.2197 -1.3349  0.8914
 8838SOL     OW27038   5.568   2.032   5.323 -0.2854 -0.3397 -0.2341
 8838SOL    HW127039   5.646   1.976   5.325 -0.1766 -0.1736  0.3864
 8838SOL    HW227040   5.496   1.973   5.301  0.1765 -0.2918 -2.0494
 8839SOL     OW27041   3.416   1.531   0.362  0.2413  0.3316 -0.2711
 8839SOL    HW127042   3.372   1.557   0.281 -0.5781  1.8638  0.6199
 8839SOL    HW227043   3.481   1.599   0.378 -1.5724  1.7233  1.8282
 8840SOL     OW27044   0.097   5.020   5.586  0.1151 -0.2640  0.4173
 8840SOL    HW127045   0.185   5.013   5.621  0.5135  0.0483 -0.5010
 8840SOL    HW227046   0.077   5.114   5.590  0.5397 -0.0872 -1.0440
 8841SOL     OW27047   0.380   6.559   3.970  0.4342 -0.2067 -0.0200
 8841SOL    HW127048   0.310   6.624   3.961 -0.5900 -0.9882  1.6139
 8841SOL    HW227049   0.453   6.608   4.008 -0.2530  0.0640  1.0002
 8842SOL     OW27050   0.828   2.417   1.163  0.3704  0.3307  0.3798
 8842SOL    HW127051   0.904   2.381   1.209  1.4875  1.1615 -0.7430
 8842SOL    HW227052   0.855   2.423   1.072 -1.3707 -0.1448 -0.2168
 8843SOL     OW27053   0.241   7.064   6.234  0.6219 -0.4707  0.1027
 8843SOL    HW127054   0.189   7.007   6.177 -0.3736 -0.0726  0.5852
 8843SOL    HW227055   0.302   7.108   6.175 -1.0388  0.6819 -0.8529
 8844SOL     OW27056   6.425   3.277   0.053  0.3426  0.9270 -0.1858
 8844SOL    HW127057   6.413   3.353  -0.004 -0.9046  0.3613 -0.7112
 8844SOL    HW227058   6.397   3.203  -0.000 -0.7587  0.3651  1.1176
 8845SOL     OW27059   1.909   5.971   3.063  0.2920  0.3800  0.3339
 8845SOL    HW127060   1.877   6.053   3.025 -1.4645 -0.3461  0.2005
 8845SOL    HW227061   1.851   5.904   3.028  0.4238 -0.6685  2.0671
 8846SOL     OW27062   2.673   2.997   1.987 -0.2956 -0.4766 -0.3561
 8846SOL    HW127063   2.647   2.913   2.024 -0.6417 -1.2597 -2.2308
 8846SOL    HW227064   2.768   3.000   1.998 -0.5685  0.2510  2.3092
 8847SOL     OW27065   0.389   1.020   0.026  0.0072  0.0745 -0.2032
 8847SOL    HW127066   0.463   0.961   0.013 -0.4331 -1.0914  2.0246
 8847SOL    HW227067   0.319   0.982  -0.027 -0.2681 -1.5062  1.1851
 8848SOL     OW27068   7.147   4.262   1.082  0.0160  0.3178 -0.2600
 8848SOL    HW127069   7.073   4.317   1.108  0.4450 -0.5893  3.6167
 8848SOL    HW227070   7.218   4.323   1.067 -0.7837  1.0461 -1.1961
 8849SOL     OW27071   4.503   3.397   5.857 -0.2298 -0.2068  0.0610
 8849SOL    HW127072   4.551   3.344   5.921 -1.4401  0.3999  1.5111
 8849SOL    HW227073   4.509   3.486   5.890 -0.3960  0.2029 -0.9861
 8850SOL     OW27074   2.075   2.044   3.360 -0.4921 -0.1203  0.1180
 8850SOL    HW127075   2.119   2.062   3.277 -1.5052 -1.5647 -0.7793
 8850SOL    HW227076   2.016   2.119   3.373 -1.3136 -0.5078 -1.1871
 8851SOL     OW27077   0.956   3.668   6.129  0.1686  0.0555 -0.0087
 8851SOL    HW127078   1.037   3.618   6.142  1.5368  2.3330  0.7464
 8851SOL    HW227079   0.916   3.673   6.215 -1.5200 -2.0726 -0.5661
 8852SOL     OW27080   3.267   2.038   4.758 -0.6789 -0.0354  0.0501
 8852SOL    HW127081   3.195   1.977   4.772 -0.2945  0.0131  2.8333
 8852SOL    HW227082   3.230   2.125   4.772 -0.8840  0.3524 -2.4252
 8853SOL     OW27083   6.485   3.332   1.878  0.0099  0.5078 -0.1404
 8853SOL    HW127084   6.409   3.384   1.904  0.5078  0.7331  0.9176
 8853SOL    HW227085   6.503   3.358   1.787 -2.0571 -0.6296 -0.9444
 8854SOL     OW27086   3.228   2.302   4.449  0.1439 -0.6796  0.5992
 8854SOL    HW127087   3.230   2.245   4.526 -0.9807 -0.2626  0.9522
 8854SOL    HW227088   3.153   2.271   4.398  0.1492 -0.1609  0.2753
 8855SOL     OW27089   3.685   5.512   4.466  0.6009 -0.5172 -0.2437
 8855SOL    HW127090   3.722   5.476   4.386 -1.7065 -0.1462 -1.5543
 8855SOL    HW227091   3.596   5.538   4.443  0.5033  1.4800  1.9251
 8856SOL     OW27092   2.774   4.823   6.457 -0.1584  0.2704 -0.5398
 8856SOL    HW127093   2.714   4.749   6.463  2.5824 -2.1610 -0.8749
 8856SOL    HW227094   2.754   4.876   6.534 -1.9323 -1.0119 -0.0417
 8857SOL     OW27095   3.121   2.715   2.833 -0.4195  0.6674  0.3172
 8857SOL    HW127096   3.101   2.710   2.740  0.8990  1.2578 -0.0153
 8857SOL    HW227097   3.170   2.796   2.843  0.9369 -0.2267  1.2387
 8858SOL     OW27098   3.518   6.180   3.999  0.0672 -0.3209  0.1132
 8858SOL    HW127099   3.471   6.098   3.983 -0.5194  0.2048 -0.9549
 8858SOL    HW227100   3.587   6.156   4.061  1.5037 -2.1871 -2.0452
 8859SOL     OW27101   1.755   3.014   6.460 -0.1233 -0.0057  0.0251
 8859SOL    HW127102   1.815   3.021   6.386  0.0713 -0.5903  0.1235
 8859SOL    HW227103   1.801   2.959   6.523 -0.8489 -0.6407  0.0130
 8860SOL     OW27104   5.435   5.391   7.547  0.0397 -0.5381  0.8216
 8860SOL    HW127105   5.351   5.417   7.507 -0.6632 -1.8088  1.4241
 8860SOL    HW227106   5.411   5.350   7.630  1.2595 -1.0638  0.9379
 8861SOL     OW27107   2.297   0.759   4.091  0.2708  0.2952  0.5514
 8861SOL    HW127108   2.206   0.744   4.065  0.4547  0.1774 -0.0545
 8861SOL    HW227109   2.293   0.836   4.147 -0.2315  0.1601  0.7124
 8862SOL     OW27110   2.436   4.138   5.583 -0.0455 -0.2249 -0.0761
 8862SOL    HW127111   2.411   4.152   5.492  3.1535  0.4048 -0.9600
 8862SOL    HW227112   2.436   4.042   5.593  1.4712 -0.4055 -1.3943
 8863SOL     OW27113   1.626   6.503   4.141 -0.2060 -0.5867  0.6136
 8863SOL    HW127114   1.625   6.544   4.054  0.3521 -0.4724  0.6515
 8863SOL    HW227115   1.571   6.560   4.195 -2.1031 -1.6719 -0.0832
 8864SOL     OW27116   1.679   2.447   0.509 -0.4916 -0.2412 -0.2304
 8864SOL    HW127117   1.714   2.375   0.562 -2.4724 -0.3219  1.0816
 8864SOL    HW227118   1.627   2.499   0.571 -1.1218  0.9000 -1.6716
 8865SOL     OW27119   0.906   3.302   0.437 -0.6316 -0.2349 -0.2471
 8865SOL    HW127120   0.986   3.299   0.385  1.4362 -0.5948  2.7088
 8865SOL    HW227121   0.881   3.395   0.437  0.0399 -0.0489 -0.8446
 8866SOL     OW27122   1.872   1.089   2.597 -0.3880  0.6407  0.2902
 8866SOL    HW127123   1.859   1.123   2.509  0.5565 -1.7725 -0.8666
 8866SOL    HW227124   1.906   1.163   2.647 -0.4351  1.9142 -1.4838
 8867SOL     OW27125   2.030   5.168   3.891  0.6135 -0.5277 -0.1953
 8867SOL    HW127126   2.063   5.085   3.926  0.9458 -0.2857  0.0693
 8867SOL    HW227127   2.017   5.223   3.969 -1.1182 -0.8647 -0.2177
 8868SOL     OW27128   5.529   4.080   1.147  0.2465  0.2644 -0.7553
 8868SOL    HW127129   5.545   4.016   1.077  1.1036 -0.5389  0.1564
 8868SOL    HW227130   5.437   4.105   1.136  0.3115  0.0187 -2.0477
 8869SOL     OW27131   1.101   3.222   0.245  0.1800 -0.2757  0.1580
 8869SOL    HW127132   1.014   3.196   0.215  0.4750 -0.5768 -0.4681
 8869SOL    HW227133   1.160   3.185   0.180  0.8296 -0.7367  0.9886
 8870SOL     OW27134   3.014   6.948   5.609  0.6221 -0.1110 -0.9256
 8870SOL    HW127135   2.936   6.973   5.658  1.1837  0.3643 -0.2628
 8870SOL    HW227136   3.003   6.990   5.524  0.1219 -0.1133 -0.8657
 8871SOL     OW27137   6.605   3.378   1.630 -0.0626 -0.0085 -0.1654
 8871SOL    HW127138   6.635   3.458   1.588 -1.8182  0.2662 -0.9853
 8871SOL    HW227139   6.582   3.319   1.558 -2.0275  0.0507  0.3374
 8872SOL     OW27140   3.887   4.893   4.082  0.2631  0.6054  0.6896
 8872SOL    HW127141   3.854   4.954   4.147  0.0635 -1.0599  2.2323
 8872SOL    HW227142   3.821   4.893   4.013 -0.6262  0.7935  1.5230
 8873SOL     OW27143   4.592   5.164   7.562 -0.8078 -0.1476 -0.0213
 8873SOL    HW127144   4.562   5.148   7.473 -2.5161  0.6958  0.3523
 8873SOL    HW227145   4.512   5.179   7.612  0.0135 -1.7825  1.9402
 8874SOL     OW27146   2.901   2.930   2.573 -0.2183  0.6409 -0.2580
 8874SOL    HW127147   2.842   2.862   2.606 -3.1776  1.8756 -2.5255
 8874SOL    HW227148   2.951   2.887   2.504 -0.9776  0.3664 -0.6496
 8875SOL     OW27149   1.566   6.179   0.959 -0.3401  0.3469 -0.0595
 8875SOL    HW127150   1.519   6.141   0.885 -0.5431 -0.4418  0.4684
 8875SOL    HW227151   1.658   6.153   0.945 -0.3595  0.2959 -0.0916
 8876SOL     OW27152   6.021   3.110   2.040  0.0608 -0.3060 -0.4170
 8876SOL    HW127153   6.082   3.105   2.113 -1.5666  1.3750  1.1712
 8876SOL    HW227154   5.999   3.019   2.020  1.8318 -0.8704 -0.0021
 8877SOL     OW27155   1.877   3.429   0.854 -0.1364 -0.2683 -0.0490
 8877SOL    HW127156   1.868   3.395   0.764  0.9935 -1.7532  0.3498
 8877SOL    HW227157   1.793   3.410   0.895  0.1101 -1.7197 -0.1536
 8878SOL     OW27158   5.328   3.668   3.439 -0.3627 -0.5188  0.1627
 8878SOL    HW127159   5.407   3.633   3.480  0.1088  1.9109  1.4906
 8878SOL    HW227160   5.262   3.600   3.453  0.2929 -0.6325  3.3055
 8879SOL     OW27161   5.956   6.789   2.883  0.2638  0.1642  0.7394
 8879SOL    HW127162   5.887   6.809   2.946  2.3058 -0.9746  3.5203
 8879SOL    HW227163   5.946   6.696   2.865 -0.0574  0.3952 -0.4162
 8880SOL     OW27164   2.471   0.124   4.153  0.6078 -0.0379  0.0170
 8880SOL    HW127165   2.395   0.124   4.095  0.0038  0.1796  0.7957
 8880SOL    HW227166   2.445   0.070   4.228  1.2468 -0.0305  0.2515
 8881SOL     OW27167   4.393   3.794   1.892  0.2001  0.0642 -0.0979
 8881SOL    HW127168   4.362   3.772   1.980  0.2419 -1.3597 -0.4288
 8881SOL    HW227169   4.368   3.720   1.838 -0.4514  1.2243 -1.4581
 8882SOL     OW27170   2.471   1.877   1.364  0.8164 -0.2077  0.0695
 8882SOL    HW127171   2.458   1.904   1.455  0.7767  1.2198 -0.3346
 8882SOL    HW227172   2.425   1.794   1.357 -0.1337  0.2057  1.0710
 8883SOL     OW27173   3.091   2.015   3.738 -0.1003  0.0723  0.0893
 8883SOL    HW127174   3.051   2.024   3.652 -1.7425 -2.2681  0.5223
 8883SOL    HW227175   3.035   2.066   3.796 -0.6132 -0.6029  0.1931
 8884SOL     OW27176   3.006   3.629   3.518 -0.1545 -0.6212  0.1024
 8884SOL    HW127177   3.053   3.613   3.436 -2.2441  0.0738 -1.3160
 8884SOL    HW227178   2.915   3.641   3.491 -0.8340  0.0936  2.5003
 8885SOL     OW27179   2.854   2.236   2.012  0.0352  0.0033  0.1591
 8885SOL    HW127180   2.870   2.323   2.049  1.5904  0.9182 -2.4225
 8885SOL    HW227181   2.914   2.178   2.059  2.6711  1.2978 -1.3722
 8886SOL     OW27182   3.281   6.661   7.064 -0.1795  0.1778  0.9434
 8886SOL    HW127183   3.334   6.682   7.141  0.5117  0.9517  0.2809
 8886SOL    HW227184   3.249   6.746   7.034 -1.2137 -0.2109  0.9005
 8887SOL     OW27185   2.174   0.810   2.687 -0.1917 -0.1027  0.4693
 8887SOL    HW127186   2.235   0.787   2.617  1.4225  2.0306  1.0573
 8887SOL    HW227187   2.135   0.727   2.714  1.7382 -1.4306 -0.6152
 8888SOL     OW27188   7.224   1.187   7.399  0.6204  0.0025  0.3094
 8888SOL    HW127189   7.134   1.192   7.431 -0.0327 -0.4811 -1.3568
 8888SOL    HW227190   7.273   1.149   7.473 -0.1156  2.0575  1.9515
 8889SOL     OW27191   2.510   6.857   2.273  0.4162 -0.3974 -0.0020
 8889SOL    HW127192   2.447   6.802   2.319  0.6840 -0.6695  0.0403
 8889SOL    HW227193   2.458   6.931   2.242  0.1338 -0.4684  0.2912
 8890SOL     OW27194   1.068   2.126   5.710  0.1958  0.1704 -0.3126
 8890SOL    HW127195   1.036   2.045   5.671 -0.4957 -1.4878  3.3305
 8890SOL    HW227196   0.992   2.164   5.753  1.5400 -0.1270  2.5175
 8891SOL     OW27197   2.779   0.436   4.691  0.5923  0.1138  0.1440
 8891SOL    HW127198   2.852   0.471   4.640  1.3886 -0.5352  0.8047
 8891SOL    HW227199   2.720   0.399   4.626  0.4509  1.3311 -0.4566
 8892SOL     OW27200   6.193   2.739   1.398 -0.3628 -0.2210  0.3851
 8892SOL    HW127201   6.214   2.775   1.484 -2.9331  1.3758  0.4488
 8892SOL    HW227202   6.128   2.671   1.415  0.8483 -1.5573 -0.1500
 8893SOL     OW27203   4.062   0.668   7.553  0.2836 -0.2872 -0.0844
 8893SOL    HW127204   4.057   0.572   7.556 -2.5628 -0.2406 -0.0085
 8893SOL    HW227205   4.042   0.695   7.642 -1.3576  0.3611 -0.6191
 8894SOL     OW27206   2.114   4.456   4.738  0.1507  0.5373  0.4375
 8894SOL    HW127207   2.138   4.425   4.825  0.8621  2.5826  1.0288
 8894SOL    HW227208   2.175   4.411   4.679 -0.0085 -0.4873  1.0380
 8895SOL     OW27209   6.419   5.108   6.099  0.4466 -0.2729 -0.3799
 8895SOL    HW127210   6.429   5.115   6.004  0.4220 -1.3655 -0.4666
 8895SOL    HW227211   6.337   5.154   6.118  1.8324  2.5049 -0.5095
 8896SOL     OW27212   0.834   0.427   0.716  0.0969  0.2141  0.1614
 8896SOL    HW127213   0.799   0.516   0.722 -0.1966  0.1863 -0.9269
 8896SOL    HW227214   0.760   0.371   0.739  0.0075  0.2267 -0.0886
 8897SOL     OW27215   3.113   0.738   2.392  0.0262 -0.4307  0.3475
 8897SOL    HW127216   3.175   0.811   2.402 -1.0310  0.7191 -1.0283
 8897SOL    HW227217   3.029   0.780   2.372 -0.7562 -2.0155  0.1140
 8898SOL     OW27218   0.670   0.917   2.590  0.0010 -0.2246 -0.4437
 8898SOL    HW127219   0.714   0.832   2.587 -0.8982 -0.7397  0.5453
 8898SOL    HW227220   0.741   0.981   2.598  0.7946 -0.7352 -2.6575
 8899SOL     OW27221   5.001   2.368   3.013 -0.1273  0.5240 -0.9787
 8899SOL    HW127222   5.062   2.374   3.086 -0.2529  2.8720 -0.9927
 8899SOL    HW227223   5.057   2.372   2.935 -0.0715 -0.9383 -1.0364
 8900SOL     OW27224   5.475   4.197   6.830 -0.3154  0.5129 -0.1525
 8900SOL    HW127225   5.499   4.113   6.870  0.0427 -0.1936 -1.7907
 8900SOL    HW227226   5.387   4.182   6.795  0.3009  0.3290 -1.7007
 8901SOL     OW27227   3.447   2.270   0.883 -0.1960  0.0378  0.1460
 8901SOL    HW127228   3.536   2.240   0.867 -0.1000  0.3634  0.0617
 8901SOL    HW227229   3.435   2.259   0.977 -0.0733 -0.0238  0.1553
 8902SOL     OW27230   2.605   4.266   1.496 -0.7575 -0.8601  0.6795
 8902SOL    HW127231   2.685   4.284   1.545 -0.3865  1.2295 -0.5451
 8902SOL    HW227232   2.538   4.252   1.563 -0.0479  0.8052  1.8259
 8903SOL     OW27233   7.319   7.061   1.747 -0.4067 -0.2069 -0.1741
 8903SOL    HW127234   7.328   7.005   1.824 -0.8545  0.2389  0.2123
 8903SOL    HW227235   7.358   7.011   1.675 -0.2032 -0.7262  0.2983
 8904SOL     OW27236   1.574   1.526   5.264 -0.0906 -0.0085  0.0850
 8904SOL    HW127237   1.544   1.586   5.332  0.2664 -0.2533  0.4629
 8904SOL    HW227238   1.616   1.455   5.312 -2.5584 -1.7876 -0.1675
 8905SOL     OW27239   4.158   1.823   5.830 -0.0853 -0.4263 -0.3340
 8905SOL    HW127240   4.147   1.918   5.841  0.5579 -0.5860  2.6144
 8905SOL    HW227241   4.070   1.787   5.841 -0.0573 -0.2629  0.5255
 8906SOL     OW27242   7.029   5.872   3.527  0.2286  0.3533 -0.3310
 8906SOL    HW127243   7.110   5.846   3.571  1.0606  2.3086 -0.5731
 8906SOL    HW227244   7.058   5.912   3.445 -1.0280  0.5716 -0.6944
 8907SOL     OW27245   3.128   0.444   4.876 -0.8155  1.2016 -0.2852
 8907SOL    HW127246   3.119   0.356   4.912  0.8426  0.0903 -2.3597
 8907SOL    HW227247   3.202   0.482   4.923  0.5305  0.2384 -1.5711
 8908SOL     OW27248   0.699   0.028   3.441  0.0751 -0.0268  0.2692
 8908SOL    HW127249   0.735   0.105   3.396 -0.8987  0.2848 -0.0225
 8908SOL    HW227250   0.645  -0.015   3.375  3.9113 -3.5047 -0.9968
 8909SOL     OW27251   3.342   3.425   3.282 -0.5831  0.2816  0.2111
 8909SOL    HW127252   3.322   3.400   3.192  0.1619  2.4335 -0.6068
 8909SOL    HW227253   3.427   3.383   3.300 -1.9839 -2.4895  1.0021
 8910SOL     OW27254   0.421   5.923   4.580 -0.1411 -0.1078  0.3093
 8910SOL    HW127255   0.335   5.954   4.550  0.4092  0.8118 -0.3898
 8910SOL    HW227256   0.463   6.001   4.615  0.1674 -0.6904  1.2524
 8911SOL     OW27257   1.716   2.942   7.018  0.6306  0.9058  0.1871
 8911SOL    HW127258   1.704   2.948   7.113 -1.4578  2.1349 -0.1027
 8911SOL    HW227259   1.784   3.007   6.998 -0.1352  1.8774  0.6681
 8912SOL     OW27260   1.826   0.420   7.015  0.3285  0.2640  0.0345
 8912SOL    HW127261   1.766   0.489   6.988 -0.1955 -0.6091 -1.0846
 8912SOL    HW227262   1.843   0.370   6.935  2.0347  0.1003  0.4666
 8913SOL     OW27263   2.124   5.907   5.710 -0.2464 -0.2404  0.5575
 8913SOL    HW127264   2.062   5.890   5.781 -1.5861  0.9754 -0.2592
 8913SOL    HW227265   2.200   5.947   5.753 -0.4761 -0.7138  1.4338
 8914SOL     OW27266   3.026   2.819   4.010  0.0131  0.3702 -0.4130
 8914SOL    HW127267   3.024   2.910   3.980 -1.3016  0.1004 -1.2595
 8914SOL    HW227268   2.940   2.805   4.050  0.6930 -0.1279  0.9138
 8915SOL     OW27269   6.843   3.845   0.308 -0.2764  0.2256 -0.0646
 8915SOL    HW127270   6.931   3.881   0.317 -0.5451  0.9687 -0.4061
 8915SOL    HW227271   6.833   3.829   0.214  0.3340 -2.0308  0.1820
 8916SOL     OW27272   6.282   6.480   1.434  0.3360  0.0927  0.2955
 8916SOL    HW127273   6.348   6.544   1.461 -0.3892  0.4342  1.3272
 8916SOL    HW227274   6.333   6.407   1.398  1.2129  0.8427 -0.0251
 8917SOL     OW27275   0.705   4.881   3.254 -0.2443 -0.2337 -0.5059
 8917SOL    HW127276   0.765   4.848   3.321 -0.3527  1.1968  0.3320
 8917SOL    HW227277   0.673   4.802   3.210 -1.2582 -1.3575  2.0324
 8918SOL     OW27278   2.003   4.966   3.259 -0.3688  0.4267  0.0059
 8918SOL    HW127279   2.072   5.026   3.232 -2.0219  1.8918 -1.2270
 8918SOL    HW227280   2.005   4.968   3.355  0.4087  1.5242 -0.0137
 8919SOL     OW27281   6.735   1.322   0.594  0.4255  0.3820 -0.0165
 8919SOL    HW127282   6.809   1.376   0.565  1.4655 -2.0286 -2.3969
 8919SOL    HW227283   6.776   1.250   0.643 -0.5317 -0.0242  0.2139
 8920SOL     OW27284   1.793   4.003   2.278 -0.6575 -0.4371 -0.0199
 8920SOL    HW127285   1.860   4.062   2.313  1.1116 -1.2387 -1.8098
 8920SOL    HW227286   1.843   3.931   2.240 -2.7244 -3.0870  1.9489
 8921SOL     OW27287   4.259   0.004   6.088  0.3089 -0.3262  1.2260
 8921SOL    HW127288   4.291   0.091   6.062  0.6994 -1.4445 -2.6569
 8921SOL    HW227289   4.163   0.013   6.089 -0.0119 -0.6854 -3.7768
 8922SOL     OW27290   6.981   5.817   5.851 -0.6119 -0.2111  0.0553
 8922SOL    HW127291   6.912   5.854   5.907 -0.5876 -0.4015  0.2107
 8922SOL    HW227292   7.027   5.894   5.817  0.2572 -0.1091  1.4134
 8923SOL     OW27293   5.726   2.504   2.490 -0.1221  0.6599  0.2341
 8923SOL    HW127294   5.808   2.551   2.473 -0.2777  0.1463 -2.2289
 8923SOL    HW227295   5.657   2.563   2.458 -0.4388 -0.4249 -1.1558
 8924SOL     OW27296   5.532   1.110   6.519 -0.2944 -0.0879 -0.4028
 8924SOL    HW127297   5.584   1.030   6.524 -0.0047  0.1108 -0.2004
 8924SOL    HW227298   5.503   1.126   6.609  0.6877  0.7131 -0.2158
 8925SOL     OW27299   5.086   6.751   3.374 -0.4939  0.5087 -0.1046
 8925SOL    HW127300   5.121   6.673   3.418 -1.2143  0.8528  1.1394
 8925SOL    HW227301   5.156   6.816   3.383 -0.5005  0.4710  0.2504
 8926SOL     OW27302   2.904   6.469   5.354  0.0257 -0.1354 -0.0645
 8926SOL    HW127303   2.909   6.527   5.278 -2.1857  0.5384  0.2410
 8926SOL    HW227304   2.867   6.524   5.424 -1.2408 -1.6530  0.5046
 8927SOL     OW27305   5.129   1.789   0.523 -0.1659 -0.0310 -0.4724
 8927SOL    HW127306   5.206   1.749   0.482  1.0428 -1.2782  2.6791
 8927SOL    HW227307   5.163   1.866   0.568 -1.1590  0.5758 -0.7519
 8928SOL     OW27308   1.598   5.223   6.674 -0.8094 -0.3308 -0.2081
 8928SOL    HW127309   1.610   5.134   6.640  0.0581 -1.1040  1.9542
 8928SOL    HW227310   1.596   5.212   6.769  2.6818  2.2612  0.3423
 8929SOL     OW27311   6.944   2.198   3.611  0.0027  0.3867  0.0657
 8929SOL    HW127312   6.871   2.157   3.657 -1.3089  1.2148 -1.2088
 8929SOL    HW227313   7.022   2.160   3.652 -1.0437  1.1060  2.9995
 8930SOL     OW27314   1.140   4.006   7.507  0.5050 -0.3189 -0.5270
 8930SOL    HW127315   1.185   4.065   7.567 -0.7996  0.5736 -0.3724
 8930SOL    HW227316   1.189   3.924   7.512  1.0841  0.0850  0.9009
 8931SOL     OW27317   6.928   5.377   4.239  0.5080  0.6810  0.1103
 8931SOL    HW127318   6.904   5.451   4.294 -0.1330  1.8736 -1.7212
 8931SOL    HW227319   6.845   5.344   4.205  0.9210  0.1335 -0.3847
 8932SOL     OW27320   2.676   4.100   5.335 -0.0478 -0.5559  0.5372
 8932SOL    HW127321   2.638   4.080   5.421 -1.8382 -0.9711 -0.3021
 8932SOL    HW227322   2.674   4.017   5.288  1.9213 -0.5787  0.4101
 8933SOL     OW27323   4.410   0.673   1.669 -0.1714 -0.2184 -0.2437
 8933SOL    HW127324   4.427   0.609   1.738 -1.7422 -0.3994  0.0102
 8933SOL    HW227325   4.433   0.757   1.709  0.5438 -0.4830 -0.0907
 8934SOL     OW27326   1.395   3.418   2.856 -0.3728  0.1827 -0.0993
 8934SOL    HW127327   1.307   3.417   2.817  0.2573  0.2485 -1.6104
 8934SOL    HW227328   1.428   3.329   2.842 -0.1477  0.1905  0.3651
 8935SOL     OW27329   5.292   5.616   5.043  0.2115 -0.0489  0.4518
 8935SOL    HW127330   5.340   5.691   5.008 -1.1353  1.0399  0.8885
 8935SOL    HW227331   5.214   5.653   5.084 -0.4490 -1.6759  0.7576
 8936SOL     OW27332   1.991   1.999   4.763  0.5303 -0.4316 -0.0595
 8936SOL    HW127333   2.011   2.085   4.725  2.4392 -0.9975 -0.4323
 8936SOL    HW227334   1.979   2.017   4.857  0.2951  0.3238 -0.2247
 8937SOL     OW27335   5.034   5.954   0.415 -0.0132 -0.0461  0.0308
 8937SOL    HW127336   5.050   5.860   0.411  0.9110  0.0702 -4.2999
 8937SOL    HW227337   4.964   5.969   0.351  1.5782  2.3597 -1.3002
 8938SOL     OW27338   4.146   1.687   7.478 -0.0709  0.3279  0.1613
 8938SOL    HW127339   4.199   1.614   7.511 -0.1062 -0.0350 -0.5462
 8938SOL    HW227340   4.071   1.691   7.537 -0.8982 -1.2851 -0.7060
 8939SOL     OW27341   1.204   0.393   7.052  0.2349 -0.1373  0.1360
 8939SOL    HW127342   1.160   0.336   7.116 -1.9909  1.7288  0.3818
 8939SOL    HW227343   1.246   0.332   6.991 -0.8103 -2.0299  1.2151
 8940SOL     OW27344   2.097   5.184   7.468 -0.1888  0.2341  0.0460
 8940SOL    HW127345   2.060   5.251   7.411 -0.6634 -1.1059 -1.2924
 8940SOL    HW227346   2.023   5.126   7.488  0.5443 -0.8289 -0.2300
 8941SOL     OW27347   2.475   2.096   2.942 -0.1032 -0.2013  0.2853
 8941SOL    HW127348   2.390   2.084   2.985 -2.3200  0.4079 -3.5160
 8941SOL    HW227349   2.485   2.191   2.935  1.0389 -0.2626  0.8376
 8942SOL     OW27350   6.598   4.426   4.358  0.1909 -0.1912 -0.5913
 8942SOL    HW127351   6.608   4.397   4.267  2.3769 -1.2084 -0.0919
 8942SOL    HW227352   6.687   4.448   4.386 -0.2449 -1.0227  1.6694
 8943SOL     OW27353   0.486   3.940   3.006  0.0658  0.5756  0.4206
 8943SOL    HW127354   0.556   3.952   3.070  1.2655  1.5460 -1.0296
 8943SOL    HW227355   0.436   3.866   3.040  2.1809 -0.6015  1.1760
 8944SOL     OW27356   7.325   3.010   0.572 -0.3390  0.4517 -0.0084
 8944SOL    HW127357   7.286   3.092   0.602 -0.2793 -0.2563  2.1454
 8944SOL    HW227358   7.266   2.942   0.604  2.1436 -0.6130  2.7483
 8945SOL     OW27359   2.565   3.042   0.155  0.0857  0.2746 -0.1435
 8945SOL    HW127360   2.561   3.005   0.067 -0.9160 -0.2266  0.0955
 8945SOL    HW227361   2.594   3.132   0.142  1.2237 -0.1732 -0.8523
 8946SOL     OW27362   2.912   6.726   2.274  0.6680  0.2549  0.3865
 8946SOL    HW127363   2.992   6.773   2.298  1.1625 -0.4838  0.2262
 8946SOL    HW227364   2.911   6.649   2.330  0.6621 -0.3269 -0.3910
 8947SOL     OW27365   1.352   0.580   4.732 -0.4681  0.3507  0.1717
 8947SOL    HW127366   1.421   0.642   4.755 -0.3215  0.4985 -0.6176
 8947SOL    HW227367   1.326   0.606   4.644 -0.5701 -0.5636 -0.0791
 8948SOL     OW27368   1.580   6.830   2.039 -0.1630  0.5666 -0.4691
 8948SOL    HW127369   1.644   6.768   2.073  1.4218  1.7290 -1.1845
 8948SOL    HW227370   1.561   6.799   1.950  0.3902  0.8891 -0.7108
 8949SOL     OW27371   7.185   1.003   3.478  0.0060 -0.2837 -0.5126
 8949SOL    HW127372   7.276   0.976   3.467 -0.0398 -0.4618 -0.4650
 8949SOL    HW227373   7.185   1.058   3.556  0.2233  0.4541 -1.0274
 8950SOL     OW27374   6.304   7.185   6.518  0.1525 -0.0839 -0.2497
 8950SOL    HW127375   6.246   7.161   6.446  0.1639  0.6730 -0.5262
 8950SOL    HW227376   6.380   7.128   6.508 -0.9627 -1.8297  0.7333
 8951SOL     OW27377   3.773   4.539   2.776  0.1745  0.0917  1.0922
 8951SOL    HW127378   3.681   4.537   2.749 -0.3996 -0.1328  2.9417
 8951SOL    HW227379   3.805   4.624   2.746 -0.6817  0.2565  0.6050
 8952SOL     OW27380   5.956   1.628   1.357  0.0371 -0.7436 -0.5601
 8952SOL    HW127381   5.963   1.719   1.384  1.0082 -0.8413 -0.4201
 8952SOL    HW227382   5.864   1.606   1.368 -0.4692  0.5882 -1.8198
 8953SOL     OW27383   3.632   2.897   0.581 -0.4887 -0.0554 -0.2603
 8953SOL    HW127384   3.662   2.924   0.494  1.0121  1.4838  0.6489
 8953SOL    HW227385   3.566   2.962   0.604  1.8012  1.9492  1.1828
 8954SOL     OW27386   4.819   5.812   0.554 -0.2455 -0.0262  0.6479
 8954SOL    HW127387   4.754   5.783   0.618 -1.0131  1.3598  0.5456
 8954SOL    HW227388   4.811   5.749   0.482  0.9049 -1.8287  2.0250
 8955SOL     OW27389   5.462   0.779   2.035  0.2513  0.5404  0.3301
 8955SOL    HW127390   5.473   0.699   2.087  1.9235  0.7690  0.3790
 8955SOL    HW227391   5.506   0.759   1.952 -1.1863  0.6667 -0.4810
 8956SOL     OW27392   4.414   2.083   5.403  0.2298  0.0964  0.3643
 8956SOL    HW127393   4.329   2.098   5.362  0.2182  0.4952  0.5252
 8956SOL    HW227394   4.455   2.170   5.406 -0.5192  0.4214  2.8358
 8957SOL     OW27395   6.260   0.665   2.308 -0.3891  0.6022  0.5295
 8957SOL    HW127396   6.208   0.585   2.300  0.3071  0.1216  0.7257
 8957SOL    HW227397   6.333   0.641   2.366 -0.1281  1.3521  0.5222
 8958SOL     OW27398   3.693   0.423   7.143 -0.2487  0.0156  0.0717
 8958SOL    HW127399   3.696   0.454   7.233  1.3639 -1.0987  0.4351
 8958SOL    HW227400   3.636   0.346   7.146  1.7401 -1.5076  0.6777
 8959SOL     OW27401   1.796   0.829   0.820 -0.2916 -0.4623  0.6676
 8959SOL    HW127402   1.764   0.778   0.894 -1.8857 -0.9461 -0.2962
 8959SOL    HW227403   1.850   0.898   0.859 -0.7598 -0.9396  2.2248
 8960SOL     OW27404   6.697   1.564   1.575  0.1943  0.2011 -0.2830
 8960SOL    HW127405   6.619   1.582   1.523  0.4492  1.2270 -0.3338
 8960SOL    HW227406   6.708   1.643   1.629  0.4299 -0.4890  0.6901
 8961SOL     OW27407   4.236   6.037   3.585 -0.2423  0.0295  0.4473
 8961SOL    HW127408   4.315   6.050   3.638  0.6949  0.4196 -0.9839
 8961SOL    HW227409   4.222   6.121   3.542  0.7835 -1.0136 -2.1600
 8962SOL     OW27410   2.261   2.897   0.873 -0.3418 -0.1326  0.2634
 8962SOL    HW127411   2.280   2.907   0.966  3.2141  0.7243 -0.4045
 8962SOL    HW227412   2.240   2.986   0.843  0.2571 -0.0820 -0.0304
 8963SOL     OW27413   1.531   0.096   6.503  0.3656  0.3102 -0.1117
 8963SOL    HW127414   1.572   0.137   6.579 -0.2550  0.0814  0.3574
 8963SOL    HW227415   1.601   0.088   6.438  1.3072 -0.9479  1.0113
 8964SOL     OW27416   0.403   0.015   6.273  0.4357  0.0227  0.5988
 8964SOL    HW127417   0.396   0.098   6.226  0.2899 -0.4336 -0.2168
 8964SOL    HW227418   0.482  -0.026   6.237  1.1319  0.2814  1.7914
 8965SOL     OW27419   2.190   4.480   3.169  0.4290  0.0355  0.5145
 8965SOL    HW127420   2.168   4.524   3.087  0.0617  1.6282  1.4357
 8965SOL    HW227421   2.183   4.386   3.148 -0.5479  0.4096 -1.0140
 8966SOL     OW27422   4.311   0.825   4.119 -0.2068 -0.3689 -0.2290
 8966SOL    HW127423   4.271   0.821   4.206  0.5346 -1.6511  0.0801
 8966SOL    HW227424   4.248   0.873   4.065 -1.6588 -1.3930  0.4955
 8967SOL     OW27425   7.256   6.430   7.367 -0.6550  0.5150  0.3300
 8967SOL    HW127426   7.241   6.509   7.314  1.1892  0.1649 -0.7907
 8967SOL    HW227427   7.173   6.383   7.364 -1.0976  1.3279 -0.8847
 8968SOL     OW27428   5.294   7.094   4.284 -0.9252  0.5392 -0.5101
 8968SOL    HW127429   5.350   7.039   4.340  0.8040  2.2081 -0.5120
 8968SOL    HW227430   5.231   7.133   4.344  0.7605  2.1195  0.3180
 8969SOL     OW27431   2.546   2.119   3.586 -0.3081 -0.1418  0.1818
 8969SOL    HW127432   2.546   2.023   3.577 -1.5941 -0.0555 -1.0946
 8969SOL    HW227433   2.455   2.141   3.604 -0.4370  0.9748 -1.6142
 8970SOL     OW27434   5.047   0.511   6.102  0.1594 -0.2662  0.2626
 8970SOL    HW127435   4.991   0.440   6.134  0.0612 -0.4087 -0.2228
 8970SOL    HW227436   5.136   0.483   6.126  0.1764 -0.8198 -0.4123
 8971SOL     OW27437   6.174   0.120   4.787  0.0449  0.3578 -0.0426
 8971SOL    HW127438   6.127   0.124   4.870 -2.5752  0.8675 -1.4478
 8971SOL    HW227439   6.156   0.032   4.754 -0.3355  0.7180 -0.8152
 8972SOL     OW27440   0.244   3.892   1.229 -0.3590 -0.1308 -0.3746
 8972SOL    HW127441   0.289   3.819   1.186  2.5528  1.8867 -1.0943
 8972SOL    HW227442   0.243   3.868   1.322  2.1817 -0.4202 -0.3440
 8973SOL     OW27443   5.478   7.187   5.165  0.1368  0.3684  0.5120
 8973SOL    HW127444   5.558   7.231   5.136  0.8304  1.1101  3.2736
 8973SOL    HW227445   5.509   7.117   5.223 -1.1805 -0.0741  0.7062
 8974SOL     OW27446   7.083   4.558   6.555 -0.3410 -0.1586  0.8324
 8974SOL    HW127447   7.114   4.553   6.464 -2.2311 -1.8315  0.2042
 8974SOL    HW227448   7.009   4.618   6.551  0.9040  1.5294  1.7592
 8975SOL     OW27449   1.164   3.293   6.203  0.2777  0.0482 -0.2672
 8975SOL    HW127450   1.176   3.242   6.283 -1.3127  1.1821  0.7616
 8975SOL    HW227451   1.191   3.234   6.132  1.7856 -0.9628  1.0818
 8976SOL     OW27452   3.548   2.386   1.776  0.5084 -0.2559 -0.6551
 8976SOL    HW127453   3.458   2.407   1.800  0.7628  0.5406 -0.3710
 8976SOL    HW227454   3.602   2.443   1.832  1.1607  0.2991 -1.8214
 8977SOL     OW27455   3.846   1.556   4.762 -0.4378  0.0918  0.8122
 8977SOL    HW127456   3.919   1.521   4.710 -0.4246 -0.6431  1.3114
 8977SOL    HW227457   3.852   1.651   4.750  0.7718  0.0683  1.0715
 8978SOL     OW27458   3.020   4.865   7.309  0.1289 -0.1245 -0.3331
 8978SOL    HW127459   3.004   4.780   7.266 -0.5783 -1.1856  1.8748
 8978SOL    HW227460   3.110   4.887   7.286  0.5856 -1.8644 -0.3684
 8979SOL     OW27461   6.914   1.655   2.923 -0.3604  0.4605 -0.7379
 8979SOL    HW127462   6.909   1.738   2.970  0.1639  0.3709 -0.5182
 8979SOL    HW227463   6.973   1.673   2.850  0.6336 -0.0041 -0.0733
 8980SOL     OW27464   5.676   2.658   0.432  0.5687 -0.4908  0.4552
 8980SOL    HW127465   5.633   2.737   0.464  1.3459 -0.2006  0.8104
 8980SOL    HW227466   5.641   2.645   0.343  0.1459  0.0185  0.5451
 8981SOL     OW27467   4.514   7.225   3.359  0.7173  0.3022 -0.2714
 8981SOL    HW127468   4.422   7.204   3.346  1.2925 -1.7363 -1.5591
 8981SOL    HW227469   4.545   7.252   3.273  0.8010  3.7354  0.6622
 8982SOL     OW27470   5.292   1.431   0.862 -0.3373  0.4153 -0.3145
 8982SOL    HW127471   5.285   1.521   0.895 -0.2448  0.4970 -0.5108
 8982SOL    HW227472   5.297   1.442   0.767  2.1202  0.3646 -0.2565
 8983SOL     OW27473   4.348   4.048   4.311  0.1847  1.1863  0.2825
 8983SOL    HW127474   4.369   4.130   4.357 -0.2395  0.6784  1.4142
 8983SOL    HW227475   4.258   4.028   4.336  0.1019  0.6425 -0.4089
 8984SOL     OW27476   4.273   3.537   7.324 -0.6125 -0.3039  0.3262
 8984SOL    HW127477   4.244   3.476   7.391  0.8627 -0.5759  0.7351
 8984SOL    HW227478   4.367   3.545   7.337  0.3244 -2.5871 -3.4547
 8985SOL     OW27479   1.882   2.160   2.294 -0.0868  0.6134  0.0869
 8985SOL    HW127480   1.815   2.191   2.233 -0.7159 -0.0922  0.4025
 8985SOL    HW227481   1.910   2.075   2.258  0.8237  1.0059 -0.1723
 8986SOL     OW27482   5.329   7.107   2.923  0.1745  0.5772  0.1219
 8986SOL    HW127483   5.306   7.195   2.951 -0.4379  0.4867 -0.0876
 8986SOL    HW227484   5.409   7.086   2.972 -0.4811  0.6853  1.2661
 8987SOL     OW27485   2.466   0.860   0.290  0.0059  0.4315  0.0973
 8987SOL    HW127486   2.417   0.899   0.218  0.0759  0.4976  0.0855
 8987SOL    HW227487   2.506   0.782   0.252  1.9944  1.7084 -0.5963
 8988SOL     OW27488   6.067   3.141   6.487  0.1976 -0.1965  0.0521
 8988SOL    HW127489   6.080   3.148   6.392 -1.8013 -2.1066 -0.4268
 8988SOL    HW227490   6.101   3.055   6.510  0.1429  0.0167  0.9796
 8989SOL     OW27491   4.676   0.811   5.733 -0.0043 -0.0184  0.2627
 8989SOL    HW127492   4.719   0.887   5.772  0.3939  0.1547 -0.4885
 8989SOL    HW227493   4.583   0.833   5.732  0.2274  0.9701 -1.0458
 8990SOL     OW27494   5.928   1.004   4.914 -0.3427 -0.8145  0.6703
 8990SOL    HW127495   5.896   1.080   4.864  2.0513 -1.1717 -1.6408
 8990SOL    HW227496   5.864   0.935   4.895 -0.4524 -0.4310 -0.4307
 8991SOL     OW27497   7.113   3.889   0.288 -0.8966  0.1589  0.5321
 8991SOL    HW127498   7.148   3.922   0.370  0.6732  0.4858 -0.2281
 8991SOL    HW227499   7.130   3.795   0.291 -0.4966  0.2233  0.4503
 8992SOL     OW27500   2.724   7.552   5.142 -0.2962  0.1891  0.0571
 8992SOL    HW127501   2.735   7.647   5.137 -0.5425  0.2643  0.8288
 8992SOL    HW227502   2.785   7.524   5.211  0.1307 -0.2844 -0.4928
 8993SOL     OW27503   6.386   3.489   3.544 -0.0153  0.1761  0.1456
 8993SOL    HW127504   6.467   3.513   3.501  0.0916 -0.9566 -0.3280
 8993SOL    HW227505   6.408   3.487   3.637  0.1471  1.1404  0.1379
 8994SOL     OW27506   5.005   1.266   1.782 -0.6493  0.9890  0.0501
 8994SOL    HW127507   5.020   1.355   1.814  1.4537  0.2657  1.2635
 8994SOL    HW227508   5.044   1.209   1.848 -0.1258 -0.7792 -1.6655
 8995SOL     OW27509   6.459   2.157   0.055  0.2915 -0.2978 -0.0265
 8995SOL    HW127510   6.416   2.078   0.088  2.5731 -1.0899  1.2392
 8995SOL    HW227511   6.499   2.130  -0.028  0.0847 -0.1120 -0.1909
 8996SOL     OW27512   6.980   5.562   5.355  0.0160 -0.0328  0.0614
 8996SOL    HW127513   6.923   5.507   5.409  1.3885 -0.4517  1.1423
 8996SOL    HW227514   6.922   5.597   5.287 -2.0657  1.3886  2.3826
 8997SOL     OW27515   7.390   5.858   0.971 -0.0059  0.0751  0.2625
 8997SOL    HW127516   7.351   5.910   1.042  0.5179  1.9659 -0.7759
 8997SOL    HW227517   7.479   5.839   1.001 -0.4278 -0.8865  0.9547
 8998SOL     OW27518   6.726   5.714   1.153  0.3288 -0.2418  0.5731
 8998SOL    HW127519   6.691   5.736   1.066 -1.1761  1.9553  1.6382
 8998SOL    HW227520   6.735   5.619   1.152 -1.8257 -0.5125 -1.2175
 8999SOL     OW27521   7.284   2.702   0.656  0.0956  0.1817  0.1484
 8999SOL    HW127522   7.222   2.739   0.719 -0.7505  1.3631 -1.3212
 8999SOL    HW227523   7.245   2.617   0.633 -0.3569  0.3942  0.1162
 9000SOL     OW27524   3.532   1.482   5.907  0.2047 -0.1034 -0.1665
 9000SOL    HW127525   3.468   1.546   5.876 -0.7507 -0.0289  1.8063
 9000SOL    HW227526   3.480   1.421   5.960  0.9165 -3.0576 -2.5899
 9001SOL     OW27527   4.426   1.437   3.537 -0.0510 -0.2264 -0.5184
 9001SOL    HW127528   4.389   1.489   3.466  1.5513 -1.2081 -2.1548
 9001SOL    HW227529   4.496   1.492   3.572  1.7056 -1.1937 -2.3106
 9002SOL     OW27530   1.223   6.254   5.845  0.1696  0.2375  0.3747
 9002SOL    HW127531   1.137   6.281   5.877  0.4076  1.0628  0.3252
 9002SOL    HW227532   1.225   6.283   5.754  0.7631  0.8491  0.5743
 9003SOL     OW27533   0.821   6.366   1.659  0.7225 -0.6767 -0.3969
 9003SOL    HW127534   0.903   6.408   1.634  1.1363 -2.3450 -2.1062
 9003SOL    HW227535   0.767   6.368   1.579 -1.0762  0.6815  0.7712
 9004SOL     OW27536   7.233   6.739   6.629 -0.2508 -0.0212  0.2235
 9004SOL    HW127537   7.302   6.673   6.621  0.3316  0.5071  0.7686
 9004SOL    HW227538   7.263   6.796   6.700 -1.1824  0.3040  0.3595
 9005SOL     OW27539   1.312   5.960   3.640 -0.4566  0.4611 -0.6569
 9005SOL    HW127540   1.334   6.030   3.702  0.4970 -1.6068  1.4937
 9005SOL    HW227541   1.385   5.959   3.579 -1.1886  2.2333 -1.6579
 9006SOL     OW27542   4.934   1.304   3.935 -0.0382  0.1301 -0.4642
 9006SOL    HW127543   4.984   1.366   3.882 -1.8649  0.5852 -1.7675
 9006SOL    HW227544   4.850   1.297   3.890 -0.2268 -2.6440  0.1392
 9007SOL     OW27545   2.530   4.457   6.024 -0.3169  0.4045 -0.6684
 9007SOL    HW127546   2.519   4.462   5.929 -0.9585  0.4541 -0.5913
 9007SOL    HW227547   2.572   4.372   6.038 -0.2837  0.3666 -0.9934
 9008SOL     OW27548   5.825   3.861   1.106  0.1668  0.0964  0.3911
 9008SOL    HW127549   5.919   3.847   1.119  0.5289  1.4400 -0.4696
 9008SOL    HW227550   5.819   3.952   1.077 -1.3338 -0.1996 -0.3211
 9009SOL     OW27551   0.899   1.269   4.581  0.5423 -0.5764 -0.1197
 9009SOL    HW127552   0.994   1.253   4.583  0.6033 -0.4810 -1.3128
 9009SOL    HW227553   0.866   1.226   4.659  1.5549 -0.7483  0.2355
 9010SOL     OW27554   6.602   4.292   0.978  0.5011 -0.4866  0.0221
 9010SOL    HW127555   6.623   4.206   1.015 -0.3175 -1.1024 -0.8623
 9010SOL    HW227556   6.671   4.350   1.008  0.2408 -1.1017  1.9227
 9011SOL     OW27557   5.519   4.973   1.098 -0.1935  0.1795 -0.5379
 9011SOL    HW127558   5.464   4.910   1.051 -0.6735  0.0797  0.1321
 9011SOL    HW227559   5.516   5.053   1.045 -1.2289  0.2665 -0.3714
 9012SOL     OW27560   5.364   3.762   0.196  0.3061 -0.5465  0.1017
 9012SOL    HW127561   5.309   3.822   0.246 -0.9179 -0.4788 -1.2517
 9012SOL    HW227562   5.447   3.809   0.185  0.3576 -0.2815  1.4182
 9013SOL     OW27563   3.254   4.638   6.651 -0.3614  0.6093  0.1592
 9013SOL    HW127564   3.164   4.608   6.646  0.1696 -1.5204  1.8044
 9013SOL    HW227565   3.305   4.558   6.665  1.7360  1.8002 -0.2455
 9014SOL     OW27566   5.087   6.375   0.807 -0.1865  0.6511 -0.3772
 9014SOL    HW127567   5.019   6.406   0.748 -0.7949 -0.4735 -0.2909
 9014SOL    HW227568   5.169   6.392   0.761 -0.5376  1.6571 -0.6501
 9015SOL     OW27569   7.121   2.489   1.145 -0.3954  0.1944  0.4110
 9015SOL    HW127570   7.193   2.452   1.197 -1.1278 -0.3724  1.0427
 9015SOL    HW227571   7.126   2.442   1.061  0.4966  0.7777  0.1223
 9016SOL     OW27572   7.002   2.023   7.370  0.0427 -0.1949  0.0056
 9016SOL    HW127573   6.926   1.991   7.419  1.8546 -1.0655  2.4619
 9016SOL    HW227574   7.012   1.960   7.298 -1.3713 -0.2004 -0.2209
 9017SOL     OW27575   2.656   6.861   4.402  0.4576  0.2318  0.9007
 9017SOL    HW127576   2.592   6.931   4.406 -1.3315 -1.2544 -0.0370
 9017SOL    HW227577   2.678   6.854   4.309 -1.7100 -2.3136  0.4529
 9018SOL     OW27578   6.155   6.568   2.454  0.3175 -0.1595  0.5601
 9018SOL    HW127579   6.242   6.533   2.476  0.2556  0.6000  2.1776
 9018SOL    HW227580   6.170   6.661   2.438 -0.1079 -0.1453  0.2550
 9019SOL     OW27581   4.421   6.453   2.744  0.0962 -0.3057  0.1728
 9019SOL    HW127582   4.403   6.507   2.821 -0.2432 -0.1347 -0.0231
 9019SOL    HW227583   4.387   6.366   2.766  0.9201 -0.5271  0.6081
 9020SOL     OW27584   4.661   2.208   6.819  0.1773 -0.4749 -0.1012
 9020SOL    HW127585   4.592   2.261   6.778 -0.6453 -1.6198 -0.2573
 9020SOL    HW227586   4.683   2.255   6.899 -0.0774  0.4287 -0.5482
 9021SOL     OW27587   4.623   5.916   3.604  0.4343 -0.0431  0.2901
 9021SOL    HW127588   4.534   5.939   3.628  0.7386  1.2456  0.2842
 9021SOL    HW227589   4.627   5.929   3.509  0.6149 -0.1391  0.2836
 9022SOL     OW27590   4.426   5.206   0.911 -0.1653  0.1010  0.2773
 9022SOL    HW127591   4.480   5.197   0.832 -2.1142  0.1468 -1.1111
 9022SOL    HW227592   4.484   5.250   0.974  1.3949  0.2019 -1.1447
 9023SOL     OW27593   5.195   1.878   6.127  0.0762  0.3064 -0.4497
 9023SOL    HW127594   5.115   1.827   6.137  1.3326 -1.5129  1.2105
 9023SOL    HW227595   5.210   1.917   6.213 -0.1706  2.4938 -1.3493
 9024SOL     OW27596   5.554   5.821   1.934  0.1641 -0.5127  0.2658
 9024SOL    HW127597   5.486   5.756   1.917 -1.1406  0.7639  0.4031
 9024SOL    HW227598   5.585   5.800   2.022 -1.6518  0.2278  1.1205
 9025SOL     OW27599   0.059   4.595   6.010 -0.1692  0.0917 -0.3686
 9025SOL    HW127600   0.123   4.525   6.020  0.5067  0.9536  2.0843
 9025SOL    HW227601   0.052   4.608   5.916 -0.7783 -3.6084 -0.9815
 9026SOL     OW27602   0.898   7.440   1.569 -0.4255  0.0216 -0.2634
 9026SOL    HW127603   0.946   7.446   1.651  1.4751 -2.9482 -1.0036
 9026SOL    HW227604   0.923   7.519   1.520 -1.1133  1.5165  1.6632
 9027SOL     OW27605   7.285   2.141   5.529 -0.0752  0.2474  0.2478
 9027SOL    HW127606   7.351   2.152   5.461  0.4055 -0.4634  0.5758
 9027SOL    HW227607   7.261   2.048   5.525 -0.4936  0.3321  0.6338
 9028SOL     OW27608   6.340   0.870   1.000  0.4547  0.2380  0.1102
 9028SOL    HW127609   6.367   0.952   0.959  0.0101  0.3377  0.0044
 9028SOL    HW227610   6.313   0.814   0.927  2.0786 -0.5242  0.0618
 9029SOL     OW27611   6.515   0.110   7.420  0.4462  1.1042 -0.3087
 9029SOL    HW127612   6.451   0.170   7.384  0.2041  0.8748 -0.2606
 9029SOL    HW227613   6.540   0.054   7.347  0.7938  1.3685 -0.3935
 9030SOL     OW27614   0.099   3.600   0.329 -0.3854 -1.0134  0.0533
 9030SOL    HW127615   0.152   3.651   0.268 -1.0053 -0.8002 -0.3168
 9030SOL    HW227616   0.013   3.595   0.287 -0.4342 -2.0678  0.2383
 9031SOL     OW27617   6.368   4.165   3.438  0.3072 -0.0886  0.4636
 9031SOL    HW127618   6.419   4.246   3.435 -1.3944  1.0194 -1.0907
 9031SOL    HW227619   6.302   4.179   3.506  0.2286 -0.3256  0.4405
 9032SOL     OW27620   0.333   6.919   3.811  0.3309  0.1214 -0.0586
 9032SOL    HW127621   0.409   6.902   3.755  0.9799 -0.8630  1.0748
 9032SOL    HW227622   0.346   7.008   3.843  1.0941 -0.0876  0.2313
 9033SOL     OW27623   6.739   7.078   1.232 -0.3884 -0.0319 -0.6018
 9033SOL    HW127624   6.735   7.142   1.161 -0.1589 -0.3034 -0.8653
 9033SOL    HW227625   6.648   7.051   1.245 -0.6447  1.2166  0.3271
 9034SOL     OW27626   2.713   3.776   4.225 -0.0171 -0.6439  0.1674
 9034SOL    HW127627   2.715   3.717   4.300 -1.0364 -0.3812  0.4240
 9034SOL    HW227628   2.622   3.804   4.220  0.1394 -0.3062 -0.8989
 9035SOL     OW27629   6.173   2.577   3.194  0.6823 -0.5062  0.1328
 9035SOL    HW127630   6.092   2.545   3.234 -0.2625  1.0260 -0.4418
 9035SOL    HW227631   6.195   2.511   3.128  0.4596 -1.4339  0.9688
 9036SOL     OW27632   5.093   6.602   5.098  0.1678 -0.0446  0.3263
 9036SOL    HW127633   5.152   6.630   5.028 -0.3411 -0.1758 -0.1595
 9036SOL    HW227634   5.058   6.518   5.068 -0.4476  0.1429  0.4993
 9037SOL     OW27635   6.299   2.339   7.258  0.0188 -0.7467 -0.2492
 9037SOL    HW127636   6.291   2.334   7.353  1.5403 -0.7166 -0.0984
 9037SOL    HW227637   6.387   2.373   7.242  0.3590 -2.1491 -1.6820
 9038SOL     OW27638   4.439   3.011   7.020 -0.0859 -0.1422 -0.8498
 9038SOL    HW127639   4.384   2.951   6.968 -0.9263 -0.3442  0.2299
 9038SOL    HW227640   4.379   3.048   7.084  1.0677 -0.4933  0.4830
 9039SOL     OW27641   1.151   1.712   5.480 -0.0438  0.0216  0.3365
 9039SOL    HW127642   1.079   1.658   5.512 -0.0296  0.9179  1.9735
 9039SOL    HW227643   1.111   1.767   5.413 -0.6328 -0.2555  0.4531
 9040SOL     OW27644   1.536   1.849   0.154 -0.2915  0.6784 -0.6589
 9040SOL    HW127645   1.537   1.849   0.058 -0.5856  0.8362 -0.6618
 9040SOL    HW227646   1.445   1.864   0.177 -0.3358 -0.0224 -0.3510
 9041SOL     OW27647   0.119   7.539   7.167 -0.4133 -0.3578 -0.6519
 9041SOL    HW127648   0.083   7.583   7.245  0.3415  0.3835 -0.7171
 9041SOL    HW227649   0.043   7.529   7.109 -1.0271 -1.0800  0.2310
 9042SOL     OW27650   4.086   3.342   3.392  0.4920  0.2147 -0.1225
 9042SOL    HW127651   4.126   3.261   3.361 -2.9862 -2.0651  0.8328
 9042SOL    HW227652   4.127   3.359   3.477  1.0211 -0.7062 -0.1835
 9043SOL     OW27653   4.807   4.463   2.282 -0.4043 -0.1517  0.2160
 9043SOL    HW127654   4.864   4.517   2.227 -0.3340 -0.3515  0.0895
 9043SOL    HW227655   4.725   4.459   2.233 -0.6477  0.4294  0.5667
 9044SOL     OW27656   2.107   3.565   3.541 -0.0177 -0.3942  0.1149
 9044SOL    HW127657   2.099   3.660   3.549  2.4872 -0.2779  2.7577
 9044SOL    HW227658   2.110   3.550   3.446 -1.0940  2.0517 -0.3879
 9045SOL     OW27659   1.134   0.652   3.367 -0.0600 -0.8306 -0.5656
 9045SOL    HW127660   1.096   0.713   3.304 -0.9539  0.4633  1.1395
 9045SOL    HW227661   1.202   0.606   3.318  0.7584  1.6317 -1.9269
 9046SOL     OW27662   3.733   6.408   1.761  0.0055  0.5782 -0.6323
 9046SOL    HW127663   3.660   6.461   1.730  0.8493  1.8792 -0.4775
 9046SOL    HW227664   3.781   6.385   1.682 -0.3706  0.0118 -0.7011
 9047SOL     OW27665   2.569   0.904   7.233 -0.5917  0.2746 -0.0749
 9047SOL    HW127666   2.648   0.957   7.224 -0.2439 -0.4093 -1.1843
 9047SOL    HW227667   2.595   0.817   7.203 -1.0600 -0.6491  1.9951
 9048SOL     OW27668   1.014   3.623   1.576 -0.6114  0.8373 -0.0877
 9048SOL    HW127669   1.059   3.548   1.539 -0.7450  0.1501  1.0965
 9048SOL    HW227670   0.937   3.587   1.620  0.3062  1.3981  2.1227
 9049SOL     OW27671   7.385   4.413   1.019  0.2565 -0.0397 -0.4303
 9049SOL    HW127672   7.476   4.412   0.990  0.7819 -2.1312  1.0596
 9049SOL    HW227673   7.383   4.474   1.093  0.6432 -0.5735  0.0285
 9050SOL     OW27674   0.690   6.805   7.396  0.0235  0.3053 -0.0922
 9050SOL    HW127675   0.750   6.879   7.390 -0.7924  1.1294  1.4660
 9050SOL    HW227676   0.710   6.764   7.479  0.7899 -1.5707 -1.1431
 9051SOL     OW27677   0.829   3.097   6.984 -0.3213  0.9828 -0.0612
 9051SOL    HW127678   0.825   3.133   7.073  0.1653  1.8944 -0.3967
 9051SOL    HW227679   0.738   3.077   6.962 -0.3280 -0.4362  1.0961
 9052SOL     OW27680   2.077   1.514   2.496  0.1214 -0.2387  0.4333
 9052SOL    HW127681   2.127   1.577   2.549  1.5385  0.5856 -1.7550
 9052SOL    HW227682   2.018   1.472   2.559  0.2106  2.1618  2.2708
 9053SOL     OW27683   7.463   3.030   5.686 -0.2662  0.3110  0.4085
 9053SOL    HW127684   7.535   3.035   5.624 -0.6548 -0.0842 -0.0839
 9053SOL    HW227685   7.387   3.007   5.633 -0.4030 -1.1187  1.1650
 9054SOL     OW27686   5.380   7.407   5.310 -0.0747  0.8788 -0.6853
 9054SOL    HW127687   5.301   7.422   5.259  0.2793 -0.1879 -1.5999
 9054SOL    HW227688   5.414   7.323   5.278  0.6540  0.6132  0.6919
 9055SOL     OW27689   6.376   2.033   5.299  0.2995  0.1257  0.0681
 9055SOL    HW127690   6.320   2.103   5.334 -0.0546  0.1121 -0.4623
 9055SOL    HW227691   6.463   2.055   5.330 -0.0300  0.0155  1.1102
 9056SOL     OW27692   3.434   6.925   6.599 -0.0175  0.4570 -0.1538
 9056SOL    HW127693   3.398   6.845   6.636 -0.6442  0.7397 -0.1349
 9056SOL    HW227694   3.415   6.919   6.505  0.4605  0.3138 -0.2435
 9057SOL     OW27695   0.204   5.213   3.150  0.1914  0.4550 -0.8363
 9057SOL    HW127696   0.236   5.175   3.231  0.0890 -2.3962 -2.0282
 9057SOL    HW227697   0.109   5.215   3.160  0.2426  1.2370 -0.4485
 9058SOL     OW27698   1.735   2.145   3.233  0.0607 -0.5186 -0.1064
 9058SOL    HW127699   1.801   2.168   3.168 -0.7150 -0.6306 -0.9674
 9058SOL    HW227700   1.652   2.164   3.190 -0.4914 -1.1504  0.6423
 9059SOL     OW27701   3.495   3.308   3.565 -0.2098 -0.4276  0.6337
 9059SOL    HW127702   3.513   3.329   3.474  0.3208  0.6862  0.9735
 9059SOL    HW227703   3.401   3.324   3.576 -0.0018  0.8579  0.6286
 9060SOL     OW27704   3.030   7.411   1.596  0.7450  0.1677  0.0441
 9060SOL    HW127705   2.983   7.333   1.624  0.3245 -0.2787 -1.7494
 9060SOL    HW227706   3.025   7.471   1.671 -1.1658 -0.5416  0.5441
 9061SOL     OW27707   4.284   4.204   3.413  0.0090  0.0921 -0.4407
 9061SOL    HW127708   4.238   4.155   3.482 -0.9932  2.4250  0.6719
 9061SOL    HW227709   4.256   4.162   3.332 -0.8110 -1.1473  0.4363
 9062SOL     OW27710   7.394   2.493   6.728 -0.5392  0.0239 -0.0384
 9062SOL    HW127711   7.461   2.536   6.781 -0.5276  0.4731 -0.4055
 9062SOL    HW227712   7.407   2.528   6.640 -0.5599 -0.7042 -0.3432
 9063SOL     OW27713   0.142   2.938   4.437 -0.0187 -0.2070 -0.1503
 9063SOL    HW127714   0.221   2.911   4.389 -0.5508  0.0173 -1.1907
 9063SOL    HW227715   0.102   3.004   4.380  0.5388  1.8136  1.6869
 9064SOL     OW27716   1.444   2.608   6.211  0.3627 -0.6476 -1.0608
 9064SOL    HW127717   1.387   2.638   6.281 -0.6904 -0.6751 -1.8887
 9064SOL    HW227718   1.529   2.595   6.253  0.1911  0.9634 -0.1355
 9065SOL     OW27719   4.071   2.127   6.718  0.2445 -0.4824 -0.2037
 9065SOL    HW127720   4.103   2.097   6.633 -0.1212  1.4803 -1.0961
 9065SOL    HW227721   3.980   2.096   6.722 -0.1119  0.3876 -1.0818
 9066SOL     OW27722   2.962   3.623   6.372 -0.0776 -0.8018  0.4130
 9066SOL    HW127723   3.028   3.613   6.441  1.2480 -1.4611 -0.9166
 9066SOL    HW227724   2.890   3.566   6.401 -0.1680  0.0162  1.9337
 9067SOL     OW27725   6.576   3.632   0.486  0.0941  0.0702  0.5248
 9067SOL    HW127726   6.571   3.629   0.391  0.2971  1.8288  0.4259
 9067SOL    HW227727   6.652   3.686   0.505 -0.3951  0.3965  1.6798
 9068SOL     OW27728   0.164   1.579   0.283 -0.0459 -0.8423  0.1393
 9068SOL    HW127729   0.251   1.618   0.282 -0.4828  0.2384  1.1251
 9068SOL    HW227730   0.134   1.583   0.193 -0.4085  1.9966  0.2981
 9069SOL     OW27731   6.643   0.097   1.113 -0.2730  0.3592  0.0581
 9069SOL    HW127732   6.563   0.146   1.132 -1.4757 -1.7041  0.6943
 9069SOL    HW227733   6.659   0.046   1.193 -0.6849 -2.3130 -1.4495
 9070SOL     OW27734   5.298   1.089   4.783 -0.5254  0.0636 -0.2995
 9070SOL    HW127735   5.374   1.032   4.782 -0.8518 -0.3915  0.1147
 9070SOL    HW227736   5.243   1.059   4.711 -0.0420  0.7847 -0.9856
 9071SOL     OW27737   2.366   6.246   6.067  0.3071  0.4107  0.1674
 9071SOL    HW127738   2.387   6.232   5.975  1.4937 -0.8897  0.6071
 9071SOL    HW227739   2.407   6.329   6.089 -2.2143  2.1268 -1.0965
 9072SOL     OW27740   5.971   5.863   0.701  0.2514 -0.5061  0.1220
 9072SOL    HW127741   6.021   5.936   0.737  2.9827 -2.0262 -0.3015
 9072SOL    HW227742   5.992   5.789   0.757 -2.1068 -1.1475  0.2785
 9073SOL     OW27743   6.882   2.314   2.296  0.5057  0.2206  0.5018
 9073SOL    HW127744   6.796   2.339   2.331 -0.4888 -2.0577 -0.1707
 9073SOL    HW227745   6.943   2.376   2.337 -1.0914  0.2409  3.0898
 9074SOL     OW27746   3.887   4.799   1.802  0.2655 -0.2542  0.2256
 9074SOL    HW127747   3.885   4.772   1.894 -1.7932  1.4046  0.7626
 9074SOL    HW227748   3.806   4.849   1.791  0.8879  0.3119 -2.2865
 9075SOL     OW27749   0.711   5.111   4.946  0.0876  0.2240 -0.4167
 9075SOL    HW127750   0.762   5.030   4.948 -1.1176 -0.5459  1.4691
 9075SOL    HW227751   0.716   5.145   5.035 -1.1649  1.1039 -0.6556
 9076SOL     OW27752   6.550   1.818   3.438 -0.1042  0.2728 -0.6071
 9076SOL    HW127753   6.517   1.782   3.355  0.0933 -0.6417 -0.2981
 9076SOL    HW227754   6.645   1.808   3.432  0.0409  1.6513 -0.9195
 9077SOL     OW27755   0.574   1.263   3.285  0.3406  0.5038  0.3622
 9077SOL    HW127756   0.480   1.276   3.278  0.5347  1.1519 -2.4270
 9077SOL    HW227757   0.591   1.257   3.379 -2.6723 -1.4194  0.9451
 9078SOL     OW27758   5.358   2.544   3.845 -0.6392  0.3283 -0.6747
 9078SOL    HW127759   5.322   2.616   3.793 -1.3560 -0.6333 -1.5477
 9078SOL    HW227760   5.350   2.574   3.936 -1.1374  1.2557 -1.0129
 9079SOL     OW27761   2.103   6.627   3.172 -0.1190 -0.2334 -0.1068
 9079SOL    HW127762   2.076   6.591   3.088 -1.7569 -0.5442  0.4977
 9079SOL    HW227763   2.170   6.567   3.204 -0.6601 -1.0413 -0.4637
 9080SOL     OW27764   2.349   1.654   7.442 -0.5954  0.2740  0.5083
 9080SOL    HW127765   2.286   1.590   7.410  1.9815 -1.8113 -0.8177
 9080SOL    HW227766   2.363   1.631   7.534  0.7368 -1.5800 -0.1016
 9081SOL     OW27767   4.444   2.597   7.019 -0.5390  0.8461  0.2352
 9081SOL    HW127768   4.525   2.610   7.069 -1.3207 -0.1955  1.8472
 9081SOL    HW227769   4.376   2.639   7.073 -1.4685 -0.6887  0.3193
 9082SOL     OW27770   5.186   4.167   6.502  0.0631  0.5717 -0.1873
 9082SOL    HW127771   5.163   4.123   6.584 -0.1744  0.8575 -0.1010
 9082SOL    HW227772   5.161   4.104   6.434 -0.9909  0.8704 -0.0984
 9083SOL     OW27773   1.373   3.675   2.975 -0.2641 -0.2598  0.2909
 9083SOL    HW127774   1.401   3.588   3.003  3.1406  1.0392  1.5207
 9083SOL    HW227775   1.437   3.700   2.907 -0.2194  1.7777  1.0018
 9084SOL     OW27776   1.560   0.002   4.556  0.7963 -0.9505 -0.4894
 9084SOL    HW127777   1.518  -0.079   4.584  1.7629 -0.7800  1.6215
 9084SOL    HW227778   1.653  -0.021   4.546  1.4139  0.1811  1.8310
 9085SOL     OW27779   6.574   5.084   0.174 -0.2069  0.4695  0.3589
 9085SOL    HW127780   6.494   5.100   0.223 -0.1592 -1.5912  1.2294
 9085SOL    HW227781   6.546   5.078   0.083 -1.1496 -0.6376  0.6956
 9086SOL     OW27782   3.509   7.024   1.826  0.2398  0.3809 -0.6206
 9086SOL    HW127783   3.454   7.056   1.755 -0.3149 -0.5914 -0.6433
 9086SOL    HW227784   3.474   7.066   1.904  1.5294  2.3183 -0.9977
 9087SOL     OW27785   4.276   6.963   5.140  0.6314 -0.0205 -0.0048
 9087SOL    HW127786   4.350   6.916   5.177 -1.1153 -1.1143  2.3957
 9087SOL    HW227787   4.247   7.021   5.211 -1.4575 -0.4681 -0.4185
 9088SOL     OW27788   3.480   3.443   6.634 -0.5407 -0.0525 -0.7719
 9088SOL    HW127789   3.518   3.530   6.635 -2.3538  0.7749 -0.4575
 9088SOL    HW227790   3.495   3.409   6.722 -1.4190  0.6810 -0.3294
 9089SOL     OW27791   6.338   0.324   6.902  0.7237  0.3977  0.1509
 9089SOL    HW127792   6.322   0.284   6.816  1.0761  1.6390 -0.5210
 9089SOL    HW227793   6.268   0.290   6.957 -0.8367  1.2548 -1.2033
 9090SOL     OW27794   4.712   5.990   7.381 -0.2675 -0.3859  0.5354
 9090SOL    HW127795   4.699   5.957   7.293 -0.0456  0.4327  0.1858
 9090SOL    HW227796   4.804   6.017   7.383 -0.3323 -0.1823  0.9344
 9091SOL     OW27797   0.800   0.827   3.086  0.1901 -0.0954  0.6348
 9091SOL    HW127798   0.838   0.804   3.001 -1.3109  0.1838 -0.1507
 9091SOL    HW227799   0.722   0.772   3.093  0.5518 -0.4562  2.0633
 9092SOL     OW27800   0.258   0.729   2.773 -0.2366  0.6088 -0.0570
 9092SOL    HW127801   0.340   0.682   2.791  0.1358  1.6904  1.1634
 9092SOL    HW227802   0.191   0.677   2.817  0.1132  0.9573  0.9069
 9093SOL     OW27803   4.764   1.657   2.164 -0.1761 -0.2880  0.2855
 9093SOL    HW127804   4.845   1.668   2.215  0.0971 -1.1758  0.0602
 9093SOL    HW227805   4.749   1.743   2.125  1.8551 -0.6130 -1.4181
 9094SOL     OW27806   4.508   0.897   1.798  0.0941  0.3679 -0.4647
 9094SOL    HW127807   4.513   0.976   1.853  1.4519  0.5057 -0.7605
 9094SOL    HW227808   4.595   0.857   1.805  0.4902  0.6640 -2.9000
 9095SOL     OW27809   4.527   2.910   1.038  0.0106  0.1846  0.0216
 9095SOL    HW127810   4.512   2.980   0.975 -0.1008 -0.8611 -1.1661
 9095SOL    HW227811   4.443   2.897   1.081  0.2188  1.2544  0.7878
 9096SOL     OW27812   7.221   1.346   4.694  0.3083  0.2427  0.3483
 9096SOL    HW127813   7.148   1.351   4.756  1.5604 -1.7045  2.1605
 9096SOL    HW227814   7.193   1.282   4.628 -0.9825  2.2274 -1.1254
 9097SOL     OW27815   4.770   7.153   7.237  0.1547 -0.4153 -0.0219
 9097SOL    HW127816   4.821   7.094   7.182  2.0311 -0.5125  1.7268
 9097SOL    HW227817   4.797   7.241   7.210  1.2609 -0.4659  0.8745
 9098SOL     OW27818   4.747   6.975   4.897  0.8733  0.4104 -0.6311
 9098SOL    HW127819   4.780   6.906   4.956 -0.1218 -0.1019 -0.6487
 9098SOL    HW227820   4.698   7.033   4.954  2.3648  1.5924 -0.4781
 9099SOL     OW27821   1.389   6.691   4.886 -0.2169 -0.5947  0.3406
 9099SOL    HW127822   1.393   6.783   4.915 -4.1441 -0.1469 -0.0288
 9099SOL    HW227823   1.449   6.645   4.945  1.9549  2.1495  0.4771
 9100SOL     OW27824   6.787   2.932   1.975  0.2206  0.5816  0.2113
 9100SOL    HW127825   6.860   2.873   1.994 -0.8488 -1.1701 -0.7813
 9100SOL    HW227826   6.718   2.903   2.034 -0.1996  1.1117 -0.0204
 9101SOL     OW27827   2.626   5.379   0.634 -0.2163  0.1007  0.0209
 9101SOL    HW127828   2.546   5.431   0.644  0.4640  1.0934  0.5539
 9101SOL    HW227829   2.615   5.306   0.694 -1.0708 -0.2377 -0.5282
 9102SOL     OW27830   1.936   1.860   5.414  0.2408  0.3157  0.2544
 9102SOL    HW127831   2.000   1.789   5.406 -0.6556 -0.5131  0.2229
 9102SOL    HW227832   1.988   1.937   5.435  1.4856  0.1026 -1.7535
 9103SOL     OW27833   4.869   6.540   2.227  0.2326 -0.1999  0.3800
 9103SOL    HW127834   4.805   6.610   2.214  1.2509  0.7838  0.4791
 9103SOL    HW227835   4.877   6.532   2.322  0.8139  0.2341  0.3771
 9104SOL     OW27836   3.570   6.823   4.236  0.0986  0.0247 -0.3034
 9104SOL    HW127837   3.614   6.738   4.243 -0.0793  0.0083  0.7103
 9104SOL    HW227838   3.642   6.886   4.222  0.3703 -0.1073  0.4823
 9105SOL     OW27839   2.001   6.011   5.446 -0.2942 -0.1409 -0.6244
 9105SOL    HW127840   2.010   5.998   5.540 -1.0089  0.4956 -0.4632
 9105SOL    HW227841   1.960   6.097   5.437  0.9931  0.4131 -1.5624
 9106SOL     OW27842   3.411   3.079   1.917 -0.0188  0.6308  0.0023
 9106SOL    HW127843   3.416   3.098   1.823 -0.3106 -1.4430 -0.4793
 9106SOL    HW227844   3.319   3.056   1.932  0.4806 -1.4265  0.2484
 9107SOL     OW27845   3.212   3.820   0.092 -0.2666  0.4917  0.7349
 9107SOL    HW127846   3.213   3.916   0.089 -0.4797  0.4929 -1.5183
 9107SOL    HW227847   3.287   3.795   0.038  0.1463 -0.6452  1.7988
 9108SOL     OW27848   2.683   7.330   2.656  0.1567 -0.1456  0.3846
 9108SOL    HW127849   2.620   7.264   2.626  0.5067  0.0192 -0.7518
 9108SOL    HW227850   2.733   7.286   2.725 -0.2278 -0.7612  0.2789
 9109SOL     OW27851   2.184   0.852   7.458  0.5268 -0.1194 -0.6468
 9109SOL    HW127852   2.139   0.826   7.539 -1.8680  0.2979 -1.7322
 9109SOL    HW227853   2.176   0.776   7.401 -1.4279  0.8890 -1.8333
 9110SOL     OW27854   2.367   6.432   2.362 -0.6851 -0.0890  0.3771
 9110SOL    HW127855   2.341   6.395   2.278 -0.4298 -0.5609  0.5051
 9110SOL    HW227856   2.326   6.374   2.427  0.1449 -0.4641  0.5814
 9111SOL     OW27857   0.676   4.924   3.965 -1.0343 -0.1591 -0.1567
 9111SOL    HW127858   0.768   4.896   3.968 -1.0572 -0.3304 -0.9912
 9111SOL    HW227859   0.642   4.900   4.051 -0.8346 -1.9992 -0.5467
 9112SOL     OW27860   4.425   3.555   2.705 -0.1258 -0.1441  0.2519
 9112SOL    HW127861   4.411   3.521   2.793 -0.7641  0.0453  0.2305
 9112SOL    HW227862   4.436   3.477   2.650  1.9912 -0.2611  0.7352
 9113SOL     OW27863   2.512   5.052   5.705 -0.7465 -0.1317  0.1493
 9113SOL    HW127864   2.543   4.995   5.775  1.0232  0.1018 -0.4029
 9113SOL    HW227865   2.589   5.068   5.650 -1.8475  0.5270 -1.2796
 9114SOL     OW27866   1.440   2.914   6.719  0.2827  0.0719 -0.7660
 9114SOL    HW127867   1.476   2.901   6.807  0.8245 -1.9094 -1.2344
 9114SOL    HW227868   1.375   2.984   6.730  0.3991 -0.0685  1.1866
 9115SOL     OW27869   1.905   3.668   3.307  0.2588 -0.0624  0.0194
 9115SOL    HW127870   1.944   3.681   3.393 -1.0895  0.1907  0.6199
 9115SOL    HW227871   1.853   3.588   3.316  0.8434 -0.5531 -0.8387
 9116SOL     OW27872   6.510   5.322   5.040  0.1396 -0.0028 -0.0681
 9116SOL    HW127873   6.567   5.397   5.027 -0.7782  0.4884 -1.3634
 9116SOL    HW227874   6.436   5.356   5.090  1.0060 -0.6775  1.7709
 9117SOL     OW27875   6.731   3.532   7.179 -0.1337 -0.2765  0.6494
 9117SOL    HW127876   6.739   3.451   7.229  2.4807  0.4274  1.5465
 9117SOL    HW227877   6.775   3.514   7.096 -2.3201 -0.6790 -0.4900
 9118SOL     OW27878   6.912   3.813   7.324  0.4585  0.5026 -0.3573
 9118SOL    HW127879   6.910   3.728   7.280  0.0918 -0.1770  0.9291
 9118SOL    HW227880   7.005   3.831   7.336  0.7217  1.8844 -3.5291
 9119SOL     OW27881   5.300   3.330   1.383 -0.6093 -0.0739  0.1748
 9119SOL    HW127882   5.302   3.270   1.309 -1.2519 -1.1697  1.0064
 9119SOL    HW227883   5.272   3.276   1.457  3.0595  0.1753  1.9783
 9120SOL     OW27884   7.530   1.215   5.063  0.0676  0.3606  0.0599
 9120SOL    HW127885   7.527   1.122   5.085 -0.6045  0.1197 -0.9779
 9120SOL    HW227886   7.440   1.245   5.075 -0.0050  0.5550 -0.9062
 9121SOL     OW27887   5.522   1.681   1.151  0.1944 -0.1909  0.8487
 9121SOL    HW127888   5.605   1.692   1.105 -0.6344 -1.8881 -1.2200
 9121SOL    HW227889   5.515   1.586   1.166 -0.6155  0.0875  2.5364
 9122SOL     OW27890   3.622   3.620   4.785 -0.3408 -0.3246 -0.1751
 9122SOL    HW127891   3.598   3.698   4.834 -0.8944 -0.5031 -0.1620
 9122SOL    HW227892   3.653   3.653   4.700  1.5391  0.0486  0.6117
 9123SOL     OW27893   7.334   7.062   0.607  0.8233 -0.2545 -0.2195
 9123SOL    HW127894   7.248   7.024   0.589 -0.8543  1.3591  3.4405
 9123SOL    HW227895   7.395   6.989   0.597 -1.1849 -1.9078 -1.1417
 9124SOL     OW27896   7.334   3.381   3.569  0.4675  1.0079 -0.0282
 9124SOL    HW127897   7.361   3.370   3.478  4.0488 -0.4462  1.0315
 9124SOL    HW227898   7.326   3.292   3.602  0.9054  1.5140  1.4977
 9125SOL     OW27899   5.503   6.800   0.702 -0.5786  0.4974 -0.4276
 9125SOL    HW127900   5.477   6.787   0.610  0.9631 -1.5167 -0.6459
 9125SOL    HW227901   5.420   6.808   0.749 -1.4009  1.8432 -2.0021
 9126SOL     OW27902   4.462   5.375   4.491 -0.4945 -0.5014  0.4457
 9126SOL    HW127903   4.500   5.310   4.551  1.9202 -1.6922 -2.1343
 9126SOL    HW227904   4.411   5.323   4.429  1.9529 -0.1730 -2.0119
 9127SOL     OW27905   7.112   1.421   6.745  0.1177 -0.9873  0.1860
 9127SOL    HW127906   7.040   1.372   6.785 -0.2000 -0.9611 -0.3556
 9127SOL    HW227907   7.111   1.506   6.788 -0.0311 -1.0661  0.3378
 9128SOL     OW27908   0.857   2.276   4.051  0.0326 -0.5333  0.5778
 9128SOL    HW127909   0.811   2.360   4.046 -0.6076 -0.9316 -0.4242
 9128SOL    HW227910   0.923   2.281   3.982  1.3707 -0.0669  1.8419
 9129SOL     OW27911   1.332   2.049   3.279 -0.1332  0.4051  0.2712
 9129SOL    HW127912   1.386   2.078   3.353  0.8839  0.0743 -0.3169
 9129SOL    HW227913   1.318   1.956   3.295  1.8607 -0.1698 -0.9676
 9130SOL     OW27914   0.621   5.349   2.724  0.3107  0.7055 -0.6835
 9130SOL    HW127915   0.716   5.340   2.721  0.4792  2.3511 -1.9026
 9130SOL    HW227916   0.590   5.292   2.654  0.3127 -0.4265  0.2105
 9131SOL     OW27917   4.138   0.951   3.412 -0.5107  0.3923 -0.6632
 9131SOL    HW127918   4.100   0.869   3.383 -4.9760  0.2906  4.0616
 9131SOL    HW227919   4.211   0.926   3.469 -1.7271 -0.3989  0.5992
 9132SOL     OW27920   0.129   3.305   6.712 -0.0691 -0.4675  0.8010
 9132SOL    HW127921   0.169   3.306   6.799  3.0738 -0.6590 -0.5027
 9132SOL    HW227922   0.176   3.236   6.665  0.2444  1.4025 -1.8324
 9133SOL     OW27923   3.822   0.791   6.132  0.1742  0.5547 -0.3051
 9133SOL    HW127924   3.803   0.748   6.215 -0.1828  1.4883  0.1129
 9133SOL    HW227925   3.740   0.833   6.108 -0.0292 -0.5321 -1.6586
 9134SOL     OW27926   6.196   5.797   6.211  0.2768  0.6315  0.2048
 9134SOL    HW127927   6.104   5.822   6.211  0.1944  0.3483 -0.8846
 9134SOL    HW227928   6.200   5.721   6.270 -0.7041 -1.1259 -1.8648
 9135SOL     OW27929   1.697   5.003   4.662  0.1405 -0.1236 -0.1437
 9135SOL    HW127930   1.651   4.996   4.745 -0.1591 -0.7515 -0.3543
 9135SOL    HW227931   1.712   4.912   4.635  0.2133  0.0715 -0.7885
 9136SOL     OW27932   0.899   1.177   5.603 -0.0031  0.3015 -0.4091
 9136SOL    HW127933   0.908   1.236   5.678  0.0226  1.1260 -1.0377
 9136SOL    HW227934   0.834   1.220   5.547 -1.4779 -1.2673  0.0299
 9137SOL     OW27935   6.862   3.200   3.890  0.1374 -0.3041 -0.2737
 9137SOL    HW127936   6.939   3.143   3.887  0.0066 -0.4829 -0.2440
 9137SOL    HW227937   6.889   3.279   3.843  1.4468  1.0210  2.5266
 9138SOL     OW27938   2.443   1.980   3.876  0.4453  0.4547 -0.4877
 9138SOL    HW127939   2.430   1.968   3.970 -0.1512  0.8919 -0.5109
 9138SOL    HW227940   2.401   1.903   3.837  0.8145  0.2005 -0.3998
 9139SOL     OW27941   4.072   4.550   6.478  0.3887  0.0383 -0.4038
 9139SOL    HW127942   4.027   4.626   6.517  1.8165  0.1160  1.2183
 9139SOL    HW227943   4.117   4.585   6.402  0.2216  0.6096 -0.2501
 9140SOL     OW27944   3.211   7.115   4.064 -0.0375 -1.0176 -0.1710
 9140SOL    HW127945   3.288   7.070   4.029  0.4741 -0.5105  0.2889
 9140SOL    HW227946   3.232   7.130   4.156 -0.3563 -0.1696 -0.2276
 9141SOL     OW27947   2.174   1.255   0.098  0.1791 -0.2394 -0.2192
 9141SOL    HW127948   2.178   1.241   0.003  0.2349 -0.2901 -0.2097
 9141SOL    HW227949   2.092   1.214   0.124  0.7288 -1.2862 -0.0734
 9142SOL     OW27950   5.819   1.214   0.263  0.3552 -0.2242  0.1572
 9142SOL    HW127951   5.733   1.224   0.223  0.6823  1.4022 -0.2211
 9142SOL    HW227952   5.875   1.276   0.215  1.0034  1.0591  2.4443
 9143SOL     OW27953   7.272   0.826   1.561  0.3294 -0.3467  0.3307
 9143SOL    HW127954   7.287   0.843   1.654 -1.2457  0.3969  0.4784
 9143SOL    HW227955   7.335   0.758   1.538 -0.7062 -2.1768  2.5076
 9144SOL     OW27956   0.496   3.126   6.494 -0.4206  0.2637 -0.6862
 9144SOL    HW127957   0.540   3.202   6.457  1.0313 -0.1789  0.0459
 9144SOL    HW227958   0.493   3.143   6.589 -1.6458  0.1696 -0.6853
 9145SOL     OW27959   1.818   6.689   0.914  0.0359 -0.0070  0.1104
 9145SOL    HW127960   1.784   6.611   0.870 -0.8999  0.2228  0.4092
 9145SOL    HW227961   1.893   6.656   0.965 -0.5182 -0.7683  0.4525
 9146SOL     OW27962   5.858   4.041   3.236  0.2833 -0.3304  0.0306
 9146SOL    HW127963   5.770   4.079   3.229  0.1182 -0.0441  2.5622
 9146SOL    HW227964   5.905   4.075   3.160 -0.9538  1.9699  0.1992
 9147SOL     OW27965   5.533   2.723   6.149 -0.6761  0.3512 -0.4663
 9147SOL    HW127966   5.469   2.656   6.125  0.2519 -0.6211 -0.2955
 9147SOL    HW227967   5.615   2.693   6.111  0.1327  0.4612  1.1280
 9148SOL     OW27968   0.007   2.009   2.858  0.7458 -0.2904  0.1946
 9148SOL    HW127969   0.013   1.972   2.770 -1.1860 -3.0962  1.1135
 9148SOL    HW227970   0.095   1.998   2.895  1.1981 -0.3921 -0.8853
 9149SOL     OW27971   5.636   0.849   6.588 -0.2470  0.2785  0.8542
 9149SOL    HW127972   5.667   0.838   6.678 -3.0193 -1.5696  1.6984
 9149SOL    HW227973   5.695   0.794   6.536  1.6796  1.7274  1.3685
 9150SOL     OW27974   0.238   2.071   3.965 -0.2848  0.1649  0.4230
 9150SOL    HW127975   0.268   1.986   3.997  0.6687  1.2337  2.5741
 9150SOL    HW227976   0.143   2.067   3.971 -0.3542 -1.1775 -0.8094
 9151SOL     OW27977   6.323   6.201   0.476 -0.1221  0.6333 -0.0254
 9151SOL    HW127978   6.388   6.147   0.431  0.3245 -1.8153  3.1979
 9151SOL    HW227979   6.250   6.142   0.494 -0.7717  1.7827  1.3753
 9152SOL     OW27980   4.165   0.510   4.723  0.0313 -0.0035 -0.1085
 9152SOL    HW127981   4.238   0.529   4.663 -0.3644  0.7386 -0.3698
 9152SOL    HW227982   4.106   0.454   4.672  0.5944 -0.9288  0.2353
 9153SOL     OW27983   3.860   4.984   6.263 -0.1565 -0.2627 -0.2107
 9153SOL    HW127984   3.825   4.909   6.216  2.4122 -0.4083 -2.1475
 9153SOL    HW227985   3.888   5.045   6.194  0.7355  1.0277  1.2106
 9154SOL     OW27986   5.750   7.355   2.329 -0.3919 -0.5154 -0.0128
 9154SOL    HW127987   5.757   7.442   2.290 -0.6812 -0.6357 -0.3353
 9154SOL    HW227988   5.712   7.371   2.416 -0.7708 -0.3489 -0.2042
 9155SOL     OW27989   1.190   7.069   3.801 -0.2872 -0.0311  0.3835
 9155SOL    HW127990   1.213   7.131   3.871  0.5173 -2.1150  2.0742
 9155SOL    HW227991   1.214   6.983   3.836 -1.0978 -1.3087 -1.9717
 9156SOL     OW27992   0.153   7.498   1.421 -0.1919 -0.0812  0.2740
 9156SOL    HW127993   0.210   7.445   1.476  1.1735  1.3049  0.2636
 9156SOL    HW227994   0.065   7.480   1.453  0.3189 -1.5270  0.9440
 9157SOL     OW27995   2.709   7.538   4.768 -0.0753 -0.2820 -0.2912
 9157SOL    HW127996   2.694   7.451   4.730  1.3801  0.0741 -1.8554
 9157SOL    HW227997   2.788   7.528   4.820 -0.7458 -0.2167  0.7560
 9158SOL     OW27998   6.851   1.651   3.311 -0.0265  0.0146  0.3897
 9158SOL    HW127999   6.940   1.636   3.343  1.0838  0.4477 -2.2161
 9158SOL    HW228000   6.823   1.566   3.276 -0.0687  0.2133 -0.0639
 9159SOL     OW28001   7.547   2.535   5.121 -0.6146 -0.3035 -0.0885
 9159SOL    HW128002   7.556   2.562   5.030  1.1347  0.6594  0.3360
 9159SOL    HW228003   7.636   2.517   5.150 -1.1850 -1.0216  1.3240
 9160SOL     OW28004   0.866   0.098   4.117 -0.1690  0.0361  0.3660
 9160SOL    HW128005   0.917   0.055   4.048 -0.3965 -0.4081  0.4711
 9160SOL    HW228006   0.782   0.119   4.077  1.0907  3.6555 -0.8093
 9161SOL     OW28007   5.194   1.932   5.526  0.3931 -0.5866 -0.3555
 9161SOL    HW128008   5.245   1.893   5.455 -0.2174 -0.0913 -1.0981
 9161SOL    HW228009   5.193   1.866   5.595  1.8628 -0.6732 -0.3970
 9162SOL     OW28010   2.163   2.902   1.181  0.2624  0.2815  0.0076
 9162SOL    HW128011   2.070   2.912   1.201  0.3250  0.8590  0.0175
 9162SOL    HW228012   2.208   2.936   1.258  0.4923 -0.8876  0.4239
 9163SOL     OW28013   1.730   4.210   0.599  0.0676 -0.6000  0.1510
 9163SOL    HW128014   1.802   4.148   0.589 -0.9680 -1.8279 -0.0872
 9163SOL    HW228015   1.697   4.195   0.687 -1.6252 -2.0815 -0.6682
 9164SOL     OW28016   4.944   5.657   1.178 -0.4686  0.4271  0.4367
 9164SOL    HW128017   4.988   5.645   1.263 -0.2459 -0.4374  0.2066
 9164SOL    HW228018   5.009   5.701   1.124 -0.4436  0.5601  0.5723
 9165SOL     OW28019   6.753   2.270   5.188  0.0904  0.5890  0.1428
 9165SOL    HW128020   6.758   2.214   5.110  0.2548 -0.4435  0.8712
 9165SOL    HW228021   6.722   2.212   5.257  0.6140  1.3136  1.0113
 9166SOL     OW28022   5.565   1.650   2.777 -0.2491  0.2108  0.1453
 9166SOL    HW128023   5.543   1.723   2.834 -1.0410 -0.6944  1.0412
 9166SOL    HW228024   5.661   1.648   2.776 -0.2228  0.2278  1.4810
 9167SOL     OW28025   0.036   0.009   4.309  0.1040  0.0125 -0.3150
 9167SOL    HW128026  -0.057   0.028   4.304  0.0337 -0.5772 -1.5880
 9167SOL    HW228027   0.072   0.079   4.364 -1.1885 -0.2281  0.9151
 9168SOL     OW28028   5.858   2.585   1.148  0.3329 -0.0080 -0.1470
 9168SOL    HW128029   5.789   2.518   1.146  0.9480 -0.8264  2.3294
 9168SOL    HW228030   5.936   2.537   1.178  1.8957  1.0012 -2.3640
 9169SOL     OW28031   0.191   1.179   1.613 -0.4938 -0.3267  0.0903
 9169SOL    HW128032   0.226   1.171   1.701  0.1105 -1.1671 -0.2212
 9169SOL    HW228033   0.100   1.208   1.626  0.1453  1.4559  0.9106
 9170SOL     OW28034   4.285   4.896   6.137 -0.0311 -0.2188 -0.2898
 9170SOL    HW128035   4.254   4.957   6.071 -1.0998 -0.1022  0.2866
 9170SOL    HW228036   4.331   4.950   6.201  0.6697 -0.2809 -0.7348
 9171SOL     OW28037   5.234   0.203   0.461  0.2027 -0.1489  0.1784
 9171SOL    HW128038   5.258   0.162   0.544  0.3618  0.5037  0.4607
 9171SOL    HW228039   5.153   0.250   0.480  0.8243  0.9178  0.2674
 9172SOL     OW28040   6.621   4.669   3.012 -0.5016  0.0542  0.2662
 9172SOL    HW128041   6.572   4.633   3.086 -0.8900  2.8490  1.4892
 9172SOL    HW228042   6.711   4.677   3.044 -0.3146 -0.2966 -0.1646
 9173SOL     OW28043   6.423   5.564   0.180 -0.1387 -0.2536 -0.2252
 9173SOL    HW128044   6.397   5.492   0.123 -0.7073  0.1665 -0.5047
 9173SOL    HW228045   6.350   5.625   0.176  0.7480  0.8052 -0.7539
 9174SOL     OW28046   1.678   0.347   4.305  0.3289  0.2888 -0.3949
 9174SOL    HW128047   1.700   0.438   4.286  0.0024  0.4657  0.0574
 9174SOL    HW228048   1.641   0.349   4.393 -0.2600 -0.1899 -0.6268
 9175SOL     OW28049   1.755   6.757   5.202  0.4465 -0.1142 -0.2781
 9175SOL    HW128050   1.841   6.716   5.209  1.4436  2.0758  1.2001
 9175SOL    HW228051   1.759   6.808   5.121  0.6315  0.1579 -0.0994
 9176SOL     OW28052   5.198   2.937   2.064 -0.5302 -0.3307 -0.3797
 9176SOL    HW128053   5.147   2.935   1.984 -0.6562  1.6259 -0.3962
 9176SOL    HW228054   5.157   3.005   2.117 -0.7523 -1.8966  1.5842
 9177SOL     OW28055   7.310   0.428   1.961 -0.6650 -0.2820 -0.1801
 9177SOL    HW128056   7.330   0.498   2.024 -0.1858 -1.2113  0.7366
 9177SOL    HW228057   7.229   0.456   1.918 -0.3741  0.9197  0.0343
 9178SOL     OW28058   5.075   0.493   3.038 -0.0327 -0.3085  0.1411
 9178SOL    HW128059   5.079   0.586   3.058 -1.6151 -0.2135  0.1510
 9178SOL    HW228060   5.083   0.489   2.943  0.5208 -0.2036  0.1818
 9179SOL     OW28061   5.929   0.876   7.468 -0.0137 -0.1763  0.0039
 9179SOL    HW128062   5.993   0.947   7.480  1.1850 -1.4188  1.3234
 9179SOL    HW228063   5.860   0.895   7.531  0.0158  0.1291 -0.0540
 9180SOL     OW28064   5.378   0.608   6.420 -0.0483  0.1451  0.4971
 9180SOL    HW128065   5.419   0.526   6.394 -1.1742  0.0490 -1.1129
 9180SOL    HW228066   5.409   0.623   6.509  0.4516 -1.8516  0.7040
 9181SOL     OW28067   6.133   6.278   0.269 -0.0104  0.0676  0.6094
 9181SOL    HW128068   6.223   6.306   0.283 -0.4300  1.8046  0.1750
 9181SOL    HW228069   6.080   6.354   0.295 -1.2585 -0.3244 -0.6466
 9182SOL     OW28070   2.348   1.101   2.685 -0.3279 -0.2535  0.6670
 9182SOL    HW128071   2.423   1.086   2.742  0.4484 -0.4823 -0.3853
 9182SOL    HW228072   2.340   1.019   2.635 -0.2156  0.3735 -0.4130
 9183SOL     OW28073   3.356   3.665   3.419  0.2262  0.5776 -0.7161
 9183SOL    HW128074   3.306   3.700   3.345 -1.8194 -2.8353 -1.2193
 9183SOL    HW228075   3.371   3.573   3.395  2.7279  0.2733  1.5761
 9184SOL     OW28076   0.771   4.468   2.075  0.2086  0.3748  0.2656
 9184SOL    HW128077   0.732   4.388   2.109  0.6467 -0.2395 -0.6466
 9184SOL    HW228078   0.864   4.460   2.096  0.6054 -0.3203 -1.5854
 9185SOL     OW28079   5.582   4.984   4.634  1.0042  0.0478  0.4813
 9185SOL    HW128080   5.543   5.040   4.701  0.3768 -1.3174  1.3140
 9185SOL    HW228081   5.514   4.977   4.566  1.2791  0.6858  0.1351
 9186SOL     OW28082   6.206   0.872   5.591 -0.5860 -0.1709  0.6223
 9186SOL    HW128083   6.208   0.910   5.679 -2.4050 -0.1117  0.6780
 9186SOL    HW228084   6.181   0.780   5.605 -1.8957  0.0882  0.1409
 9187SOL     OW28085   4.649   2.821   6.168 -0.4390 -0.3639  0.0694
 9187SOL    HW128086   4.641   2.885   6.239  0.6432  0.3314 -0.4036
 9187SOL    HW228087   4.718   2.857   6.112 -0.5224 -1.4513 -0.7506
 9188SOL     OW28088   3.677   1.123   2.729  0.0237  0.0835  0.0651
 9188SOL    HW128089   3.616   1.182   2.683  0.7147 -0.5293 -1.7460
 9188SOL    HW228090   3.634   1.105   2.812 -1.9542  0.2423 -0.8430
 9189SOL     OW28091   3.334   1.675   6.869  0.1418  0.5289 -0.4959
 9189SOL    HW128092   3.401   1.718   6.817  2.8523  0.5784  2.6636
 9189SOL    HW228093   3.337   1.721   6.953 -1.9901 -1.2276  0.6364
 9190SOL     OW28094   4.330   0.760   1.166 -0.7434  0.1761 -0.0242
 9190SOL    HW128095   4.305   0.749   1.075 -0.2751 -0.5596 -0.0763
 9190SOL    HW228096   4.426   0.756   1.165 -0.7645 -1.9666  0.7210
 9191SOL     OW28097   3.338   5.356   3.038 -0.6277  0.5618 -0.5113
 9191SOL    HW128098   3.251   5.325   3.065 -1.1763  1.7803 -0.8344
 9191SOL    HW228099   3.369   5.288   2.978 -0.2315 -1.1988  1.5378
 9192SOL     OW28100   4.718   4.846   5.284  0.0622  0.1873  0.2629
 9192SOL    HW128101   4.654   4.892   5.230 -0.9490 -1.5129 -0.0187
 9192SOL    HW228102   4.688   4.859   5.374 -0.8288 -0.8025  0.1178
 9193SOL     OW28103   6.152   6.325   3.418 -0.2800 -0.0153  0.2068
 9193SOL    HW128104   6.166   6.296   3.328  0.0296 -0.2201  0.3192
 9193SOL    HW228105   6.207   6.267   3.471 -1.3996 -0.7190  0.6454
 9194SOL     OW28106   5.950   6.970   5.879  0.4822  0.0214  0.4182
 9194SOL    HW128107   5.954   6.940   5.788  0.4705  0.0482  0.4090
 9194SOL    HW228108   5.921   6.894   5.928 -1.4757  0.5237  0.1297
 9195SOL     OW28109   3.850   1.254   1.986 -0.3006  0.3054 -0.2956
 9195SOL    HW128110   3.903   1.249   1.906  1.2485 -0.0224  0.7013
 9195SOL    HW228111   3.763   1.277   1.955 -0.6632 -3.2531 -2.4554
 9196SOL     OW28112   7.157   6.430   4.978 -0.9941 -0.1318  0.5261
 9196SOL    HW128113   7.085   6.371   5.003 -1.9837 -0.3094 -2.3197
 9196SOL    HW228114   7.224   6.371   4.942 -0.8941  0.2741  0.0397
 9197SOL     OW28115   1.797   3.010   3.435  0.0710 -0.2368 -0.4595
 9197SOL    HW128116   1.811   2.923   3.472  0.5017  0.3691  0.8621
 9197SOL    HW228117   1.703   3.024   3.441  0.2861  0.7093  2.6040
 9198SOL     OW28118   0.403   1.674   3.497 -0.3239  0.3097 -0.0147
 9198SOL    HW128119   0.364   1.731   3.563  0.5558  2.0618 -0.9317
 9198SOL    HW228120   0.417   1.731   3.421 -0.1815 -1.3397 -1.3039
 9199SOL     OW28121   5.392   1.444   1.156  0.2027 -0.0214  0.3933
 9199SOL    HW128122   5.397   1.460   1.061  4.1175 -0.5068  0.3824
 9199SOL    HW228123   5.433   1.359   1.168  0.2901  0.2783  2.5865
 9200SOL     OW28124   0.073   0.824   6.399 -0.2002  0.2560 -0.5361
 9200SOL    HW128125   0.158   0.840   6.359  0.1597  1.4778  0.6486
 9200SOL    HW228126   0.076   0.872   6.482 -1.8604 -0.0851 -0.2433
 9201SOL     OW28127   3.184   7.289   6.943 -0.1177 -0.3347 -0.4542
 9201SOL    HW128128   3.219   7.238   7.016 -0.6279  0.6180  0.4810
 9201SOL    HW228129   3.243   7.364   6.936 -1.2818  0.6826  0.3871
 9202SOL     OW28130   3.065   6.206   6.178 -0.1719 -0.6474 -0.2684
 9202SOL    HW128131   2.998   6.262   6.139 -0.3913 -0.4075  0.4276
 9202SOL    HW228132   3.121   6.180   6.105  0.6154  1.3832 -0.4517
 9203SOL     OW28133   1.306   1.511   1.476  0.1502 -0.1092  0.0785
 9203SOL    HW128134   1.330   1.588   1.425  0.1586  0.4090  0.8447
 9203SOL    HW228135   1.350   1.438   1.432  4.0238  0.8841  1.9146
 9204SOL     OW28136   0.099   4.961   2.810  0.3022 -0.0091  0.0778
 9204SOL    HW128137   0.018   4.913   2.793  2.4627 -3.2974 -2.0088
 9204SOL    HW228138   0.114   4.949   2.903  1.0611 -4.3447 -0.3809
 9205SOL     OW28139   3.147   6.532   3.855  0.1910  0.1388  0.4390
 9205SOL    HW128140   3.151   6.523   3.950  0.0996 -0.8150  0.3664
 9205SOL    HW228141   3.054   6.524   3.834  0.0485  1.7172  0.3732
 9206SOL     OW28142   0.958   0.901   3.284 -0.7013 -0.4411 -0.0718
 9206SOL    HW128143   0.912   0.852   3.216 -0.5691 -0.9542  0.1977
 9206SOL    HW228144   1.038   0.932   3.242  0.0273 -1.8712  0.1774
 9207SOL     OW28145   6.853   0.493   3.841  0.1178  0.3540  0.5897
 9207SOL    HW128146   6.784   0.485   3.908 -0.5683 -0.3451 -0.1788
 9207SOL    HW228147   6.805   0.513   3.760  0.6337 -1.8130 -0.3195
 9208SOL     OW28148   2.944   3.455   3.081 -0.4788 -0.4369 -0.3385
 9208SOL    HW128149   2.869   3.402   3.110 -1.8879  1.9231  0.5941
 9208SOL    HW228150   2.914   3.496   3.000 -1.0223  2.0189  1.0170
 9209SOL     OW28151   7.050   5.205   6.371  0.5421 -0.7089  0.1487
 9209SOL    HW128152   7.056   5.159   6.288  0.0097 -2.0414  0.8295
 9209SOL    HW228153   7.084   5.143   6.436  1.3113  0.4435  0.8878
 9210SOL     OW28154   2.697   1.358   6.513 -0.7077 -0.1714 -0.6045
 9210SOL    HW128155   2.708   1.437   6.460  0.8140 -1.1459 -1.8241
 9210SOL    HW228156   2.634   1.383   6.581 -0.6334  1.9237 -1.2468
 9211SOL     OW28157   6.159   6.656   4.883 -0.3908  0.2237 -0.4278
 9211SOL    HW128158   6.083   6.610   4.920 -0.6707  0.0362 -1.2094
 9211SOL    HW228159   6.155   6.637   4.789  1.9809 -1.8223 -0.2205
 9212SOL     OW28160   7.018   0.597   0.671 -0.0978 -0.0019 -0.6028
 9212SOL    HW128161   6.935   0.642   0.682 -0.7848 -1.1269 -1.0149
 9212SOL    HW228162   7.030   0.547   0.752  0.6807  0.9327 -0.1290
 9213SOL     OW28163   1.476   5.451   6.366  0.0779  0.2919  0.2775
 9213SOL    HW128164   1.437   5.525   6.319 -2.3122 -1.0875 -0.0755
 9213SOL    HW228165   1.424   5.444   6.446  0.4841 -0.7558  0.4669
 9214SOL     OW28166   1.343   6.382   0.400 -0.2124  0.4133 -0.3386
 9214SOL    HW128167   1.402   6.453   0.374  0.5878  0.0878  0.5102
 9214SOL    HW228168   1.294   6.417   0.474 -0.0191  0.1920 -0.1007
 9215SOL     OW28169   0.220   2.332   2.694  0.1676 -0.3035  0.4532
 9215SOL    HW128170   0.146   2.317   2.753  0.1120  0.7305  0.6693
 9215SOL    HW228171   0.181   2.366   2.614  0.2590 -1.5610 -0.1428
 9216SOL     OW28172   4.009   5.251   6.749  0.5562 -0.3399  0.2421
 9216SOL    HW128173   4.068   5.208   6.688  0.8762 -0.8977  0.9274
 9216SOL    HW228174   3.985   5.333   6.706  2.3660  0.2213  0.2326
 9217SOL     OW28175   7.220   0.876   6.226  0.1565  0.1568 -0.3015
 9217SOL    HW128176   7.290   0.856   6.289  0.9980  0.8575 -0.9815
 9217SOL    HW228177   7.216   0.798   6.171  0.3575  0.0827 -0.2138
 9218SOL     OW28178   7.172   2.462   0.607 -0.4586 -0.2640  0.3836
 9218SOL    HW128179   7.236   2.421   0.548  0.6307 -0.2070  1.4858
 9218SOL    HW228180   7.089   2.457   0.559  0.3550 -0.3616 -1.0800
 9219SOL     OW28181   3.449   6.698   3.354  0.0777  0.1209  0.4129
 9219SOL    HW128182   3.374   6.753   3.375  0.7259  1.1419  0.0888
 9219SOL    HW228183   3.414   6.630   3.296 -0.5476  0.7231  0.0824
 9220SOL     OW28184   2.343   6.262   2.127 -0.5751  0.0315  0.0964
 9220SOL    HW128185   2.361   6.325   2.057 -1.4053 -0.9389 -1.0409
 9220SOL    HW228186   2.401   6.188   2.109 -0.2725  0.0665  0.8759
 9221SOL     OW28187   6.839   0.130   3.288  0.0924  0.2479 -0.3058
 9221SOL    HW128188   6.849   0.138   3.193 -0.6616 -1.3962 -0.5524
 9221SOL    HW228189   6.900   0.061   3.313 -0.8478 -0.4444  0.1462
 9222SOL     OW28190   6.833   6.142   4.693  0.8577 -0.0311 -0.4772
 9222SOL    HW128191   6.817   6.055   4.657 -1.5487 -0.2659  0.9277
 9222SOL    HW228192   6.844   6.128   4.787 -0.3232  1.2145 -0.1198
 9223SOL     OW28193   6.264   2.044   3.800 -0.0403 -0.0069 -0.4537
 9223SOL    HW128194   6.312   2.036   3.718 -0.6313  1.5118 -0.9781
 9223SOL    HW228195   6.265   1.956   3.837  0.5399 -0.6393 -1.9078
 9224SOL     OW28196   2.400   0.331   0.726  0.5383  0.3779  0.5722
 9224SOL    HW128197   2.482   0.329   0.678  0.2324  1.1440  0.0045
 9224SOL    HW228198   2.384   0.239   0.749 -0.3998 -0.4000 -2.6957
 9225SOL     OW28199   5.180   3.226   4.127 -0.3958  0.2700  0.5297
 9225SOL    HW128200   5.266   3.266   4.139 -0.2788  1.0592 -2.3361
 9225SOL    HW228201   5.199   3.135   4.103 -0.4133  0.2615  0.5470
 9226SOL     OW28202   1.017   6.949   7.528 -0.6851  0.3248 -0.0302
 9226SOL    HW128203   1.071   6.909   7.460  0.0984 -2.0706  1.8373
 9226SOL    HW228204   1.029   6.892   7.604 -3.9664  1.0589  1.2158
 9227SOL     OW28205   6.454   5.315   2.721 -0.4792  0.3967 -0.1094
 9227SOL    HW128206   6.525   5.335   2.782 -0.2447 -0.1204 -0.2080
 9227SOL    HW228207   6.447   5.219   2.724 -1.3419  0.4609  0.0956
 9228SOL     OW28208   6.708   4.417   6.672 -0.2533  0.5499  0.5562
 9228SOL    HW128209   6.714   4.322   6.671  0.1275  0.5726 -0.1492
 9228SOL    HW228210   6.633   4.437   6.617  0.5640  0.7006 -0.5320
 9229SOL     OW28211   7.468   2.964   4.238  0.2283  0.5456 -0.0436
 9229SOL    HW128212   7.400   3.022   4.272 -0.6263  1.4048 -2.9587
 9229SOL    HW228213   7.536   3.022   4.204  0.5031 -0.2075 -0.8225
 9230SOL     OW28214   7.087   2.690   7.397  0.0373  0.5800 -0.0924
 9230SOL    HW128215   7.178   2.665   7.388  0.3174  0.7749  1.8445
 9230SOL    HW228216   7.051   2.630   7.463 -1.1211  0.7783 -0.5119
 9231SOL     OW28217   1.208   5.726   0.395  0.7763  0.0291  0.2303
 9231SOL    HW128218   1.202   5.787   0.321 -2.2717  0.5918  0.8155
 9231SOL    HW228219   1.230   5.642   0.355 -3.0307 -0.2194 -1.7789
 9232SOL     OW28220   1.209   3.072   0.048  0.1133 -0.0437 -0.2749
 9232SOL    HW128221   1.147   2.999   0.045  1.2301 -1.0189 -0.4193
 9232SOL    HW228222   1.294   3.032   0.029  0.9390  1.0898  0.8679
 9233SOL     OW28223   5.548   3.301   6.596  0.1575  0.0484 -0.2043
 9233SOL    HW128224   5.640   3.278   6.606  0.8621  2.5275 -0.3582
 9233SOL    HW228225   5.512   3.296   6.685  0.9699  0.9603  0.2008
 9234SOL     OW28226   0.257   3.177   3.089 -0.1788  0.3381  0.9959
 9234SOL    HW128227   0.340   3.132   3.077 -1.0931 -0.5825 -3.3242
 9234SOL    HW228228   0.279   3.270   3.080  0.3387  0.0519 -1.0871
 9235SOL     OW28229   5.889   6.544   0.961  0.1921  0.9282  0.3013
 9235SOL    HW128230   5.933   6.597   0.895 -0.3376 -0.3787 -1.1762
 9235SOL    HW228231   5.959   6.496   1.004  0.5003  1.4104  0.3376
 9236SOL     OW28232   0.652   7.019   6.880  0.1413 -0.2168 -0.0241
 9236SOL    HW128233   0.696   7.006   6.796 -0.8588  0.3412 -0.6639
 9236SOL    HW228234   0.558   7.014   6.858 -0.1290 -0.7727  1.1872
 9237SOL     OW28235   0.443   6.722   2.626  0.2378 -0.3849 -0.4979
 9237SOL    HW128236   0.417   6.812   2.610 -0.1415 -0.3252  0.4295
 9237SOL    HW228237   0.362   6.672   2.619  0.3007 -0.5388 -0.1284
 9238SOL     OW28238   2.606   1.465   0.835  0.9287  0.0574  0.2051
 9238SOL    HW128239   2.565   1.411   0.767  0.0673  1.5703 -0.5333
 9238SOL    HW228240   2.652   1.533   0.787  3.5620 -1.0060  1.0621
 9239SOL     OW28241   2.532   0.945   2.315  0.2269  0.1951 -0.1140
 9239SOL    HW128242   2.574   0.924   2.232 -0.0650 -0.3873 -0.1244
 9239SOL    HW228243   2.469   1.014   2.294 -0.6317 -0.7188 -0.6023
 9240SOL     OW28244   0.705   7.139   1.808  0.0306 -0.3482 -0.3186
 9240SOL    HW128245   0.744   7.109   1.890 -0.4016  0.9993  0.4005
 9240SOL    HW228246   0.623   7.089   1.800  0.5332 -1.1709 -0.4340
 9241SOL     OW28247   7.020   3.120   2.688 -0.1358 -0.2527  0.4866
 9241SOL    HW128248   7.079   3.117   2.613 -0.4320  0.2316  0.2270
 9241SOL    HW228249   6.951   3.056   2.667  0.1953 -0.6922  0.7119
 9242SOL     OW28250   4.350   1.835   2.744 -0.6024  0.3348 -0.6557
 9242SOL    HW128251   4.367   1.884   2.824 -0.3750 -0.1134 -0.4254
 9242SOL    HW228252   4.430   1.784   2.730 -1.0657 -0.4372 -0.5503
 9243SOL     OW28253   1.379   3.625   3.456 -0.4907 -0.6285 -0.7358
 9243SOL    HW128254   1.306   3.644   3.516  0.2513  2.0382 -0.5957
 9243SOL    HW228255   1.357   3.671   3.376  1.8154  1.8060 -0.0969
 9244SOL     OW28256   1.100   6.609   3.480  0.7792  0.0968 -0.0611
 9244SOL    HW128257   1.100   6.517   3.454 -2.4753  0.4455 -1.8006
 9244SOL    HW228258   1.068   6.608   3.570  0.0712 -0.4631 -0.3099
 9245SOL     OW28259   3.317   7.333   5.147  0.0869  0.1777 -0.4746
 9245SOL    HW128260   3.313   7.417   5.194 -1.8321  0.2963 -0.7731
 9245SOL    HW228261   3.226   7.303   5.144  0.8422 -2.5985  0.7902
 9246SOL     OW28262   7.182   0.827   2.458  0.4351 -0.0453 -0.1310
 9246SOL    HW128263   7.179   0.892   2.388  0.3274 -2.1197 -2.2050
 9246SOL    HW228264   7.096   0.833   2.499 -0.1823  0.0527 -1.3760
 9247SOL     OW28265   7.293   4.314   5.611  0.0456 -0.0936 -1.0501
 9247SOL    HW128266   7.223   4.280   5.555 -1.4583  1.0077  0.0601
 9247SOL    HW228267   7.306   4.246   5.677 -0.8740  0.2069 -0.5441
 9248SOL     OW28268   1.062   0.664   0.352 -0.2278 -0.2195  0.9136
 9248SOL    HW128269   1.111   0.654   0.433 -1.3565 -0.3249  1.6053
 9248SOL    HW228270   1.090   0.749   0.318 -1.8385  1.2600  2.9586
 9249SOL     OW28271   4.915   1.005   0.102 -0.3806 -0.0281 -0.4000
 9249SOL    HW128272   4.970   1.032   0.028 -0.3102 -1.9540 -1.1126
 9249SOL    HW228273   4.965   0.935   0.145 -0.1737  1.4119  1.8525
 9250SOL     OW28274   7.242   3.885   6.530 -0.1079  0.3851  0.0591
 9250SOL    HW128275   7.234   3.860   6.622  2.4349 -0.2915  0.1752
 9250SOL    HW228276   7.233   3.980   6.530  0.5318  0.4569  1.1063
 9251SOL     OW28277   0.185   3.560   0.578  0.2146 -0.5937 -0.3193
 9251SOL    HW128278   0.213   3.646   0.611 -1.4333 -0.5994  1.2615
 9251SOL    HW228279   0.172   3.574   0.484  1.3039  0.4886 -0.3446
 9252SOL     OW28280   7.543   4.975   0.147 -0.1526  0.4858  0.1363
 9252SOL    HW128281   7.609   4.910   0.172  0.8553  1.4676  0.1616
 9252SOL    HW228282   7.470   4.959   0.206  0.7734  0.4834  1.3313
 9253SOL     OW28283   1.089   0.856   5.242 -0.5682 -0.5741 -0.6126
 9253SOL    HW128284   1.012   0.857   5.298  0.9169 -0.3018  1.5455
 9253SOL    HW228285   1.143   0.784   5.275  1.9329  1.7118  0.7068
 9254SOL     OW28286   3.208   0.127   0.412  0.0002 -0.0546 -0.0274
 9254SOL    HW128287   3.199   0.128   0.507  1.8156 -0.3003  0.1895
 9254SOL    HW228288   3.120   0.143   0.379 -0.5495  0.6828  1.6930
 9255SOL     OW28289   5.794   6.741   3.093 -0.3777 -0.1033 -0.1558
 9255SOL    HW128290   5.749   6.672   3.141 -0.7009  0.6692  0.6894
 9255SOL    HW228291   5.881   6.744   3.133 -0.2855 -0.1677 -0.3492
 9256SOL     OW28292   7.534   3.638   5.083 -0.1828 -0.1756 -0.2137
 9256SOL    HW128293   7.581   3.582   5.145 -1.5613 -1.2425 -0.0819
 9256SOL    HW228294   7.517   3.719   5.132  1.2145  0.1123 -0.1720
 9257SOL     OW28295   1.833   7.545   4.516 -0.1088 -0.5926  0.0529
 9257SOL    HW128296   1.920   7.513   4.490 -0.7879 -3.4317  0.8558
 9257SOL    HW228297   1.844   7.573   4.607  0.0785 -0.4328 -0.0187
 9258SOL     OW28298   0.579   4.356   1.374 -0.6735  1.0476 -0.1897
 9258SOL    HW128299   0.614   4.319   1.455 -1.0094  0.9480 -0.0860
 9258SOL    HW228300   0.485   4.336   1.378 -0.5044 -0.0500 -1.1930
 9259SOL     OW28301   4.956   3.239   1.736  0.0952  0.2927  0.8854
 9259SOL    HW128302   4.975   3.329   1.710 -1.2384  0.5424  0.7101
 9259SOL    HW228303   5.026   3.187   1.696  0.0473  1.0783 -0.2778
 9260SOL     OW28304   3.295   4.636   2.950 -0.3672 -0.5159 -0.4223
 9260SOL    HW128305   3.323   4.694   2.879 -0.3344 -1.6916 -1.4024
 9260SOL    HW228306   3.213   4.598   2.919 -0.7723 -0.4505  0.5279
 9261SOL     OW28307   3.593   1.102   2.367  0.2882  0.0766  0.1882
 9261SOL    HW128308   3.558   1.038   2.305  0.5692 -0.8959  1.0015
 9261SOL    HW228309   3.516   1.141   2.407  0.1064 -0.5895  0.5091
 9262SOL     OW28310   7.233   6.822   3.260 -0.7906  0.7000  0.5227
 9262SOL    HW128311   7.235   6.727   3.255 -1.0511  0.6989  0.4073
 9262SOL    HW228312   7.147   6.843   3.298 -0.5858  0.8761  0.8946
 9263SOL     OW28313   5.281   4.147   1.105 -0.4998  0.0689  0.4436
 9263SOL    HW128314   5.214   4.183   1.164 -0.5325 -0.5692  0.8092
 9263SOL    HW228315   5.279   4.205   1.029  0.6329  1.8772  1.7092
 9264SOL     OW28316   7.002   1.228   0.324 -0.0581  0.2650  0.3928
 9264SOL    HW128317   7.086   1.231   0.277 -1.7319 -2.7160 -3.3879
 9264SOL    HW228318   6.947   1.292   0.280 -0.8871 -0.6795  0.0085
 9265SOL     OW28319   5.049   5.755   2.488 -0.0130 -0.5032  0.2728
 9265SOL    HW128320   5.133   5.710   2.500  0.4741  0.4220  0.4177
 9265SOL    HW228321   5.061   5.807   2.408 -0.3690 -0.1913  0.4183
 9266SOL     OW28322   6.488   5.652   0.561  0.2392  0.3741  0.2056
 9266SOL    HW128323   6.583   5.639   0.566  0.1944  0.3314  3.1349
 9266SOL    HW228324   6.476   5.745   0.578 -0.2006  1.0215 -3.1351
 9267SOL     OW28325   1.567   4.934   6.159 -0.1902  0.1817  0.0069
 9267SOL    HW128326   1.489   4.966   6.203 -0.1961  0.4109 -0.1661
 9267SOL    HW228327   1.634   4.999   6.178  0.5094 -0.9861  1.7934
 9268SOL     OW28328   3.142   2.560   1.641  0.2492  0.0312 -0.3265
 9268SOL    HW128329   3.165   2.558   1.548  2.4240  0.9475  0.1300
 9268SOL    HW228330   3.175   2.645   1.671 -2.5206  0.8101  0.8088
 9269SOL     OW28331   2.817   5.922   2.231  0.2339 -0.4648  0.2473
 9269SOL    HW128332   2.903   5.907   2.270 -0.0451 -0.1971  0.9860
 9269SOL    HW228333   2.762   5.951   2.304 -0.1245  0.7548 -0.4741
 9270SOL     OW28334   2.014   3.214   0.513  0.1383 -0.2082  0.1756
 9270SOL    HW128335   2.104   3.242   0.501  0.1682  0.4189  1.6778
 9270SOL    HW228336   2.021   3.127   0.552  0.0596 -0.5909 -0.6242
 9271SOL     OW28337   0.034   4.900   0.589  0.3347  0.1107 -0.2511
 9271SOL    HW128338   0.029   4.878   0.496 -1.6825  0.6335 -0.3148
 9271SOL    HW228339  -0.044   4.953   0.606  2.0084  2.3075  1.1735
 9272SOL     OW28340   1.383   4.357   2.240  0.0035 -0.3004  0.0802
 9272SOL    HW128341   1.458   4.307   2.210 -0.0761 -1.1216  1.1676
 9272SOL    HW228342   1.320   4.291   2.270 -1.1741  0.3603 -0.8320
 9273SOL     OW28343   0.827   2.661   6.653 -0.0506  0.1411 -0.7424
 9273SOL    HW128344   0.872   2.620   6.579  2.8694  0.8780  0.4643
 9273SOL    HW228345   0.893   2.719   6.691 -2.4352  2.1153  0.6192
 9274SOL     OW28346   1.965   1.735   5.083 -0.2485  0.0713  0.6013
 9274SOL    HW128347   2.017   1.710   5.160  1.1065 -1.0972 -0.6310
 9274SOL    HW228348   1.975   1.830   5.077 -1.4360  0.3637  2.5727
 9275SOL     OW28349   4.187   1.671   2.553 -0.0952 -0.6243  0.9104
 9275SOL    HW128350   4.202   1.726   2.630  1.1064  0.4136 -0.0240
 9275SOL    HW228351   4.252   1.601   2.561 -0.2856 -0.7840  1.0718
 9276SOL     OW28352   1.877   4.274   0.155 -0.2702  0.3094 -0.1122
 9276SOL    HW128353   1.881   4.196   0.210 -1.1005 -0.9319 -1.7343
 9276SOL    HW228354   1.963   4.277   0.112 -0.1317  0.4709  0.1716
 9277SOL     OW28355   3.588   3.733   3.742 -0.5966 -0.0674 -0.5904
 9277SOL    HW128356   3.597   3.655   3.687  2.1080 -1.1137  1.1117
 9277SOL    HW228357   3.663   3.788   3.718 -1.4637  1.1954 -0.5017
 9278SOL     OW28358   2.066   6.117   6.443 -0.1607  0.2436  0.4133
 9278SOL    HW128359   2.021   6.149   6.364 -1.0885 -1.8986  0.0159
 9278SOL    HW228360   2.158   6.112   6.417 -0.4630 -0.4854 -0.5675
 9279SOL     OW28361   5.101   6.025   5.926 -0.1996 -0.1224  0.4349
 9279SOL    HW128362   5.157   6.030   6.004 -1.4939 -0.7149  1.4484
 9279SOL    HW228363   5.128   5.944   5.883 -1.6645 -1.5965  2.1068
 9280SOL     OW28364   7.134   2.288   1.671  0.1026  0.5088  0.4038
 9280SOL    HW128365   7.160   2.237   1.594 -0.6826 -0.7258  0.9140
 9280SOL    HW228366   7.042   2.309   1.656 -0.8541 -1.9736  2.0795
 9281SOL     OW28367   1.261   6.494   0.682 -1.0824  0.2254  0.0103
 9281SOL    HW128368   1.355   6.481   0.696 -0.8690  1.5027 -0.1572
 9281SOL    HW228369   1.221   6.410   0.708  0.0785 -0.2768  0.2266
 9282SOL     OW28370   6.922   6.888   4.392 -0.1524 -0.0150 -0.1034
 9282SOL    HW128371   6.836   6.929   4.383 -0.5330 -0.7747 -0.0520
 9282SOL    HW228372   6.916   6.839   4.474 -0.0437 -0.9330 -0.6329
 9283SOL     OW28373   7.210   6.616   4.494 -0.4168 -0.0638  0.4183
 9283SOL    HW128374   7.168   6.685   4.546  0.6616  0.2211  0.9459
 9283SOL    HW228375   7.285   6.660   4.454  0.4247 -0.9774  0.9555
 9284SOL     OW28376   6.736   1.903   0.972  0.1458  0.0049 -0.3846
 9284SOL    HW128377   6.798   1.909   0.899  1.3886 -0.4153  0.5917
 9284SOL    HW228378   6.726   1.993   1.003 -0.3963  0.1858 -1.0665
 9285SOL     OW28379   5.507   0.044   1.046 -0.4516  0.4028  0.3994
 9285SOL    HW128380   5.515   0.129   1.003  1.1133 -0.6251 -1.5426
 9285SOL    HW228381   5.496   0.064   1.139 -1.6142  2.7170 -0.1631
 9286SOL     OW28382   4.517   6.652   1.313  0.3388  0.7881  0.0215
 9286SOL    HW128383   4.548   6.632   1.225  0.8193  0.8741  0.1720
 9286SOL    HW228384   4.585   6.706   1.352 -0.3470  1.6302  0.0858
 9287SOL     OW28385   4.268   1.714   0.658 -0.2064  0.4618 -0.1815
 9287SOL    HW128386   4.344   1.771   0.668  0.7714 -0.6093 -1.2024
 9287SOL    HW228387   4.245   1.721   0.565  0.1606 -1.0451 -0.4085
 9288SOL     OW28388   0.319   7.364   1.620  0.6708 -0.0493  0.2894
 9288SOL    HW128389   0.337   7.363   1.714  2.1374  0.5337  0.0487
 9288SOL    HW228390   0.401   7.394   1.580  0.3487 -1.1006 -1.2451
 9289SOL     OW28391   5.204   5.706   6.769 -0.3915 -0.1930  0.2592
 9289SOL    HW128392   5.277   5.707   6.707 -0.1046 -0.4755  0.5868
 9289SOL    HW228393   5.210   5.621   6.812 -0.4014  0.1182  0.8910
 9290SOL     OW28394   1.462   4.006   4.030  0.8186  0.3289 -0.3158
 9290SOL    HW128395   1.509   3.971   3.955 -0.5188 -0.0501 -1.0205
 9290SOL    HW228396   1.517   4.078   4.061  1.6807  0.1292 -1.3015
 9291SOL     OW28397   4.951   7.466   6.067 -0.1643 -0.1305 -0.0944
 9291SOL    HW128398   5.022   7.467   6.003 -0.4608  0.9035 -0.4314
 9291SOL    HW228399   4.944   7.375   6.094  1.6767 -0.1734  0.3815
 9292SOL     OW28400   3.515   1.040   0.833  0.0078 -0.0273 -0.0257
 9292SOL    HW128401   3.446   1.105   0.849  0.6149  0.3765  1.0148
 9292SOL    HW228402   3.480   0.987   0.761 -1.3970  0.1587  0.4716
 9293SOL     OW28403   5.425   1.766   0.745  0.5520 -0.0756  0.9227
 9293SOL    HW128404   5.354   1.724   0.795  0.2313  0.8647  1.2798
 9293SOL    HW228405   5.418   1.729   0.657  0.7875 -1.3590  1.4310
 9294SOL     OW28406   1.501   2.079   3.485 -0.2267 -0.1808 -0.0264
 9294SOL    HW128407   1.469   2.026   3.559  0.2444 -2.2710 -1.2341
 9294SOL    HW228408   1.592   2.051   3.473  0.1714  1.2238 -0.4784
 9295SOL     OW28409   5.217   1.583   7.374 -0.6386 -0.0737  0.3031
 9295SOL    HW128410   5.211   1.632   7.292 -0.9871 -0.5696  0.0259
 9295SOL    HW228411   5.190   1.645   7.441  0.2246  0.5235  0.1227
 9296SOL     OW28412   4.693   6.646   7.300 -0.0192  0.4789 -0.0195
 9296SOL    HW128413   4.702   6.652   7.205 -0.9592  1.8434 -0.0433
 9296SOL    HW228414   4.640   6.722   7.325  0.8392  0.5826  1.6815
 9297SOL     OW28415   3.798   4.159   5.468 -0.1915 -0.1813  0.0805
 9297SOL    HW128416   3.738   4.167   5.394  0.3310  0.8928 -0.2444
 9297SOL    HW228417   3.883   4.140   5.429  0.3653  1.6798  0.2595
 9298SOL     OW28418   7.430   3.309   5.015  0.3661 -0.1152  0.8257
 9298SOL    HW128419   7.464   3.328   5.103  1.6421  2.2057 -0.0740
 9298SOL    HW228420   7.338   3.337   5.019  0.0835 -1.1093  1.7167
 9299SOL     OW28421   3.983   1.763   1.826 -0.1927  0.5474  0.2712
 9299SOL    HW128422   3.947   1.851   1.818 -2.2868 -0.3843 -1.6661
 9299SOL    HW228423   3.933   1.723   1.898  1.3818  1.1364  1.7734
 9300SOL     OW28424   7.034   4.344   4.882 -0.0963 -0.0287  0.2414
 9300SOL    HW128425   7.087   4.417   4.915  0.0587  0.5346 -1.1717
 9300SOL    HW228426   6.970   4.385   4.825  0.2261 -1.0103 -0.8752
 9301SOL     OW28427   2.143   5.617   6.867  0.0107 -0.0673  0.0966
 9301SOL    HW128428   2.077   5.681   6.840  0.6275  0.4268 -0.2797
 9301SOL    HW228429   2.209   5.620   6.797  0.1866 -0.9116  0.2157
 9302SOL     OW28430   6.397   2.861   3.712  0.1706 -0.3181  0.2604
 9302SOL    HW128431   6.316   2.817   3.687  0.1688 -0.1352 -0.0503
 9302SOL    HW228432   6.373   2.913   3.789 -0.0383 -0.1478  0.0783
 9303SOL     OW28433   4.956   3.153   2.722  0.5426 -0.4374  0.2673
 9303SOL    HW128434   4.902   3.076   2.703  0.3512  0.0733 -1.4375
 9303SOL    HW228435   4.900   3.208   2.776 -0.8416  0.2037 -1.6824
 9304SOL     OW28436   6.285   4.679   2.113 -0.5202  0.5501 -0.1667
 9304SOL    HW128437   6.262   4.771   2.125  0.4980  0.6622  1.1361
 9304SOL    HW228438   6.374   4.672   2.147 -0.4643 -0.8618 -0.5429
 9305SOL     OW28439   7.379   4.853   1.870  0.0149  0.3676 -0.1216
 9305SOL    HW128440   7.358   4.790   1.939 -0.3605  0.9855  0.3403
 9305SOL    HW228441   7.307   4.847   1.808  0.1361  0.1182 -0.2370
 9306SOL     OW28442   4.883   7.084   5.159 -0.4840  0.0573 -0.2071
 9306SOL    HW128443   4.963   7.101   5.209 -1.7386  0.7556  1.6612
 9306SOL    HW228444   4.909   7.021   5.092  1.7021  0.5570  0.1017
 9307SOL     OW28445   7.186   7.371   6.929 -0.2074  0.1684  0.2551
 9307SOL    HW128446   7.135   7.452   6.928  0.4937  0.6179  0.4275
 9307SOL    HW228447   7.135   7.310   6.875 -1.2217  0.4213  0.9078
 9308SOL     OW28448   3.805   4.943   3.203 -0.6558 -0.3097  0.0525
 9308SOL    HW128449   3.755   4.862   3.188 -0.7642 -0.0912 -0.8080
 9308SOL    HW228450   3.840   4.966   3.117 -0.5806  0.5364  0.3021
 9309SOL     OW28451   3.023   1.225   2.322  0.3766 -0.2890 -0.1155
 9309SOL    HW128452   3.101   1.214   2.268 -0.4131 -2.1780 -0.9588
 9309SOL    HW228453   2.952   1.238   2.259 -0.2469 -0.2766  0.5796
 9310SOL     OW28454   2.999   3.916   3.482 -0.1529  0.2587 -0.6463
 9310SOL    HW128455   2.983   3.822   3.488 -1.8055  0.5109 -0.4149
 9310SOL    HW228456   3.087   3.928   3.516  0.6155 -1.3366 -1.9271
 9311SOL     OW28457   2.895   1.250   6.804 -0.0191  0.1895  0.0359
 9311SOL    HW128458   2.911   1.332   6.757 -4.6318  2.7552  2.2929
 9311SOL    HW228459   2.803   1.230   6.788 -0.1447 -2.2499  2.9238
 9312SOL     OW28460   6.772   1.067   5.906  0.7695 -0.2883  0.5755
 9312SOL    HW128461   6.776   1.027   5.819 -0.4915 -1.0210  0.8420
 9312SOL    HW228462   6.845   1.027   5.953  0.7334 -0.7889  0.2213
 9313SOL     OW28463   5.487   3.394   1.083  0.9642  0.3040 -0.4164
 9313SOL    HW128464   5.539   3.363   1.158 -1.8777  0.7268  1.9401
 9313SOL    HW228465   5.463   3.483   1.107 -1.3064 -0.0844 -1.0568
 9314SOL     OW28466   4.168   2.604   5.291 -0.2620 -0.1292 -0.0821
 9314SOL    HW128467   4.123   2.587   5.208 -0.5239  1.0576 -0.2035
 9314SOL    HW228468   4.209   2.690   5.278 -1.1820  0.5632  1.3768
 9315SOL     OW28469   2.545   6.629   5.296  0.0143 -0.3642 -0.4094
 9315SOL    HW128470   2.626   6.673   5.268 -0.5067 -0.0022 -1.3772
 9315SOL    HW228471   2.499   6.694   5.348 -0.6936  0.2152 -1.7300
 9316SOL     OW28472   3.854   1.690   1.281 -0.1826 -0.2471  0.7736
 9316SOL    HW128473   3.828   1.682   1.372  2.3698 -1.4586  1.5080
 9316SOL    HW228474   3.887   1.603   1.258  1.1262  0.5658 -0.6325
 9317SOL     OW28475   6.977   3.409   3.693  0.5714  0.3975 -0.1865
 9317SOL    HW128476   6.889   3.415   3.657  0.2325 -1.8844  0.0811
 9317SOL    HW228477   7.034   3.416   3.616  0.0048 -0.7419 -0.7423
 9318SOL     OW28478   7.186   1.906   4.641  0.0863 -0.6449 -0.0034
 9318SOL    HW128479   7.264   1.936   4.596 -1.1987  0.3055 -1.7006
 9318SOL    HW228480   7.214   1.829   4.690  2.4416  0.6304  0.8003
 9319SOL     OW28481   1.717   4.497   2.006  0.3331  0.1404 -0.4157
 9319SOL    HW128482   1.688   4.458   1.923  0.3682  1.2573 -0.9710
 9319SOL    HW228483   1.729   4.590   1.986  1.0316  0.3004  0.6698
 9320SOL     OW28484   7.208   6.788   5.117 -0.4457 -0.0801 -0.1981
 9320SOL    HW128485   7.130   6.835   5.146 -0.0658 -0.3367  1.3457
 9320SOL    HW228486   7.220   6.719   5.183  0.9571 -0.1789 -0.5250
 9321SOL     OW28487   2.786   4.543   5.503 -0.2169  0.0983  0.1036
 9321SOL    HW128488   2.868   4.576   5.539  0.4714  0.0543 -1.3394
 9321SOL    HW228489   2.781   4.452   5.533 -0.3739  0.4617  1.2165
 9322SOL     OW28490   5.362   3.453   6.188 -0.5353  0.3293 -0.1881
 9322SOL    HW128491   5.373   3.360   6.171 -1.4620 -0.4975  2.9163
 9322SOL    HW228492   5.278   3.475   6.147  0.1136  0.0653 -1.7088
 9323SOL     OW28493   6.247   0.064   1.820  0.4683  0.6684 -0.0095
 9323SOL    HW128494   6.158   0.096   1.805  0.3140 -0.1217 -0.8568
 9323SOL    HW228495   6.280   0.044   1.732  0.8047 -0.8213  0.4337
 9324SOL     OW28496   0.443   0.675   4.448  0.1594 -0.3674  0.6805
 9324SOL    HW128497   0.401   0.610   4.504 -0.5460 -0.0797  0.4948
 9324SOL    HW228498   0.439   0.638   4.360  1.5417 -0.9588  0.8395
 9325SOL     OW28499   5.715   0.449   4.028 -0.0697  0.2748  0.3235
 9325SOL    HW128500   5.768   0.498   3.965 -0.5429 -0.7448 -0.8952
 9325SOL    HW228501   5.776   0.386   4.067  0.8037  2.3697  2.6452
 9326SOL     OW28502   6.146   5.180   2.636 -0.2723  0.0782  0.0018
 9326SOL    HW128503   6.181   5.239   2.703 -0.4235  1.8808 -1.4241
 9326SOL    HW228504   6.061   5.217   2.612 -0.7768 -1.2292 -0.3342
 9327SOL     OW28505   2.999   2.205   5.385 -0.0161  0.0359  0.5147
 9327SOL    HW128506   3.000   2.298   5.361  1.4261  0.2196  1.1863
 9327SOL    HW228507   2.906   2.182   5.389 -0.3831  1.2385 -0.4314
 9328SOL     OW28508   4.261   1.532   3.268 -0.0279 -0.8135  0.2459
 9328SOL    HW128509   4.243   1.605   3.327  2.8833 -2.1214  3.0635
 9328SOL    HW228510   4.177   1.488   3.259 -1.1316  0.9558  1.2487
 9329SOL     OW28511   3.900   4.135   4.383  0.1445 -0.1960  0.2815
 9329SOL    HW128512   3.909   4.229   4.399 -0.0198 -0.0338 -0.5635
 9329SOL    HW228513   3.807   4.123   4.363  0.1857 -0.5208  0.2847
 9330SOL     OW28514   4.676   5.611   0.944 -0.0733 -0.1132  0.1308
 9330SOL    HW128515   4.597   5.649   0.905 -0.1998  0.3347  0.7943
 9330SOL    HW228516   4.687   5.660   1.026  0.5056 -0.6402  0.3709
 9331SOL     OW28517   2.569   2.387   1.537 -0.3021  0.2397  0.0899
 9331SOL    HW128518   2.578   2.318   1.472 -0.8944 -0.0700  0.3284
 9331SOL    HW228519   2.600   2.348   1.618  0.6464  0.6963 -0.0459
 9332SOL     OW28520   6.448   1.507   0.872  0.0427 -0.1067 -0.2350
 9332SOL    HW128521   6.448   1.598   0.903  2.8006 -0.1976  0.2677
 9332SOL    HW228522   6.483   1.513   0.783 -0.8600 -0.6040 -0.6377
 9333SOL     OW28523   2.200   3.391   6.612 -0.5065 -0.2661 -0.1464
 9333SOL    HW128524   2.277   3.399   6.555  0.2830  0.3982  0.9696
 9333SOL    HW228525   2.230   3.337   6.685 -1.3158 -0.5986 -0.0574
 9334SOL     OW28526   5.929   5.578   2.555  0.1662  0.6593 -0.4170
 9334SOL    HW128527   5.971   5.600   2.638 -0.5388 -0.2501  0.2062
 9334SOL    HW228528   5.876   5.654   2.533  1.2385  1.3597 -0.6322
 9335SOL     OW28529   3.936   6.009   5.190  0.6183 -0.0465  0.2180
 9335SOL    HW128530   3.997   6.068   5.234  1.2529  0.2371 -1.0210
 9335SOL    HW228531   3.987   5.970   5.119 -0.6784  0.2858 -0.9146
 9336SOL     OW28532   0.015   6.397   4.661  0.2853  0.0115 -0.0366
 9336SOL    HW128533   0.065   6.337   4.605 -0.7566 -2.6301  1.6776
 9336SOL    HW228534  -0.076   6.385   4.634 -0.0266  0.0690  0.9381
 9337SOL     OW28535   3.953   0.880   7.316 -0.6853 -0.6842  0.0118
 9337SOL    HW128536   3.960   0.785   7.313  0.5077 -0.6173 -2.6862
 9337SOL    HW228537   3.934   0.905   7.225  0.0104  1.6900  0.4469
 9338SOL     OW28538   0.924   4.091   6.121  0.0865  0.4389 -0.5624
 9338SOL    HW128539   0.914   4.175   6.076  0.5789  1.7230  1.6119
 9338SOL    HW228540   0.915   4.111   6.214  1.0723 -1.7788  0.0966
 9339SOL     OW28541   1.007   4.483   5.064  0.3100 -0.0430  0.3626
 9339SOL    HW128542   0.999   4.478   5.159  2.3273  0.5830  0.6242
 9339SOL    HW228543   1.002   4.577   5.046  1.2672 -0.0434  0.0331
 9340SOL     OW28544   6.254   3.330   6.849 -0.0949  0.5636 -0.3549
 9340SOL    HW128545   6.283   3.409   6.804  1.1326  0.8406  0.8504
 9340SOL    HW228546   6.273   3.346   6.941 -1.5719 -0.4011  0.1660
 9341SOL     OW28547   3.149   7.439   4.406  0.2710 -0.2924  0.2468
 9341SOL    HW128548   3.130   7.491   4.328  0.6501  0.0983  0.4157
 9341SOL    HW228549   3.167   7.503   4.474 -2.3170 -0.5445  1.2737
 9342SOL     OW28550   0.008   0.534   0.846 -0.5325 -0.0860 -0.4503
 9342SOL    HW128551   0.005   0.629   0.855 -2.4601 -0.1503 -0.0973
 9342SOL    HW228552  -0.058   0.514   0.780  0.5478 -1.1315 -1.2612
 9343SOL     OW28553   0.669   0.555   7.520 -0.0011  0.3599  0.5059
 9343SOL    HW128554   0.693   0.624   7.458 -1.1640 -0.8033 -1.3191
 9343SOL    HW228555   0.735   0.487   7.507 -1.8072 -1.1387 -1.6827
 9344SOL     OW28556   3.155   3.613   4.012  0.1983 -0.6342  0.2783
 9344SOL    HW128557   3.248   3.592   4.002  0.1652 -0.9761  0.6789
 9344SOL    HW228558   3.150   3.662   4.094  0.3582  1.5159 -0.9143
 9345SOL     OW28559   1.034   2.456   2.592  0.6456 -0.7950 -0.9290
 9345SOL    HW128560   0.994   2.543   2.596  1.3495 -0.4805 -0.2079
 9345SOL    HW228561   1.000   2.410   2.669  1.1370 -0.7504 -0.6755
 9346SOL     OW28562   3.765   2.977   4.950 -1.0391 -0.0542 -0.4690
 9346SOL    HW128563   3.794   3.051   4.896 -3.1444 -0.9443 -3.0463
 9346SOL    HW228564   3.673   2.995   4.967 -1.0463 -1.0896  0.6870
 9347SOL     OW28565   5.724   7.103   0.357 -0.1540 -0.0817 -1.0001
 9347SOL    HW128566   5.691   7.017   0.379  0.7724 -0.3702 -0.6692
 9347SOL    HW228567   5.666   7.164   0.402 -0.7223 -0.5341 -1.1127
 9348SOL     OW28568   2.728   6.044   4.705  0.3725 -0.4690 -0.1748
 9348SOL    HW128569   2.695   6.076   4.621  0.6702  0.9494  0.2392
 9348SOL    HW228570   2.649   6.025   4.756  0.1785 -1.8419 -0.9198
 9349SOL     OW28571   0.925   2.317   4.551 -0.2189 -0.0269  0.7036
 9349SOL    HW128572   0.976   2.265   4.614 -3.2953 -0.9556  2.6894
 9349SOL    HW228573   0.850   2.261   4.530 -0.9905  1.6304 -1.2595
 9350SOL     OW28574   6.541   0.179   0.656  0.1289 -0.4867 -0.7763
 9350SOL    HW128575   6.566   0.171   0.564 -1.3430 -1.7466 -1.1015
 9350SOL    HW228576   6.481   0.106   0.671  0.8254 -0.6693  1.3631
 9351SOL     OW28577   6.873   5.600   0.800 -0.3996  0.1482 -0.5003
 9351SOL    HW128578   6.862   5.585   0.706  0.1102  1.4279 -0.7830
 9351SOL    HW228579   6.892   5.693   0.808 -1.9197  0.3772  1.0273
 9352SOL     OW28580   2.133   4.623   6.099  0.5054 -0.2064 -0.2174
 9352SOL    HW128581   2.123   4.690   6.032  2.9254 -0.6719 -1.1295
 9352SOL    HW228582   2.127   4.671   6.182 -0.1465  0.7458 -0.7983
 9353SOL     OW28583   0.577   4.324   0.371  0.4594 -0.1900  0.0967
 9353SOL    HW128584   0.671   4.328   0.352  0.5496 -0.3837  0.4945
 9353SOL    HW228585   0.539   4.393   0.316  0.7691 -0.4349 -0.4311
 9354SOL     OW28586   4.175   1.355   6.907 -0.2105 -0.3569  1.3659
 9354SOL    HW128587   4.270   1.359   6.918 -0.0260 -0.9854  0.0887
 9354SOL    HW228588   4.148   1.447   6.902  1.0476  0.0233 -3.6617
 9355SOL     OW28589   1.037   7.091   4.904 -0.4307  0.1707  0.4977
 9355SOL    HW128590   0.996   7.058   4.824 -2.2227  1.5022  0.8236
 9355SOL    HW228591   0.964   7.119   4.960  0.8688  2.2833  1.2712
 9356SOL     OW28592   4.701   4.565   0.240  0.3468 -0.2487 -0.7990
 9356SOL    HW128593   4.636   4.629   0.267  0.0271 -0.3877 -1.2443
 9356SOL    HW228594   4.657   4.510   0.176 -0.3400 -2.7260  1.6016
 9357SOL     OW28595   5.357   3.535   5.419  0.0600 -0.4186  0.4292
 9357SOL    HW128596   5.295   3.586   5.472 -0.9753 -0.1788 -0.9736
 9357SOL    HW228597   5.310   3.454   5.399  0.9108 -1.0366  0.8660
 9358SOL     OW28598   1.109   6.745   3.839  0.4837  0.0952 -0.4204
 9358SOL    HW128599   1.051   6.784   3.904  0.5829  0.4554 -0.5481
 9358SOL    HW228600   1.062   6.668   3.809  0.4510 -0.0970  0.1043
 9359SOL     OW28601   6.709   5.862   4.348  0.1524  0.2586 -0.0755
 9359SOL    HW128602   6.765   5.933   4.317  0.6667 -0.4346 -0.7564
 9359SOL    HW228603   6.684   5.814   4.269 -0.4966 -0.1060  0.3377
 9360SOL     OW28604   1.844   6.513   5.663  0.1787  0.6743 -0.1419
 9360SOL    HW128605   1.878   6.452   5.597 -0.8445 -0.6010  0.4499
 9360SOL    HW228606   1.910   6.514   5.731 -0.7771 -1.7175  0.9607
 9361SOL     OW28607   2.639   7.089   0.676 -0.6444 -0.5467  0.2713
 9361SOL    HW128608   2.645   7.019   0.740  1.1630 -2.4512 -1.8376
 9361SOL    HW228609   2.589   7.052   0.604 -1.3223  1.0230 -0.1133
 9362SOL     OW28610   4.229   6.763   3.377 -0.1662  0.3863 -0.1155
 9362SOL    HW128611   4.180   6.827   3.325 -0.8028  0.1569  0.1899
 9362SOL    HW228612   4.168   6.738   3.446  0.8692  1.1347  1.1078
 9363SOL     OW28613   2.148   2.048   6.244 -0.2174  0.4023  0.5348
 9363SOL    HW128614   2.101   1.991   6.183 -0.8410  0.4371  0.9786
 9363SOL    HW228615   2.144   2.003   6.328 -0.9528  1.2056  0.9528
 9364SOL     OW28616   4.073   4.137   5.223 -0.0035 -0.3255  0.3018
 9364SOL    HW128617   4.165   4.132   5.196  0.0112  0.3470  0.1995
 9364SOL    HW228618   4.073   4.107   5.314  0.2872 -0.5206  0.2379
 9365SOL     OW28619   2.310   2.174   1.318  0.7121 -0.3498  0.4532
 9365SOL    HW128620   2.226   2.218   1.326  1.1231  0.3242  1.1774
 9365SOL    HW228621   2.291   2.082   1.340  0.2175 -0.1492  0.8860
 9366SOL     OW28622   0.742   3.351   6.809 -0.1047  0.4292  0.9394
 9366SOL    HW128623   0.827   3.395   6.813 -0.0302  0.6659 -1.6313
 9366SOL    HW228624   0.763   3.260   6.789 -0.4063  0.7689 -1.2068
 9367SOL     OW28625   0.166   0.981   5.892  0.0729 -0.3223  0.8421
 9367SOL    HW128626   0.228   0.959   5.961  1.2739 -1.1424 -0.4343
 9367SOL    HW228627   0.168   0.906   5.833 -0.6990  0.4669 -0.2286
 9368SOL     OW28628   6.140   4.978   6.820  0.0751  0.1271 -0.1119
 9368SOL    HW128629   6.049   4.949   6.832  0.2218 -0.5220 -0.5263
 9368SOL    HW228630   6.188   4.898   6.800  0.8487  0.3825  0.6854
 9369SOL     OW28631   5.854   6.522   2.778  0.0990  0.2498 -0.1248
 9369SOL    HW128632   5.819   6.600   2.735 -0.7101 -0.1014 -0.1263
 9369SOL    HW228633   5.900   6.475   2.709 -0.5886  0.0409 -0.4446
 9370SOL     OW28634   4.110   3.134   0.402  0.0985  0.7658  0.6256
 9370SOL    HW128635   4.113   3.102   0.492 -1.0911  0.1277  0.4653
 9370SOL    HW228636   4.020   3.118   0.374  0.8053 -0.3472 -1.1696
 9371SOL     OW28637   7.235   3.033   6.969 -0.2904  0.2578 -0.1081
 9371SOL    HW128638   7.293   3.075   6.906 -0.8265  0.2500 -0.6134
 9371SOL    HW228639   7.227   2.943   6.937  1.1893 -0.3730  1.1955
 9372SOL     OW28640   2.662   1.405   5.802 -1.0666  0.6257 -0.2263
 9372SOL    HW128641   2.669   1.491   5.761  0.0372  0.4606 -0.4011
 9372SOL    HW228642   2.581   1.368   5.767 -1.3546  1.4386 -0.4319
 9373SOL     OW28643   3.572   1.746   6.698  0.0022 -0.3985 -0.2774
 9373SOL    HW128644   3.625   1.826   6.708 -1.5626  0.6433  0.1003
 9373SOL    HW228645   3.630   1.684   6.654  1.0360  1.2177 -1.3270
 9374SOL     OW28646   5.340   5.629   1.944  0.0524 -1.2767  0.0676
 9374SOL    HW128647   5.351   5.605   2.036  0.8584 -2.2095 -0.2594
 9374SOL    HW228648   5.247   5.649   1.936  0.1885  0.1891  1.3848
 9375SOL     OW28649   7.044   1.172   5.063 -0.0874 -0.0861 -0.1601
 9375SOL    HW128650   7.054   1.197   4.971 -2.8501  0.8578 -0.3133
 9375SOL    HW228651   6.999   1.247   5.103 -0.3797 -1.1342  1.5720
 9376SOL     OW28652   7.212   5.598   6.250 -0.1162 -0.4856 -0.0480
 9376SOL    HW128653   7.183   5.667   6.191 -0.0721 -1.9029 -1.8231
 9376SOL    HW228654   7.284   5.637   6.299  0.0202  0.6705 -1.1236
 9377SOL     OW28655   2.684   4.492   3.239 -0.1996  0.2673  0.2710
 9377SOL    HW128656   2.625   4.536   3.300 -0.2274  0.6317 -0.0126
 9377SOL    HW228657   2.745   4.445   3.294  0.0677  0.9741  0.5925
 9378SOL     OW28658   7.245   5.326   6.991 -0.1975  0.4914 -0.1784
 9378SOL    HW128659   7.209   5.251   7.039  2.8325 -0.6627  0.5183
 9378SOL    HW228660   7.315   5.358   7.047  0.6044  1.8864 -1.9080
 9379SOL     OW28661   6.151   3.938   7.358 -0.0969 -0.1666  0.5369
 9379SOL    HW128662   6.170   4.022   7.399 -1.4940  0.8375 -0.7598
 9379SOL    HW228663   6.085   3.958   7.292  1.9798 -1.6721 -2.2108
 9380SOL     OW28664   6.047   4.196   1.648  0.2984  0.2538  0.0718
 9380SOL    HW128665   5.967   4.149   1.628  1.2007 -0.8639 -1.0752
 9380SOL    HW228666   6.032   4.285   1.615 -0.2263 -0.1289 -0.7398
 9381SOL     OW28667   0.524   0.435   1.253  0.5803 -0.1252  0.4668
 9381SOL    HW128668   0.495   0.368   1.190  0.4557 -1.5761  1.9949
 9381SOL    HW228669   0.595   0.481   1.208 -1.0310  0.4858 -1.6231
 9382SOL     OW28670   6.711   0.819   6.273 -0.3063  0.1005  0.3185
 9382SOL    HW128671   6.704   0.798   6.366 -1.5200  1.0349  0.4709
 9382SOL    HW228672   6.704   0.914   6.269 -0.4751  0.0629 -0.7387
 9383SOL     OW28673   5.950   0.611   2.380 -0.6181  0.4955 -0.1822
 9383SOL    HW128674   5.916   0.574   2.462  1.1791  1.6325  1.1603
 9383SOL    HW228675   6.038   0.642   2.402  0.6629 -0.7381 -3.0155
 9384SOL     OW28676   3.944   4.443   5.808  0.0658  0.0525  0.0415
 9384SOL    HW128677   3.905   4.364   5.845  1.3036 -0.4037  0.4386
 9384SOL    HW228678   3.873   4.506   5.806 -0.3779 -0.3049  2.0564
 9385SOL     OW28679   3.980   0.042   7.330 -0.0542  0.0324  0.4121
 9385SOL    HW128680   3.964  -0.032   7.271  0.9364 -1.3582  1.8061
 9385SOL    HW228681   4.025   0.003   7.405  1.5597  2.2546  0.6816
 9386SOL     OW28682   0.247   2.219   7.087 -0.4741 -0.3145 -0.6258
 9386SOL    HW128683   0.164   2.176   7.068 -0.0863 -0.8760 -1.1000
 9386SOL    HW228684   0.273   2.261   7.005 -0.6480  0.4910 -0.2769
 9387SOL     OW28685   2.043   2.286   3.657  0.0074  0.2675  0.1483
 9387SOL    HW128686   2.020   2.312   3.568  1.5495 -1.8969 -0.9779
 9387SOL    HW228687   1.960   2.257   3.696 -0.2424 -1.9731 -1.8216
 9388SOL     OW28688   1.616   0.323   4.579  0.5837  0.0597 -0.6224
 9388SOL    HW128689   1.607   0.228   4.573  2.6058 -0.1996 -0.2639
 9388SOL    HW228690   1.612   0.341   4.673  2.3170  0.0398 -0.5184
 9389SOL     OW28691   1.431   2.489   4.608 -0.3680 -0.6348  0.2471
 9389SOL    HW128692   1.486   2.505   4.685  0.1250 -0.6247 -0.0953
 9389SOL    HW228693   1.437   2.570   4.558 -0.3251 -0.8007 -0.0151
 9390SOL     OW28694   7.278   6.252   4.822 -0.3251 -0.0406  0.8499
 9390SOL    HW128695   7.191   6.213   4.821 -0.6856  0.7536  0.2915
 9390SOL    HW228696   7.292   6.283   4.732  1.2287 -1.6453  0.4711
 9391SOL     OW28697   2.669   5.108   6.345 -0.3332  0.0786  0.8925
 9391SOL    HW128698   2.573   5.105   6.349 -0.5876  0.5689 -1.9995
 9391SOL    HW228699   2.698   5.033   6.397 -2.4508 -1.9352 -0.6086
 9392SOL     OW28700   5.782   4.104   1.029  0.5210 -0.3524  0.2031
 9392SOL    HW128701   5.788   4.125   1.122  0.7759 -0.7830  0.2886
 9392SOL    HW228702   5.820   4.179   0.985  1.3774 -0.5944  0.5003
 9393SOL     OW28703   5.573   3.451   4.509  0.5939  0.5851 -0.3629
 9393SOL    HW128704   5.611   3.434   4.423  0.3106  0.1070 -0.3964
 9393SOL    HW228705   5.645   3.438   4.571  0.5637  0.0067 -0.4517
 9394SOL     OW28706   0.177   4.866   6.990  0.0397  0.2576 -0.3198
 9394SOL    HW128707   0.159   4.944   7.043 -1.0647 -0.2132  0.0224
 9394SOL    HW228708   0.096   4.850   6.942 -0.9438 -2.4826  1.9557
 9395SOL     OW28709   4.231   4.203   7.386 -0.3903 -0.0515  0.5770
 9395SOL    HW128710   4.146   4.206   7.431 -0.8603  0.5232 -0.3030
 9395SOL    HW228711   4.287   4.263   7.435 -1.1244  1.1609 -0.0027
 9396SOL     OW28712   6.845   0.845   0.623  0.7961  0.3086  0.0678
 9396SOL    HW128713   6.902   0.809   0.555  1.5576  0.6918  0.4817
 9396SOL    HW228714   6.775   0.889   0.575 -0.7159 -2.4649 -0.4551
 9397SOL     OW28715   3.496   1.939   0.780 -0.6376 -0.3326 -0.3145
 9397SOL    HW128716   3.585   1.918   0.806 -0.8037 -1.8736 -0.8940
 9397SOL    HW228717   3.445   1.934   0.861 -0.6741 -2.3756 -0.4138
 9398SOL     OW28718   7.153   0.736   3.411  0.2479  0.3023 -0.1859
 9398SOL    HW128719   7.154   0.822   3.453 -1.2764  0.7385 -0.9570
 9398SOL    HW228720   7.240   0.727   3.372  0.8348  0.9481  0.9498
 9399SOL     OW28721   5.388   5.298   6.029  0.0369  0.0862 -0.1460
 9399SOL    HW128722   5.453   5.240   6.068 -3.0992 -3.6843  0.1149
 9399SOL    HW228723   5.314   5.296   6.089 -1.5806  1.4661 -1.9448
 9400SOL     OW28724   6.562   2.267   7.022  0.1612 -0.0580 -0.2318
 9400SOL    HW128725   6.562   2.300   6.932  0.7186  0.1081 -0.1757
 9400SOL    HW228726   6.568   2.172   7.012 -2.3044 -0.2635 -0.4164
 9401SOL     OW28727   5.483   1.934   6.542  0.4820 -0.0831 -0.3655
 9401SOL    HW128728   5.548   1.881   6.587 -0.0621 -1.3540 -1.0062
 9401SOL    HW228729   5.517   1.942   6.452 -0.3385 -1.0027 -0.7850
 9402SOL     OW28730   4.495   5.102   1.492 -0.6068 -0.5991 -0.1539
 9402SOL    HW128731   4.428   5.170   1.486 -0.6859 -0.5406  1.2598
 9402SOL    HW228732   4.485   5.065   1.579  1.1780 -0.6179  0.0823
 9403SOL     OW28733   6.226   2.046   5.593 -0.3336  0.2615  0.4237
 9403SOL    HW128734   6.211   2.095   5.512 -1.9464 -0.0590  0.5128
 9403SOL    HW228735   6.301   2.091   5.634 -1.5958  2.5420  0.4014
 9404SOL     OW28736   3.046   4.143   6.900  0.5582  0.6602  0.3572
 9404SOL    HW128737   3.060   4.111   6.990  2.3687 -0.0904 -0.1462
 9404SOL    HW228738   2.959   4.113   6.877  0.0933  0.7931  1.8329
 9405SOL     OW28739   4.738   6.144   1.210 -0.3733  0.2721 -0.0470
 9405SOL    HW128740   4.822   6.125   1.250  0.5047  3.3570 -0.1504
 9405SOL    HW228741   4.743   6.104   1.123  1.2403  0.8527 -0.2530
 9406SOL     OW28742   3.030   6.669   4.875 -0.3097 -0.2648 -0.0381
 9406SOL    HW128743   3.111   6.720   4.879 -0.7483  0.6156 -1.4383
 9406SOL    HW228744   3.027   6.636   4.785 -2.1181  0.8563 -0.4596
 9407SOL     OW28745   2.679   4.293   4.845 -0.1823 -0.1168  0.0244
 9407SOL    HW128746   2.599   4.295   4.793 -0.0206  0.0697 -0.2194
 9407SOL    HW228747   2.673   4.371   4.901  0.1540  0.2853 -0.4892
 9408SOL     OW28748   4.785   2.755   4.929  0.0656 -0.1042  0.2183
 9408SOL    HW128749   4.756   2.721   5.013  0.7117  0.3240  0.6264
 9408SOL    HW228750   4.876   2.726   4.922  0.1161  0.1456 -0.1726
 9409SOL     OW28751   5.749   2.193   2.546  0.0535 -0.1201 -0.1331
 9409SOL    HW128752   5.741   2.288   2.546  3.0345  0.2120  0.9624
 9409SOL    HW228753   5.697   2.164   2.621 -1.4629  0.5097 -0.8922
 9410SOL     OW28754   0.825   0.919   6.879 -0.7825  0.0637 -0.3758
 9410SOL    HW128755   0.759   0.936   6.946 -1.4656  0.3431 -1.1003
 9410SOL    HW228756   0.904   0.897   6.928 -1.8146 -1.9214  0.5202
 9411SOL     OW28757   0.276   0.498   6.813  0.9153 -0.0767 -0.1764
 9411SOL    HW128758   0.289   0.578   6.865 -0.7663  1.4281 -1.9374
 9411SOL    HW228759   0.287   0.526   6.722 -0.1982 -1.7422 -0.8785
 9412SOL     OW28760   6.439   2.241   6.758  0.9101  0.2312  0.3343
 9412SOL    HW128761   6.504   2.285   6.704  0.0479  0.1882 -0.7651
 9412SOL    HW228762   6.365   2.303   6.763  0.5580 -0.2017  0.5922
 9413SOL     OW28763   2.066   4.170   6.752 -0.1314 -0.1388  0.0335
 9413SOL    HW128764   2.052   4.091   6.699 -2.2745  0.8766 -1.0422
 9413SOL    HW228765   2.145   4.209   6.717  0.4608 -1.3149 -0.0146
 9414SOL     OW28766   1.951   1.585   5.962 -0.0651 -0.1172 -0.2345
 9414SOL    HW128767   2.044   1.569   5.947  0.1988 -0.3544  1.4063
 9414SOL    HW228768   1.939   1.565   6.055 -1.5056  1.0338 -0.1455
 9415SOL     OW28769   0.245   5.717   6.343 -0.2225 -0.0194 -0.4511
 9415SOL    HW128770   0.171   5.660   6.326 -0.0473 -0.3861  0.0083
 9415SOL    HW228771   0.277   5.741   6.256 -0.6771 -0.1192 -0.6464
 9416SOL     OW28772   6.559   6.114   0.286  0.7520 -0.1534  0.8361
 9416SOL    HW128773   6.648   6.141   0.264  0.7188 -0.5109  0.2283
 9416SOL    HW228774   6.505   6.156   0.218  0.5288 -0.4464  0.8335
 9417SOL     OW28775   1.958   5.770   2.111  0.1735  0.6802 -0.4514
 9417SOL    HW128776   1.930   5.856   2.081  0.3806  0.9627  0.1570
 9417SOL    HW228777   1.876   5.720   2.119  0.0784  0.7296 -1.0583
 9418SOL     OW28778   0.010   0.291   0.996 -0.5409 -0.2972  0.8114
 9418SOL    HW128779   0.100   0.289   1.026  0.1721  1.9754 -0.8263
 9418SOL    HW228780  -0.003   0.381   0.965 -2.7863 -1.0264 -0.6698
 9419SOL     OW28781   3.918   6.383   6.452 -0.0416 -0.3041  0.8041
 9419SOL    HW128782   3.867   6.464   6.456  0.5033  0.0486  0.7395
 9419SOL    HW228783   3.991   6.404   6.395  0.4680 -0.6425  1.3269
 9420SOL     OW28784   5.205   5.029   4.165  0.1877 -0.4317 -0.2106
 9420SOL    HW128785   5.154   5.067   4.093  2.5046  0.0777 -1.6968
 9420SOL    HW228786   5.186   4.935   4.160  0.1277 -0.3791 -1.3631
 9421SOL     OW28787   2.388   2.523   0.968  0.0163 -0.0809 -0.8450
 9421SOL    HW128788   2.470   2.501   0.924 -0.9037 -0.8253 -2.2271
 9421SOL    HW228789   2.384   2.463   1.043  1.8398  1.5424  0.6761
 9422SOL     OW28790   5.552   1.329   6.052  0.1822 -0.0953 -0.3043
 9422SOL    HW128791   5.623   1.346   6.114 -0.9514  2.3019  0.4178
 9422SOL    HW228792   5.473   1.355   6.098 -1.1212 -1.8558 -1.4374
 9423SOL     OW28793   7.468   7.470   7.019  0.0368  0.2613 -0.6849
 9423SOL    HW128794   7.423   7.551   7.040 -0.1986  0.4521 -1.8493
 9423SOL    HW228795   7.435   7.446   6.933  1.9093  0.2385 -1.4389
 9424SOL     OW28796   5.146   0.902   3.831  0.2212 -0.4453  0.2115
 9424SOL    HW128797   5.067   0.866   3.870 -0.7490  1.2970 -0.0324
 9424SOL    HW228798   5.120   0.930   3.743  0.9963  0.4865  0.2577
 9425SOL     OW28799   4.540   4.293   0.370 -0.3104 -0.3462  0.1828
 9425SOL    HW128800   4.483   4.344   0.427 -2.2416 -2.2037  0.0645
 9425SOL    HW228801   4.532   4.335   0.284  1.5505  1.6528  0.9242
 9426SOL     OW28802   5.154   5.950   2.673  0.3126 -0.9750  0.2495
 9426SOL    HW128803   5.236   5.958   2.625 -0.3124  1.8818 -0.5130
 9426SOL    HW228804   5.102   5.889   2.621  1.5987 -2.1196  0.2651
 9427SOL     OW28805   0.305   1.681   4.889  0.1280  0.7384 -0.2685
 9427SOL    HW128806   0.284   1.771   4.915  0.4244  0.4375  1.1147
 9427SOL    HW228807   0.342   1.689   4.801 -0.9407  1.8286 -0.6424
 9428SOL     OW28808   3.327   3.754   4.597 -0.3855 -0.1085  0.7156
 9428SOL    HW128809   3.260   3.790   4.539  0.0311 -0.6521 -0.1206
 9428SOL    HW228810   3.400   3.733   4.539 -0.2803 -1.4512  1.3086
 9429SOL     OW28811   0.069   0.466   2.331  0.3568  0.0539 -0.2377
 9429SOL    HW128812  -0.019   0.453   2.296  0.0055  0.2599  0.5320
 9429SOL    HW228813   0.104   0.540   2.283 -0.9910  1.8295  1.3769
 9430SOL     OW28814   7.282   3.540   1.485 -0.2934  0.0772  0.0037
 9430SOL    HW128815   7.298   3.543   1.391  2.3677  0.4777  0.3783
 9430SOL    HW228816   7.304   3.450   1.510  1.0183  0.5012  0.4789
 9431SOL     OW28817   5.538   4.536   1.332 -0.0669 -0.1304 -0.2240
 9431SOL    HW128818   5.448   4.569   1.331 -0.3449 -0.8671 -1.2933
 9431SOL    HW228819   5.537   4.464   1.395 -0.0382  0.3317  0.3130
 9432SOL     OW28820   6.956   1.826   4.481  0.3277  0.1248 -0.1760
 9432SOL    HW128821   6.920   1.845   4.395  0.7338 -0.8802 -0.5816
 9432SOL    HW228822   7.015   1.900   4.499  0.0396  0.4718 -0.6346
 9433SOL     OW28823   1.529   0.743   5.671 -0.2333 -0.2144  0.0546
 9433SOL    HW128824   1.494   0.708   5.589 -1.0479 -3.6580  1.6881
 9433SOL    HW228825   1.620   0.715   5.672  0.9293  3.0852 -1.2266
 9434SOL     OW28826   4.833   0.072   7.068  0.4991 -0.5916 -0.5037
 9434SOL    HW128827   4.915   0.030   7.043  1.1152 -0.2837  0.9271
 9434SOL    HW228828   4.766   0.004   7.057  1.3905 -1.8215  1.2207
 9435SOL     OW28829   4.254   1.965   6.533  0.9976  0.2911 -0.1219
 9435SOL    HW128830   4.243   1.929   6.621  1.3382  3.1808  1.2094
 9435SOL    HW228831   4.179   1.931   6.484 -0.4067  0.3218  1.8868
 9436SOL     OW28832   4.563   6.024   6.569 -0.5298  0.5107  0.3693
 9436SOL    HW128833   4.550   5.932   6.545 -0.0080  0.2049  1.2169
 9436SOL    HW228834   4.499   6.040   6.638  0.1000  0.4645  0.9764
 9437SOL     OW28835   1.439   3.829   0.928  0.1422  0.9940  0.2262
 9437SOL    HW128836   1.399   3.882   0.860 -0.8303  0.0065  0.0073
 9437SOL    HW228837   1.373   3.765   0.951  0.4645  1.2576  2.0664
 9438SOL     OW28838   3.176   0.969   3.160 -0.2823  0.2505 -0.8629
 9438SOL    HW128839   3.156   0.899   3.222 -0.5047 -0.6262 -1.8972
 9438SOL    HW228840   3.193   0.924   3.077 -0.5789  1.4249 -1.5864
 9439SOL     OW28841   6.623   2.469   2.522 -0.1432 -0.2276 -0.2554
 9439SOL    HW128842   6.577   2.539   2.568 -1.4564 -0.6498 -0.9006
 9439SOL    HW228843   6.638   2.402   2.589 -0.6630 -0.1790 -0.0890
 9440SOL     OW28844   2.370   0.663   1.216  0.1352  0.0774  0.0619
 9440SOL    HW128845   2.356   0.677   1.310  3.5838 -0.5130  0.7694
 9440SOL    HW228846   2.417   0.741   1.186  1.4489 -0.8983 -0.5235
 9441SOL     OW28847   4.672   6.866   3.561  0.4650  0.1181 -0.1250
 9441SOL    HW128848   4.750   6.879   3.507  1.5713 -1.4152  1.0204
 9441SOL    HW228849   4.668   6.944   3.617  1.0474  0.3150 -0.3511
 9442SOL     OW28850   3.952   2.928   1.217 -0.0699 -0.7045  0.1758
 9442SOL    HW128851   4.026   2.947   1.159 -0.1878  0.5371  0.3957
 9442SOL    HW228852   3.984   2.952   1.305 -0.7969  0.1081  0.2362
 9443SOL     OW28853   2.118   3.144   4.407 -0.3021  0.2020  0.2234
 9443SOL    HW128854   2.170   3.219   4.376 -0.5360 -0.9397 -3.3493
 9443SOL    HW228855   2.181   3.089   4.453  1.3511 -0.1862 -2.2990
 9444SOL     OW28856   2.604   6.703   1.484  0.1048 -0.6035  0.1030
 9444SOL    HW128857   2.590   6.609   1.497 -0.2956 -0.4484  0.8161
 9444SOL    HW228858   2.516   6.740   1.483  0.2358 -0.2822 -0.6215
 9445SOL     OW28859   0.386   4.177   5.597  0.1789  0.3427 -0.2430
 9445SOL    HW128860   0.482   4.175   5.598  0.1689 -0.7783  1.0088
 9445SOL    HW228861   0.360   4.095   5.639 -1.3315  0.9145 -0.0083
 9446SOL     OW28862   0.617   2.650   0.394  0.5469  0.1085  0.2865
 9446SOL    HW128863   0.546   2.694   0.440  0.6603 -0.4175  0.9753
 9446SOL    HW228864   0.677   2.622   0.463  0.3380 -1.3791 -0.1093
 9447SOL     OW28865   3.287   0.937   6.057 -0.1760 -0.2074 -0.1949
 9447SOL    HW128866   3.284   0.962   5.965 -0.2941  0.3402 -0.0409
 9447SOL    HW228867   3.257   1.014   6.105 -2.9225 -1.3810  0.1670
 9448SOL     OW28868   5.134   2.069   4.407  0.5312  0.3859  0.3304
 9448SOL    HW128869   5.165   2.153   4.441 -0.9992  2.0122 -2.0086
 9448SOL    HW228870   5.039   2.079   4.400  0.1635 -1.9837  0.9976
 9449SOL     OW28871   1.473   3.371   6.746  0.4035  0.2484  0.0033
 9449SOL    HW128872   1.426   3.449   6.774 -1.5724 -0.7097 -0.4179
 9449SOL    HW228873   1.464   3.310   6.819 -0.9109 -0.6842 -0.8787
 9450SOL     OW28874   6.612   0.929   1.056  0.2300 -0.2058 -0.1998
 9450SOL    HW128875   6.598   0.908   0.964 -0.5849 -2.1917  0.3202
 9450SOL    HW228876   6.706   0.916   1.070  0.6636  1.6583 -1.0551
 9451SOL     OW28877   7.291   2.072   0.817  0.1407 -0.3467  0.1019
 9451SOL    HW128878   7.372   2.024   0.836 -0.8634 -1.3173  2.3082
 9451SOL    HW228879   7.240   2.065   0.898 -1.2119  2.1617 -0.4365
 9452SOL     OW28880   3.048   5.828   3.704 -0.0109  0.3597  0.3122
 9452SOL    HW128881   3.115   5.893   3.728 -1.1556  1.8499 -0.3819
 9452SOL    HW228882   3.001   5.811   3.785 -0.3498  1.1853  0.2979
 9453SOL     OW28883   6.704   5.337   1.189 -1.0180 -0.2244  0.6450
 9453SOL    HW128884   6.628   5.331   1.247 -1.4299 -1.3387  0.0131
 9453SOL    HW228885   6.750   5.254   1.202 -1.7025 -0.9758 -1.3834
 9454SOL     OW28886   3.884   4.382   4.850 -0.0455  0.2268 -0.7855
 9454SOL    HW128887   3.961   4.397   4.904 -0.0203  0.8045 -0.9780
 9454SOL    HW228888   3.894   4.441   4.776 -0.1803 -0.4139 -1.3288
 9455SOL     OW28889   4.152   2.812   1.470  0.4330  0.3014 -0.5712
 9455SOL    HW128890   4.166   2.854   1.554  2.2653  1.0315 -1.1802
 9455SOL    HW228891   4.185   2.723   1.482 -1.2671 -0.2833  0.0446
 9456SOL     OW28892   1.190   2.048   6.545  0.0121 -0.1373 -0.3497
 9456SOL    HW128893   1.227   1.971   6.589 -4.8531 -1.6248  1.8453
 9456SOL    HW228894   1.214   2.122   6.600  0.2078 -0.9368  0.6545
 9457SOL     OW28895   6.684   5.383   7.542 -0.4999  0.2867  0.3490
 9457SOL    HW128896   6.739   5.436   7.600  0.9673 -0.4579 -0.2853
 9457SOL    HW228897   6.747   5.337   7.486 -1.7557 -1.1677  0.0695
 9458SOL     OW28898   1.565   2.283   2.393  0.3358 -0.0503  0.0732
 9458SOL    HW128899   1.628   2.268   2.463  0.4556 -0.6163 -0.1455
 9458SOL    HW228900   1.608   2.247   2.315 -0.3691 -0.7008 -0.0253
 9459SOL     OW28901   6.870   6.755   4.656  0.4472  0.1079  0.1679
 9459SOL    HW128902   6.897   6.664   4.646 -1.7002 -0.4030 -1.9123
 9459SOL    HW228903   6.826   6.757   4.741  0.3424 -0.8498  0.1495
 9460SOL     OW28904   3.853   6.833   3.001 -0.4839  0.5882  0.5947
 9460SOL    HW128905   3.769   6.848   3.046 -0.8718  2.0082 -0.5412
 9460SOL    HW228906   3.850   6.890   2.925  0.3497 -1.4165 -1.0390
 9461SOL     OW28907   6.501   0.713   2.682 -0.0241 -0.1851  0.5430
 9461SOL    HW128908   6.560   0.775   2.725  0.8570 -0.8109  0.2683
 9461SOL    HW228909   6.539   0.700   2.595 -1.1136  0.1417 -0.0028
 9462SOL     OW28910   2.318   5.944   5.901 -0.6273 -0.4949  0.3139
 9462SOL    HW128911   2.355   5.858   5.919  0.9812  0.5068  2.1872
 9462SOL    HW228912   2.390   5.994   5.861 -1.3048  0.1995 -0.0652
 9463SOL     OW28913   0.699   0.022   3.035 -0.6542 -0.1887 -0.3980
 9463SOL    HW128914   0.633   0.088   3.013 -2.0702 -1.1100  0.8361
 9463SOL    HW228915   0.666  -0.018   3.116  2.2006  0.3153  1.1478
 9464SOL     OW28916   1.560   0.640   2.516 -0.1315 -0.4174  0.0464
 9464SOL    HW128917   1.538   0.711   2.576  1.4589 -0.0032  0.1815
 9464SOL    HW228918   1.519   0.563   2.555  0.5750 -0.0989  1.5250
 9465SOL     OW28919   0.631   7.220   0.446 -0.2986  0.3026 -0.8208
 9465SOL    HW128920   0.566   7.150   0.451 -1.3011  1.2178 -0.6715
 9465SOL    HW228921   0.623   7.256   0.358 -0.5170  0.9018 -0.5630
 9466SOL     OW28922   1.136   6.690   6.508 -0.2608  0.1419 -0.0874
 9466SOL    HW128923   1.123   6.595   6.507 -0.1786  0.0996  1.1304
 9466SOL    HW228924   1.230   6.702   6.498 -0.2317  0.0699  0.0836
 9467SOL     OW28925   0.072   6.768   7.273  0.2797  0.2303 -0.5883
 9467SOL    HW128926   0.120   6.844   7.239 -1.4453  1.1741 -1.0575
 9467SOL    HW228927   0.122   6.740   7.350  1.5531  1.1631 -1.0462
 9468SOL     OW28928   7.096   5.988   6.961  0.1799  0.7491 -0.3178
 9468SOL    HW128929   7.186   5.978   6.993 -0.0455 -0.1655  0.0473
 9468SOL    HW228930   7.042   5.986   7.040 -0.1605  1.4698 -0.5210
 9469SOL     OW28931   3.294   0.650   2.743  0.1447 -0.3740 -0.1817
 9469SOL    HW128932   3.206   0.622   2.769  0.2881  0.0573  0.7863
 9469SOL    HW228933   3.279   0.712   2.672 -0.2489 -1.5753 -1.1833
 9470SOL     OW28934   0.335   1.896   0.979 -0.0979 -0.1805  0.0723
 9470SOL    HW128935   0.399   1.923   0.913 -2.2404 -0.0594 -2.1345
 9470SOL    HW228936   0.368   1.813   1.012  1.1848 -0.1448 -1.0228
 9471SOL     OW28937   3.955   5.851   0.469  0.2347 -0.4023  0.7168
 9471SOL    HW128938   3.911   5.915   0.413  0.6998 -2.4765 -2.2831
 9471SOL    HW228939   4.003   5.904   0.533 -0.9683  2.1260 -0.3261
 9472SOL     OW28940   3.032   6.658   4.316 -0.2150  0.8987 -0.9856
 9472SOL    HW128941   3.089   6.707   4.256  1.2707  1.3655  0.7086
 9472SOL    HW228942   3.082   6.653   4.397 -2.2148  0.4284  0.2891
 9473SOL     OW28943   0.609   0.860   4.568 -0.2496 -0.0372 -0.0810
 9473SOL    HW128944   0.553   0.791   4.532 -0.6520 -0.0097  0.4844
 9473SOL    HW228945   0.563   0.941   4.548 -0.7405 -0.0492  0.9346
 9474SOL     OW28946   1.803   1.561   3.860 -0.0828  0.4034 -0.3520
 9474SOL    HW128947   1.858   1.605   3.796  1.8443 -0.8792  0.3235
 9474SOL    HW228948   1.778   1.631   3.922 -0.9601  1.4002 -1.7733
 9475SOL     OW28949   3.768   1.028   3.518 -0.2366 -0.1047 -0.6821
 9475SOL    HW128950   3.788   1.000   3.428  0.4156 -1.8781 -0.0286
 9475SOL    HW228951   3.687   0.983   3.540 -1.4587  1.8281 -0.9907
 9476SOL     OW28952   4.166   0.035   6.870 -0.0229  0.1085 -0.2520
 9476SOL    HW128953   4.255   0.065   6.853 -0.3471  0.2467 -1.7950
 9476SOL    HW228954   4.132   0.010   6.785 -1.0351 -1.1807  0.4947
 9477SOL     OW28955   7.003   3.897   4.640 -0.3152  0.0909  0.3165
 9477SOL    HW128956   6.990   3.975   4.693  2.2453 -0.1342  1.4215
 9477SOL    HW228957   7.031   3.930   4.555 -0.6176  0.3821  0.3266
 9478SOL     OW28958   0.848   0.455   5.672  0.0773 -0.3573 -0.1770
 9478SOL    HW128959   0.794   0.518   5.624  0.1987 -1.0268 -1.2273
 9478SOL    HW228960   0.933   0.458   5.629  0.5203 -0.2091  0.6861
 9479SOL     OW28961   1.450   6.507   1.063  0.4391 -0.0616 -0.1103
 9479SOL    HW128962   1.446   6.496   0.968 -1.1317  2.2195 -0.4020
 9479SOL    HW228963   1.471   6.600   1.075  2.0438 -0.5972  1.8299
 9480SOL     OW28964   1.070   4.383   0.332  0.0759 -0.1462  0.6366
 9480SOL    HW128965   1.145   4.356   0.279  1.0218 -2.0172  2.7743
 9480SOL    HW228966   1.107   4.443   0.397 -0.5141 -0.1691  1.0011
 9481SOL     OW28967   0.540   4.144   5.901 -0.0998 -0.1772  0.1667
 9481SOL    HW128968   0.597   4.080   5.943 -0.8985 -0.9195  0.1354
 9481SOL    HW228969   0.600   4.211   5.867  0.6547 -0.2735  1.2615
 9482SOL     OW28970   1.212   7.219   1.602  0.7778  0.5241  0.4167
 9482SOL    HW128971   1.225   7.314   1.602  3.7842  0.2239  0.7887
 9482SOL    HW228972   1.179   7.200   1.690 -0.0965  1.2261  0.2579
 9483SOL     OW28973   3.673   4.715   6.974  0.3906  0.0096 -0.1322
 9483SOL    HW128974   3.652   4.682   6.886 -0.0851  0.0539 -0.0393
 9483SOL    HW228975   3.641   4.806   6.972  2.3008  0.7228 -0.6221
 9484SOL     OW28976   5.817   6.362   1.997  0.4845 -0.0044  0.3197
 9484SOL    HW128977   5.774   6.422   2.058 -0.0940 -0.9322  0.8543
 9484SOL    HW228978   5.880   6.416   1.950  1.6048  0.5710  2.3727
 9485SOL     OW28979   5.995   1.969   3.795  0.0970  0.7016 -0.7010
 9485SOL    HW128980   6.078   2.006   3.826  1.2883 -2.2767  0.0908
 9485SOL    HW228981   6.004   1.966   3.700  1.5444 -0.7622 -0.5687
 9486SOL     OW28982   4.798   2.688   5.656  0.7226 -0.1295 -0.0307
 9486SOL    HW128983   4.783   2.782   5.645 -1.1853 -0.4855 -0.9476
 9486SOL    HW228984   4.827   2.679   5.746  1.0574  1.3469  0.0453
 9487SOL     OW28985   6.225   0.587   3.239  0.4782  0.1409  0.8493
 9487SOL    HW128986   6.314   0.571   3.209  0.3789  0.8056  0.1701
 9487SOL    HW228987   6.223   0.681   3.260 -0.4924  0.5043 -0.7043
 9488SOL     OW28988   6.889   0.648   5.447  0.1729  0.1523  0.3055
 9488SOL    HW128989   6.930   0.592   5.512  1.6123 -0.4153 -1.0249
 9488SOL    HW228990   6.875   0.731   5.493  1.4218 -0.1270  1.2669
 9489SOL     OW28991   0.497   0.200   2.998  0.3853  0.0992 -0.6478
 9489SOL    HW128992   0.461   0.248   2.923  0.7107 -0.6260 -1.2908
 9489SOL    HW228993   0.512   0.266   3.064  0.9625  0.9185 -1.5686
 9490SOL     OW28994   2.771   6.560   6.607 -0.1305 -0.0845  0.1036
 9490SOL    HW128995   2.865   6.563   6.588 -0.2494 -0.3317 -0.5449
 9490SOL    HW228996   2.767   6.541   6.701  0.4785 -1.4225 -0.1103
 9491SOL     OW28997   4.792   7.432   2.777 -0.0959 -0.5781 -0.0620
 9491SOL    HW128998   4.782   7.397   2.689  0.1457 -0.1783 -0.2493
 9491SOL    HW228999   4.813   7.355   2.831  1.0553 -0.6341 -0.5773
 9492SOL     OW29000   1.178   0.904   0.239 -0.3698 -0.0270  0.6126
 9492SOL    HW129001   1.264   0.871   0.212 -0.6378  0.2700 -0.6367
 9492SOL    HW229002   1.193   0.997   0.259 -0.3362 -0.0614  0.7536
 9493SOL     OW29003   5.223   1.854   1.938  0.3460 -0.2385  0.7044
 9493SOL    HW129004   5.269   1.861   1.854 -2.5788  0.3848 -1.0041
 9493SOL    HW229005   5.194   1.943   1.957 -1.2246 -0.7761  0.9770
 9494SOL     OW29006   1.869   5.868   3.922 -0.4045 -0.3322 -0.2222
 9494SOL    HW129007   1.899   5.786   3.961 -0.3081 -0.8536 -1.3403
 9494SOL    HW229008   1.787   5.887   3.967  0.1384 -0.4471  0.8269
 9495SOL     OW29009   6.127   1.340   4.113  0.2897 -0.1200  0.2862
 9495SOL    HW129010   6.201   1.291   4.147 -0.3044 -2.0929 -1.1164
 9495SOL    HW229011   6.083   1.374   4.191  1.4330 -0.7463  1.2298
 9496SOL     OW29012   4.481   0.529   4.842 -0.5032  0.0305 -0.2503
 9496SOL    HW129013   4.396   0.548   4.804 -0.9991 -1.3123  0.1295
 9496SOL    HW229014   4.489   0.590   4.915 -1.6676 -0.5660  0.4190
 9497SOL     OW29015   4.203   7.504   1.552 -0.3836 -0.4022 -0.1910
 9497SOL    HW129016   4.155   7.547   1.481  0.0342 -1.1926 -0.9721
 9497SOL    HW229017   4.150   7.428   1.574 -0.1424 -0.5677 -0.1718
 9498SOL     OW29018   0.930   0.727   6.145  0.5703  0.3698  0.1237
 9498SOL    HW129019   0.840   0.724   6.178  0.1818 -0.7094 -0.9277
 9498SOL    HW229020   0.984   0.704   6.220 -0.0917  0.3430  0.5993
 9499SOL     OW29021   0.345   4.381   3.140 -0.1125 -0.6653  0.1295
 9499SOL    HW129022   0.273   4.373   3.078  0.9728 -0.8864 -1.1514
 9499SOL    HW229023   0.416   4.330   3.101  1.4720  1.3613  0.2004
 9500SOL     OW29024   2.859   0.869   2.412  0.1157 -0.2321  0.0248
 9500SOL    HW129025   2.781   0.813   2.409 -0.1942 -0.0113  2.1349
 9500SOL    HW229026   2.847   0.931   2.340 -0.3952 -1.7463 -1.2634
 9501SOL     OW29027   6.907   4.027   6.840 -0.3949 -0.1156 -0.5820
 9501SOL    HW129028   6.847   4.043   6.913 -0.4315  1.4380 -0.9035
 9501SOL    HW229029   6.987   4.073   6.865 -0.8201  1.4972 -2.0064
 9502SOL     OW29030   5.766   7.305   5.525 -0.1400  0.2947  0.0854
 9502SOL    HW129031   5.745   7.393   5.493  2.6372  1.0868  0.2245
 9502SOL    HW229032   5.785   7.317   5.618 -0.0089 -0.5015  0.1656
 9503SOL     OW29033   6.349   7.287   6.005  0.1755  0.3586 -0.3762
 9503SOL    HW129034   6.427   7.233   6.018 -0.1492  0.0196  0.2521
 9503SOL    HW229035   6.284   7.227   5.969 -0.8275 -0.2446  2.1973
 9504SOL     OW29036   5.257   3.407   3.443  0.2771  0.1784 -0.3781
 9504SOL    HW129037   5.198   3.335   3.421 -0.0457  0.5786 -0.8445
 9504SOL    HW229038   5.337   3.364   3.474  0.5382 -0.4154 -1.7963
 9505SOL     OW29039   3.457   3.586   6.039  0.1977  0.1849 -0.4033
 9505SOL    HW129040   3.505   3.660   6.075 -0.0526  0.6225 -0.9557
 9505SOL    HW229041   3.395   3.625   5.978  0.4241 -0.5220 -1.0987
 9506SOL     OW29042   3.581   2.090   2.422 -0.5127 -0.1729  0.7025
 9506SOL    HW129043   3.534   2.062   2.344 -0.6746  0.3108  0.6256
 9506SOL    HW229044   3.600   2.183   2.407 -0.5279 -0.0823  1.2283
 9507SOL     OW29045   2.557   4.992   2.925  0.0956 -0.1626 -0.2980
 9507SOL    HW129046   2.584   5.047   2.999 -2.2960  0.9747 -0.1390
 9507SOL    HW229047   2.595   4.906   2.944 -0.7703 -0.0469  2.5571
 9508SOL     OW29048   4.421   0.761   2.102  0.5329 -0.3253  0.1374
 9508SOL    HW129049   4.372   0.731   2.178  1.6971 -2.6475  0.0605
 9508SOL    HW229050   4.364   0.743   2.028  0.4249 -0.4798  0.2574
 9509SOL     OW29051   6.867   6.833   5.588 -0.0077  0.4903  0.0814
 9509SOL    HW129052   6.954   6.794   5.579 -0.6744 -0.9293 -0.4800
 9509SOL    HW229053   6.835   6.841   5.499 -0.0295  2.0973  0.1952
 9510SOL     OW29054   6.517   0.624   4.577 -0.5312  0.4049 -0.1471
 9510SOL    HW129055   6.428   0.651   4.599 -1.5146 -2.6590  0.1148
 9510SOL    HW229056   6.538   0.673   4.497 -2.7470  0.7040 -0.6129
 9511SOL     OW29057   1.496   2.584   1.326 -0.1286 -0.3000  0.0345
 9511SOL    HW129058   1.410   2.564   1.290 -0.2998 -0.1532  0.3582
 9511SOL    HW229059   1.483   2.583   1.421 -0.0411  0.8824  0.0705
 9512SOL     OW29060   5.093   0.330   5.717 -0.5105 -0.1881  0.3838
 9512SOL    HW129061   5.182   0.350   5.747  0.4904 -0.2386 -2.3197
 9512SOL    HW229062   5.068   0.405   5.663 -2.2927 -0.0174  1.3842
 9513SOL     OW29063   1.665   6.116   7.193  0.3579 -0.1911 -0.3871
 9513SOL    HW129064   1.604   6.073   7.134  0.3108 -0.6672 -0.0030
 9513SOL    HW229065   1.704   6.044   7.244  1.1055  0.1183 -0.5062
 9514SOL     OW29066   3.769   1.788   7.038  0.5473 -0.7386 -0.0367
 9514SOL    HW129067   3.863   1.772   7.048  0.6477 -0.1174  0.0849
 9514SOL    HW229068   3.736   1.711   6.992  1.1167 -0.9638 -0.0778
 9515SOL     OW29069   1.758   5.638   4.507 -0.3121 -0.5458 -0.5239
 9515SOL    HW129070   1.794   5.702   4.446 -3.1088  0.0174 -1.7459
 9515SOL    HW229071   1.674   5.675   4.534  0.1103 -1.5256  2.5425
 9516SOL     OW29072   6.766   2.145   4.156 -0.0332  0.6096  0.2747
 9516SOL    HW129073   6.719   2.164   4.075 -1.1100 -0.3383  0.6663
 9516SOL    HW229074   6.783   2.051   4.153  1.0256  0.7716  0.5907
 9517SOL     OW29075   2.275   2.614   2.581  0.1626  0.0366 -0.2839
 9517SOL    HW129076   2.207   2.578   2.637  0.3575  1.5679  1.0115
 9517SOL    HW229077   2.356   2.573   2.612  0.4899  2.0081  1.6969
 9518SOL     OW29078   4.579   6.444   2.541  0.3222  0.4301 -0.3779
 9518SOL    HW129079   4.525   6.415   2.614 -1.2358  0.2602 -1.5378
 9518SOL    HW229080   4.668   6.416   2.563  0.1766  1.6805  2.1093
 9519SOL     OW29081   0.811   0.262   2.873 -0.1271  0.4043 -0.1084
 9519SOL    HW129082   0.796   0.187   2.931 -2.4382  0.6807 -0.2389
 9519SOL    HW229083   0.824   0.336   2.932  0.3602  0.2057  0.0349
 9520SOL     OW29084   5.254   5.189   5.021  0.5082 -0.1521 -0.3058
 9520SOL    HW129085   5.300   5.248   4.961  0.5660 -0.2857 -0.3930
 9520SOL    HW229086   5.263   5.231   5.107  0.7952 -0.1797 -0.3205
 9521SOL     OW29087   1.228   6.605   7.173  0.0220 -0.3450  0.5913
 9521SOL    HW129088   1.262   6.678   7.122 -1.6776 -0.1801 -0.3772
 9521SOL    HW229089   1.305   6.552   7.192  1.1423  1.1628  0.4603
 9522SOL     OW29090   4.443   1.823   3.900 -0.1178  0.3721 -0.2020
 9522SOL    HW129091   4.378   1.780   3.955 -0.2157  0.9815  0.1660
 9522SOL    HW229092   4.396   1.844   3.819 -0.2975  0.5425 -0.0541
 9523SOL     OW29093   0.681   0.075   6.879 -0.3877  0.2436  0.8071
 9523SOL    HW129094   0.735  -0.003   6.865 -1.3090 -0.4653  1.1039
 9523SOL    HW229095   0.649   0.098   6.792  1.4798  1.5224  0.3898
 9524SOL     OW29096   4.519   5.056   6.319  0.1806  0.0349  0.1364
 9524SOL    HW129097   4.537   5.125   6.255 -0.7442 -0.1995 -0.3953
 9524SOL    HW229098   4.570   5.081   6.397 -3.2076  3.6132  1.5144
 9525SOL     OW29099   4.545   4.335   5.173  0.2333 -0.4525 -0.0754
 9525SOL    HW129100   4.559   4.300   5.260  1.7809 -0.2649 -0.2243
 9525SOL    HW229101   4.562   4.429   5.182  0.8589 -0.4989 -0.6477
 9526SOL     OW29102   0.834   5.443   0.699  0.2449 -0.7333 -0.2573
 9526SOL    HW129103   0.867   5.467   0.612  0.4438 -0.6375 -0.1576
 9526SOL    HW229104   0.764   5.380   0.682  0.4447 -0.8989 -0.4782
 9527SOL     OW29105   1.008   2.452   0.900 -0.2767  0.2214 -0.0602
 9527SOL    HW129106   1.083   2.393   0.908 -0.4731 -0.1675 -0.9450
 9527SOL    HW229107   1.047   2.538   0.884  0.0228  0.4334  1.6206
 9528SOL     OW29108   6.337   6.564   4.016 -0.1263 -0.1066  0.3751
 9528SOL    HW129109   6.329   6.657   4.037  1.0587  0.3997 -1.2259
 9528SOL    HW229110   6.431   6.546   4.019 -0.0160 -0.4658 -2.2076
 9529SOL     OW29111   3.858   2.087   4.982  0.4094  0.3249 -0.6024
 9529SOL    HW129112   3.828   2.175   4.960  0.0310 -0.0673 -1.7170
 9529SOL    HW229113   3.779   2.041   5.013  0.5306  0.2667 -0.3746
 9530SOL     OW29114   3.354   2.183   3.852  0.4578  0.3316 -0.4268
 9530SOL    HW129115   3.353   2.273   3.883  1.8275  0.4655 -0.7250
 9530SOL    HW229116   3.300   2.183   3.773  0.5759  0.9132 -0.5047
 9531SOL     OW29117   3.059   2.920   3.238  0.3223  0.0345 -0.1018
 9531SOL    HW129118   3.145   2.939   3.200 -1.1142  0.8727 -3.2898
 9531SOL    HW229119   3.012   3.003   3.232 -1.2371 -0.8125  0.0268
 9532SOL     OW29120   7.386   4.354   6.059  0.3529 -0.3975 -0.8231
 9532SOL    HW129121   7.305   4.313   6.088 -0.0475  2.1097  2.0563
 9532SOL    HW229122   7.360   4.410   5.986 -0.5884  0.3251  0.0244
 9533SOL     OW29123   3.346   3.765   2.919  0.1216 -0.5080 -0.0990
 9533SOL    HW129124   3.419   3.827   2.921 -0.8301  0.6754 -0.7847
 9533SOL    HW229125   3.378   3.693   2.864  0.7442  0.0346 -0.4645
 9534SOL     OW29126   4.751   2.332   1.389 -0.4558 -0.3156 -0.4018
 9534SOL    HW129127   4.764   2.237   1.388  0.2011 -0.2301 -1.0621
 9534SOL    HW229128   4.834   2.367   1.422 -0.9299  0.0142  0.5027
 9535SOL     OW29129   2.736   4.420   0.204 -0.4064 -0.2319  0.1316
 9535SOL    HW129130   2.707   4.484   0.268 -0.1909  0.1996 -0.1941
 9535SOL    HW229131   2.682   4.343   0.221 -1.5676  0.4628 -0.2856
 9536SOL     OW29132   5.623   4.048   6.297  0.1617 -0.1594  0.5398
 9536SOL    HW129133   5.548   4.100   6.325 -0.4425 -0.7518  0.0766
 9536SOL    HW229134   5.697   4.108   6.300 -0.6025  0.8673 -0.4545
 9537SOL     OW29135   1.773   0.034   3.548  0.2911 -0.1219 -0.3064
 9537SOL    HW129136   1.684   0.000   3.559 -0.2335  1.8132  2.3920
 9537SOL    HW229137   1.823  -0.003   3.621  0.6435  1.7544  0.4837
 9538SOL     OW29138   4.910   4.183   0.775  0.3976  0.3049  0.4352
 9538SOL    HW129139   4.895   4.270   0.738 -2.5069  0.1620  1.0547
 9538SOL    HW229140   4.881   4.189   0.866 -0.4626 -1.4576  0.3261
 9539SOL     OW29141   2.758   1.046   0.039  0.7033  0.1546 -0.3109
 9539SOL    HW129142   2.803   1.122   0.004  0.1310 -0.2030 -1.9306
 9539SOL    HW229143   2.673   1.046  -0.005  1.2808 -2.2725 -1.6320
 9540SOL     OW29144   1.138   2.420   2.184  0.1564 -0.5618  0.1731
 9540SOL    HW129145   1.052   2.459   2.200  1.1805  3.5043 -2.5909
 9540SOL    HW229146   1.137   2.397   2.091  2.5994  1.6874 -0.5433
 9541SOL     OW29147   0.048   3.338   2.889  0.4508 -0.2149  0.5770
 9541SOL    HW129148   0.101   3.345   2.809  0.7919 -0.6687  0.7574
 9541SOL    HW229149  -0.033   3.297   2.860  0.0752  0.7292  0.2478
 9542SOL     OW29150   4.040   2.822   3.389 -0.3699 -0.1260 -0.0637
 9542SOL    HW129151   4.032   2.774   3.307 -0.7269  0.5203 -0.4143
 9542SOL    HW229152   3.973   2.890   3.384  1.4525  1.7146 -0.4703
 9543SOL     OW29153   0.518   5.739   6.510  0.1630 -0.3073  0.3182
 9543SOL    HW129154   0.445   5.738   6.448  1.1833  1.7368 -1.0319
 9543SOL    HW229155   0.596   5.732   6.455  1.0412 -1.3659  1.6487
 9544SOL     OW29156   4.468   5.855   5.787 -0.2069 -0.3396  0.2827
 9544SOL    HW129157   4.375   5.831   5.799 -0.4388  0.5829  0.3691
 9544SOL    HW229158   4.474   5.880   5.695  0.0150 -0.6300  0.2177
 9545SOL     OW29159   6.447   0.447   0.145 -0.2588 -0.2809 -0.3261
 9545SOL    HW129160   6.378   0.387   0.116 -1.4767  0.4643  0.9251
 9545SOL    HW229161   6.441   0.447   0.240  1.9530 -0.7118 -0.1452
 9546SOL     OW29162   1.167   1.166   5.705 -0.2581  0.2623  0.5770
 9546SOL    HW129163   1.111   1.175   5.782 -1.1188 -1.1102  0.1484
 9546SOL    HW229164   1.107   1.141   5.635  0.8888 -1.4323  0.1414
 9547SOL     OW29165   6.093   3.663   1.728 -0.0402  0.4450  0.2217
 9547SOL    HW129166   6.097   3.757   1.746 -0.5486  0.5698 -0.3246
 9547SOL    HW229167   6.025   3.630   1.788 -0.0306  0.4625  0.2422
 9548SOL     OW29168   7.325   4.966   0.336 -0.6547  0.5101 -0.4756
 9548SOL    HW129169   7.279   4.883   0.345  0.2279 -0.0677 -1.0216
 9548SOL    HW229170   7.376   4.975   0.417 -0.0324  0.0404 -0.8038
 9549SOL     OW29171   6.748   3.004   7.487  0.2998 -0.1416 -0.5203
 9549SOL    HW129172   6.746   2.951   7.408  0.4496  0.2852 -0.8196
 9549SOL    HW229173   6.729   3.093   7.456  0.2268  0.0070 -0.0574
 9550SOL     OW29174   3.538   2.180   5.831  0.1452 -0.8695  0.0256
 9550SOL    HW129175   3.511   2.265   5.866  0.0503 -0.9596  0.1718
 9550SOL    HW229176   3.634   2.184   5.830  0.1503 -0.9054  0.3919
 9551SOL     OW29177   2.477   2.283   3.858 -0.0250 -0.2336 -0.2910
 9551SOL    HW129178   2.488   2.188   3.857  0.1814 -0.2130 -1.4451
 9551SOL    HW229179   2.411   2.299   3.925 -1.7820 -1.3999 -1.6764
 9552SOL     OW29180   7.257   3.276   2.190  0.1181  0.0936 -0.1030
 9552SOL    HW129181   7.349   3.253   2.194  0.2010  0.2609 -0.8910
 9552SOL    HW229182   7.256   3.371   2.206  0.1811  0.2610 -1.0500
 9553SOL     OW29183   4.741   3.935   3.288 -0.3322 -0.0459  0.0763
 9553SOL    HW129184   4.690   4.013   3.266 -0.5058  0.0286  0.7122
 9553SOL    HW229185   4.681   3.882   3.342  0.1142 -0.1658  0.4583
 9554SOL     OW29186   5.003   6.647   0.188  0.7522 -0.1507  0.2927
 9554SOL    HW129187   4.994   6.563   0.233  0.8803 -0.1404  0.3382
 9554SOL    HW229188   5.053   6.627   0.109  0.0829 -0.2592 -0.1084
 9555SOL     OW29189   1.958   3.873   1.726 -0.3007 -0.2455 -0.8150
 9555SOL    HW129190   2.007   3.952   1.705 -0.3852 -0.3626 -1.4874
 9555SOL    HW229191   2.011   3.802   1.689 -0.7152 -0.4140 -1.0955
 9556SOL     OW29192   3.618   2.246   4.596 -0.5086 -0.1411  0.0325
 9556SOL    HW129193   3.703   2.262   4.638  0.1761 -0.9194 -1.0088
 9556SOL    HW229194   3.615   2.310   4.524 -0.4109 -0.6861 -0.4634
 9557SOL     OW29195   6.666   3.696   4.065  0.7228  0.6182 -0.1213
 9557SOL    HW129196   6.637   3.774   4.018 -1.5146 -0.8154 -1.3016
 9557SOL    HW229197   6.709   3.730   4.143 -0.0694  3.0212 -0.6377
 9558SOL     OW29198   7.299   5.355   2.021  0.5237  0.3534  0.1769
 9558SOL    HW129199   7.303   5.260   2.008 -0.4962  0.2743  0.3954
 9558SOL    HW229200   7.209   5.379   1.999 -0.4106  0.6688  3.7387
 9559SOL     OW29201   1.269   3.696   3.221 -0.0619 -0.3829  0.2959
 9559SOL    HW129202   1.301   3.702   3.131 -2.5511 -0.2768 -0.6656
 9559SOL    HW229203   1.238   3.784   3.242 -1.6280 -0.9156  0.3611
 9560SOL     OW29204   1.097   1.857   5.770  0.2056 -0.1934 -0.2188
 9560SOL    HW129205   1.176   1.806   5.783  0.8422  0.8700  0.1980
 9560SOL    HW229206   1.089   1.911   5.849  0.1630  1.1310 -1.0920
 9561SOL     OW29207   4.801   4.983   4.298  0.8708  0.9019 -0.3903
 9561SOL    HW129208   4.893   5.007   4.306  1.1899 -0.6597  1.0685
 9561SOL    HW229209   4.801   4.908   4.238  0.7251  0.1459  0.5206
 9562SOL     OW29210   0.883   4.957   6.172 -0.1104  0.5655  0.5709
 9562SOL    HW129211   0.891   4.984   6.080 -1.0334  1.7795  0.8244
 9562SOL    HW229212   0.960   4.995   6.214  2.5505 -3.2508 -0.3248
 9563SOL     OW29213   5.067   0.664   3.278 -0.0921 -0.5064 -0.4906
 9563SOL    HW129214   5.151   0.618   3.273  2.0549  2.7691  1.4804
 9563SOL    HW229215   5.067   0.722   3.202 -0.0507  0.1666  0.0082
 9564SOL     OW29216   0.778   1.876   3.088 -0.9694 -0.3284  1.0132
 9564SOL    HW129217   0.760   1.805   3.027 -1.3535 -0.8406  1.7034
 9564SOL    HW229218   0.851   1.924   3.049 -2.2681  0.3595 -0.6589
 9565SOL     OW29219   1.910   0.308   3.812  0.2155  0.1520  0.3332
 9565SOL    HW129220   1.826   0.334   3.773  0.0065 -0.6172  0.2670
 9565SOL    HW229221   1.909   0.346   3.900 -0.9579 -1.2817  0.9808
 9566SOL     OW29222   4.060   6.514   3.439 -0.1743 -0.5678  0.1493
 9566SOL    HW129223   3.974   6.498   3.401 -0.4529 -3.8842  1.7714
 9566SOL    HW229224   4.120   6.514   3.365 -1.3088 -0.7222 -0.7842
 9567SOL     OW29225   4.741   5.087   1.364 -0.3199  0.4945 -0.3388
 9567SOL    HW129226   4.782   5.173   1.369 -2.4662  1.5571  0.5676
 9567SOL    HW229227   4.670   5.092   1.428 -1.0096 -1.6827 -0.8699
 9568SOL     OW29228   3.970   7.184   4.334 -0.1988 -0.4721  0.1013
 9568SOL    HW129229   4.012   7.229   4.261 -1.7559 -1.1397 -1.2862
 9568SOL    HW229230   4.001   7.229   4.412  1.2848  0.4711 -0.9842
 9569SOL     OW29231   5.099   3.093   6.559  0.3734  0.0677  0.7328
 9569SOL    HW129232   5.162   3.156   6.522  1.0724 -0.4803  0.9738
 9569SOL    HW229233   5.053   3.058   6.483  1.0107 -0.2086  0.4640
 9570SOL     OW29234   6.124   7.197   3.944  0.5356  0.0589 -0.2654
 9570SOL    HW129235   6.071   7.160   3.873  1.5361  0.2630 -1.1444
 9570SOL    HW229236   6.207   7.149   3.939  0.3239 -0.5351  1.3471
 9571SOL     OW29237   1.659   3.462   4.280 -0.1457 -0.4681  0.1904
 9571SOL    HW129238   1.703   3.544   4.304 -0.3482 -0.7990  1.8144
 9571SOL    HW229239   1.593   3.488   4.216  1.8108  0.1630 -1.7140
 9572SOL     OW29240   5.299   1.742   6.838 -0.1968  0.1600  0.5270
 9572SOL    HW129241   5.263   1.792   6.765 -1.5980  0.8980  1.7018
 9572SOL    HW229242   5.223   1.715   6.889  0.8297  2.0733  3.2876
 9573SOL     OW29243   1.840   6.097   4.152  0.0549 -0.3278 -0.2918
 9573SOL    HW129244   1.833   6.183   4.192 -2.2840  0.0776 -1.4299
 9573SOL    HW229245   1.922   6.100   4.102  1.2934  0.2955  1.6618
 9574SOL     OW29246   0.682   6.663   0.066 -0.4775 -0.6601  1.3906
 9574SOL    HW129247   0.722   6.602   0.128 -1.7284 -0.8168  2.0787
 9574SOL    HW229248   0.597   6.685   0.105 -0.4461  0.8083  0.7030
 9575SOL     OW29249   6.767   6.893   0.692 -0.2645 -0.6140 -0.4530
 9575SOL    HW129250   6.828   6.872   0.763 -0.6092 -4.3219 -1.0244
 9575SOL    HW229251   6.811   6.961   0.641  3.0072 -2.4053 -0.2764
 9576SOL     OW29252   6.278   2.250   4.389 -0.1888  0.5628 -0.2442
 9576SOL    HW129253   6.205   2.306   4.417 -0.1681  0.5098 -0.0865
 9576SOL    HW229254   6.325   2.229   4.469  0.7704  1.6673 -0.4852
 9577SOL     OW29255   0.743   5.658   6.978  0.1929  0.8868  0.0994
 9577SOL    HW129256   0.751   5.752   6.994  0.5559  0.7606  0.7235
 9577SOL    HW229257   0.683   5.651   6.905  0.3386  1.6156 -0.0994
 9578SOL     OW29258   6.348   4.989   2.351 -0.5496  0.2155 -0.4440
 9578SOL    HW129259   6.411   4.921   2.376  0.1883  0.9814 -0.1705
 9578SOL    HW229260   6.356   5.055   2.419 -0.8160  0.8685 -1.0333
 9579SOL     OW29261   4.612   3.098   5.841  0.6480 -0.3865  0.1319
 9579SOL    HW129262   4.678   3.099   5.773 -0.4781  0.1933 -0.9980
 9579SOL    HW229263   4.632   3.175   5.895 -0.1198  0.8720 -1.2776
 9580SOL     OW29264   5.163   4.225   0.868  0.3701  0.0332 -0.0139
 9580SOL    HW129265   5.195   4.248   0.781  0.4218  0.6228  0.1557
 9580SOL    HW229266   5.081   4.177   0.851 -0.9410  2.2537 -0.3523
 9581SOL     OW29267   1.919   0.420   1.796 -0.2329 -0.4494  0.6474
 9581SOL    HW129268   1.917   0.359   1.723 -0.1807  0.0342  0.2354
 9581SOL    HW229269   1.875   0.374   1.868  0.4441 -1.2401  0.5637
 9582SOL     OW29270   6.612   4.935   0.991 -0.4271 -0.3922  0.2974
 9582SOL    HW129271   6.589   5.015   1.039  0.7104 -0.0017  0.2281
 9582SOL    HW229272   6.689   4.902   1.036 -1.6120 -2.1828  1.1073
 9583SOL     OW29273   1.594   3.695   2.782 -0.0035 -0.1814 -0.2605
 9583SOL    HW129274   1.602   3.623   2.720 -0.6658 -0.5454  0.0791
 9583SOL    HW229275   1.683   3.706   2.817 -0.0876 -1.4465  0.3776
 9584SOL     OW29276   2.125   6.557   0.738  0.9490  0.4038  0.6151
 9584SOL    HW129277   2.078   6.473   0.748  1.0039  0.1764 -0.8275
 9584SOL    HW229278   2.080   6.616   0.799 -0.0959 -0.2699  0.5359
 9585SOL     OW29279   3.368   2.654   7.221 -0.4051 -0.1561  0.7974
 9585SOL    HW129280   3.282   2.679   7.256 -0.5857 -1.6009  1.4414
 9585SOL    HW229281   3.354   2.650   7.126 -0.3491  2.1377  0.6470
 9586SOL     OW29282   0.923   0.376   1.453  0.0494 -0.7482 -0.1095
 9586SOL    HW129283   1.015   0.376   1.479  0.6072 -2.2606 -1.9196
 9586SOL    HW229284   0.912   0.458   1.403  0.1945 -0.2105  0.7192
 9587SOL     OW29285   4.357   2.097   1.010 -0.1716 -0.0211 -0.1058
 9587SOL    HW129286   4.396   2.017   1.046 -0.1523  0.2255  0.4192
 9587SOL    HW229287   4.357   2.159   1.082  1.0789  0.9235 -0.8744
 9588SOL     OW29288   1.722   1.951   4.653 -0.1306 -0.1670 -0.2353
 9588SOL    HW129289   1.785   1.968   4.722 -0.1772 -0.9605  0.0018
 9588SOL    HW229290   1.685   2.038   4.633 -1.6881 -0.1598  2.2295
 9589SOL     OW29291   0.319   2.054   6.528 -0.3418 -0.1307  0.6426
 9589SOL    HW129292   0.367   1.972   6.532  1.4718  0.9238  1.4392
 9589SOL    HW229293   0.303   2.068   6.434 -2.0875 -2.1044  0.5600
 9590SOL     OW29294   3.130   5.708   3.985  0.5041  0.0066 -0.2606
 9590SOL    HW129295   3.043   5.677   3.962  0.5954 -0.9985  0.6218
 9590SOL    HW229296   3.179   5.707   3.903  0.0077 -0.5574 -0.5595
 9591SOL     OW29297   4.533   5.549   3.470  0.0782  0.4529 -0.3704
 9591SOL    HW129298   4.499   5.526   3.384 -0.8043  1.4255 -0.2986
 9591SOL    HW229299   4.523   5.469   3.522 -1.9196  0.6041 -0.4257
 9592SOL     OW29300   5.233   4.205   4.859  0.7888 -0.0369 -0.3448
 9592SOL    HW129301   5.157   4.262   4.873  2.2800  1.9297  0.1350
 9592SOL    HW229302   5.215   4.160   4.776 -2.3317 -2.1102  1.2673
 9593SOL     OW29303   5.912   0.087   3.346  0.1804 -0.0572  0.1194
 9593SOL    HW129304   5.994   0.041   3.328  0.4398  0.4324  0.0066
 9593SOL    HW229305   5.865   0.031   3.408  1.1959  0.2819  1.2461
 9594SOL     OW29306   2.933   1.352   5.764 -0.1176  0.0338  0.3701
 9594SOL    HW129307   2.945   1.393   5.678 -0.3784  0.6713  0.6336
 9594SOL    HW229308   2.841   1.367   5.785 -0.3444 -1.1055  0.2690
 9595SOL     OW29309   2.615   7.458   5.660  0.2296 -0.4220 -0.1555
 9595SOL    HW129310   2.524   7.480   5.639  0.3738  0.6028  0.2500
 9595SOL    HW229311   2.663   7.540   5.649  1.3701 -1.2395 -1.7071
 9596SOL     OW29312   1.555   5.755   3.731 -0.1929  0.3250 -0.0504
 9596SOL    HW129313   1.501   5.678   3.716 -2.1809  1.3859  1.2122
 9596SOL    HW229314   1.552   5.803   3.649  0.6030 -0.6361 -0.6636
 9597SOL     OW29315   2.893   4.829   3.578 -0.1415  0.0969  0.1148
 9597SOL    HW129316   2.914   4.751   3.526  0.3394 -0.0215  0.4814
 9597SOL    HW229317   2.841   4.795   3.651 -1.2713  0.3297 -0.5475
 9598SOL     OW29318   6.060   3.796   4.906 -0.1174  0.0168  0.2362
 9598SOL    HW129319   6.131   3.860   4.901  0.1840 -0.1687  1.6417
 9598SOL    HW229320   6.090   3.723   4.852 -0.2408  0.8238 -0.9687
 9599SOL     OW29321   3.547   3.435   0.567  0.2133  0.2568 -0.0401
 9599SOL    HW129322   3.595   3.380   0.505  0.7633 -0.4244  0.9766
 9599SOL    HW229323   3.612   3.460   0.633 -0.3898  0.8779  0.3313
 9600SOL     OW29324   2.337   7.332   2.136  0.0665  0.3688  0.5544
 9600SOL    HW129325   2.366   7.316   2.046 -0.8274 -2.4282  0.6774
 9600SOL    HW229326   2.409   7.298   2.191  0.2258  1.2655  0.9233
 9601SOL     OW29327   6.545   0.949   2.340 -0.2234  0.1603 -0.6026
 9601SOL    HW129328   6.536   0.980   2.250  1.6750  0.2272 -0.7982
 9601SOL    HW229329   6.558   0.855   2.332  0.3276  0.2167 -0.4424
 9602SOL     OW29330   2.052   2.211   4.305  0.5317  0.3917 -0.3412
 9602SOL    HW129331   2.039   2.242   4.394 -0.2168  1.9092 -0.9469
 9602SOL    HW229332   2.010   2.277   4.250  0.8917 -0.5595 -1.8181
 9603SOL     OW29333   1.344   5.075   2.710  0.1404 -0.0865  0.9715
 9603SOL    HW129334   1.266   5.033   2.744  1.4111 -2.6468  0.9407
 9603SOL    HW229335   1.407   5.072   2.782  1.2351 -1.0717  0.0217
 9604SOL     OW29336   2.647   4.769   0.050  0.2495  0.0106  0.1282
 9604SOL    HW129337   2.742   4.775   0.041  0.5201 -3.1835 -0.5276
 9604SOL    HW229338   2.631   4.778   0.144  1.3405 -0.4420  0.3711
 9605SOL     OW29339   0.854   0.335   7.496  0.1365  0.1147 -0.0235
 9605SOL    HW129340   0.847   0.306   7.587 -1.3740 -0.9588 -0.4417
 9605SOL    HW229341   0.894   0.261   7.451 -1.1170 -0.2536 -0.5901
 9606SOL     OW29342   1.464   2.675   7.202 -0.7042  0.2701  0.1831
 9606SOL    HW129343   1.552   2.639   7.202 -0.3125  1.1362  1.4738
 9606SOL    HW229344   1.470   2.756   7.152 -0.6367  0.5712  0.6641
 9607SOL     OW29345   0.670   3.770   6.619 -0.8264 -0.7316  0.3591
 9607SOL    HW129346   0.659   3.720   6.700 -1.9170  1.0091  1.3432
 9607SOL    HW229347   0.624   3.852   6.635 -0.5016 -0.0691 -1.8062
 9608SOL     OW29348   3.595   2.789   6.884 -0.2937 -0.0219 -0.1069
 9608SOL    HW129349   3.606   2.769   6.791  0.0579  0.8284 -0.2637
 9608SOL    HW229350   3.681   2.774   6.922 -0.2620  0.2844 -0.0534
 9609SOL     OW29351   1.660   0.218   5.728 -0.3740 -0.4651 -0.4669
 9609SOL    HW129352   1.654   0.187   5.638 -1.5104 -2.5823  0.2860
 9609SOL    HW229353   1.727   0.164   5.768  1.4412  1.6605 -0.4214
 9610SOL     OW29354   2.163   1.948   4.339  0.1728 -0.2043 -0.0470
 9610SOL    HW129355   2.148   1.916   4.250  0.8061  0.3788 -0.3737
 9610SOL    HW229356   2.144   2.042   4.334  0.2507 -0.1628  0.4259
 9611SOL     OW29357   1.222   5.682   3.755  0.2872 -0.2436 -0.3935
 9611SOL    HW129358   1.304   5.720   3.723  0.8534 -1.6506 -0.6875
 9611SOL    HW229359   1.186   5.749   3.813  2.3000 -0.0939  0.8049
 9612SOL     OW29360   3.903   1.358   2.889 -0.4326  0.4839 -0.0261
 9612SOL    HW129361   3.845   1.402   2.827  0.1271  1.2653 -0.0191
 9612SOL    HW229362   3.846   1.333   2.962 -0.8830  0.6118 -0.3297
 9613SOL     OW29363   7.238   6.769   4.750 -0.3956  0.3701 -0.0567
 9613SOL    HW129364   7.249   6.825   4.827 -0.1978 -0.2794  0.3918
 9613SOL    HW229365   7.312   6.709   4.753  0.2313  1.0245 -1.3629
 9614SOL     OW29366   0.389   1.030   4.800 -0.9851  0.0595 -0.6983
 9614SOL    HW129367   0.322   0.967   4.828 -1.2254 -1.0584 -3.5039
 9614SOL    HW229368   0.399   1.015   4.706  1.1253  2.2209 -0.9197
 9615SOL     OW29369   7.209   5.642   6.982 -0.2214  0.1958 -0.3976
 9615SOL    HW129370   7.242   5.555   7.005  0.9960  0.0421 -2.4742
 9615SOL    HW229371   7.126   5.626   6.938  2.0833 -0.5655 -5.1387
 9616SOL     OW29372   3.951   5.776   0.028 -0.2967 -0.2732  0.1733
 9616SOL    HW129373   3.981   5.862  -0.002 -0.7179 -0.2441 -0.1820
 9616SOL    HW229374   4.030   5.732   0.059  0.2030 -0.3576 -1.1349
 9617SOL     OW29375   0.680   0.197   6.299 -0.1518 -0.0192 -0.1336
 9617SOL    HW129376   0.750   0.166   6.241 -0.8789  0.5449 -1.3787
 9617SOL    HW229377   0.699   0.157   6.384 -0.0480 -2.4157 -1.1936
 9618SOL     OW29378   4.269   5.684   4.325 -0.2066 -1.2002 -0.4308
 9618SOL    HW129379   4.281   5.609   4.266  0.4623 -0.3056 -1.4781
 9618SOL    HW229380   4.327   5.752   4.289  1.1936 -1.0103  1.9689
 9619SOL     OW29381   0.099   3.984   6.208 -0.0522 -0.3810  0.2809
 9619SOL    HW129382   0.087   3.964   6.301  1.1713 -1.1370  0.2998
 9619SOL    HW229383   0.073   4.076   6.200 -2.3844 -0.9318  0.8987
 9620SOL     OW29384   4.368   2.763   6.652 -0.2501  0.0645  0.3836
 9620SOL    HW129385   4.322   2.707   6.589 -1.1038  0.1445  0.9178
 9620SOL    HW229386   4.460   2.736   6.645 -0.4500 -0.4779 -0.3166
 9621SOL     OW29387   4.253   6.113   2.796  0.0110 -0.1814 -0.2828
 9621SOL    HW129388   4.227   6.025   2.770 -0.6464 -0.5692  1.4831
 9621SOL    HW229389   4.205   6.128   2.878  0.2430  1.7557 -0.4576
 9622SOL     OW29390   4.392   6.178   4.463 -0.2752  0.0604 -0.1454
 9622SOL    HW129391   4.461   6.135   4.412 -1.2091  0.1570 -1.5440
 9622SOL    HW229392   4.390   6.268   4.431 -1.2466 -0.0212 -0.3549
 9623SOL     OW29393   0.413   3.394   2.802  0.3016  0.3623  0.6191
 9623SOL    HW129394   0.349   3.385   2.731  2.5269 -0.1742 -1.4333
 9623SOL    HW229395   0.467   3.315   2.797  0.3455  0.1317  3.1849
 9624SOL     OW29396   1.078   1.191   0.858  0.1433  0.2235  0.1602
 9624SOL    HW129397   1.040   1.107   0.883 -0.2238  0.1219 -0.7389
 9624SOL    HW229398   1.168   1.170   0.833 -0.2248 -0.0568 -0.9700
 9625SOL     OW29399   3.017   2.079   2.184  0.3021 -0.1445  0.2439
 9625SOL    HW129400   2.947   2.019   2.208 -0.0720 -0.2271 -0.9959
 9625SOL    HW229401   3.051   2.111   2.268 -2.0006  0.8362  0.8600
 9626SOL     OW29402   6.843   1.390   0.131 -0.1448 -0.2269  0.0941
 9626SOL    HW129403   6.874   1.302   0.107  1.4974  0.2343  0.3931
 9626SOL    HW229404   6.803   1.424   0.052  3.2768  0.4488 -1.5278
 9627SOL     OW29405   6.058   3.751   2.814 -0.8545 -0.2500  0.1254
 9627SOL    HW129406   6.078   3.684   2.879 -0.4393 -0.7111 -0.4699
 9627SOL    HW229407   6.030   3.702   2.736 -0.9188  0.2802 -0.1937
 9628SOL     OW29408   7.015   6.110   3.001 -0.0552  0.1090 -0.2394
 9628SOL    HW129409   7.089   6.066   2.959  0.3704  0.4493  0.1314
 9628SOL    HW229410   6.954   6.129   2.930  0.6022  0.5783 -0.6888
 9629SOL     OW29411   3.855   1.200   7.270  0.0239  0.2651 -0.0769
 9629SOL    HW129412   3.883   1.129   7.213  0.9783  0.5172  0.0580
 9629SOL    HW229413   3.866   1.279   7.217  0.2553  0.4328  0.2136
 9630SOL     OW29414   1.448   5.847   6.714 -0.7640 -0.6750 -0.4538
 9630SOL    HW129415   1.491   5.903   6.649 -0.6463 -0.4088 -0.1480
 9630SOL    HW229416   1.521   5.803   6.759 -0.8159 -0.4033 -0.0971
 9631SOL     OW29417   6.958   1.789   5.446  0.2740 -0.0416 -0.0095
 9631SOL    HW129418   6.894   1.793   5.516  2.3429  2.5394  1.9236
 9631SOL    HW229419   6.920   1.840   5.374 -0.0092  1.2141  1.0028
 9632SOL     OW29420   0.958   7.531   0.917 -0.3896 -0.6248  0.1951
 9632SOL    HW129421   0.869   7.522   0.882 -0.2770  0.4935 -0.4234
 9632SOL    HW229422   0.972   7.451   0.968 -1.7440 -0.8243  0.2917
 9633SOL     OW29423   2.313   3.772   1.907 -0.0040  0.0082 -0.0992
 9633SOL    HW129424   2.343   3.859   1.881  1.2002  0.1807  1.7196
 9633SOL    HW229425   2.288   3.730   1.825 -1.0609  2.1966 -0.9893
 9634SOL     OW29426   7.538   3.716   7.168  0.3700 -0.0246  0.3033
 9634SOL    HW129427   7.582   3.760   7.095 -0.2126 -0.6994 -0.4757
 9634SOL    HW229428   7.496   3.640   7.128 -0.2128 -0.2421  1.2978
 9635SOL     OW29429   2.768   6.954   2.214  0.2589  0.4319 -0.0259
 9635SOL    HW129430   2.820   6.881   2.248 -0.3748 -0.6869 -1.3557
 9635SOL    HW229431   2.678   6.933   2.239 -0.1361 -0.0920 -1.7483
 9636SOL     OW29432   4.542   3.765   1.215 -0.0233  0.1456 -0.1676
 9636SOL    HW129433   4.582   3.735   1.133 -0.3713 -0.0234 -0.2772
 9636SOL    HW229434   4.595   3.726   1.284 -1.0452 -1.5329 -0.2949
 9637SOL     OW29435   1.187   1.357   3.352  0.6442 -0.2804  0.2968
 9637SOL    HW129436   1.127   1.426   3.380  0.3072 -0.8506  1.0025
 9637SOL    HW229437   1.266   1.403   3.326  0.2814  0.3978  0.3784
 9638SOL     OW29438   6.288   3.274   5.951 -0.1736 -0.3214  0.4151
 9638SOL    HW129439   6.372   3.241   5.982  0.0424 -1.2887 -1.0703
 9638SOL    HW229440   6.305   3.366   5.928 -0.0056  0.0091  1.7786
 9639SOL     OW29441   1.885   5.221   1.639  0.5024 -0.0111  0.3358
 9639SOL    HW129442   1.927   5.302   1.666  0.9519  0.1327 -0.7322
 9639SOL    HW229443   1.927   5.153   1.692  0.6515  0.3660  0.7061
 9640SOL     OW29444   3.148   1.324   1.902  0.6230 -0.8301 -0.3139
 9640SOL    HW129445   3.163   1.374   1.821  0.2095 -2.0429 -1.1648
 9640SOL    HW229446   3.057   1.298   1.898  0.3402 -0.1574  1.0139
 9641SOL     OW29447   5.751   0.799   5.302  0.3131 -0.2405 -0.3289
 9641SOL    HW129448   5.715   0.787   5.390  1.0156  0.7314  0.1065
 9641SOL    HW229449   5.693   0.863   5.261  0.2277 -0.3814 -0.4297
 9642SOL     OW29450   3.359   1.681   4.328 -0.5926  0.0362 -0.4100
 9642SOL    HW129451   3.346   1.748   4.261 -3.1999 -0.5177 -0.5894
 9642SOL    HW229452   3.342   1.726   4.411 -0.5228  0.0000 -0.3757
 9643SOL     OW29453   7.114   3.541   2.968 -0.1119  0.1656  0.6059
 9643SOL    HW129454   7.065   3.622   2.980  0.9401  0.9226 -0.0484
 9643SOL    HW229455   7.116   3.501   3.055 -0.1174  1.1504  1.0653
 9644SOL     OW29456   0.226   1.353   0.434 -0.5248  0.0113  0.5261
 9644SOL    HW129457   0.199   1.405   0.358 -1.0382 -0.9389  0.0356
 9644SOL    HW229458   0.322   1.356   0.432 -0.5349  0.1222 -0.0773
 9645SOL     OW29459   7.081   7.398   4.822  0.3536 -0.2411 -0.4827
 9645SOL    HW129460   7.032   7.471   4.859  0.3394 -0.1483 -0.6827
 9645SOL    HW229461   7.168   7.405   4.862 -0.2581 -1.3795  1.1464
 9646SOL     OW29462   2.058   5.039   0.201  0.1733  0.6749 -0.0337
 9646SOL    HW129463   2.038   4.947   0.183  2.2333  0.4398 -1.6574
 9646SOL    HW229464   2.024   5.086   0.125  1.8796  0.7687 -0.8073
 9647SOL     OW29465   0.863   3.561   0.342  0.0774  0.4284 -0.4758
 9647SOL    HW129466   0.799   3.622   0.306  0.0895  0.2795 -0.7547
 9647SOL    HW229467   0.933   3.558   0.276 -1.4683 -2.5010 -2.2106
 9648SOL     OW29468   0.054   4.128   1.166 -0.2573 -0.1945 -0.2053
 9648SOL    HW129469  -0.004   4.066   1.210 -0.4219 -0.9791 -1.5013
 9648SOL    HW229470   0.143   4.097   1.187 -0.3353 -0.6781 -0.5865
 9649SOL     OW29471   1.943   7.221   6.252  0.4111 -0.1617 -0.0119
 9649SOL    HW129472   1.921   7.178   6.334 -2.0245 -0.8010 -0.9206
 9649SOL    HW229473   1.864   7.268   6.227  0.9154 -0.3553 -2.2284
 9650SOL     OW29474   1.533   5.355   0.320  0.2783 -0.2132  0.8175
 9650SOL    HW129475   1.486   5.279   0.356  0.3508  0.5850  2.6860
 9650SOL    HW229476   1.624   5.326   0.315 -0.1258 -1.2997 -1.5310
 9651SOL     OW29477   4.471   7.189   6.745 -0.2149  0.2809  0.0405
 9651SOL    HW129478   4.533   7.259   6.764 -1.5100  1.0464  1.6862
 9651SOL    HW229479   4.394   7.235   6.710  0.3448 -0.7110 -2.7859
 9652SOL     OW29480   2.906   0.382   7.129  0.2434  0.8696 -0.5616
 9652SOL    HW129481   2.894   0.288   7.122 -1.8411  1.0111  0.4802
 9652SOL    HW229482   2.914   0.412   7.039  0.7724 -0.2708 -0.9112
 9653SOL     OW29483   5.509   0.583   5.412 -0.3569 -0.1328  0.9640
 9653SOL    HW129484   5.451   0.659   5.411 -1.9860 -1.3153 -0.2297
 9653SOL    HW229485   5.451   0.509   5.431  0.5251 -1.4937 -1.2445
 9654SOL     OW29486   0.813   1.368   7.049  0.0583  0.4628 -0.1032
 9654SOL    HW129487   0.740   1.377   6.988  0.5407 -0.3957 -0.8356
 9654SOL    HW229488   0.849   1.281   7.031  3.3739  2.0759 -2.1922
 9655SOL     OW29489   2.997   7.053   4.772  0.2932 -0.1745  0.0307
 9655SOL    HW129490   2.992   6.971   4.724 -1.3707 -0.2349  0.2385
 9655SOL    HW229491   3.015   7.119   4.704 -2.8288 -0.1406 -0.9531
 9656SOL     OW29492   2.145   6.950   5.751 -0.2428  0.1317  0.6645
 9656SOL    HW129493   2.166   6.865   5.713  0.7121  0.2652  0.8722
 9656SOL    HW229494   2.113   7.002   5.677  1.7897  0.4599 -0.0515
 9657SOL     OW29495   4.435   6.470   3.295  0.0337 -0.1841  0.0791
 9657SOL    HW129496   4.412   6.405   3.361  0.5434  0.6036  1.0647
 9657SOL    HW229497   4.485   6.421   3.229  0.1698 -0.8487  0.6598
 9658SOL     OW29498   5.187   3.935   6.282  0.2077  0.3262 -0.3278
 9658SOL    HW129499   5.105   3.948   6.235  0.5277  0.5160 -0.8392
 9658SOL    HW229500   5.167   3.870   6.349 -0.8932  1.8467  0.8963
 9659SOL     OW29501   4.130   2.988   4.517 -0.1807 -0.1021  0.0241
 9659SOL    HW129502   4.189   3.064   4.505 -0.1078 -0.1726 -0.0683
 9659SOL    HW229503   4.051   3.025   4.556 -0.1793  0.0373 -0.1025
 9660SOL     OW29504   4.092   6.684   0.125  0.2203  0.4972  0.5896
 9660SOL    HW129505   4.058   6.702   0.212  0.7450  1.0312  0.6870
 9660SOL    HW229506   4.024   6.631   0.083 -1.2684  2.4542  0.3824
 9661SOL     OW29507   1.960   0.477   2.346  0.2138 -0.0115  0.1014
 9661SOL    HW129508   1.897   0.440   2.408  0.6679 -0.7896  0.1203
 9661SOL    HW229509   2.024   0.406   2.333  1.3262  0.9089  0.4203
 9662SOL     OW29510   1.117   1.217   0.352 -0.1219 -0.4610 -0.0257
 9662SOL    HW129511   1.067   1.182   0.426  0.4320  2.4019  1.8863
 9662SOL    HW229512   1.051   1.253   0.293 -0.4773  0.0058  0.6418
 9663SOL     OW29513   5.059   0.407   0.234  0.0791 -0.2208 -0.1957
 9663SOL    HW129514   4.990   0.418   0.168  0.1073 -1.4735 -0.4480
 9663SOL    HW229515   5.012   0.401   0.317 -0.0711 -0.3281 -0.2871
 9664SOL     OW29516   1.128   5.777   5.379 -0.5953 -0.0561 -0.0448
 9664SOL    HW129517   1.140   5.717   5.452 -0.3782 -0.7847 -0.6652
 9664SOL    HW229518   1.045   5.821   5.397 -1.6696 -1.8072 -0.4444
 9665SOL     OW29519   6.498   3.160   2.730  0.3573  0.4934 -0.1661
 9665SOL    HW129520   6.515   3.245   2.769 -0.5847 -0.2886  2.1380
 9665SOL    HW229521   6.555   3.099   2.779  0.0107 -0.3834 -0.8208
 9666SOL     OW29522   1.148   5.184   6.670 -0.3904  0.2337  0.0331
 9666SOL    HW129523   1.193   5.127   6.607  1.5508  0.0645  1.4598
 9666SOL    HW229524   1.154   5.136   6.753 -1.6778  1.0534  0.6254
 9667SOL     OW29525   0.759   3.510   3.832  0.5011 -0.1058  0.1590
 9667SOL    HW129526   0.672   3.470   3.822 -0.2608  1.9716 -2.8704
 9667SOL    HW229527   0.742   3.594   3.875  1.5183 -1.0045  2.4707
 9668SOL     OW29528   1.530   3.301   1.028 -0.1473  0.2245 -0.2737
 9668SOL    HW129529   1.510   3.337   0.942 -0.6799  0.7385  0.0518
 9668SOL    HW229530   1.475   3.351   1.088  0.3578  0.0065  0.3888
 9669SOL     OW29531   1.929   2.214   6.122  0.0947 -0.0181 -0.1485
 9669SOL    HW129532   1.862   2.252   6.065 -0.7751 -1.9927 -0.5207
 9669SOL    HW229533   1.881   2.177   6.196  0.7177 -1.5172 -0.4456
 9670SOL     OW29534   7.007   7.314   6.350  0.0681  0.1792 -0.0803
 9670SOL    HW129535   7.093   7.354   6.355  0.8198 -1.1204 -1.7760
 9670SOL    HW229536   7.010   7.241   6.412  0.5654 -0.4709 -0.8462
 9671SOL     OW29537   4.243   0.063   4.011  0.1381 -0.5114 -0.4335
 9671SOL    HW129538   4.313   0.004   3.981  1.8126  1.0609  0.1544
 9671SOL    HW229539   4.272   0.149   3.982 -1.1109  0.3005  0.6566
 9672SOL     OW29540   1.918   1.138   0.175  0.8212 -0.4162  0.1188
 9672SOL    HW129541   1.913   1.057   0.227 -0.3142 -0.5509 -0.1727
 9672SOL    HW229542   1.828   1.168   0.170  0.6987 -1.0159 -2.7180
 9673SOL     OW29543   3.432   5.599   4.432 -0.7289  0.0709 -0.2708
 9673SOL    HW129544   3.386   5.586   4.349 -0.1347 -1.1892 -0.4245
 9673SOL    HW229545   3.442   5.694   4.439 -1.2041  0.2220 -1.4039
 9674SOL     OW29546   4.620   0.510   5.707 -0.3856  0.1830  0.0251
 9674SOL    HW129547   4.530   0.479   5.714 -0.2158 -0.1371  0.8665
 9674SOL    HW229548   4.613   0.605   5.723 -0.6472  0.2629 -0.5383
 9675SOL     OW29549   6.405   4.870   6.267  0.0850 -0.3085 -0.2171
 9675SOL    HW129550   6.396   4.958   6.229 -0.1439  0.0822  0.7202
 9675SOL    HW229551   6.357   4.875   6.349 -0.8963 -1.6423 -0.6754
 9676SOL     OW29552   5.643   2.420   1.172  0.3263  0.3908  0.1231
 9676SOL    HW129553   5.694   2.344   1.146  0.6965 -0.0270  1.9131
 9676SOL    HW229554   5.599   2.393   1.253  1.0487  2.2720  1.2130
 9677SOL     OW29555   1.262   1.786   2.750 -0.1442 -0.4090  0.0906
 9677SOL    HW129556   1.282   1.865   2.700 -0.4835 -1.5841 -2.0445
 9677SOL    HW229557   1.336   1.727   2.733  0.7758 -0.1444  2.7346
 9678SOL     OW29558   1.836   2.088   7.559 -0.2795 -0.4095  0.7500
 9678SOL    HW129559   1.769   2.156   7.553 -0.4600 -0.6239  0.2642
 9678SOL    HW229560   1.839   2.049   7.471  0.7904 -0.1203  0.6438
 9679SOL     OW29561   1.186   6.396   1.901  0.4463  0.1017  0.5895
 9679SOL    HW129562   1.182   6.393   1.997  1.5793  0.4533  0.6616
 9679SOL    HW229563   1.191   6.489   1.880  1.9141 -0.0308  0.2870
 9680SOL     OW29564   0.628   4.616   5.886  0.0160 -0.6603  0.2904
 9680SOL    HW129565   0.575   4.604   5.807 -0.6812  0.7395  0.5126
 9680SOL    HW229566   0.565   4.645   5.953  1.1306  1.9599  0.3272
 9681SOL     OW29567   3.598   4.814   2.855  0.4207 -0.2972 -0.1005
 9681SOL    HW129568   3.591   4.732   2.806  0.3631 -0.0360 -0.5288
 9681SOL    HW229569   3.591   4.787   2.947 -1.0869 -0.6221 -0.2846
 9682SOL     OW29570   5.613   6.983   3.578  0.0099  0.0729  0.1512
 9682SOL    HW129571   5.599   6.962   3.486  0.8141 -0.7813  0.2138
 9682SOL    HW229572   5.612   6.899   3.623  0.7958  0.3736  0.7601
 9683SOL     OW29573   2.079   6.582   5.425  0.2346 -0.2155 -0.0702
 9683SOL    HW129574   2.031   6.499   5.417  0.3938 -0.4587  1.3568
 9683SOL    HW229575   2.123   6.592   5.340  0.0286 -1.4804 -0.3466
 9684SOL     OW29576   3.624   4.289   2.535 -0.2005 -0.1423  0.3291
 9684SOL    HW129577   3.717   4.274   2.514 -0.4236 -1.2150  0.0636
 9684SOL    HW229578   3.589   4.330   2.456 -0.7617 -3.0941 -1.0956
 9685SOL     OW29579   4.987   6.006   4.239 -0.2324 -0.3238  0.5702
 9685SOL    HW129580   5.026   5.957   4.167 -1.1498 -0.4493  0.1512
 9685SOL    HW229581   5.062   6.046   4.284  0.4983 -1.7100  0.6448
 9686SOL     OW29582   7.511   1.809   0.576  0.2109 -0.2817 -0.4751
 9686SOL    HW129583   7.567   1.786   0.649 -1.2201  0.8925  1.0743
 9686SOL    HW229584   7.510   1.730   0.521  0.9336 -1.3908  1.0223
 9687SOL     OW29585   5.843   6.941   5.243 -0.0087 -0.2647 -0.1409
 9687SOL    HW129586   5.843   7.037   5.233  1.3977 -0.1857  0.3881
 9687SOL    HW229587   5.756   6.921   5.278  0.3646  1.0679  1.7076
 9688SOL     OW29588   6.349   2.448   6.948 -0.3778  0.4980  0.1664
 9688SOL    HW129589   6.396   2.393   7.010  0.2948  0.7627 -0.0938
 9688SOL    HW229590   6.412   2.517   6.925 -0.7443  0.6142 -0.5146
 9689SOL     OW29591   2.714   4.144   2.847  0.1937 -0.8103  0.5940
 9689SOL    HW129592   2.765   4.089   2.905  2.1539 -1.1843 -1.3645
 9689SOL    HW229593   2.738   4.234   2.871  1.2631 -0.9707  0.1669
 9690SOL     OW29594   4.477   2.369   6.660  0.5075  0.1637  0.6132
 9690SOL    HW129595   4.418   2.366   6.735  0.5153  1.1116  0.6752
 9690SOL    HW229596   4.427   2.330   6.588  0.4008 -0.4945  1.0356
 9691SOL     OW29597   1.600   1.938   6.878  0.3280  0.2025 -1.0478
 9691SOL    HW129598   1.610   1.868   6.813  2.8411  0.0873 -0.6315
 9691SOL    HW229599   1.624   2.017   6.831  2.5548  0.0696 -0.2332
 9692SOL     OW29600   3.705   0.640   1.763 -0.3455  0.0494  0.5459
 9692SOL    HW129601   3.682   0.560   1.715 -0.2781  0.0876  0.4506
 9692SOL    HW229602   3.761   0.689   1.703 -3.7338  2.1825 -1.1999
 9693SOL     OW29603   5.158   5.099   1.830  0.1422  0.3667 -0.7081
 9693SOL    HW129604   5.123   5.149   1.903 -0.3444 -0.2943 -0.4875
 9693SOL    HW229605   5.239   5.145   1.807 -2.0766  3.6285 -3.0122
 9694SOL     OW29606   3.701   6.147   0.637 -0.3553 -0.7337  0.0257
 9694SOL    HW129607   3.757   6.078   0.672 -1.5082 -2.1571 -0.7887
 9694SOL    HW229608   3.710   6.138   0.542 -1.8990 -0.9803 -0.1210
 9695SOL     OW29609   7.083   5.914   2.088 -0.0764  0.0519  0.3645
 9695SOL    HW129610   7.169   5.922   2.129  0.5121  2.2310 -1.1329
 9695SOL    HW229611   7.090   5.839   2.030  0.6175 -0.1248  0.6718
 9696SOL     OW29612   1.117   2.970   2.674 -0.1672  0.0505  0.4399
 9696SOL    HW129613   1.206   2.958   2.642  0.1709  0.8538  1.0552
 9696SOL    HW229614   1.127   3.003   2.763 -1.0659 -3.5150  2.0456
 9697SOL     OW29615   2.581   1.237   3.356 -0.1524  0.4637  0.6260
 9697SOL    HW129616   2.661   1.200   3.317  0.1942  0.1948  1.5830
 9697SOL    HW229617   2.544   1.166   3.407 -1.9410  0.0383 -1.1154
 9698SOL     OW29618   5.779   6.238   3.594  0.3292 -0.0213 -0.2313
 9698SOL    HW129619   5.795   6.279   3.509  1.5111 -0.1382 -0.0833
 9698SOL    HW229620   5.697   6.189   3.582  0.1783  0.4265 -1.1239
 9699SOL     OW29621   6.881   5.836   7.133  0.7227  0.6529 -0.5001
 9699SOL    HW129622   6.956   5.776   7.139 -1.0292 -1.8139 -1.3795
 9699SOL    HW229623   6.843   5.834   7.221  0.4381  0.1310 -0.6318
 9700SOL     OW29624   1.140   1.163   3.537 -0.2466  0.1636 -0.0782
 9700SOL    HW129625   1.086   1.130   3.465  0.6063 -0.3983 -0.4749
 9700SOL    HW229626   1.172   1.247   3.506 -0.2364  0.1250 -0.1731
 9701SOL     OW29627   0.481   1.364   4.524  0.5339 -0.4794 -0.6904
 9701SOL    HW129628   0.520   1.394   4.606 -0.8160  0.9534 -0.5309
 9701SOL    HW229629   0.505   1.431   4.460  1.8760 -1.7582 -1.6160
 9702SOL     OW29630   5.575   7.248   3.567 -0.6074  0.5195 -0.3007
 9702SOL    HW129631   5.567   7.257   3.472 -1.3161  2.1882 -0.1152
 9702SOL    HW229632   5.563   7.154   3.583 -2.8656  0.4920 -1.6709
 9703SOL     OW29633   1.470   2.253   5.983  0.1675  0.3064 -0.2404
 9703SOL    HW129634   1.523   2.193   6.035 -0.9982  0.3551  1.0464
 9703SOL    HW229635   1.406   2.197   5.940  0.3228  0.4199 -0.6291
 9704SOL     OW29636   2.038   4.261   2.881 -0.0889  0.6858  0.1739
 9704SOL    HW129637   2.072   4.223   2.800  0.2465  1.1515  0.0946
 9704SOL    HW229638   1.943   4.253   2.872 -0.0382 -1.6432  0.8816
 9705SOL     OW29639   2.994   4.943   5.447  0.1979  0.4002 -0.3059
 9705SOL    HW129640   2.995   4.928   5.541  2.0998 -0.1427 -0.3706
 9705SOL    HW229641   2.932   4.879   5.412  1.1866 -0.9557  0.3655
 9706SOL     OW29642   5.741   5.893   4.519  0.3403 -0.4357 -0.1872
 9706SOL    HW129643   5.669   5.842   4.484  0.2152 -1.1508  1.0800
 9706SOL    HW229644   5.716   5.984   4.504 -1.1106 -0.6554  0.7738
 9707SOL     OW29645   5.006   2.520   3.520 -0.2002 -0.3014  0.5604
 9707SOL    HW129646   4.990   2.613   3.500  1.3738 -0.0624  0.3324
 9707SOL    HW229647   4.919   2.486   3.541 -0.5850  1.6594  2.5594
 9708SOL     OW29648   4.755   2.390   6.565 -0.3686  0.2893  0.6176
 9708SOL    HW129649   4.662   2.373   6.583 -0.5485  0.5642 -0.0415
 9708SOL    HW229650   4.760   2.484   6.554 -0.3663  0.0898 -1.3120
 9709SOL     OW29651   5.215   2.749   3.718  0.1509 -0.0655 -0.1657
 9709SOL    HW129652   5.249   2.830   3.681  0.8989 -0.6672 -0.8223
 9709SOL    HW229653   5.123   2.769   3.737  0.3160  0.9212 -0.3242
 9710SOL     OW29654   3.536   0.550   5.879 -0.9726  0.0528 -0.0299
 9710SOL    HW129655   3.474   0.536   5.950 -1.1623  0.9741 -0.0023
 9710SOL    HW229656   3.493   0.513   5.802 -1.1700 -0.1022  0.1539
 9711SOL     OW29657   4.031   4.060   3.883  0.1214  0.2636  0.0862
 9711SOL    HW129658   4.079   4.095   3.808 -0.5138  0.8349 -0.0600
 9711SOL    HW229659   4.096   4.058   3.954  0.2877  1.3461 -0.0148
 9712SOL     OW29660   4.730   4.830   2.820 -0.3020  0.4231 -0.0384
 9712SOL    HW129661   4.711   4.879   2.900  0.4615  0.2663  0.2393
 9712SOL    HW229662   4.723   4.895   2.750  1.4233  1.1303  0.3922
 9713SOL     OW29663   0.538   6.142   0.503  0.1331 -0.6080  0.1916
 9713SOL    HW129664   0.514   6.159   0.594 -1.0675 -0.5245 -0.1206
 9713SOL    HW229665   0.456   6.150   0.454  0.7123 -0.8693 -0.8733
 9714SOL     OW29666   4.305   5.623   4.589 -0.3459  0.4596  0.2225
 9714SOL    HW129667   4.314   5.528   4.594  1.0162  0.5829  0.3121
 9714SOL    HW229668   4.272   5.639   4.500 -0.7661 -0.1007  0.2736
 9715SOL     OW29669   4.003   6.107   6.186 -0.0527 -0.2213 -0.2581
 9715SOL    HW129670   4.017   6.012   6.186  0.3410 -0.1965  1.6137
 9715SOL    HW229671   4.086   6.144   6.155 -1.1658 -0.4765 -4.1734
 9716SOL     OW29672   6.990   7.378   0.687  0.5498  0.1652  0.6988
 9716SOL    HW129673   6.988   7.341   0.775 -3.8055 -2.1296 -0.0860
 9716SOL    HW229674   6.911   7.431   0.682  0.8232  0.4420 -1.7779
 9717SOL     OW29675   2.189   6.234   4.249  0.0904 -0.1560  0.4808
 9717SOL    HW129676   2.267   6.179   4.255 -1.4290 -2.2486  2.9358
 9717SOL    HW229677   2.143   6.203   4.172  1.1376  0.4227 -0.4090
 9718SOL     OW29678   5.805   6.332   4.970 -0.3015 -0.2509  0.2708
 9718SOL    HW129679   5.795   6.237   4.960 -0.1827 -0.2996  0.5886
 9718SOL    HW229680   5.895   6.343   5.001 -0.9879 -0.2103  2.4180
 9719SOL     OW29681   0.814   4.505   0.815  1.2117  0.0267  0.5456
 9719SOL    HW129682   0.742   4.567   0.819 -1.5777 -3.0189  1.6454
 9719SOL    HW229683   0.857   4.524   0.731 -0.0629  2.7294  0.4065
 9720SOL     OW29684   4.662   4.121   6.891 -0.0064  0.1607 -0.0813
 9720SOL    HW129685   4.701   4.039   6.859 -1.3833 -0.5086 -0.1553
 9720SOL    HW229686   4.630   4.099   6.979  0.5238  0.9367  0.3184
 9721SOL     OW29687   2.812   0.972   1.930  0.7289 -0.1774 -0.3770
 9721SOL    HW129688   2.895   0.929   1.909  0.9273 -0.5635  1.0521
 9721SOL    HW229689   2.761   0.967   1.849  2.7600  1.7544 -1.8905
 9722SOL     OW29690   0.208   4.216   7.222  0.2172  0.1556 -0.3138
 9722SOL    HW129691   0.228   4.298   7.177  0.4128 -0.2644 -0.9952
 9722SOL    HW229692   0.138   4.176   7.170 -1.2290  0.7605  1.0520
 9723SOL     OW29693   5.346   7.171   0.680  0.6028 -0.7510 -0.3296
 9723SOL    HW129694   5.335   7.176   0.775 -0.4210 -1.4630 -0.3935
 9723SOL    HW229695   5.257   7.176   0.645  1.0148  0.1391 -1.2956
 9724SOL     OW29696   1.696   1.906   6.352 -0.0631  0.2317  0.3777
 9724SOL    HW129697   1.625   1.844   6.372  0.2387 -0.2666 -0.0854
 9724SOL    HW229698   1.765   1.882   6.414  1.2534 -1.9526 -1.7607
 9725SOL     OW29699   4.917   6.704   6.911  0.0684 -0.0458  0.4536
 9725SOL    HW129700   4.849   6.763   6.945  0.4199  1.2942 -1.0870
 9725SOL    HW229701   4.985   6.705   6.978 -0.6524 -0.0300  1.2028
 9726SOL     OW29702   2.812   4.677   2.924  0.2741 -0.0894  0.4591
 9726SOL    HW129703   2.732   4.714   2.961 -0.0361 -1.9655  1.7902
 9726SOL    HW229704   2.879   4.692   2.990  1.0988  1.5529 -0.6858
 9727SOL     OW29705   4.543   2.219   5.669  0.4231 -0.8217 -0.1558
 9727SOL    HW129706   4.585   2.151   5.616  0.3260 -0.3382 -0.8868
 9727SOL    HW229707   4.479   2.174   5.723 -0.8393 -1.1474 -1.8344
 9728SOL     OW29708   5.025   2.816   0.018  0.2710  0.3817  0.6117
 9728SOL    HW129709   4.945   2.819  -0.035  1.0971  0.1265 -0.7067
 9728SOL    HW229710   5.043   2.723   0.031 -0.3034  0.4445  1.9721
 9729SOL     OW29711   4.422   5.815   0.228 -0.1572 -0.5727 -0.4540
 9729SOL    HW129712   4.339   5.773   0.207  0.3614 -1.5397 -0.6148
 9729SOL    HW229713   4.446   5.781   0.314 -0.4091  0.4752  0.0446
 9730SOL     OW29714   4.545   5.458   1.658 -0.2258  0.2195 -0.8417
 9730SOL    HW129715   4.616   5.393   1.660 -0.1250  0.3176  1.2520
 9730SOL    HW229716   4.591   5.542   1.666 -0.5336  0.2176  2.2637
 9731SOL     OW29717   3.622   3.715   0.689  0.5415 -0.2656 -0.0017
 9731SOL    HW129718   3.622   3.782   0.620 -0.2296 -0.2540  0.0018
 9731SOL    HW229719   3.699   3.662   0.671 -0.4063 -1.1529 -1.7654
 9732SOL     OW29720   1.056   3.626   7.229  0.2946 -0.4011 -0.3887
 9732SOL    HW129721   1.146   3.596   7.222  0.3024 -0.1681 -1.5192
 9732SOL    HW229722   1.022   3.622   7.139 -1.0633 -1.2374  0.1307
 9733SOL     OW29723   2.698   3.959   2.628  0.1139  0.2228 -0.1594
 9733SOL    HW129724   2.738   3.877   2.655 -0.7225 -0.1751 -0.1137
 9733SOL    HW229725   2.690   4.009   2.709  0.8853  0.4792 -0.2288
 9734SOL     OW29726   5.471   5.504   3.273  0.3391 -0.5253 -0.4794
 9734SOL    HW129727   5.395   5.458   3.240 -1.2009  1.0183  0.7475
 9734SOL    HW229728   5.474   5.483   3.366 -0.9547  2.3623  0.3389
 9735SOL     OW29729   1.237   7.130   5.074 -0.8233  0.2270 -0.1024
 9735SOL    HW129730   1.172   7.109   5.006  0.0902 -0.6015 -0.7574
 9735SOL    HW229731   1.222   7.064   5.142 -0.8631  0.2064 -0.1310
 9736SOL     OW29732   5.130   6.748   4.499  0.0876 -0.0661 -0.1034
 9736SOL    HW129733   5.221   6.773   4.483 -0.6088  1.9596 -1.3665
 9736SOL    HW229734   5.131   6.653   4.503  2.5166 -0.0768  1.7843
 9737SOL     OW29735   5.828   1.224   7.085  0.5230 -0.5440 -0.1541
 9737SOL    HW129736   5.874   1.154   7.040 -1.9403 -1.2937 -1.7037
 9737SOL    HW229737   5.743   1.186   7.109  0.6038  0.7572  2.5192
 9738SOL     OW29738   0.106   5.264   2.575  0.1360 -0.3519 -0.5430
 9738SOL    HW129739   0.179   5.323   2.560 -0.3901  0.5016  0.1279
 9738SOL    HW229740   0.092   5.266   2.670  0.6441 -2.2305 -0.3784
 9739SOL     OW29741   1.610   3.450   7.489  0.0209  0.1867 -0.0792
 9739SOL    HW129742   1.664   3.521   7.524 -0.3597  1.1604 -1.3911
 9739SOL    HW229743   1.553   3.425   7.561  0.7295  0.6430  0.6564
 9740SOL     OW29744   1.774   3.457   3.372 -0.3768 -0.1631  0.0612
 9740SOL    HW129745   1.819   3.374   3.359  1.1296  0.4068  1.3293
 9740SOL    HW229746   1.689   3.433   3.410 -0.5265 -1.1701 -0.8589
 9741SOL     OW29747   5.665   4.444   7.357 -0.1369 -0.5734  0.5889
 9741SOL    HW129748   5.637   4.389   7.284  0.3287 -0.3375  0.2222
 9741SOL    HW229749   5.605   4.423   7.428 -0.1385 -1.3515  0.3679
 9742SOL     OW29750   3.692   5.141   1.607 -0.5234 -0.2788  0.4520
 9742SOL    HW129751   3.711   5.097   1.525  0.3309  0.8629  0.0016
 9742SOL    HW229752   3.602   5.173   1.596 -0.0554  0.8031 -0.5152
 9743SOL     OW29753   0.395   2.123   3.088  0.1758 -0.3105 -0.1970
 9743SOL    HW129754   0.477   2.156   3.052  0.3350 -0.6426 -0.1421
 9743SOL    HW229755   0.342   2.201   3.104 -0.4060 -0.2235 -2.3579
 9744SOL     OW29756   3.329   6.753   4.378  0.6288  0.2701  0.7771
 9744SOL    HW129757   3.380   6.682   4.416 -1.6059 -1.8683  0.0625
 9744SOL    HW229758   3.394   6.815   4.345  2.7522 -2.0872  0.2289
 9745SOL     OW29759   7.351   6.354   2.351 -0.5323 -0.0174  0.3399
 9745SOL    HW129760   7.264   6.361   2.390 -0.9719 -1.6034 -0.2438
 9745SOL    HW229761   7.359   6.431   2.295 -2.4217 -0.8174 -1.1505
 9746SOL     OW29762   6.629   5.778   0.909  0.3222  0.5655 -0.6312
 9746SOL    HW129763   6.697   5.763   0.843 -3.4852 -0.5637 -4.8174
 9746SOL    HW229764   6.581   5.854   0.877 -1.7431 -0.0553  0.8208
 9747SOL     OW29765   3.691   5.026   7.502 -0.1471 -0.3459  0.6901
 9747SOL    HW129766   3.727   5.081   7.432 -1.3113 -1.1284 -0.5874
 9747SOL    HW229767   3.650   5.088   7.563  0.1613  0.3103  0.2443
 9748SOL     OW29768   0.940   5.509   6.715 -0.0241  0.3444 -0.2328
 9748SOL    HW129769   0.972   5.588   6.671 -0.4276 -0.1814 -1.5013
 9748SOL    HW229770   1.016   5.450   6.715  0.3623  0.7896  0.9601
 9749SOL     OW29771   4.074   5.147   3.437  0.5267  0.9372 -0.5181
 9749SOL    HW129772   4.016   5.071   3.434  0.9185  0.6101  0.0366
 9749SOL    HW229773   4.148   5.119   3.491  2.5989  0.4047 -3.4023
 9750SOL     OW29774   4.337   0.012   4.821 -0.6831 -0.3928  0.1262
 9750SOL    HW129775   4.391   0.040   4.748  0.3017  1.6538  1.5569
 9750SOL    HW229776   4.357   0.074   4.891 -1.0902 -2.6571  2.3718
 9751SOL     OW29777   7.231   2.679   2.033  0.1760  0.3908  0.0869
 9751SOL    HW129778   7.292   2.630   2.089 -0.3588  0.7104  0.9832
 9751SOL    HW229779   7.259   2.659   1.944 -0.8276 -2.6316  0.3356
 9752SOL     OW29780   5.350   2.651   4.696 -0.2074 -0.4935 -1.2575
 9752SOL    HW129781   5.277   2.629   4.638 -0.0159  0.2735 -1.8076
 9752SOL    HW229782   5.315   2.637   4.784 -0.9501 -0.3409 -1.5148
 9753SOL     OW29783   1.233   6.511   5.095 -0.2612 -0.2400  0.1682
 9753SOL    HW129784   1.299   6.444   5.075 -0.2273 -0.6157  1.4668
 9753SOL    HW229785   1.196   6.534   5.009  2.0349  0.5159 -0.7107
 9754SOL     OW29786   0.317   4.145   5.304 -0.9196 -0.3676  0.1644
 9754SOL    HW129787   0.348   4.184   5.385 -1.6904  0.2595  0.1618
 9754SOL    HW229788   0.279   4.218   5.255  0.8555 -0.4273 -1.4311
 9755SOL     OW29789   5.586   7.520   5.471 -0.2119  0.0373  0.2490
 9755SOL    HW129790   5.563   7.541   5.562 -0.3386 -1.3522  0.5661
 9755SOL    HW229791   5.509   7.475   5.436 -1.1922  2.7455 -1.4204
 9756SOL     OW29792   2.969   4.724   6.722  0.2296 -0.2477 -0.5679
 9756SOL    HW129793   2.972   4.629   6.709 -1.0197 -0.7421  2.0369
 9756SOL    HW229794   2.944   4.760   6.637 -1.2578 -2.4372 -1.1369
 9757SOL     OW29795   3.494   3.979   2.007  0.1487 -0.5926 -0.0443
 9757SOL    HW129796   3.544   3.932   2.074 -1.5560 -0.2180  1.5789
 9757SOL    HW229797   3.501   4.071   2.034  1.3319 -0.1475 -1.7284
 9758SOL     OW29798   6.157   6.941   2.853  0.2990 -0.7601  0.2816
 9758SOL    HW129799   6.078   6.888   2.848 -0.4132  0.0977  1.8462
 9758SOL    HW229800   6.168   6.960   2.946  0.1358  2.3436 -0.2283
 9759SOL     OW29801   3.187   7.492   2.201 -0.5098  0.6812 -0.3647
 9759SOL    HW129802   3.138   7.531   2.129  0.8003  1.3577 -0.9153
 9759SOL    HW229803   3.278   7.489   2.170 -0.0057  0.4869  1.0467
 9760SOL     OW29804   0.899   3.132   5.197  0.0402 -0.1244  0.7263
 9760SOL    HW129805   0.814   3.102   5.163 -0.0049  0.8104 -0.0387
 9760SOL    HW229806   0.964   3.089   5.141  0.0547 -0.4020  0.9540
 9761SOL     OW29807   5.514   1.897   4.747 -0.1097  0.2324 -0.8535
 9761SOL    HW129808   5.582   1.926   4.807 -0.5664 -0.1166 -0.1556
 9761SOL    HW229809   5.433   1.899   4.799 -0.2494 -1.7782 -0.8935
 9762SOL     OW29810   1.178   6.011   1.926 -0.1676  0.2966 -0.2027
 9762SOL    HW129811   1.147   5.941   1.869 -1.9625 -0.2143  1.2866
 9762SOL    HW229812   1.230   5.967   1.993  0.4430  0.6618 -0.4302
 9763SOL     OW29813   4.283   4.533   2.587  0.0491 -0.6091  0.1800
 9763SOL    HW129814   4.317   4.493   2.507 -0.3834 -0.5701 -0.0253
 9763SOL    HW229815   4.357   4.529   2.649  0.8836  0.7564 -0.6901
 9764SOL     OW29816   6.670   6.391   6.240 -0.4480  0.4762  0.2398
 9764SOL    HW129817   6.760   6.361   6.255 -0.8535  0.0601  2.0984
 9764SOL    HW229818   6.680   6.468   6.183  1.1270  0.6610  0.6984
 9765SOL     OW29819   3.445   6.608   0.280 -0.4221  0.0363  0.3239
 9765SOL    HW129820   3.382   6.607   0.353  0.1960  1.3966  0.9150
 9765SOL    HW229821   3.516   6.550   0.309  0.0497  0.9489  1.0433
 9766SOL     OW29822   0.815   1.763   5.881 -0.7500  0.2032  0.2443
 9766SOL    HW129823   0.892   1.819   5.882 -1.3810  1.0845  0.2334
 9766SOL    HW229824   0.805   1.737   5.790 -1.8288  2.0383 -0.2132
 9767SOL     OW29825   0.741   4.449   7.566 -0.5858  0.0966 -0.1907
 9767SOL    HW129826   0.764   4.402   7.646 -0.2854 -1.4979 -1.1629
 9767SOL    HW229827   0.646   4.454   7.568 -0.5905 -0.0920  0.1848
 9768SOL     OW29828   3.236   4.006   3.611 -0.2485  0.2000  0.0244
 9768SOL    HW129829   3.313   3.971   3.565  0.1080 -0.4567  1.0860
 9768SOL    HW229830   3.233   3.957   3.693 -1.9391  0.0703 -0.0811
 9769SOL     OW29831   5.733   3.873   0.783  0.6916  0.0699 -0.1761
 9769SOL    HW129832   5.811   3.926   0.770  1.2862 -0.4414  1.1784
 9769SOL    HW229833   5.725   3.863   0.877 -1.1960  0.3508 -0.2585
 9770SOL     OW29834   6.679   5.758   4.089 -0.5346  0.2881  0.0477
 9770SOL    HW129835   6.621   5.788   4.019 -0.6915  1.0425  0.4867
 9770SOL    HW229836   6.704   5.669   4.064 -2.1055 -0.1612 -0.0191
 9771SOL     OW29837   3.237   4.417   5.913  0.4237 -0.2387 -0.1186
 9771SOL    HW129838   3.311   4.476   5.928  0.1072  0.0981  0.1412
 9771SOL    HW229839   3.168   4.473   5.878  0.8610 -0.8574 -2.1175
 9772SOL     OW29840   6.151   1.766   1.627 -0.1360  0.3667 -0.6230
 9772SOL    HW129841   6.216   1.772   1.558  1.1255 -0.2836  0.4660
 9772SOL    HW229842   6.138   1.857   1.656  1.3833  0.3853  0.0970
 9773SOL     OW29843   1.635   1.072   0.192  0.1637  0.5147  0.1078
 9773SOL    HW129844   1.646   1.089   0.286  1.5057  0.1229  0.0515
 9773SOL    HW229845   1.597   0.985   0.188  0.2909  0.4488  0.2891
 9774SOL     OW29846   7.075   6.631   5.551  0.5113  0.3642  0.2427
 9774SOL    HW129847   7.049   6.633   5.459  0.0460 -0.0312  0.3657
 9774SOL    HW229848   7.119   6.546   5.562  0.2737  0.2658  0.4606
 9775SOL     OW29849   2.190   2.920   5.552  0.3689  0.0824 -0.0377
 9775SOL    HW129850   2.237   2.925   5.469  1.1488 -0.2422  0.3786
 9775SOL    HW229851   2.098   2.932   5.528  0.7942  2.4698 -0.6702
 9776SOL     OW29852   0.435   3.703   2.272  0.1579 -0.1342  0.3558
 9776SOL    HW129853   0.477   3.623   2.304 -0.0632 -0.8414 -1.0406
 9776SOL    HW229854   0.347   3.675   2.247  0.0787  0.5473 -0.1498
 9777SOL     OW29855   1.447   0.081   5.871  0.1018  0.4210 -0.4838
 9777SOL    HW129856   1.406   0.089   5.785 -0.1883 -0.1899 -0.4093
 9777SOL    HW229857   1.448   0.170   5.906 -0.4885  0.5534 -0.7934
 9778SOL     OW29858   6.371   3.600   2.780 -0.6563 -1.1610  0.0121
 9778SOL    HW129859   6.363   3.565   2.691 -0.0633  0.5434 -0.7446
 9778SOL    HW229860   6.281   3.603   2.813 -1.0021 -0.7659 -0.9513
 9779SOL     OW29861   2.595   0.507   1.411  0.0566  0.0933  0.4000
 9779SOL    HW129862   2.552   0.461   1.484  0.3931  0.4264  0.8122
 9779SOL    HW229863   2.530   0.568   1.379 -0.0683  0.0001  0.4764
 9780SOL     OW29864   6.113   5.691   0.526 -0.2611  0.4561  0.5037
 9780SOL    HW129865   6.143   5.602   0.506  1.8941  1.0465  0.8852
 9780SOL    HW229866   6.075   5.685   0.614  1.8783  0.2826  1.4706
 9781SOL     OW29867   5.716   5.233   6.369  0.1163  0.4508 -0.0771
 9781SOL    HW129868   5.758   5.285   6.437 -1.2300  1.4894  0.0075
 9781SOL    HW229869   5.632   5.276   6.354 -0.6745 -1.1828 -0.6573
 9782SOL     OW29870   3.132   6.983   1.580  0.0089  0.1660  0.2532
 9782SOL    HW129871   3.115   6.967   1.673 -3.3388  1.8774  0.0923
 9782SOL    HW229872   3.202   7.048   1.580  0.4501 -0.2662  1.5375
 9783SOL     OW29873   6.863   5.216   2.106  0.3300 -0.1603  0.3474
 9783SOL    HW129874   6.873   5.288   2.044  1.5589 -1.3799 -0.9690
 9783SOL    HW229875   6.939   5.223   2.164  0.9404 -0.8479 -0.3321
 9784SOL     OW29876   5.821   3.228   7.402 -0.1813 -0.2619  0.4742
 9784SOL    HW129877   5.880   3.166   7.445  0.2573  0.7249  1.3464
 9784SOL    HW229878   5.867   3.312   7.407 -1.4155  0.4179  0.6547
 9785SOL     OW29879   7.130   2.337   4.252 -0.0328 -0.2982  0.2092
 9785SOL    HW129880   7.145   2.430   4.266  0.2703 -0.3820  0.4408
 9785SOL    HW229881   7.035   2.329   4.243 -0.2110 -0.1688  1.7639
 9786SOL     OW29882   2.034   5.416   5.668 -0.1866 -0.0051  0.6006
 9786SOL    HW129883   2.021   5.489   5.729  0.5051 -0.2164  1.0023
 9786SOL    HW229884   2.080   5.350   5.718 -1.1338 -0.8874  0.3417
 9787SOL     OW29885   3.274   1.596   2.922 -0.6849  0.1184  0.1189
 9787SOL    HW129886   3.234   1.527   2.869  0.1812  0.7374 -1.4356
 9787SOL    HW229887   3.210   1.667   2.923 -1.2456 -0.3902  1.0403
 9788SOL     OW29888   5.864   4.035   2.566  0.1378 -0.7132 -0.4105
 9788SOL    HW129889   5.906   4.092   2.630 -0.4891 -0.0433 -0.5698
 9788SOL    HW229890   5.775   4.023   2.600  0.2246 -1.4853 -0.4539
 9789SOL     OW29891   2.465   0.184   5.754 -0.9616 -0.3313 -0.4736
 9789SOL    HW129892   2.406   0.254   5.727 -2.3678 -0.8172  1.1705
 9789SOL    HW229893   2.520   0.224   5.821 -2.4964 -0.9821  1.2756
 9790SOL     OW29894   1.636   0.331   4.858 -0.2767  0.7246  0.2343
 9790SOL    HW129895   1.660   0.412   4.903  2.3159 -0.1571  0.6185
 9790SOL    HW229896   1.589   0.281   4.925  1.9196  0.1910  1.4826
 9791SOL     OW29897   6.569   0.400   2.862  0.3290 -0.1268  0.7749
 9791SOL    HW129898   6.479   0.371   2.877  0.4921  0.1018  2.3517
 9791SOL    HW229899   6.604   0.338   2.798 -0.9022 -0.2858  0.2346
 9792SOL     OW29900   6.628   6.594   3.782  0.3698 -0.2642 -0.1090
 9792SOL    HW129901   6.639   6.636   3.867 -0.9660  0.3855 -0.2248
 9792SOL    HW229902   6.676   6.512   3.789  1.1855  0.2723  0.8877
 9793SOL     OW29903   1.148   0.361   0.124  0.1251 -0.4076 -0.1376
 9793SOL    HW129904   1.072   0.393   0.076 -0.3147 -0.6666  0.3849
 9793SOL    HW229905   1.113   0.330   0.207  0.9097  0.2384  0.4452
 9794SOL     OW29906   0.402   0.202   6.913 -0.4529 -0.0405 -0.6881
 9794SOL    HW129907   0.449   0.156   6.844  0.3048 -0.3777  0.0269
 9794SOL    HW229908   0.446   0.287   6.919 -1.3353  0.4865 -1.4648
 9795SOL     OW29909   7.545   4.238   0.300  0.0966  0.0240  0.2136
 9795SOL    HW129910   7.590   4.158   0.327  1.5481  0.1521 -1.6549
 9795SOL    HW229911   7.567   4.302   0.367  2.6073  0.0188 -0.5168
 9796SOL     OW29912   5.902   4.323   0.892 -0.3186 -0.1370  0.0712
 9796SOL    HW129913   5.972   4.295   0.833 -0.3361 -2.4982  1.0709
 9796SOL    HW229914   5.894   4.417   0.877  0.0768 -0.5344 -3.2154
 9797SOL     OW29915   6.666   7.372   0.898 -1.3344 -0.4709 -0.3102
 9797SOL    HW129916   6.717   7.292   0.894 -0.3286  0.0883  0.8252
 9797SOL    HW229917   6.678   7.405   0.987 -0.8210  1.5176 -1.0494
 9798SOL     OW29918   6.678   2.492   7.465 -0.7385 -0.1326 -0.1442
 9798SOL    HW129919   6.644   2.452   7.385 -1.9739 -0.5072  0.5334
 9798SOL    HW229920   6.605   2.488   7.527  0.5622 -0.9941  1.4255
 9799SOL     OW29921   6.658   4.144   4.503  0.1510 -0.2837  0.5187
 9799SOL    HW129922   6.733   4.158   4.447  0.0421 -0.6820  0.2716
 9799SOL    HW229923   6.663   4.214   4.568 -1.9948  2.8571 -2.3575
 9800SOL     OW29924   3.209   7.290   5.931 -0.2691  0.5824 -1.0714
 9800SOL    HW129925   3.204   7.222   5.864 -2.3484 -0.8884  0.4357
 9800SOL    HW229926   3.276   7.259   5.992 -1.7593 -0.6543  0.0395
 9801SOL     OW29927   2.206   0.449   3.908  0.0035 -0.3016 -0.0212
 9801SOL    HW129928   2.133   0.441   3.970  0.4913  0.7950  0.7205
 9801SOL    HW229929   2.197   0.536   3.870  1.2619  0.1087  0.5497
 9802SOL     OW29930   0.766   1.205   5.130  0.3113  0.7033  0.7996
 9802SOL    HW129931   0.758   1.128   5.187  0.9838 -0.1220 -0.1858
 9802SOL    HW229932   0.676   1.223   5.101  0.2340 -0.1198  0.5153
 9803SOL     OW29933   5.689   5.535   3.079 -0.2853 -0.3123  0.2071
 9803SOL    HW129934   5.733   5.618   3.094  0.8630 -0.6675 -0.9752
 9803SOL    HW229935   5.642   5.517   3.160  1.5943  0.2032  1.4757
 9804SOL     OW29936   4.740   5.562   3.625 -0.2684 -0.6558  0.6006
 9804SOL    HW129937   4.769   5.474   3.602 -1.8452 -1.2083  0.6302
 9804SOL    HW229938   4.668   5.580   3.565  0.8787  1.1688 -0.3037
 9805SOL     OW29939   3.029   4.789   6.397 -0.3360  0.5670 -0.3519
 9805SOL    HW129940   3.065   4.871   6.364 -1.0543  0.6718 -0.8980
 9805SOL    HW229941   2.939   4.811   6.423  0.6536  0.9448  3.3888
 9806SOL     OW29942   2.915   0.502   0.834  0.1360 -0.0538  0.4381
 9806SOL    HW129943   2.835   0.496   0.782  0.4725 -0.4704 -0.0488
 9806SOL    HW229944   2.915   0.423   0.888  0.6104 -0.4555 -0.1436
 9807SOL     OW29945   5.485   7.225   6.243  0.2850 -0.5265  0.1432
 9807SOL    HW129946   5.498   7.210   6.337  0.1556 -2.0796 -0.0655
 9807SOL    HW229947   5.515   7.315   6.229  4.9021 -1.7079  0.8576
 9808SOL     OW29948   1.508   1.372   4.399 -0.1993  0.1621  0.0748
 9808SOL    HW129949   1.446   1.441   4.376 -0.2047  0.1411  0.0274
 9808SOL    HW229950   1.592   1.417   4.405 -0.2927  0.2787  0.5901
 9809SOL     OW29951   7.270   0.453   3.043 -0.7301 -0.1513  0.3637
 9809SOL    HW129952   7.174   0.450   3.044 -0.7789  0.0687 -1.0701
 9809SOL    HW229953   7.295   0.457   3.135 -2.0748 -0.7904  0.7803
 9810SOL     OW29954   0.842   6.294   4.363  0.1020  0.3881  0.1955
 9810SOL    HW129955   0.866   6.335   4.446  1.0596  0.2896 -0.0198
 9810SOL    HW229956   0.892   6.212   4.362 -0.2350  0.1836 -0.2855
 9811SOL     OW29957   2.846   1.585   5.505 -0.2289 -0.6127  0.1515
 9811SOL    HW129958   2.929   1.604   5.460 -0.1942 -1.2679 -0.0704
 9811SOL    HW229959   2.811   1.671   5.527  0.9114 -0.3379  0.9854
 9812SOL     OW29960   3.814   7.081   1.086 -0.2691  0.1959  0.5111
 9812SOL    HW129961   3.862   7.045   1.012  0.5322  1.3808  0.4305
 9812SOL    HW229962   3.834   7.022   1.158  1.4620  0.7267  0.5158
 9813SOL     OW29963   5.321   4.641   1.450 -0.4117  0.1391 -0.3212
 9813SOL    HW129964   5.376   4.660   1.526  0.1851 -1.4192 -0.3237
 9813SOL    HW229965   5.239   4.687   1.467  1.1844  3.4404 -0.8095
 9814SOL     OW29966   5.467   0.752   4.137 -0.0896 -0.0341 -0.1397
 9814SOL    HW129967   5.550   0.793   4.160 -0.3621  0.1877  0.4957
 9814SOL    HW229968   5.402   0.822   4.149 -0.2151  0.2603 -2.1090
 9815SOL     OW29969   0.879   6.778   1.208 -0.3939  0.1139  0.2384
 9815SOL    HW129970   0.846   6.857   1.253 -1.4583 -0.2956  0.2110
 9815SOL    HW229971   0.935   6.812   1.139 -0.0900  0.8187  0.8180
 9816SOL     OW29972   4.238   6.890   7.134 -0.1473 -0.1991  0.0632
 9816SOL    HW129973   4.189   6.810   7.117  2.1660 -1.5849 -0.4078
 9816SOL    HW229974   4.200   6.954   7.073 -0.9216 -1.3919 -0.7615
 9817SOL     OW29975   5.551   6.243   5.168  0.5039 -0.4036  0.2718
 9817SOL    HW129976   5.620   6.283   5.220  0.4729 -0.3235  0.2513
 9817SOL    HW229977   5.592   6.166   5.128  1.3458  1.0388 -1.8227
 9818SOL     OW29978   0.565   6.164   1.755 -0.3489 -0.0419  0.0198
 9818SOL    HW129979   0.513   6.093   1.791 -2.6910  0.6623 -1.7440
 9818SOL    HW229980   0.502   6.220   1.710  1.5129  2.6712  0.5112
 9819SOL     OW29981   5.507   2.939   5.166 -0.0669 -0.2740  0.2329
 9819SOL    HW129982   5.475   3.022   5.201  0.0204 -0.0600 -0.1866
 9819SOL    HW229983   5.455   2.872   5.210  0.0771 -0.0131  0.8072
 9820SOL     OW29984   4.075   0.277   7.009  0.0724  0.2938  0.4941
 9820SOL    HW129985   4.072   0.192   6.965 -0.0641  0.1440  0.7912
 9820SOL    HW229986   4.163   0.310   6.991  0.3871 -0.2494  1.0207
 9821SOL     OW29987   1.856   2.629   6.047 -0.6346  0.0135  0.5672
 9821SOL    HW129988   1.790   2.696   6.026 -2.4169 -1.5944  0.7351
 9821SOL    HW229989   1.905   2.617   5.966 -1.3297  0.4096  0.0807
 9822SOL     OW29990   6.357   1.293   6.160  0.3245 -0.1727 -0.3151
 9822SOL    HW129991   6.286   1.324   6.105  0.8860  1.2933 -0.2421
 9822SOL    HW229992   6.419   1.252   6.099 -0.7461 -1.8874 -0.3309
 9823SOL     OW29993   1.996   0.538   4.830  0.4405 -0.1584 -0.0942
 9823SOL    HW129994   1.955   0.514   4.747  1.4288  0.1085 -0.6766
 9823SOL    HW229995   1.935   0.600   4.870  0.7815  1.1386 -1.4765
 9824SOL     OW29996   4.195   6.111   5.515  0.1270 -0.0728  0.0884
 9824SOL    HW129997   4.203   6.034   5.572 -0.5872  0.2297  0.6025
 9824SOL    HW229998   4.280   6.155   5.523  0.2629 -0.3900  0.4067
 9825SOL     OW29999   7.363   1.975   3.776  0.3167 -0.0271  0.1482
 9825SOL    HW130000   7.281   1.981   3.726  0.5847  0.3742 -0.2517
 9825SOL    HW230001   7.372   1.881   3.796  0.1320 -0.1735 -0.4343
 9826SOL     OW30002   4.114   2.389   6.785  0.3190  0.0597  0.0865
 9826SOL    HW130003   4.083   2.301   6.764 -2.4326  0.5206  1.7661
 9826SOL    HW230004   4.166   2.378   6.865 -0.7074  0.0237  0.7652
 9827SOL     OW30005   2.175   6.560   1.336  0.0920  0.0484  0.1640
 9827SOL    HW130006   2.249   6.523   1.288  0.4987  1.7366 -0.5743
 9827SOL    HW230007   2.099   6.513   1.301  0.5706 -0.0188 -0.8318
 9828SOL     OW30008   5.184   3.959   0.320 -0.1823 -0.2030 -0.1808
 9828SOL    HW130009   5.189   4.017   0.244  2.1881  1.0389  0.7941
 9828SOL    HW230010   5.170   4.018   0.395  0.1788 -1.1064  0.6240
 9829SOL     OW30011   2.153   0.174   3.066 -0.8330  0.0766  0.0677
 9829SOL    HW130012   2.233   0.224   3.050  0.4979 -1.9042  0.1324
 9829SOL    HW230013   2.106   0.177   2.983 -1.4640  2.4670  0.4416
 9830SOL     OW30014   1.045   4.720   3.028 -0.2883 -0.5358  0.0462
 9830SOL    HW130015   1.049   4.625   3.015 -1.2908 -0.5417 -0.3265
 9830SOL    HW230016   0.954   4.743   3.005 -0.2686  0.3991  0.8724
 9831SOL     OW30017   0.878   7.063   1.212 -0.1260 -0.4299  0.5370
 9831SOL    HW130018   0.941   7.076   1.140 -1.4595 -0.1609 -0.6243
 9831SOL    HW230019   0.912   7.116   1.283  1.2814 -0.7559  0.1423
 9832SOL     OW30020   4.423   1.139   5.217 -0.2040 -0.3928 -0.1294
 9832SOL    HW130021   4.337   1.101   5.235 -0.4204  0.1527  0.0122
 9832SOL    HW230022   4.446   1.186   5.297 -0.2585  0.3648 -0.5541
 9833SOL     OW30023   5.734   5.361   3.886  0.0110 -0.6340 -0.0870
 9833SOL    HW130024   5.700   5.442   3.847 -1.3372 -1.1944 -0.1585
 9833SOL    HW230025   5.730   5.297   3.814  0.7228 -0.8583  0.0654
 9834SOL     OW30026   2.524   0.520   6.525 -0.4574 -0.0842 -0.9395
 9834SOL    HW130027   2.454   0.546   6.585 -1.2090 -0.1200 -1.7711
 9834SOL    HW230028   2.592   0.483   6.581 -0.3761  1.4800  0.0525
 9835SOL     OW30029   2.203   1.729   3.663 -0.1395 -1.4497  0.0446
 9835SOL    HW130030   2.217   1.781   3.584  0.0418 -0.7921  0.4968
 9835SOL    HW230031   2.108   1.718   3.668 -0.4212  0.8545  1.1681
 9836SOL     OW30032   1.661   7.065   3.755  0.1934 -0.2644  0.5699
 9836SOL    HW130033   1.662   7.076   3.660 -0.0832 -1.1736  0.4540
 9836SOL    HW230034   1.752   7.051   3.779  0.1899 -0.6612  0.3563
 9837SOL     OW30035   5.450   3.195   5.220  0.0289  0.5817  0.0708
 9837SOL    HW130036   5.386   3.232   5.281 -0.6508  1.2764 -1.0205
 9837SOL    HW230037   5.436   3.244   5.139  1.4297  0.2092 -0.4204
 9838SOL     OW30038   2.866   5.653   1.707 -0.2302 -0.2136 -0.3700
 9838SOL    HW130039   2.771   5.645   1.717 -0.1883 -0.3822 -0.0919
 9838SOL    HW230040   2.879   5.674   1.615 -0.5240 -0.4081 -0.4555
 9839SOL     OW30041   6.754   5.369   2.707  0.4486 -0.5099 -0.2164
 9839SOL    HW130042   6.815   5.367   2.633  0.2003 -1.2668 -0.4133
 9839SOL    HW230043   6.743   5.462   2.727  0.7776 -0.3158 -0.9169
 9840SOL     OW30044   5.417   6.820   7.069  0.4541  0.7008  0.3350
 9840SOL    HW130045   5.502   6.779   7.083  1.0322  1.6609 -0.2365
 9840SOL    HW230046   5.376   6.820   7.156  1.1317  0.4367  0.6611
 9841SOL     OW30047   5.780   4.506   4.074 -0.2693 -0.2544 -0.0040
 9841SOL    HW130048   5.824   4.434   4.118 -0.8198  0.3490  1.5989
 9841SOL    HW230049   5.739   4.556   4.145  1.6763  2.7451 -0.8251
 9842SOL     OW30050   1.777   5.620   4.162  0.0517 -0.0553  0.2691
 9842SOL    HW130051   1.778   5.704   4.208  0.9261  1.0073 -1.5771
 9842SOL    HW230052   1.698   5.623   4.108 -0.5143 -0.9290  1.0174
 9843SOL     OW30053   4.987   4.328   4.824 -0.0107 -0.0493 -0.5216
 9843SOL    HW130054   4.945   4.414   4.833 -0.9099 -0.5923  0.9354
 9843SOL    HW230055   4.943   4.288   4.749 -1.2718 -0.1134  0.2090
 9844SOL     OW30056   7.526   6.947   2.444 -0.0406  0.7157  0.2274
 9844SOL    HW130057   7.494   7.035   2.462  0.2048  1.0212 -0.8049
 9844SOL    HW230058   7.605   6.939   2.497  1.7378  2.2842 -2.0069
 9845SOL     OW30059   1.134   2.886   7.374 -0.4525 -0.1566  0.7027
 9845SOL    HW130060   1.227   2.864   7.367 -1.1352 -3.0432 -1.2496
 9845SOL    HW230061   1.106   2.846   7.456 -0.1838 -0.1489  0.7998
 9846SOL     OW30062   6.902   0.508   4.887 -0.1553  1.0297  0.6256
 9846SOL    HW130063   6.809   0.525   4.875 -0.1582 -0.3250 -1.8590
 9846SOL    HW230064   6.906   0.428   4.940 -0.4087  0.8383  0.3538
 9847SOL     OW30065   1.648   4.399   1.762  0.0758  0.3816 -0.6584
 9847SOL    HW130066   1.710   4.431   1.697  0.7521 -0.7837 -0.6333
 9847SOL    HW230067   1.585   4.347   1.712 -0.4065  0.9004 -0.5877
 9848SOL     OW30068   5.810   3.036   0.925 -0.4137  0.5986  0.9921
 9848SOL    HW130069   5.781   3.025   1.015 -1.9660 -2.2750  0.2540
 9848SOL    HW230070   5.864   2.959   0.907  0.8678  1.7225 -0.2208
 9849SOL     OW30071   5.961   0.727   0.227  0.6400 -0.2407 -0.2397
 9849SOL    HW130072   5.901   0.801   0.236  0.7938 -0.2378  0.9236
 9849SOL    HW230073   5.943   0.692   0.140 -1.1918 -0.3472  0.1391
 9850SOL     OW30074   3.412   2.854   2.875 -0.2774 -0.0074 -0.1245
 9850SOL    HW130075   3.413   2.758   2.875 -1.6745 -0.0609 -1.0283
 9850SOL    HW230076   3.502   2.878   2.852  1.0657 -0.9640  3.5428
 9851SOL     OW30077   1.671   0.597   0.282  0.2621  0.4643  0.7803
 9851SOL    HW130078   1.718   0.616   0.201 -0.9043  0.6636  0.1340
 9851SOL    HW230079   1.739   0.594   0.349  1.2493  0.2872 -0.2030
 9852SOL     OW30080   4.429   6.190   0.323 -0.0311  0.5107  0.2996
 9852SOL    HW130081   4.470   6.233   0.398  0.7554  0.3925 -0.0597
 9852SOL    HW230082   4.499   6.139   0.283 -0.2725  1.1253 -0.9297
 9853SOL     OW30083   3.350   5.137   7.465 -0.2889 -0.5066 -0.5201
 9853SOL    HW130084   3.402   5.176   7.394  0.4642 -0.9785 -0.2369
 9853SOL    HW230085   3.319   5.053   7.429 -1.1308 -0.0889 -0.7983
 9854SOL     OW30086   1.486   2.647   2.860  0.0553  0.6858  0.1845
 9854SOL    HW130087   1.396   2.672   2.841 -0.0203  0.5039  0.3072
 9854SOL    HW230088   1.539   2.701   2.800 -0.2736 -1.3115 -2.0657
 9855SOL     OW30089   1.729   1.333   2.439 -0.0701  0.4137 -0.4641
 9855SOL    HW130090   1.696   1.379   2.362 -1.9568 -2.1205 -1.2927
 9855SOL    HW230091   1.793   1.271   2.405  0.6991  0.7364  0.3314
 9856SOL     OW30092   3.263   4.920   3.085 -0.5983 -0.9102 -0.3517
 9856SOL    HW130093   3.250   4.830   3.054 -2.0154 -0.5498 -0.8461
 9856SOL    HW230094   3.177   4.961   3.076  0.0948  0.5774 -0.3707
 9857SOL     OW30095   3.190   2.194   6.273 -0.1801 -0.0012 -0.4158
 9857SOL    HW130096   3.246   2.118   6.258  0.8625  0.5437  0.5008
 9857SOL    HW230097   3.130   2.166   6.342 -2.4700 -1.2585 -2.7688
 9858SOL     OW30098   6.428   0.075   6.411  0.4671  0.4059 -0.5379
 9858SOL    HW130099   6.408   0.006   6.348 -0.7561  1.2110 -1.0702
 9858SOL    HW230100   6.346   0.124   6.421  0.4891  0.1107  1.9527
 9859SOL     OW30101   6.698   3.170   2.187 -0.4592  0.2310 -0.0211
 9859SOL    HW130102   6.686   3.075   2.197  1.6712 -0.0861 -0.0907
 9859SOL    HW230103   6.650   3.208   2.260  1.0484 -1.1041  1.7613
 9860SOL     OW30104   0.952   1.449   1.616 -0.3563 -0.0431 -0.1769
 9860SOL    HW130105   0.958   1.406   1.531 -0.6429 -1.3263  0.4317
 9860SOL    HW230106   0.860   1.475   1.623 -1.0572 -2.5508  0.9280
 9861SOL     OW30107   7.347   5.201   4.114 -0.6789  0.2503 -0.4653
 9861SOL    HW130108   7.254   5.182   4.099 -1.5205  2.5943  1.1940
 9861SOL    HW230109   7.350   5.240   4.201  1.8127  0.7779 -0.7125
 9862SOL     OW30110   2.950   0.207   0.384  0.3626 -0.1903 -0.6045
 9862SOL    HW130111   2.900   0.269   0.330  0.4190  0.4853  0.1087
 9862SOL    HW230112   2.901   0.125   0.377  0.4607 -0.1603 -1.8114
 9863SOL     OW30113   3.654   0.742   4.775  0.4663 -0.1559 -0.1058
 9863SOL    HW130114   3.662   0.837   4.773  0.4283 -0.1535 -0.1568
 9863SOL    HW230115   3.715   0.714   4.843  0.2606 -0.0739  0.1125
 9864SOL     OW30116   5.350   6.365   3.704  0.0262 -0.6490 -0.3887
 9864SOL    HW130117   5.332   6.272   3.698 -0.0825 -0.9145  2.7778
 9864SOL    HW230118   5.357   6.383   3.797  2.1602  2.1262 -0.9411
 9865SOL     OW30119   7.412   2.297   0.846 -0.0753 -0.7721  0.1592
 9865SOL    HW130120   7.468   2.313   0.769 -1.6687  2.3179 -0.5311
 9865SOL    HW230121   7.364   2.217   0.825  2.7563 -2.5881  0.0598
 9866SOL     OW30122   6.880   0.072   4.835  0.4267 -0.5318 -0.4815
 9866SOL    HW130123   6.851   0.157   4.866 -4.9600 -2.4738  0.9760
 9866SOL    HW230124   6.891   0.083   4.741 -3.5018  1.3066 -0.9571
 9867SOL     OW30125   4.299   7.493   3.469 -0.1167  0.3770  0.4629
 9867SOL    HW130126   4.270   7.567   3.416  2.6348  0.5300 -0.9875
 9867SOL    HW230127   4.265   7.416   3.423 -1.3283  0.6315  0.8945
 9868SOL     OW30128   2.612   6.648   2.125  0.1796  0.3248 -0.0185
 9868SOL    HW130129   2.566   6.727   2.154  0.7972  0.4001  0.7852
 9868SOL    HW230130   2.674   6.680   2.059 -0.5776  0.2896 -0.7626
 9869SOL     OW30131   1.755   2.656   7.379  0.5319 -0.3088  0.6047
 9869SOL    HW130132   1.753   2.572   7.334  0.0196  0.1531 -0.2595
 9869SOL    HW230133   1.848   2.678   7.384  0.5881 -0.2508 -0.4809
 9870SOL     OW30134   0.344   3.727   3.066 -0.4426 -0.1314  0.1366
 9870SOL    HW130135   0.280   3.655   3.065 -1.5201  0.7787  0.7237
 9870SOL    HW230136   0.426   3.686   3.093 -1.2311 -1.0080  1.3396
 9871SOL     OW30137   5.083   7.327   0.181  0.3824  0.1622  0.2716
 9871SOL    HW130138   5.158   7.382   0.203 -1.2835  1.7324  2.3735
 9871SOL    HW230139   5.044   7.369   0.104  1.2402 -0.2941 -0.4317
 9872SOL     OW30140   2.880   2.218   1.628  0.2931 -0.0272 -0.3181
 9872SOL    HW130141   2.946   2.161   1.589  0.8701  0.8321 -0.6331
 9872SOL    HW230142   2.809   2.220   1.565  0.1866 -0.5527 -0.2143
 9873SOL     OW30143   7.423   6.579   4.920 -0.0214 -0.4729  0.0399
 9873SOL    HW130144   7.459   6.493   4.943 -1.2524 -0.4937  2.1966
 9873SOL    HW230145   7.333   6.576   4.953 -1.4259  0.2804 -3.2889
 9874SOL     OW30146   2.218   2.284   5.992  0.1389  0.6232  0.7557
 9874SOL    HW130147   2.259   2.359   5.949  0.8968 -0.0951  0.1835
 9874SOL    HW230148   2.215   2.216   5.925  1.2142 -0.4834  1.7649
 9875SOL     OW30149   3.039   5.556   7.322  0.5561  0.5967  0.1187
 9875SOL    HW130150   2.950   5.588   7.336  0.4976  1.2455 -1.4620
 9875SOL    HW230151   3.038   5.466   7.355 -0.7018  0.5780  0.0787
 9876SOL     OW30152   4.080   6.414   1.764 -0.5799 -0.0899 -0.7501
 9876SOL    HW130153   4.176   6.407   1.760 -0.7065 -1.5487 -2.1544
 9876SOL    HW230154   4.064   6.491   1.819  1.4027  0.5279 -0.9608
 9877SOL     OW30155   0.317   6.811   6.917  0.1424  0.1402 -0.0279
 9877SOL    HW130156   0.373   6.868   6.969  0.0451 -0.7901  1.1432
 9877SOL    HW230157   0.312   6.853   6.831 -0.1471  2.0076  0.8593
 9878SOL     OW30158   2.273   1.642   2.139  0.4825  0.8058  0.3187
 9878SOL    HW130159   2.177   1.644   2.146  0.5466 -0.4193  2.4759
 9878SOL    HW230160   2.291   1.672   2.050 -1.9182  0.6813 -0.2888
 9879SOL     OW30161   1.565   1.665   4.844  0.5437  0.2770  0.5984
 9879SOL    HW130162   1.501   1.593   4.838  0.1521  0.6912 -0.3645
 9879SOL    HW230163   1.650   1.622   4.846  0.3139 -0.2232 -0.0346
 9880SOL     OW30164   5.719   7.333   2.665 -0.1912  0.2647 -0.0675
 9880SOL    HW130165   5.761   7.247   2.657  0.3932  0.1159  3.2316
 9880SOL    HW230166   5.782   7.386   2.714 -1.5497  1.8414  0.0645
 9881SOL     OW30167   0.219   6.846   2.872  0.2508 -0.9825  0.8534
 9881SOL    HW130168   0.307   6.811   2.861 -0.0607 -1.4127 -0.4356
 9881SOL    HW230169   0.166   6.770   2.895 -0.3213 -1.3251 -1.3825
 9882SOL     OW30170   5.391   2.988   4.537  0.0254 -0.3610 -0.5120
 9882SOL    HW130171   5.449   2.930   4.586  0.0503  0.7264  0.7892
 9882SOL    HW230172   5.425   2.986   4.448  1.3640 -0.6406 -0.0211
 9883SOL     OW30173   0.698   2.780   0.625  0.0570 -0.0282  0.4335
 9883SOL    HW130174   0.690   2.833   0.705 -0.9212  1.6174 -0.6791
 9883SOL    HW230175   0.614   2.793   0.580  0.6866 -0.6997 -0.9945
 9884SOL     OW30176   0.773   4.216   1.197  0.2014 -0.3745 -0.4675
 9884SOL    HW130177   0.763   4.203   1.292  1.2624  0.5188 -0.2183
 9884SOL    HW230178   0.735   4.303   1.182 -0.7299 -0.8622 -1.0162
 9885SOL     OW30179   3.689   4.316   5.029 -0.3789  0.5106 -0.3857
 9885SOL    HW130180   3.699   4.388   5.091 -0.4529 -0.3110  0.6095
 9885SOL    HW230181   3.758   4.330   4.964  0.1273  1.0220  0.2490
 9886SOL     OW30182   0.184   4.352   0.111 -0.3461  0.3410  0.2639
 9886SOL    HW130183   0.120   4.423   0.109 -2.0569 -1.0749 -2.5521
 9886SOL    HW230184   0.138   4.280   0.154  0.2836  0.0491  0.4592
 9887SOL     OW30185   0.008   3.468   1.145  0.1794 -0.1592 -0.0123
 9887SOL    HW130186   0.056   3.397   1.188 -0.0586  0.9147  2.1388
 9887SOL    HW230187   0.038   3.465   1.054  1.7709 -1.6393  0.5051
 9888SOL     OW30188   3.525   2.487   1.084  0.3261 -0.3676  0.0628
 9888SOL    HW130189   3.504   2.581   1.088  0.7911 -0.2733  0.4095
 9888SOL    HW230190   3.601   2.482   1.025  1.0687 -0.3792  0.9971
 9889SOL     OW30191   1.055   0.111   1.131 -0.7912  0.5730 -0.7184
 9889SOL    HW130192   1.027   0.052   1.062 -0.0574 -0.4861 -0.1358
 9889SOL    HW230193   1.149   0.124   1.116 -0.6162  0.3032  0.0865
 9890SOL     OW30194   6.091   7.027   4.663  0.2535  0.1278  0.0821
 9890SOL    HW130195   6.174   7.074   4.649 -0.0262  0.1438 -1.7097
 9890SOL    HW230196   6.092   6.957   4.598 -0.8000 -0.3711  0.5809
 9891SOL     OW30197   7.500   1.721   4.333  0.2137  0.2171  0.4330
 9891SOL    HW130198   7.529   1.686   4.417 -0.9228 -0.3637  0.6074
 9891SOL    HW230199   7.404   1.713   4.336  0.0571  1.6088 -0.2950
 9892SOL     OW30200   5.217   3.762   4.334 -0.2379  0.1764 -0.0511
 9892SOL    HW130201   5.138   3.794   4.377 -0.8026 -0.9593 -0.2230
 9892SOL    HW230202   5.284   3.828   4.356 -1.5916  2.0880 -1.3330
 9893SOL     OW30203   4.947   1.532   5.449 -0.5256  0.3239  0.0364
 9893SOL    HW130204   4.958   1.624   5.470 -3.5473  0.4201  1.7533
 9893SOL    HW230205   4.932   1.531   5.354 -2.1750  1.8595  0.2304
 9894SOL     OW30206   7.430   6.553   1.172  0.7611  0.3064  0.2768
 9894SOL    HW130207   7.384   6.632   1.199  0.6493  0.1983  0.4032
 9894SOL    HW230208   7.370   6.509   1.113  0.4794 -0.1035  0.8604
 9895SOL     OW30209   3.767   1.461   2.143 -0.0763  0.0114  0.6320
 9895SOL    HW130210   3.778   1.413   2.225  2.1785  1.0172  0.9905
 9895SOL    HW230211   3.795   1.400   2.075  2.5490  0.6191  1.0669
 9896SOL     OW30212   6.849   1.737   3.730 -0.5188 -0.0074 -0.5969
 9896SOL    HW130213   6.881   1.649   3.751  2.0899  1.1854  0.8954
 9896SOL    HW230214   6.783   1.756   3.797  0.5187 -0.0268  0.4510
 9897SOL     OW30215   6.607   7.075   2.125  0.3711  0.0880 -0.5193
 9897SOL    HW130216   6.568   7.160   2.143 -0.7177 -0.2532 -1.2194
 9897SOL    HW230217   6.644   7.083   2.037 -0.9122 -0.5500 -1.1434
 9898SOL     OW30218   3.407   1.867   7.063 -0.3686 -0.1533  0.2269
 9898SOL    HW130219   3.480   1.928   7.063 -0.3706 -0.1253 -1.0971
 9898SOL    HW230220   3.338   1.912   7.111 -0.2260  0.7225 -0.3623
 9899SOL     OW30221   4.871   4.872   7.273 -0.2161 -0.1782 -0.0784
 9899SOL    HW130222   4.938   4.870   7.205 -0.9364  1.1774 -0.8551
 9899SOL    HW230223   4.904   4.935   7.337 -0.1897 -0.4106  0.1371
 9900SOL     OW30224   1.850   4.307   4.152 -0.2168  0.6647  0.3292
 9900SOL    HW130225   1.941   4.279   4.162 -0.6381 -1.7754 -1.6327
 9900SOL    HW230226   1.850   4.361   4.073 -0.5437  0.0381 -0.1132
 9901SOL     OW30227   6.350   1.866   2.723 -0.6511  0.1897 -0.3179
 9901SOL    HW130228   6.351   1.929   2.651 -0.3309 -1.2023 -1.5771
 9901SOL    HW230229   6.409   1.796   2.695 -0.7544 -0.5271  1.1655
 9902SOL     OW30230   0.521   7.491   5.730 -0.0014 -0.0640 -0.2346
 9902SOL    HW130231   0.578   7.542   5.673 -0.6185  0.4566 -0.3936
 9902SOL    HW230232   0.577   7.419   5.761  0.9838  0.8817  0.2733
 9903SOL     OW30233   3.930   5.173   7.446 -0.0130 -0.1740  0.1177
 9903SOL    HW130234   3.932   5.108   7.376 -0.5723  0.4799 -0.5228
 9903SOL    HW230235   4.013   5.161   7.493  0.9638  0.2226 -1.4449
 9904SOL     OW30236   4.951   3.567   2.261  0.0798  0.1091  0.4016
 9904SOL    HW130237   5.025   3.610   2.218 -0.3072 -1.2071 -1.7256
 9904SOL    HW230238   4.992   3.498   2.314  0.4311 -0.8499 -1.0448
 9905SOL     OW30239   7.447   2.418   3.023 -0.0424 -0.5787 -0.4074
 9905SOL    HW130240   7.462   2.323   3.029  0.1046 -0.4998  0.5512
 9905SOL    HW230241   7.476   2.453   3.107 -0.3144  0.2976 -0.6639
 9906SOL     OW30242   3.614   1.525   7.268 -0.0169 -0.0388 -0.1377
 9906SOL    HW130243   3.550   1.455   7.281  1.1245 -1.0828  0.0780
 9906SOL    HW230244   3.562   1.605   7.269 -1.3303 -0.8517 -0.0942
 9907SOL     OW30245   6.073   1.332   3.270  0.3765  0.2824  0.1888
 9907SOL    HW130246   6.011   1.379   3.214 -0.4665 -0.0736  0.8143
 9907SOL    HW230247   6.048   1.356   3.359  1.6567  0.7685  0.4399
 9908SOL     OW30248   0.815   4.000   3.809 -0.2052  0.5463 -0.3265
 9908SOL    HW130249   0.827   4.028   3.718 -2.1557  2.2556 -0.1159
 9908SOL    HW230250   0.879   4.051   3.858 -0.0396  0.5837 -0.5792
 9909SOL     OW30251   3.051   6.256   6.668 -0.2791 -0.0048 -0.2528
 9909SOL    HW130252   3.037   6.247   6.574  0.4579  1.9142 -0.5878
 9909SOL    HW230253   2.997   6.187   6.707 -1.7483  0.0895 -2.0022
 9910SOL     OW30254   2.935   1.992   4.082 -0.3496 -0.3276  0.0944
 9910SOL    HW130255   2.850   1.949   4.093 -0.1842 -1.0541 -1.1875
 9910SOL    HW230256   2.992   1.923   4.046  0.8025  0.1306  0.9670
 9911SOL     OW30257   3.424   2.892   4.330 -0.0408 -0.0529  0.4082
 9911SOL    HW130258   3.395   2.936   4.250 -0.0690 -1.0208 -0.1292
 9911SOL    HW230259   3.361   2.919   4.396 -0.1366  0.5940  0.0628
 9912SOL     OW30260   6.157   1.443   7.387  0.0867  0.1986 -0.2665
 9912SOL    HW130261   6.178   1.377   7.453  0.2603  1.8015  1.3744
 9912SOL    HW230262   6.240   1.461   7.342 -0.0218 -0.8651 -0.9189
 9913SOL     OW30263   1.731   6.779   4.172 -0.3287  0.0304 -0.1495
 9913SOL    HW130264   1.733   6.753   4.264  0.0728 -0.1727 -0.2114
 9913SOL    HW230265   1.713   6.873   4.173  1.6166  0.4408  0.2325
 9914SOL     OW30266   7.506   0.503   0.051  0.1298  0.9383 -0.4415
 9914SOL    HW130267   7.541   0.441  -0.013 -1.1218  0.2078 -0.4648
 9914SOL    HW230268   7.473   0.576  -0.002 -0.0703  0.7570 -0.5708
 9915SOL     OW30269   6.077   6.199   4.383  0.3227  0.2752  0.0236
 9915SOL    HW130270   6.166   6.167   4.367  0.2592  1.0213 -2.1194
 9915SOL    HW230271   6.090   6.288   4.415  0.3566  1.0587 -2.0585
 9916SOL     OW30272   3.681   7.493   1.132  0.1259 -0.2989 -0.1372
 9916SOL    HW130273   3.670   7.484   1.227  0.4850  3.2558  0.3857
 9916SOL    HW230274   3.602   7.455   1.095 -0.1940 -1.4559  1.5965
 9917SOL     OW30275   5.234   7.120   6.066  0.2016 -0.2564  0.0205
 9917SOL    HW130276   5.281   7.173   6.130 -0.2265  0.3607 -0.1663
 9917SOL    HW230277   5.242   7.169   5.984  0.8142 -1.0763 -0.4202
 9918SOL     OW30278   0.337   1.391   3.596  0.7229  0.1920  0.5200
 9918SOL    HW130279   0.291   1.431   3.670  0.2972  0.0899  0.3161
 9918SOL    HW230280   0.375   1.465   3.549 -2.0490  0.6637 -1.2040
 9919SOL     OW30281   3.230   0.313   6.023  0.4185  0.2439  0.8067
 9919SOL    HW130282   3.255   0.392   6.071  1.4565  1.6904 -1.8763
 9919SOL    HW230283   3.287   0.244   6.057  3.2038  1.8718 -0.2641
 9920SOL     OW30284   4.339   1.610   4.443  0.2658 -0.5072  0.2410
 9920SOL    HW130285   4.260   1.660   4.426 -0.9132 -1.3948  2.5733
 9920SOL    HW230286   4.380   1.599   4.358 -1.2309  1.4118 -0.8020
 9921SOL     OW30287   6.746   2.540   0.537  0.2163 -0.1679 -0.5016
 9921SOL    HW130288   6.663   2.494   0.531  0.3508 -0.6876  1.0842
 9921SOL    HW230289   6.763   2.572   0.448  0.1769 -3.2595 -1.7611
 9922SOL     OW30290   1.668   2.146   4.461 -0.0196 -0.4284  0.1937
 9922SOL    HW130291   1.709   2.226   4.428  0.3827 -0.5950  0.2845
 9922SOL    HW230292   1.701   2.077   4.404  0.1999 -0.6319  0.5613
 9923SOL     OW30293   4.317   3.731   5.700 -0.0523 -0.5099  0.2106
 9923SOL    HW130294   4.285   3.678   5.774  1.3673 -0.7097  0.7018
 9923SOL    HW230295   4.333   3.667   5.630 -0.4635 -0.4408  0.0498
 9924SOL     OW30296   3.028   1.871   4.829 -0.1307 -0.0921  0.3407
 9924SOL    HW130297   3.049   1.820   4.907  0.7011 -1.1227 -0.5299
 9924SOL    HW230298   2.988   1.809   4.768  0.3505  0.4096 -0.5199
 9925SOL     OW30299   2.353   0.101   1.294 -0.0388 -0.1852 -0.3669
 9925SOL    HW130300   2.440   0.115   1.255  0.4711  1.0539  1.1098
 9925SOL    HW230301   2.310   0.186   1.287  0.1591  0.1650  1.8868
 9926SOL     OW30302   2.357   5.896   1.405  0.1167  0.2890 -0.2497
 9926SOL    HW130303   2.416   5.908   1.330  0.5732  4.0161  0.4692
 9926SOL    HW230304   2.404   5.837   1.464  0.2428 -1.8092 -2.3177
 9927SOL     OW30305   1.356   4.346   6.960  0.2735  0.2796  0.6609
 9927SOL    HW130306   1.379   4.268   6.909 -0.3332  1.1233 -0.9803
 9927SOL    HW230307   1.313   4.311   7.038  0.8748 -1.0560  0.4201
 9928SOL     OW30308   3.070   3.790   2.867  0.2826 -0.2199  0.5973
 9928SOL    HW130309   3.165   3.777   2.870  0.4633  1.1519  1.6578
 9928SOL    HW230310   3.038   3.761   2.952 -0.2012 -0.2201  0.4240
 9929SOL     OW30311   3.910   6.444   3.795  0.1728 -0.1504  0.2058
 9929SOL    HW130312   3.910   6.350   3.778  0.8880  0.2561 -2.5221
 9929SOL    HW230313   3.836   6.458   3.854 -0.2009 -2.3756  0.3283
 9930SOL     OW30314   4.939   1.277   2.208  0.5023  0.0953 -0.2993
 9930SOL    HW130315   4.893   1.255   2.127  1.3948 -1.0514 -0.5162
 9930SOL    HW230316   4.976   1.195   2.238  0.2328  0.5172  1.2688
 9931SOL     OW30317   5.616   4.149   3.297 -0.1808  0.0498  0.0202
 9931SOL    HW130318   5.661   4.179   3.376  0.3032 -0.4042 -0.0811
 9931SOL    HW230319   5.557   4.080   3.327 -0.9081  0.7125  0.1693
 9932SOL     OW30320   2.925   3.086   7.065  0.5218  1.1406  0.3022
 9932SOL    HW130321   3.015   3.063   7.088  0.2681  1.5857  1.8681
 9932SOL    HW230322   2.875   3.067   7.145 -0.7130  1.2471 -0.4257
 9933SOL     OW30323   5.416   6.118   0.790 -0.6141  0.0933  0.4779
 9933SOL    HW130324   5.388   6.044   0.844 -2.1096  0.9178  0.9103
 9933SOL    HW230325   5.496   6.088   0.747 -2.0468 -2.3735 -0.6588
 9934SOL     OW30326   6.672   2.615   1.069 -0.3078  0.5446 -0.4177
 9934SOL    HW130327   6.602   2.681   1.070 -0.1043  0.7686  1.0917
 9934SOL    HW230328   6.630   2.535   1.102  0.2613  0.8487  1.1408
 9935SOL     OW30329   2.314   7.198   3.863 -0.4454 -0.1594  0.1991
 9935SOL    HW130330   2.257   7.156   3.927 -2.0835 -1.1289 -1.7910
 9935SOL    HW230331   2.364   7.126   3.824 -0.2356  0.2565 -0.3194
 9936SOL     OW30332   0.885   1.510   3.697  0.6745 -0.3671 -0.0332
 9936SOL    HW130333   0.904   1.526   3.605  2.3738 -1.3332  0.0986
 9936SOL    HW230334   0.971   1.510   3.740  0.1275 -1.9153  1.1919
 9937SOL     OW30335   6.364   4.532   1.051  0.0806  0.0825  0.2642
 9937SOL    HW130336   6.409   4.591   0.991  0.6480 -0.5144  0.0914
 9937SOL    HW230337   6.419   4.454   1.053  0.9330  0.6568  2.7997
 9938SOL     OW30338   7.533   1.854   6.251 -0.7713  0.2254 -0.0016
 9938SOL    HW130339   7.558   1.943   6.276  0.1614 -0.1457  0.4416
 9938SOL    HW230340   7.527   1.856   6.156  1.0515  0.3287 -0.1475
 9939SOL     OW30341   7.418   0.387   1.586  0.3242  0.2504  0.1514
 9939SOL    HW130342   7.334   0.390   1.540  0.6479  0.5223 -0.4250
 9939SOL    HW230343   7.484   0.387   1.517  0.8364  1.2783  0.6120
 9940SOL     OW30344   5.605   4.076   2.731 -0.1855  0.2356  0.1199
 9940SOL    HW130345   5.656   4.111   2.804 -0.5477 -0.5125  0.7507
 9940SOL    HW230346   5.590   3.985   2.754 -1.7375  0.4169 -0.0771
 9941SOL     OW30347   2.224   7.240   1.010 -0.4701  0.5264 -0.2217
 9941SOL    HW130348   2.287   7.299   0.970 -0.5016 -1.0152 -2.7272
 9941SOL    HW230349   2.259   7.153   0.996 -1.7100 -0.2236  1.0311
 9942SOL     OW30350   6.023   6.834   3.629 -0.0858  0.4480 -0.2727
 9942SOL    HW130351   6.067   6.769   3.574  0.1897  0.2570  0.1639
 9942SOL    HW230352   5.930   6.825   3.609  0.0656  0.7862 -1.1390
 9943SOL     OW30353   5.242   6.545   5.706  0.8264  0.1740 -0.1436
 9943SOL    HW130354   5.200   6.459   5.711  2.9404 -0.8670  3.8083
 9943SOL    HW230355   5.332   6.527   5.679  1.0481  1.2823 -0.2100
 9944SOL     OW30356   5.757   0.537   4.601 -0.1704  0.4322 -0.0782
 9944SOL    HW130357   5.790   0.473   4.537 -0.7635  0.4152 -0.3706
 9944SOL    HW230358   5.836   0.580   4.633  0.3382 -1.0605  0.7880
 9945SOL     OW30359   4.143   3.737   0.039 -0.4066 -0.0806 -0.3089
 9945SOL    HW130360   4.104   3.769   0.121  0.5165  2.3309 -0.7146
 9945SOL    HW230361   4.106   3.793  -0.029  1.2671  0.1515 -1.0906
 9946SOL     OW30362   6.483   4.280   2.240  0.7016  0.9974 -0.3413
 9946SOL    HW130363   6.487   4.301   2.334  0.4604  1.5737 -0.4555
 9946SOL    HW230364   6.574   4.263   2.216  0.4721 -2.1600  0.6453
 9947SOL     OW30365   0.346   0.677   1.146 -0.2050 -0.0738 -0.2522
 9947SOL    HW130366   0.257   0.683   1.179 -0.0406 -0.4045  0.2557
 9947SOL    HW230367   0.365   0.583   1.143 -0.7285 -0.1739 -2.6810
 9948SOL     OW30368   0.668   3.908   2.471 -0.2025  0.1746  0.5015
 9948SOL    HW130369   0.653   3.821   2.508  0.5907  0.3856  1.3642
 9948SOL    HW230370   0.617   3.967   2.526  0.7956  0.4639  1.1501
 9949SOL     OW30371   1.257   7.106   2.160  0.1378 -0.1735 -0.1017
 9949SOL    HW130372   1.208   7.024   2.156  0.9557 -0.9707  3.3279
 9949SOL    HW230373   1.348   7.081   2.140  0.5196 -0.3056  1.6735
 9950SOL     OW30374   7.447   1.860   0.144  0.4464 -0.3099 -1.4533
 9950SOL    HW130375   7.382   1.853   0.214  1.5839 -2.5009 -0.5342
 9950SOL    HW230376   7.400   1.905   0.073 -1.0387  1.1091  0.3122
 9951SOL     OW30377   0.243   1.529   3.814  0.0116  0.0254  0.0405
 9951SOL    HW130378   0.175   1.496   3.872 -0.7574  0.0482 -0.8384
 9951SOL    HW230379   0.320   1.538   3.871 -0.9445  0.8458  1.2401
 9952SOL     OW30380   2.466   6.920   6.407 -0.1165  0.2094 -0.3252
 9952SOL    HW130381   2.421   6.997   6.374 -0.2054  0.3420  0.1014
 9952SOL    HW230382   2.500   6.946   6.493 -1.2380 -0.6100  0.3954
 9953SOL     OW30383   7.199   5.930   0.810  0.1755  0.0889 -0.5846
 9953SOL    HW130384   7.256   5.955   0.882 -0.1176  0.1632 -0.3771
 9953SOL    HW230385   7.247   5.861   0.764  0.0258 -0.5131  0.1408
 9954SOL     OW30386   5.723   0.806   4.881  0.2866  0.5646 -0.0869
 9954SOL    HW130387   5.758   0.757   4.806  0.2087 -2.0005  1.4449
 9954SOL    HW230388   5.714   0.741   4.950 -1.0309  2.5501  1.7320
 9955SOL     OW30389   1.807   3.489   5.103 -0.1313 -0.3991  0.6180
 9955SOL    HW130390   1.767   3.419   5.155  0.7046 -0.5214  1.1025
 9955SOL    HW230391   1.825   3.448   5.018  0.4011 -0.7958  0.9168
 9956SOL     OW30392   2.952   2.841   6.414  0.0765 -0.4776 -0.7134
 9956SOL    HW130393   2.891   2.821   6.485  1.1517  3.5963  1.7155
 9956SOL    HW230394   2.899   2.835   6.334 -2.5969 -0.3698  0.9253
 9957SOL     OW30395   4.609   0.577   1.321 -0.4146  0.0171  0.3929
 9957SOL    HW130396   4.556   0.545   1.249  1.2054 -0.1888 -0.7729
 9957SOL    HW230397   4.675   0.633   1.280  0.5699 -0.1239  1.7022
 9958SOL     OW30398   1.985   3.720   1.105 -0.0898 -0.0764  0.4239
 9958SOL    HW130399   2.017   3.776   1.175 -0.0342  2.2423 -1.3407
 9958SOL    HW230400   1.916   3.771   1.062 -0.8121 -1.8177 -0.6149
 9959SOL     OW30401   7.360   2.565   7.380  0.0344 -0.4291 -0.0411
 9959SOL    HW130402   7.435   2.607   7.421 -0.1346 -1.2230  1.1622
 9959SOL    HW230403   7.370   2.580   7.287  1.3101  0.0742  0.1709
 9960SOL     OW30404   5.553   3.826   6.498  0.0711  0.0004  0.1593
 9960SOL    HW130405   5.560   3.882   6.421 -1.7977  1.8052  1.1783
 9960SOL    HW230406   5.521   3.742   6.465  1.1701  0.0911 -1.2030
 9961SOL     OW30407   4.068   5.573   6.890  0.0694  1.0279 -0.2853
 9961SOL    HW130408   4.039   5.655   6.849 -0.8348 -0.0559 -1.9242
 9961SOL    HW230409   4.090   5.516   6.816  0.4379 -0.2988  0.8106
 9962SOL     OW30410   4.095   4.269   6.534  0.7577  0.0328  0.0767
 9962SOL    HW130411   4.136   4.222   6.461  0.2614 -0.6891  0.2499
 9962SOL    HW230412   4.101   4.361   6.510 -1.3960 -0.2892 -1.9459
 9963SOL     OW30413   0.096   6.805   3.624  0.2112  0.2300 -0.0830
 9963SOL    HW130414   0.134   6.781   3.709 -2.4962 -0.5153  1.0121
 9963SOL    HW230415   0.168   6.847   3.577  2.2511 -0.7794  1.9492
 9964SOL     OW30416   5.143   5.953   4.647 -0.1275 -0.0623 -0.9573
 9964SOL    HW130417   5.092   5.992   4.718  2.3913 -0.1279  1.0208
 9964SOL    HW230418   5.130   5.859   4.656  1.2732 -0.1674  0.4009
 9965SOL     OW30419   1.446   0.874   3.477  0.0045  0.1132  0.0836
 9965SOL    HW130420   1.496   0.801   3.516 -0.5147  0.5654  1.6974
 9965SOL    HW230421   1.423   0.929   3.552 -2.4441  0.2175 -0.6570
 9966SOL     OW30422   4.251   6.875   4.701  0.3759 -0.0704 -0.3524
 9966SOL    HW130423   4.309   6.878   4.777 -0.7958 -0.3778  0.5757
 9966SOL    HW230424   4.310   6.863   4.627  1.6532  1.6104  0.3405
 9967SOL     OW30425   1.928   1.960   1.875  0.0776  0.0423 -1.2707
 9967SOL    HW130426   1.885   2.041   1.848 -3.3538  0.1662  3.3591
 9967SOL    HW230427   1.872   1.890   1.841 -0.7843 -0.0058  0.1493
 9968SOL     OW30428   3.827   1.519   1.720 -0.3793  0.0261  0.1038
 9968SOL    HW130429   3.750   1.465   1.737 -0.6766  0.6262  0.7199
 9968SOL    HW230430   3.834   1.576   1.797 -0.0484  0.8234 -0.5044
 9969SOL     OW30431   2.745   3.583   0.168 -0.5240 -0.4421  0.7404
 9969SOL    HW130432   2.766   3.491   0.181  0.6986 -0.1290  1.0900
 9969SOL    HW230433   2.820   3.631   0.204 -0.7501  0.6658 -0.1816
 9970SOL     OW30434   6.424   0.381   6.187  0.3357  0.0365  0.1921
 9970SOL    HW130435   6.348   0.334   6.153 -1.1290  2.2406  0.2076
 9970SOL    HW230436   6.499   0.340   6.144 -0.9292 -1.5979 -0.5353
 9971SOL     OW30437   2.291   2.914   7.171 -0.1222 -0.0554 -0.4382
 9971SOL    HW130438   2.279   2.956   7.256 -0.1983  0.1638 -0.5562
 9971SOL    HW230439   2.224   2.846   7.167 -0.4158  0.2323 -0.5089
 9972SOL     OW30440   6.758   6.841   3.213 -0.0223 -0.2040 -0.2107
 9972SOL    HW130441   6.843   6.875   3.239  0.5476  0.1044 -2.2560
 9972SOL    HW230442   6.703   6.852   3.290  1.4342  0.8181  0.7396
 9973SOL     OW30443   4.689   2.640   5.157  0.6134 -0.3832 -0.2955
 9973SOL    HW130444   4.763   2.670   5.210 -1.6070  3.0707  1.1648
 9973SOL    HW230445   4.627   2.605   5.221  0.3248 -1.9121 -1.3593
 9974SOL     OW30446   3.428   3.068   2.382  0.4154 -0.7597 -0.4352
 9974SOL    HW130447   3.396   2.984   2.415  1.1587 -0.9154 -0.0881
 9974SOL    HW230448   3.447   3.051   2.290  1.1882 -1.1636 -0.2103
 9975SOL     OW30449   3.361   1.791   2.724 -0.1694 -0.1634  0.0443
 9975SOL    HW130450   3.322   1.768   2.809 -1.6914 -0.8967 -0.8142
 9975SOL    HW230451   3.377   1.706   2.682 -3.4325  0.1091 -2.1070
 9976SOL     OW30452   6.203   4.621   3.466  0.7442 -0.2643 -0.8796
 9976SOL    HW130453   6.208   4.531   3.497 -0.0232 -0.6764 -1.8872
 9976SOL    HW230454   6.295   4.650   3.461  1.0012 -1.0236 -0.6418
 9977SOL     OW30455   0.870   0.862   2.828 -0.7826  0.1038  1.1453
 9977SOL    HW130456   0.833   0.950   2.843 -0.7638  0.9957 -2.8333
 9977SOL    HW230457   0.955   0.879   2.787 -0.5261 -1.7930  0.8137
 9978SOL     OW30458   1.858   1.088   4.362  0.0977  0.5740  0.2127
 9978SOL    HW130459   1.916   1.103   4.287 -0.6134 -0.2243 -0.5241
 9978SOL    HW230460   1.856   1.172   4.408  1.2260  0.8322 -0.1755
 9979SOL     OW30461   4.771   2.542   6.220 -0.3182  0.2310  0.5296
 9979SOL    HW130462   4.773   2.450   6.244 -0.4283  0.2690  0.6806
 9979SOL    HW230463   4.689   2.575   6.256 -0.5424  0.2598  0.0050
 9980SOL     OW30464   6.779   5.607   2.090 -0.7807 -0.7479  0.0225
 9980SOL    HW130465   6.830   5.531   2.063 -0.0435 -0.1457 -0.3230
 9980SOL    HW230466   6.703   5.607   2.032 -0.8582 -1.2977  0.1190
 9981SOL     OW30467   3.055   0.107   6.914  0.0722  0.1645  0.2680
 9981SOL    HW130468   3.096   0.187   6.946 -0.2140 -0.7138  3.1868
 9981SOL    HW230469   2.979   0.095   6.971 -0.4263 -1.6862 -0.6952
 9982SOL     OW30470   3.781   3.750   3.486  0.0611 -0.4963 -0.2766
 9982SOL    HW130471   3.720   3.709   3.424 -0.3298  1.0522 -0.9610
 9982SOL    HW230472   3.775   3.844   3.467  0.9020 -0.1016  1.2534
 9983SOL     OW30473   4.658   2.388   0.209  0.0559 -0.5218  0.3414
 9983SOL    HW130474   4.705   2.310   0.178  0.8856  0.8076 -2.0354
 9983SOL    HW230475   4.726   2.444   0.247 -0.0289  0.2041 -0.5294
 9984SOL     OW30476   6.466   1.986   5.822  0.4229  0.0735  0.1473
 9984SOL    HW130477   6.406   1.986   5.897  1.8744  0.2013  1.3736
 9984SOL    HW230478   6.436   1.913   5.768  0.7386 -1.6010  2.0874
 9985SOL     OW30479   0.689   1.819   5.212 -0.4554 -0.1246 -0.3208
 9985SOL    HW130480   0.615   1.805   5.154 -1.6008 -0.2686  1.1098
 9985SOL    HW230481   0.649   1.844   5.296  1.1793  2.2378 -0.1534
 9986SOL     OW30482   0.719   2.758   2.418 -0.1418  0.0392 -0.5590
 9986SOL    HW130483   0.707   2.825   2.351 -1.3340 -0.6210 -1.0512
 9986SOL    HW230484   0.637   2.760   2.468 -0.0999 -0.8581 -0.4312
 9987SOL     OW30485   0.575   3.123   7.139  0.0714 -0.4100  0.0745
 9987SOL    HW130486   0.548   3.040   7.178 -0.4076 -0.8327 -1.1287
 9987SOL    HW230487   0.532   3.189   7.194 -2.5192 -1.0367 -1.0260
 9988SOL     OW30488   4.224   7.534   2.691 -0.4650  0.2151 -0.2962
 9988SOL    HW130489   4.177   7.617   2.679 -1.4372 -0.0989  1.1239
 9988SOL    HW230490   4.316   7.557   2.680 -0.7676  1.3495 -0.6057
 9989SOL     OW30491   0.771   4.001   4.894 -0.1116  0.1088  0.1177
 9989SOL    HW130492   0.754   4.043   4.810 -0.9604  0.6507  0.5404
 9989SOL    HW230493   0.709   3.928   4.897  1.9851 -1.8330 -1.0160
 9990SOL     OW30494   3.695   1.547   6.549  0.0792  0.1486  0.3168
 9990SOL    HW130495   3.714   1.603   6.474 -1.1365  1.6060  1.0364
 9990SOL    HW230496   3.773   1.493   6.559  1.0430  1.2486 -0.8262
 9991SOL     OW30497   1.935   2.162   0.268 -0.6345 -0.2340 -0.1206
 9991SOL    HW130498   1.907   2.080   0.309 -0.6700 -0.4921 -0.6512
 9991SOL    HW230499   1.925   2.146   0.174  1.7618 -0.5472 -0.3891
 9992SOL     OW30500   3.693   3.353   3.899 -0.8274 -0.0108  0.3996
 9992SOL    HW130501   3.636   3.376   3.972  0.7454 -0.9551  1.9783
 9992SOL    HW230502   3.744   3.280   3.930  0.2525 -0.1297 -1.4991
 9993SOL     OW30503   2.625   0.789   4.296  0.3574  0.2106  0.0015
 9993SOL    HW130504   2.679   0.729   4.244 -1.2017 -0.4919 -0.8654
 9993SOL    HW230505   2.588   0.734   4.365  0.5227  0.6377  0.4403
 9994SOL     OW30506   0.252   5.507   4.227  0.1585  0.0541  0.6473
 9994SOL    HW130507   0.243   5.527   4.320 -1.1375 -0.0362  0.5605
 9994SOL    HW230508   0.337   5.544   4.203 -0.0701  1.2756  1.5739
 9995SOL     OW30509   2.935   1.305   7.135  0.7849 -0.0113 -0.0207
 9995SOL    HW130510   2.922   1.390   7.095 -0.0873 -0.5142 -0.8601
 9995SOL    HW230511   3.028   1.286   7.124  0.9718  0.8029  0.1380
 9996SOL     OW30512   1.710   4.021   4.798  0.5342 -0.3261 -0.4523
 9996SOL    HW130513   1.628   4.058   4.765  0.0586  0.2255  1.2159
 9996SOL    HW230514   1.717   3.936   4.756 -1.2645 -0.6767 -0.1167
 9997SOL     OW30515   5.619   2.531   3.156 -0.0498  0.1342 -0.2591
 9997SOL    HW130516   5.645   2.549   3.246  0.2920  0.1657 -0.3627
 9997SOL    HW230517   5.663   2.449   3.134  0.9187  0.7809 -0.8223
 9998SOL     OW30518   6.616   0.121   4.209  0.5748  0.0196  0.1767
 9998SOL    HW130519   6.696   0.159   4.245 -0.0873 -0.0528  1.8208
 9998SOL    HW230520   6.587   0.059   4.276 -0.8845  0.0907 -0.3529
 9999SOL     OW30521   0.423   5.841   0.824 -0.2194  0.1032  0.7497
 9999SOL    HW130522   0.498   5.788   0.850 -1.1955 -1.4896  0.4465
 9999SOL    HW230523   0.368   5.782   0.773 -1.3969  1.4040  0.4388
10000SOL     OW30524   7.187   1.191   4.333  0.7667  0.0495  0.1431
10000SOL    HW130525   7.114   1.237   4.374 -0.3351 -1.2410 -0.3044
10000SOL    HW230526   7.146   1.126   4.276  2.2718 -0.6995 -0.1450
10001SOL     OW30527   3.228   3.367   3.013  0.6381  0.2258 -0.1398
10001SOL    HW130528   3.133   3.356   3.005  0.3777  1.1892  1.2511
10001SOL    HW230529   3.252   3.426   2.942 -0.3345  2.4404  1.2595
10002SOL     OW30530   4.249   6.244   7.472  0.0077  0.0675 -0.4716
10002SOL    HW130531   4.235   6.332   7.506  1.5664  0.1718 -0.0067
10002SOL    HW230532   4.343   6.229   7.483 -0.1053 -1.3737 -1.2238
10003SOL     OW30533   3.706   6.066   2.241  0.1830 -0.8695 -0.4958
10003SOL    HW130534   3.756   6.132   2.290 -0.7121 -0.3169 -0.2997
10003SOL    HW230535   3.769   5.995   2.226  1.3776  0.3084 -1.3351
10004SOL     OW30536   7.512   3.388   0.493 -0.1022  0.2595 -0.2709
10004SOL    HW130537   7.448   3.387   0.421  0.9812  0.2152 -1.2610
10004SOL    HW230538   7.596   3.404   0.450  0.3096  2.6798  1.2046
10005SOL     OW30539   2.855   7.498   1.373  0.8193  0.8305  0.1238
10005SOL    HW130540   2.930   7.488   1.432  0.9226  3.8698  0.6772
10005SOL    HW230541   2.869   7.582   1.330 -1.3593  0.6335 -1.1395
10006SOL     OW30542   6.024   1.371   2.197 -0.0594  0.0128 -0.1787
10006SOL    HW130543   6.042   1.440   2.133 -1.0110 -0.1942 -0.7000
10006SOL    HW230544   6.056   1.291   2.156  0.1224  0.0021 -0.0161
10007SOL     OW30545   1.172   0.536   3.902  0.3906 -0.2444  0.8584
10007SOL    HW130546   1.257   0.493   3.915  1.4746  1.2405 -0.8401
10007SOL    HW230547   1.178   0.574   3.815 -2.0259 -0.0096  0.7330
10008SOL     OW30548   6.078   3.262   1.554  0.0685  0.2113 -0.4108
10008SOL    HW130549   6.017   3.320   1.508  1.6375  2.6752  0.4141
10008SOL    HW230550   6.125   3.217   1.483 -1.2109 -0.1208 -1.0783
10009SOL     OW30551   2.274   3.761   2.961 -0.1558 -0.9009  0.0555
10009SOL    HW130552   2.344   3.710   3.001  1.9878  1.3683 -0.5142
10009SOL    HW230553   2.304   3.852   2.968 -2.8745  0.1488 -0.6329
10010SOL     OW30554   4.226   7.352   6.719 -0.8752  0.3663 -0.2839
10010SOL    HW130555   4.227   7.362   6.814 -1.3243  2.5740 -0.4632
10010SOL    HW230556   4.136   7.371   6.694 -0.6823  0.1303 -1.1885
10011SOL     OW30557   2.383   3.211   7.490 -0.0065  0.2742 -0.1889
10011SOL    HW130558   2.357   3.294   7.528 -1.3379 -0.7703  1.3101
10011SOL    HW230559   2.331   3.145   7.536  2.3436 -1.5946  0.0470
10012SOL     OW30560   1.947   2.925   5.420  0.3232 -0.1964 -0.2374
10012SOL    HW130561   1.875   2.904   5.480  0.5105  0.3772  0.1994
10012SOL    HW230562   1.903   2.947   5.337  0.0804 -1.3387 -0.4216
10013SOL     OW30563   1.904   3.967   4.353  0.5024 -0.0833 -0.3803
10013SOL    HW130564   1.862   3.924   4.279 -1.4642 -0.6511  0.9728
10013SOL    HW230565   1.843   4.037   4.378  0.9818 -0.0731  0.8528
10014SOL     OW30566   3.160   5.822   0.949 -0.1052 -1.0863 -0.5065
10014SOL    HW130567   3.174   5.755   1.016 -0.9053  0.1745  0.9859
10014SOL    HW230568   3.065   5.834   0.946  0.0817  0.8830  0.2124
10015SOL     OW30569   3.294   5.060   2.355 -0.9283 -0.5158 -0.6927
10015SOL    HW130570   3.224   5.118   2.327 -1.5125 -0.1878  1.2797
10015SOL    HW230571   3.372   5.116   2.358 -1.2360 -0.1143  0.0380
10016SOL     OW30572   2.435   0.860   5.590  0.2831  0.7221 -0.2203
10016SOL    HW130573   2.509   0.856   5.530  0.2897  0.2480 -0.1837
10016SOL    HW230574   2.471   0.899   5.670  0.3888  0.9054 -0.3579
10017SOL     OW30575   5.535   2.973   6.281 -0.1511 -0.3145 -0.0535
10017SOL    HW130576   5.578   2.988   6.365 -2.4607  1.6953  0.9169
10017SOL    HW230577   5.529   2.878   6.274 -1.2680 -0.5866  2.9053
10018SOL     OW30578   2.299   6.867   0.387 -0.1779  0.1280 -0.7669
10018SOL    HW130579   2.231   6.935   0.387 -0.6343 -0.3163 -0.7122
10018SOL    HW230580   2.250   6.785   0.388  0.3667 -0.1989 -0.3973
10019SOL     OW30581   3.957   5.154   0.790 -0.1950  0.0231  0.0891
10019SOL    HW130582   3.937   5.247   0.802  0.1084  0.1111 -0.0804
10019SOL    HW230583   4.049   5.152   0.764 -0.0077 -0.3674  0.7481
10020SOL     OW30584   3.393   5.166   7.048 -0.3515 -0.0186  0.2142
10020SOL    HW130585   3.411   5.192   7.138  1.4223  0.7012 -0.3162
10020SOL    HW230586   3.478   5.168   7.004 -0.9369 -1.7657 -1.1382
10021SOL     OW30587   2.728   3.790   5.075 -0.0610  0.0707 -0.3083
10021SOL    HW130588   2.801   3.730   5.088  0.5854  0.9687  0.2504
10021SOL    HW230589   2.685   3.795   5.160 -0.6023 -0.2258 -0.5603
10022SOL     OW30590   1.192   0.526   6.227 -0.2903  0.6340 -0.1385
10022SOL    HW130591   1.162   0.590   6.292 -0.1439  0.5932 -0.0307
10022SOL    HW230592   1.282   0.552   6.208 -0.2530  0.5002 -0.1439
10023SOL     OW30593   0.601   0.411   4.375  0.1796 -0.1080 -0.3048
10023SOL    HW130594   0.596   0.318   4.355  3.7356 -0.0962 -2.0876
10023SOL    HW230595   0.573   0.455   4.295  0.7015  0.3062 -0.2648
10024SOL     OW30596   7.559   4.735   3.248  0.7569 -0.3582 -0.1249
10024SOL    HW130597   7.508   4.780   3.315  2.2852  0.6699  0.4191
10024SOL    HW230598   7.600   4.661   3.294  0.8382 -0.3723 -0.2183
10025SOL     OW30599   1.179   5.556   2.180 -0.4137 -0.0188 -0.3831
10025SOL    HW130600   1.212   5.475   2.218  0.9266  1.3760  1.6588
10025SOL    HW230601   1.088   5.561   2.210 -0.3113 -0.4845  0.0061
10026SOL     OW30602   0.580   0.341   3.237  0.3557  0.2433 -0.0126
10026SOL    HW130603   0.579   0.419   3.293  0.1149  0.6226 -0.5305
10026SOL    HW230604   0.512   0.284   3.272 -0.6996  1.0442 -0.6892
10027SOL     OW30605   2.962   0.308   2.847 -0.2882 -0.5901 -0.2882
10027SOL    HW130606   2.947   0.220   2.813 -0.8293  0.5442 -3.2005
10027SOL    HW230607   2.882   0.356   2.829 -0.0398  0.5486  1.3292
10028SOL     OW30608   1.262   1.241   2.843 -0.4958  0.5965  0.0025
10028SOL    HW130609   1.317   1.164   2.858 -1.0895  0.3842  1.2435
10028SOL    HW230610   1.240   1.272   2.931 -2.8790  0.2893 -0.4123
10029SOL     OW30611   3.458   7.036   1.373 -0.4238 -0.0559  0.3001
10029SOL    HW130612   3.443   7.063   1.282 -1.4600 -1.5728 -0.0157
10029SOL    HW230613   3.476   6.942   1.367  2.6274  0.3476  1.3778
10030SOL     OW30614   1.591   4.017   6.333  0.0104 -0.2257 -0.6939
10030SOL    HW130615   1.516   4.010   6.275  0.4728  1.8624 -1.6517
10030SOL    HW230616   1.667   4.001   6.276  0.3649 -1.2679  0.0368
10031SOL     OW30617   3.803   3.940   3.775  0.4823  0.1225 -0.4780
10031SOL    HW130618   3.880   3.990   3.802  1.0437 -0.4310 -1.0251
10031SOL    HW230619   3.796   3.956   3.681  0.9900 -1.2329 -0.7717
10032SOL     OW30620   5.596   0.458   1.637 -0.4762 -0.0014  0.5368
10032SOL    HW130621   5.633   0.532   1.686 -0.4203  0.2677  0.0874
10032SOL    HW230622   5.522   0.495   1.589  0.2992  0.0476 -0.6681
10033SOL     OW30623   5.881   1.835   3.162 -0.0913  0.1081  0.0916
10033SOL    HW130624   5.884   1.740   3.171  0.2805  0.2099  1.1586
10033SOL    HW230625   5.972   1.863   3.169 -0.3137  0.6397  1.0857
10034SOL     OW30626   6.248   6.953   0.119  0.0308  0.4793  0.0367
10034SOL    HW130627   6.244   6.967   0.025 -1.2644 -1.4034 -0.2407
10034SOL    HW230628   6.167   6.993   0.153 -1.6371 -2.3325 -0.2635
10035SOL     OW30629   6.712   3.337   7.381  0.2679 -0.1568  0.1321
10035SOL    HW130630   6.662   3.415   7.405 -0.4806 -1.2890  2.5432
10035SOL    HW230631   6.794   3.346   7.430 -0.4033 -1.4896  1.6054
10036SOL     OW30632   6.132   3.560   2.975 -0.1752  0.3831 -0.4119
10036SOL    HW130633   6.097   3.579   3.062  0.4299 -0.0522 -0.0711
10036SOL    HW230634   6.154   3.466   2.977  2.1885  0.8807 -0.1874
10037SOL     OW30635   4.369   5.304   2.997  0.2165  0.4628  0.3659
10037SOL    HW130636   4.303   5.252   3.041  1.2789 -1.1081  0.1807
10037SOL    HW230637   4.428   5.240   2.957  0.6905  1.8098 -1.2380
10038SOL     OW30638   2.649   3.136   4.133  0.6156 -0.2991 -0.2740
10038SOL    HW130639   2.562   3.127   4.172  0.6735 -0.9464 -0.2864
10038SOL    HW230640   2.632   3.135   4.038  0.6512 -0.5907 -0.2777
10039SOL     OW30641   6.853   4.773   6.759  0.7019 -0.7995 -0.2401
10039SOL    HW130642   6.935   4.750   6.804  1.0140  0.2843 -0.2360
10039SOL    HW230643   6.881   4.813   6.677  0.1645 -0.5693 -0.3126
10040SOL     OW30644   2.561   3.713   3.302 -0.2409 -0.0241  0.5989
10040SOL    HW130645   2.475   3.695   3.338 -0.4082  1.2629  0.8934
10040SOL    HW230646   2.613   3.636   3.325 -1.5533 -1.2832 -0.4731
10041SOL     OW30647   4.540   0.696   2.673 -0.2977  0.2109  0.1312
10041SOL    HW130648   4.611   0.748   2.635 -1.8356  0.7887 -2.1340
10041SOL    HW230649   4.542   0.613   2.624  0.9468 -1.2146  2.4377
10042SOL     OW30650   0.247   5.825   1.721  0.9062  0.4421 -0.3270
10042SOL    HW130651   0.172   5.772   1.749  0.4638  1.3879  0.3442
10042SOL    HW230652   0.249   5.816   1.626 -0.3358  0.7287 -0.3970
10043SOL     OW30653   3.932   1.064   0.808  0.0997  0.3255  0.1007
10043SOL    HW130654   3.928   0.969   0.819 -1.0358 -0.0072 -2.4485
10043SOL    HW230655   3.864   1.098   0.866 -0.2608 -0.5201  0.1855
10044SOL     OW30656   7.462   3.909   2.378 -0.1832 -0.2952  0.1012
10044SOL    HW130657   7.518   3.950   2.312 -0.7737 -0.9637 -0.8530
10044SOL    HW230658   7.439   3.979   2.438 -0.9241  0.7281 -1.3129
10045SOL     OW30659   0.333   6.829   3.392  0.0147  0.4199 -0.1943
10045SOL    HW130660   0.252   6.810   3.343  0.3496 -0.2909 -0.4892
10045SOL    HW230661   0.325   6.921   3.416  0.0099  0.9230 -1.9410
10046SOL     OW30662   4.350   3.011   6.175 -0.1427  0.3485 -0.1813
10046SOL    HW130663   4.342   2.958   6.096  2.4422  0.0756 -0.3253
10046SOL    HW230664   4.317   3.097   6.150 -2.7348 -0.6360 -0.4555
10047SOL     OW30665   2.544   3.819   5.308  0.1883  0.5534  0.2211
10047SOL    HW130666   2.494   3.794   5.231  0.4992 -0.2713  0.2747
10047SOL    HW230667   2.482   3.867   5.363  0.5082  3.0828 -1.4768
10048SOL     OW30668   1.039   4.524   2.405 -0.1463  0.1277 -0.2157
10048SOL    HW130669   1.026   4.611   2.442 -0.8617  0.0596 -0.2903
10048SOL    HW230670   0.966   4.472   2.439 -0.2841 -0.1800 -0.9649
10049SOL     OW30671   5.055   1.545   1.822 -0.0218 -0.5111 -0.2728
10049SOL    HW130672   5.018   1.524   1.908 -0.1193 -0.4622 -0.3027
10049SOL    HW230673   5.149   1.542   1.835 -0.0304 -1.0880 -0.3017
10050SOL     OW30674   1.593   5.010   0.048  0.6010 -0.3510  0.2177
10050SOL    HW130675   1.536   5.083   0.026 -0.4621 -1.3290 -0.3911
10050SOL    HW230676   1.582   4.999   0.143  0.4029 -0.0288  0.2326
10051SOL     OW30677   0.009   4.961   4.091  0.6626 -0.7084  0.1954
10051SOL    HW130678  -0.036   4.878   4.076  1.8572 -1.1226 -1.4436
10051SOL    HW230679  -0.060   5.027   4.085 -0.0226 -1.4485 -0.3099
10052SOL     OW30680   6.068   3.730   3.753 -0.2017 -0.1676  0.4417
10052SOL    HW130681   6.131   3.701   3.819 -0.3695 -0.5511  0.4397
10052SOL    HW230682   6.115   3.722   3.670 -1.1647 -3.4123  0.0783
10053SOL     OW30683   3.671   2.586   6.171 -0.1812  0.0591 -0.0137
10053SOL    HW130684   3.740   2.639   6.130  0.2180 -1.3724 -1.3039
10053SOL    HW230685   3.589   2.624   6.139  0.1205 -0.6853 -1.7658
10054SOL     OW30686   0.665   1.682   4.069  0.1163 -0.3220 -0.5178
10054SOL    HW130687   0.649   1.684   4.164 -0.3572 -0.0912 -0.5968
10054SOL    HW230688   0.719   1.605   4.055 -0.8398 -1.0717 -0.2052
10055SOL     OW30689   0.427   0.031   2.114  0.1151  0.5104 -0.4328
10055SOL    HW130690   0.363   0.101   2.109  0.7225  1.0037 -1.9679
10055SOL    HW230691   0.511   0.075   2.126  0.4311  0.0296 -0.7976
10056SOL     OW30692   2.712   3.285   2.471  0.5562 -0.7975  0.5213
10056SOL    HW130693   2.758   3.298   2.387  0.5973  0.8368  0.7653
10056SOL    HW230694   2.780   3.297   2.537  0.4034 -1.5018  0.8107
10057SOL     OW30695   6.268   4.207   7.473  0.2805 -0.0701 -0.2556
10057SOL    HW130696   6.341   4.146   7.488 -1.0008 -2.0520 -1.6112
10057SOL    HW230697   6.204   4.185   7.540  0.9116  1.7956  1.0515
10058SOL     OW30698   7.048   5.077   2.540 -0.7150  0.2210 -0.7762
10058SOL    HW130699   6.957   5.074   2.510 -1.1850  0.0834  0.5778
10058SOL    HW230700   7.044   5.121   2.624  0.1921 -1.4789  0.2176
10059SOL     OW30701   0.468   1.541   3.956 -0.5774 -0.2612  0.2825
10059SOL    HW130702   0.531   1.470   3.943  1.0462  1.4130 -1.5078
10059SOL    HW230703   0.518   1.609   4.001 -1.4828  0.6052 -0.0001
10060SOL     OW30704   0.686   4.693   1.669 -0.2184  0.0280 -0.4138
10060SOL    HW130705   0.657   4.672   1.580 -2.0953  0.6648  0.0022
10060SOL    HW230706   0.743   4.769   1.659 -1.0233  0.5603 -1.0051
10061SOL     OW30707   4.942   4.318   4.246 -0.7509 -0.9765 -0.0617
10061SOL    HW130708   4.972   4.321   4.155  0.1862 -0.0678  0.2533
10061SOL    HW230709   4.968   4.403   4.282 -1.0025 -1.3745  1.0922
10062SOL     OW30710   6.143   3.104   4.516  0.1425 -0.1311  0.2334
10062SOL    HW130711   6.060   3.096   4.469 -0.6301  0.3071  1.4916
10062SOL    HW230712   6.196   3.032   4.482 -0.4739  0.0160 -1.1146
10063SOL     OW30713   0.578   0.043   0.504 -0.1864 -0.2749 -0.5862
10063SOL    HW130714   0.486   0.016   0.505 -0.1765 -0.3110 -0.1601
10063SOL    HW230715   0.626  -0.038   0.523 -0.1752  0.0806  1.0468
10064SOL     OW30716   6.576   2.698   1.415 -0.0304  0.2033  0.1734
10064SOL    HW130717   6.517   2.755   1.366  1.6043  1.6610 -0.2152
10064SOL    HW230718   6.640   2.757   1.454 -0.7160 -1.0021  3.3922
10065SOL     OW30719   4.600   3.987   7.108 -0.2961 -0.4858  0.5040
10065SOL    HW130720   4.659   3.922   7.145  2.0146  0.2483 -1.6332
10065SOL    HW230721   4.524   3.987   7.167  0.3786 -3.7572  1.5826
10066SOL     OW30722   6.180   4.932   2.712 -0.2633  0.0140 -0.5279
10066SOL    HW130723   6.092   4.922   2.748  0.5414  0.1808  1.5855
10066SOL    HW230724   6.173   5.009   2.655 -1.1740  0.9086  0.7299
10067SOL     OW30725   2.271   2.072   6.756  0.1402  0.1662 -0.0497
10067SOL    HW130726   2.354   2.069   6.805  0.2154  1.8386 -0.0361
10067SOL    HW230727   2.231   2.155   6.782 -1.3895 -0.4533 -0.3337
10068SOL     OW30728   1.818   5.743   7.395  0.5046  0.1600  0.0358
10068SOL    HW130729   1.852   5.832   7.401 -0.3405  0.4265  1.2437
10068SOL    HW230730   1.865   5.695   7.462 -0.1587  0.0940  0.4694
10069SOL     OW30731   2.007   1.754   5.746 -0.0417  0.0185  0.3176
10069SOL    HW130732   1.993   1.717   5.833  1.7086 -0.3220  0.4990
10069SOL    HW230733   1.950   1.702   5.689 -1.1248  0.1727  1.2107
10070SOL     OW30734   0.503   3.771   3.775 -0.5350 -0.2413 -0.2773
10070SOL    HW130735   0.469   3.690   3.814  0.0184 -0.0618  0.6008
10070SOL    HW230736   0.548   3.815   3.847  0.4043  0.1706 -1.1029
10071SOL     OW30737   1.170   3.228   1.171 -0.1051 -0.3754 -0.0561
10071SOL    HW130738   1.233   3.300   1.177  0.7524 -1.0566 -0.5204
10071SOL    HW230739   1.107   3.245   1.241  0.3107  0.6037  0.0944
10072SOL     OW30740   3.042   5.398   1.670  0.0734  0.1191  0.2296
10072SOL    HW130741   3.103   5.376   1.600 -0.1726 -0.0161  0.0542
10072SOL    HW230742   3.046   5.494   1.676  1.6976  0.0065  1.5051
10073SOL     OW30743   5.284   4.863   3.110 -0.1929 -0.5357 -0.4678
10073SOL    HW130744   5.273   4.845   3.204 -1.6461 -3.7818 -1.1323
10073SOL    HW230745   5.379   4.864   3.097  0.1365  1.8685  1.2249
10074SOL     OW30746   6.316   5.210   4.469  0.3692  0.3154  0.1555
10074SOL    HW130747   6.227   5.232   4.440  1.0187  1.1613 -1.3318
10074SOL    HW230748   6.356   5.295   4.490  0.5578 -0.1341  1.7128
10075SOL     OW30749   2.848   5.952   7.265 -0.0189 -0.0900  0.7469
10075SOL    HW130750   2.823   5.869   7.225 -0.1064 -0.3897  1.4269
10075SOL    HW230751   2.768   5.985   7.304 -0.1798  0.7189 -0.2140
10076SOL     OW30752   6.939   0.026   2.145 -0.7187 -0.0734  0.0895
10076SOL    HW130753   7.003   0.031   2.216 -2.7768  1.0236  1.9519
10076SOL    HW230754   6.917   0.118   2.126 -0.6364 -0.3613 -1.6220
10077SOL     OW30755   1.093   5.347   1.707 -0.0556 -0.2396 -0.9137
10077SOL    HW130756   1.032   5.279   1.677 -1.6524  1.6131 -2.1181
10077SOL    HW230757   1.066   5.367   1.796  0.4320 -1.1642 -0.5484
10078SOL     OW30758   4.884   5.183   0.782 -0.1223  0.4164  0.2061
10078SOL    HW130759   4.973   5.147   0.778 -0.5431 -0.7214  0.6706
10078SOL    HW230760   4.896   5.272   0.815  1.0086  1.0081 -1.6551
10079SOL     OW30761   1.793   3.165   0.347  0.2534  0.3723 -0.3176
10079SOL    HW130762   1.809   3.230   0.278 -0.8659 -0.8426 -1.7866
10079SOL    HW230763   1.876   3.160   0.394  0.6602  2.1458 -0.7616
10080SOL     OW30764   1.881   1.808   6.646 -0.4084  0.3239 -0.2498
10080SOL    HW130765   1.815   1.754   6.690 -0.6614  0.4160 -0.5133
10080SOL    HW230766   1.949   1.745   6.619 -1.3613 -0.1044 -1.8055
10081SOL     OW30767   2.118   0.952   2.418  0.3556 -0.0658 -0.3727
10081SOL    HW130768   2.143   0.872   2.371  1.8428  0.6423 -0.8512
10081SOL    HW230769   2.138   0.933   2.509 -0.1457 -0.5497 -0.3584
10082SOL     OW30770   5.494   3.972   2.036  0.0634 -0.4583 -0.6454
10082SOL    HW130771   5.517   3.891   2.082 -0.5375 -0.3415 -0.1179
10082SOL    HW230772   5.554   3.976   1.962  1.6708 -0.2222  0.5994
10083SOL     OW30773   6.546   7.523   7.215  0.3263  0.8746 -0.0104
10083SOL    HW130774   6.634   7.487   7.202  0.2048  0.9343 -1.0400
10083SOL    HW230775   6.500   7.506   7.133 -1.9775 -2.8167  1.7776
10084SOL     OW30776   6.516   1.952   4.090 -0.1202 -0.5017 -1.0464
10084SOL    HW130777   6.429   1.914   4.081 -1.0427  0.9138  0.9852
10084SOL    HW230778   6.516   2.028   4.032 -1.1224  0.7754  0.5199
10085SOL     OW30779   7.313   1.024   6.635 -0.5114  0.2959  0.5722
10085SOL    HW130780   7.324   0.961   6.564 -0.9795 -0.1822  0.9147
10085SOL    HW230781   7.378   1.092   6.618  1.0379 -1.0229  1.0222
10086SOL     OW30782   2.472   0.788   2.967 -0.6879  0.1401  0.0173
10086SOL    HW130783   2.388   0.809   3.006 -2.1420 -0.4697 -2.5217
10086SOL    HW230784   2.512   0.874   2.949 -2.0758  0.5658 -1.2617
10087SOL     OW30785   0.233   0.551   6.228 -0.1553  0.4485 -0.2676
10087SOL    HW130786   0.277   0.633   6.207 -1.4144  1.0946 -0.4469
10087SOL    HW230787   0.253   0.536   6.321  2.6180 -0.6680 -0.9437
10088SOL     OW30788   0.850   5.297   0.175  0.1380 -0.3675 -0.5439
10088SOL    HW130789   0.845   5.351   0.096 -1.2574  2.2929  1.1547
10088SOL    HW230790   0.767   5.316   0.221  1.5307 -0.4896  2.2548
10089SOL     OW30791   3.941   5.896   1.133  0.6182 -0.1697 -0.1989
10089SOL    HW130792   4.008   5.851   1.185 -1.4696 -0.4120  2.5106
10089SOL    HW230793   3.862   5.844   1.146 -0.7995  1.7222 -0.8058
10090SOL     OW30794   5.271   2.946   6.674  0.2054 -0.5009  0.0687
10090SOL    HW130795   5.249   2.970   6.764  1.8312  1.2136  0.0836
10090SOL    HW230796   5.212   2.998   6.620 -1.2036 -1.9967  0.0864
10091SOL     OW30797   6.565   1.523   3.934 -0.2742 -0.3123  0.3873
10091SOL    HW130798   6.538   1.438   3.900  0.6592 -1.1073  1.5542
10091SOL    HW230799   6.497   1.547   3.997  0.1574 -0.8718  1.0816
10092SOL     OW30800   1.918   6.634   6.482  0.3388 -0.0455  0.3096
10092SOL    HW130801   2.009   6.655   6.501  0.4562  0.3442 -0.6174
10092SOL    HW230802   1.896   6.689   6.407 -0.8245  0.2689  0.8507
10093SOL     OW30803   6.091   1.572   0.438 -0.0481 -0.4466 -0.1399
10093SOL    HW130804   6.029   1.546   0.506  0.0773  1.3517  0.7123
10093SOL    HW230805   6.110   1.664   0.456  1.6221 -0.4997 -1.3536
10094SOL     OW30806   6.406   4.073   7.050  0.4639  0.0800 -0.1312
10094SOL    HW130807   6.324   4.029   7.071 -0.0619  0.5776 -1.0866
10094SOL    HW230808   6.411   4.145   7.113  0.1875  0.0362 -0.0576
10095SOL     OW30809   2.750   6.300   2.696  0.1552  0.1661 -0.0625
10095SOL    HW130810   2.771   6.375   2.752 -1.3353  0.0130  0.7642
10095SOL    HW230811   2.804   6.229   2.729 -0.2319  0.2505  0.7983
10096SOL     OW30812   2.704   1.688   1.434 -0.0426 -0.2300 -0.1808
10096SOL    HW130813   2.610   1.685   1.451  0.0933 -0.1269  0.6609
10096SOL    HW230814   2.716   1.636   1.355 -0.8430  0.0204 -0.4745
10097SOL     OW30815   5.189   2.939   4.706  0.2221 -0.2085  0.0873
10097SOL    HW130816   5.237   2.922   4.625 -0.2924 -1.5585  0.0282
10097SOL    HW230817   5.150   3.025   4.694 -0.8637 -0.8711 -1.6599
10098SOL     OW30818   3.042   2.594   5.533 -0.2507  0.2552 -0.1823
10098SOL    HW130819   3.052   2.532   5.460 -0.6131  2.1789 -1.9897
10098SOL    HW230820   3.121   2.648   5.529 -0.9957  1.3886 -0.1944
10099SOL     OW30821   5.346   1.656   2.110 -0.3861  0.1899  0.6965
10099SOL    HW130822   5.299   1.730   2.073 -1.3849  0.5539  2.5862
10099SOL    HW230823   5.382   1.689   2.192  1.1858 -0.7694  0.4353
10100SOL     OW30824   1.702   7.485   3.939 -0.2821  0.5592 -0.4526
10100SOL    HW130825   1.728   7.520   4.025 -0.9908 -0.3726  0.1669
10100SOL    HW230826   1.765   7.522   3.878  1.8071 -0.6954  0.8094
10101SOL     OW30827   4.141   5.136   6.035  0.0669  0.5914  0.0786
10101SOL    HW130828   4.051   5.113   6.010  0.7040 -2.3462  0.1647
10101SOL    HW230829   4.196   5.076   5.984  1.7664 -0.4712  2.9233
10102SOL     OW30830   6.133   1.046   3.378  0.1548  0.1495 -0.5225
10102SOL    HW130831   6.098   1.127   3.340  0.0861  0.6903  0.6545
10102SOL    HW230832   6.140   1.064   3.472 -1.1132 -1.6598 -0.0330
10103SOL     OW30833   4.913   6.225   7.052  0.0030 -0.4242  0.5267
10103SOL    HW130834   4.820   6.247   7.048  0.3439  0.9716 -0.5235
10103SOL    HW230835   4.917   6.131   7.039 -1.1976 -0.3586 -0.4389
10104SOL     OW30836   4.423   0.872   5.852  0.1109 -0.4818  0.3969
10104SOL    HW130837   4.377   0.789   5.866  0.8392 -0.9194  0.2054
10104SOL    HW230838   4.353   0.935   5.836 -0.4716 -0.9791  0.9202
10105SOL     OW30839   2.502   2.477   5.031 -0.2896 -0.0870 -0.1634
10105SOL    HW130840   2.558   2.519   4.965 -0.0658 -1.2033 -0.7035
10105SOL    HW230841   2.563   2.426   5.085 -0.5313  0.4441  0.6225
10106SOL     OW30842   6.282   5.890   5.659 -0.2256 -0.1949  0.0686
10106SOL    HW130843   6.286   5.795   5.650 -1.7126 -0.1666 -1.2769
10106SOL    HW230844   6.260   5.922   5.571 -1.1093  1.2935  0.7818
10107SOL     OW30845   7.377   1.381   0.957 -0.9863 -0.0712 -0.4634
10107SOL    HW130846   7.383   1.287   0.941  0.5835 -0.0390 -0.1665
10107SOL    HW230847   7.371   1.420   0.869  2.0058 -0.2568 -0.8407
10108SOL     OW30848   0.594   2.297   1.989  0.3721  0.4406  0.2040
10108SOL    HW130849   0.633   2.263   1.907  0.0184 -0.5343  0.4223
10108SOL    HW230850   0.654   2.266   2.057  0.1443  0.4274  0.3955
10109SOL     OW30851   3.914   5.463   2.784  0.4350 -0.3596 -0.0389
10109SOL    HW130852   3.982   5.508   2.734 -0.7334  1.2239 -0.2640
10109SOL    HW230853   3.888   5.390   2.728 -0.7235  1.2706 -1.7611
10110SOL     OW30854   6.117   5.926   3.366  0.7686 -0.0462 -0.2699
10110SOL    HW130855   6.031   5.954   3.333  1.0556 -0.9939 -1.8908
10110SOL    HW230856   6.097   5.877   3.446 -0.2900 -0.8664 -1.0086
10111SOL     OW30857   5.715   5.070   6.645  0.0528 -0.1413 -0.2349
10111SOL    HW130858   5.718   5.111   6.558 -0.7025 -0.7303 -0.5477
10111SOL    HW230859   5.700   4.977   6.627 -1.3007 -0.0973  0.5431
10112SOL     OW30860   0.755   6.648   4.928 -0.3761 -0.0755  0.5997
10112SOL    HW130861   0.822   6.635   4.860 -1.2045 -2.6717  0.1744
10112SOL    HW230862   0.795   6.710   4.989  2.4031 -1.4158  0.2948
10113SOL     OW30863   0.526   6.528   5.105  0.5279 -0.1432  0.6560
10113SOL    HW130864   0.507   6.435   5.092 -0.9798  0.2278  0.0490
10113SOL    HW230865   0.597   6.548   5.044 -0.5916 -0.4192 -0.7652
10114SOL     OW30866   0.027   4.821   5.091 -0.0808  0.0890  0.2615
10114SOL    HW130867  -0.014   4.804   5.006  0.0183 -2.8654  0.7049
10114SOL    HW230868  -0.043   4.861   5.143 -1.4207 -1.7218 -0.0475
10115SOL     OW30869   6.848   2.575   0.865  0.7258 -0.5630  0.5883
10115SOL    HW130870   6.838   2.487   0.827 -0.3350  0.0866 -0.7374
10115SOL    HW230871   6.795   2.572   0.945 -1.1765 -0.5201 -0.6017
10116SOL     OW30872   1.422   1.517   7.302 -0.1294  0.1257 -0.5086
10116SOL    HW130873   1.436   1.534   7.395  0.6715  0.4766 -0.6817
10116SOL    HW230874   1.353   1.578   7.276 -0.9642 -0.5723  0.0412
10117SOL     OW30875   4.706   4.706   1.862  0.2360  0.5995 -0.8015
10117SOL    HW130876   4.644   4.636   1.881  0.8901 -0.0261 -0.9229
10117SOL    HW230877   4.787   4.660   1.841  1.5084  1.4329  1.9293
10118SOL     OW30878   5.094   1.480   6.584 -0.2610 -0.1601  0.0908
10118SOL    HW130879   5.128   1.547   6.526  0.0281 -1.1978 -0.9863
10118SOL    HW230880   5.076   1.525   6.666 -0.9357  1.4134 -0.8806
10119SOL     OW30881   2.300   3.776   5.058  0.4839  0.0839  0.6516
10119SOL    HW130882   2.285   3.806   5.148 -0.7161  2.2013 -0.2031
10119SOL    HW230883   2.274   3.849   5.003  1.7268 -0.9546 -1.4462
10120SOL     OW30884   2.560   4.381   4.558 -0.6051 -0.0181  0.7635
10120SOL    HW130885   2.525   4.380   4.647  1.7124 -1.5174  1.7342
10120SOL    HW230886   2.650   4.410   4.568 -0.7266  1.2510 -1.3297
10121SOL     OW30887   0.649   1.055   2.187 -0.3030  0.1375 -0.0691
10121SOL    HW130888   0.616   1.067   2.098  0.7056  0.4900 -0.4026
10121SOL    HW230889   0.733   1.100   2.189 -0.7252  0.9479  1.3381
10122SOL     OW30890   2.488   4.134   1.699  0.0325  0.0370 -0.2546
10122SOL    HW130891   2.492   4.047   1.660  1.7855  0.3964 -0.9583
10122SOL    HW230892   2.415   4.129   1.762 -1.1808 -1.3169 -1.6877
10123SOL     OW30893   5.589   5.945   3.851 -0.0182 -0.2380  1.1288
10123SOL    HW130894   5.683   5.960   3.838 -0.1923  0.6744  0.8406
10123SOL    HW230895   5.554   5.938   3.763 -0.8783  3.8497  0.9688
10124SOL     OW30896   6.792   2.707   1.701  0.0949  1.0024  0.2826
10124SOL    HW130897   6.776   2.744   1.614 -2.7775  1.5339  0.9415
10124SOL    HW230898   6.836   2.777   1.749  1.6291  0.7331 -0.6702
10125SOL     OW30899   2.394   4.703   6.009 -0.4082  0.3996 -0.0720
10125SOL    HW130900   2.417   4.610   6.004 -2.1186 -0.0290 -0.5368
10125SOL    HW230901   2.432   4.733   6.091  1.7233 -0.2385 -0.7592
10126SOL     OW30902   3.895   2.926   4.169 -0.3230 -0.1259 -0.3364
10126SOL    HW130903   3.922   2.860   4.105  1.3340 -1.0357  1.2099
10126SOL    HW230904   3.817   2.889   4.210 -0.2171 -0.4838 -0.4526
10127SOL     OW30905   6.145   1.787   5.697  0.0532 -0.3673 -0.1858
10127SOL    HW130906   6.137   1.873   5.656  0.8309 -0.6098 -0.8827
10127SOL    HW230907   6.109   1.726   5.633 -2.4814 -0.4098  1.1585
10128SOL     OW30908   1.459   2.023   4.774 -1.0935  0.4075 -0.4975
10128SOL    HW130909   1.450   2.099   4.717 -1.2323 -0.5321 -1.7710
10128SOL    HW230910   1.404   2.043   4.850  0.2577  2.3207  0.0589
10129SOL     OW30911   5.146   5.089   6.667 -0.4267  0.0200 -0.1368
10129SOL    HW130912   5.240   5.103   6.664 -0.5074  1.5936  2.1392
10129SOL    HW230913   5.132   5.003   6.626  2.0157 -0.4352 -0.1132
10130SOL     OW30914   5.248   3.101   1.210  0.8330 -0.2091 -0.1831
10130SOL    HW130915   5.241   3.013   1.173 -1.3156 -0.7253  1.2576
10130SOL    HW230916   5.198   3.157   1.150  1.3355 -0.1451 -0.5486
10131SOL     OW30917   5.894   1.997   2.021 -0.3396 -0.5854 -0.1182
10131SOL    HW130918   5.933   1.938   1.957 -1.3464 -0.3799 -0.9662
10131SOL    HW230919   5.856   1.940   2.087 -0.2468 -0.8451 -0.2882
10132SOL     OW30920   6.914   7.089   0.545 -0.3772 -0.0930  0.1912
10132SOL    HW130921   6.866   7.089   0.463  0.6480  2.2167 -0.4743
10132SOL    HW230922   6.946   7.179   0.555  1.0226 -0.7392  2.2226
10133SOL     OW30923   2.308   4.777   2.351  0.3491  0.0741  0.5958
10133SOL    HW130924   2.270   4.857   2.388 -1.4728 -0.2377 -0.4758
10133SOL    HW230925   2.365   4.808   2.280 -1.1232  0.4340 -0.4769
10134SOL     OW30926   4.432   4.008   0.489  0.2335  0.5347 -0.3416
10134SOL    HW130927   4.339   4.022   0.511  0.2449 -0.8751  0.7480
10134SOL    HW230928   4.480   4.061   0.552  0.2045 -1.8306  1.8648
10135SOL     OW30929   1.427   6.301   4.992  0.2012  0.2021 -0.0809
10135SOL    HW130930   1.400   6.211   5.007 -1.0764  0.6465  0.4431
10135SOL    HW230931   1.495   6.295   4.925  0.7865 -1.2179  0.6101
10136SOL     OW30932   5.441   4.018   7.489 -0.6936  0.1931  0.5093
10136SOL    HW130933   5.479   4.046   7.406  0.6538 -1.0572  0.6619
10136SOL    HW230934   5.352   3.989   7.467 -0.2329 -0.4577 -0.5684
10137SOL     OW30935   3.504   0.280   2.136 -0.4124  0.1043  0.3644
10137SOL    HW130936   3.465   0.309   2.218 -1.1063 -1.6119  0.6901
10137SOL    HW230937   3.598   0.291   2.148 -0.5289  0.1239  1.2887
10138SOL     OW30938   6.181   5.969   0.516  0.0598  0.0092  0.0985
10138SOL    HW130939   6.132   5.890   0.537 -0.4019  0.5083  0.9588
10138SOL    HW230940   6.262   5.938   0.475 -1.1085 -0.8379 -1.7103
10139SOL     OW30941   0.973   1.319   2.751 -0.4469 -0.3546 -0.4396
10139SOL    HW130942   1.030   1.263   2.804 -2.8754 -0.3623  2.5009
10139SOL    HW230943   0.999   1.408   2.774  0.5298 -0.2987 -1.7029
10140SOL     OW30944   0.457   5.629   3.040  0.4670  0.1620  0.0471
10140SOL    HW130945   0.516   5.668   3.106  1.2279 -0.2587 -0.3776
10140SOL    HW230946   0.396   5.576   3.092  0.5574  0.4623  0.4755
10141SOL     OW30947   2.556   1.662   3.524 -0.5835  0.3637  0.1743
10141SOL    HW130948   2.481   1.602   3.526 -0.1016 -0.3583 -1.6524
10141SOL    HW230949   2.530   1.731   3.463 -0.1612  0.6712  0.3415
10142SOL     OW30950   5.950   3.059   5.056  0.1187 -0.1995 -0.0709
10142SOL    HW130951   5.997   3.003   5.118  0.7407  0.8166  0.3973
10142SOL    HW230952   5.876   3.093   5.105  0.7745  0.8380  0.2306
10143SOL     OW30953   2.238   4.894   1.308 -0.4319  0.4284 -0.4369
10143SOL    HW130954   2.313   4.867   1.255 -0.4138 -0.0501 -0.1738
10143SOL    HW230955   2.166   4.840   1.276  0.0511 -1.5090  1.4822
10144SOL     OW30956   0.401   3.069   1.950  0.0477  0.3159 -0.1634
10144SOL    HW130957   0.339   3.109   1.889 -3.0100  1.3458  3.3055
10144SOL    HW230958   0.357   2.991   1.983  0.7574  0.7697  2.0409
10145SOL     OW30959   5.692   4.222   3.548  0.8493 -0.0596 -0.2435
10145SOL    HW130960   5.680   4.304   3.596 -0.0902 -1.0114  1.2417
10145SOL    HW230961   5.780   4.193   3.572 -0.1154 -1.2178  2.1017
10146SOL     OW30962   2.303   6.470   3.253 -0.2764 -0.0244 -0.0429
10146SOL    HW130963   2.380   6.519   3.280 -1.3346  0.8354  1.4968
10146SOL    HW230964   2.324   6.379   3.275 -0.2071  0.3676  1.6266
10147SOL     OW30965   2.097   0.413   4.165  0.2082 -0.2844 -0.1207
10147SOL    HW130966   2.103   0.441   4.257 -2.3156  0.0309  0.0166
10147SOL    HW230967   2.103   0.317   4.169 -0.0845 -0.2862  0.4132
10148SOL     OW30968   6.577   6.831   4.727  0.0517  0.1464  0.1856
10148SOL    HW130969   6.635   6.851   4.800  0.0739 -0.2901  0.2931
10148SOL    HW230970   6.489   6.843   4.763  0.0765  1.6243 -0.2163
10149SOL     OW30971   0.388   4.873   6.275  0.1894 -0.0600  0.0938
10149SOL    HW130972   0.482   4.875   6.290  0.6925  1.3420 -2.5830
10149SOL    HW230973   0.352   4.936   6.338  0.9875 -0.6853  1.2080
10150SOL     OW30974   3.453   0.695   2.399  0.2141 -0.8064  0.7360
10150SOL    HW130975   3.399   0.737   2.465 -0.3613  1.1463 -0.8926
10150SOL    HW230976   3.542   0.728   2.417 -0.0626  0.3233  0.1139
10151SOL     OW30977   3.858   3.144   3.982  0.3433  0.0770 -0.0747
10151SOL    HW130978   3.931   3.106   3.933  0.2748 -0.7232  0.4233
10151SOL    HW230979   3.875   3.119   4.073 -0.1025  0.6138  0.1586
10152SOL     OW30980   1.901   1.606   7.034 -0.2026 -0.2158 -1.6310
10152SOL    HW130981   1.888   1.690   6.989 -1.0740  1.8258  1.9536
10152SOL    HW230982   1.815   1.585   7.071  0.7475 -0.7591  0.4446
10153SOL     OW30983   3.721   1.803   4.945  0.1835 -0.2176  0.1798
10153SOL    HW130984   3.742   1.825   5.035 -1.1033 -0.3669  0.5375
10153SOL    HW230985   3.747   1.712   4.935  1.4594  0.1411  0.0090
10154SOL     OW30986   4.402   5.757   1.997  0.5686 -0.3450 -0.1897
10154SOL    HW130987   4.460   5.801   2.060  0.7556 -0.6002 -0.1806
10154SOL    HW230988   4.317   5.800   2.008  0.3064 -1.1407  1.0356
10155SOL     OW30989   1.708   2.174   6.780  0.6566 -0.6235  0.1507
10155SOL    HW130990   1.744   2.238   6.841 -0.5680  1.6000 -1.3207
10155SOL    HW230991   1.774   2.167   6.711  0.4799 -0.3879 -0.0437
10156SOL     OW30992   3.190   6.409   6.342  0.3165 -0.1554  0.4204
10156SOL    HW130993   3.274   6.370   6.365  0.7641  0.2159 -0.5404
10156SOL    HW230994   3.146   6.344   6.288  1.3706  0.8855 -1.7993
10157SOL     OW30995   5.898   5.674   5.897 -0.0466  0.1888 -0.1316
10157SOL    HW130996   5.982   5.705   5.929 -0.6247  0.6056  1.0402
10157SOL    HW230997   5.891   5.710   5.808  1.4637 -0.7607 -0.6684
10158SOL     OW30998   4.683   1.891   2.044  0.3756 -0.1519  0.4535
10158SOL    HW130999   4.603   1.889   1.991  0.1116  0.3303  0.8147
10158SOL    HW231000   4.750   1.924   1.985  0.0927  0.3371  0.3953
10159SOL     OW31001   2.823   0.813   0.178 -1.1385 -0.5992  0.1232
10159SOL    HW131002   2.776   0.883   0.132 -0.1210  0.7157  1.0111
10159SOL    HW231003   2.906   0.853   0.205 -0.5997 -2.1042  0.8118
10160SOL     OW31004   0.787   1.850   0.538  0.8618 -0.2931  0.3035
10160SOL    HW131005   0.837   1.886   0.612  0.5705  0.8316 -0.0336
10160SOL    HW231006   0.797   1.914   0.468  0.3614 -0.8930 -0.3346
10161SOL     OW31007   5.543   6.119   3.559 -0.5492  0.5560 -0.4597
10161SOL    HW131008   5.503   6.173   3.491 -1.6243  2.1331  1.3212
10161SOL    HW231009   5.475   6.111   3.626 -0.3206 -2.8431 -0.5029
10162SOL     OW31010   4.015   6.062   6.746  0.6346 -0.1273 -0.0134
10162SOL    HW131011   4.026   6.069   6.651 -0.2130  1.0040 -0.0543
10162SOL    HW231012   4.069   6.132   6.781  0.5449 -0.2173  0.3046
10163SOL     OW31013   4.354   7.203   6.025 -0.1455  0.4135  0.5317
10163SOL    HW131014   4.273   7.247   6.050  0.0969  0.7990  0.6536
10163SOL    HW231015   4.419   7.273   6.021  0.2899  0.0389  0.9285
10164SOL     OW31016   4.151   0.979   1.488  0.1082 -0.7852  0.0693
10164SOL    HW131017   4.220   0.959   1.552  0.0689 -1.9939 -0.2439
10164SOL    HW231018   4.071   0.982   1.541  0.4417  1.2704  0.5397
10165SOL     OW31019   2.141   1.133   5.779 -0.2091  0.2018  0.2101
10165SOL    HW131020   2.125   1.077   5.855  0.5466  0.3146  0.4614
10165SOL    HW231021   2.057   1.136   5.733 -0.3483 -0.8643  0.3744
10166SOL     OW31022   6.882   6.163   3.468  0.4488  0.3809  0.5730
10166SOL    HW131023   6.899   6.071   3.446  0.0341  0.0209  1.7287
10166SOL    HW231024   6.835   6.160   3.550 -0.3307  1.6077  0.1935
10167SOL     OW31025   2.471   3.530   4.412  0.1540 -0.5822 -0.2428
10167SOL    HW131026   2.565   3.513   4.404  0.2509 -0.1096 -0.1257
10167SOL    HW231027   2.465   3.623   4.432 -0.3488 -0.5760 -0.4103
10168SOL     OW31028   3.826   2.163   4.044  0.2262 -0.3558 -0.9435
10168SOL    HW131029   3.800   2.108   4.118 -0.3653  1.7099  0.4771
10168SOL    HW231030   3.748   2.215   4.025  1.1024  0.8063 -1.4795
10169SOL     OW31031   0.283   3.200   0.906  0.2499  0.1680 -0.4369
10169SOL    HW131032   0.189   3.188   0.893  0.3011 -1.4452  0.4137
10169SOL    HW231033   0.323   3.131   0.853  0.7648 -1.3479  1.8100
10170SOL     OW31034   3.850   0.633   1.297 -0.7370  0.0350 -0.3160
10170SOL    HW131035   3.818   0.680   1.375 -0.3237  1.3424 -0.9114
10170SOL    HW231036   3.792   0.558   1.289  0.1678 -1.0492  2.1827
10171SOL     OW31037   7.480   1.176   1.647 -0.4274  0.0958  0.3908
10171SOL    HW131038   7.432   1.200   1.726  0.8148  0.6660  1.0148
10171SOL    HW231039   7.472   1.081   1.640  0.1444 -0.0694  1.7006
10172SOL     OW31040   4.103   3.053   5.303 -0.4312  0.1117 -0.0714
10172SOL    HW131041   4.173   3.118   5.314  0.8633 -0.8040 -2.2355
10172SOL    HW231042   4.050   3.086   5.231 -1.7650  0.3376  0.9675
10173SOL     OW31043   5.126   0.628   6.494  0.1342 -0.2076 -0.1183
10173SOL    HW131044   5.211   0.607   6.456  0.5384 -0.9321  1.1495
10173SOL    HW231045   5.142   0.704   6.549 -0.2956  0.3909 -0.8116
10174SOL     OW31046   4.011   3.810   6.482 -0.0072  0.4463 -0.4646
10174SOL    HW131047   4.011   3.714   6.480  1.3140  0.4242 -0.6487
10174SOL    HW231048   3.920   3.834   6.498 -0.2314 -0.8585  0.4300
10175SOL     OW31049   5.840   0.321   2.278 -0.3116 -0.3517  0.4282
10175SOL    HW131050   5.918   0.359   2.317 -0.6356 -1.1562  1.9164
10175SOL    HW231051   5.833   0.364   2.192  2.3302 -1.0307 -0.2109
10176SOL     OW31052   4.911   3.744   1.277 -0.2241  0.2346  0.5267
10176SOL    HW131053   4.848   3.706   1.339 -2.9744  0.0966 -2.0902
10176SOL    HW231054   4.916   3.836   1.302 -1.5278  0.2555  0.7841
10177SOL     OW31055   4.437   5.450   3.213  0.0817  0.2957 -0.6140
10177SOL    HW131056   4.348   5.420   3.194 -0.4656  1.4075  0.0758
10177SOL    HW231057   4.489   5.418   3.139 -0.8007 -0.7182 -0.8253
10178SOL     OW31058   0.114   6.022   4.538  0.0360  0.2803 -0.2613
10178SOL    HW131059   0.139   6.113   4.525  1.2216  0.0146  0.0350
10178SOL    HW231060   0.044   6.025   4.603 -0.9831  1.0787 -1.3579
10179SOL     OW31061   5.116   7.284   1.806 -0.0943  0.4428 -0.4976
10179SOL    HW131062   5.093   7.239   1.887 -1.1821 -0.3655 -1.2361
10179SOL    HW231063   5.104   7.377   1.826  0.4598  0.3086  0.5091
10180SOL     OW31064   2.948   0.337   5.444 -0.5838  0.7073 -0.1023
10180SOL    HW131065   2.944   0.349   5.539  1.1749  0.5555  0.0280
10180SOL    HW231066   2.962   0.424   5.408  2.3104  0.4438  0.1073
10181SOL     OW31067   1.396   4.467   6.684 -0.5929  0.6015 -0.5948
10181SOL    HW131068   1.420   4.386   6.640  0.1446  0.6628 -0.3342
10181SOL    HW231069   1.471   4.485   6.742 -0.4179  1.8380 -1.1764
10182SOL     OW31070   3.394   4.196   5.491  0.1427  0.0720  0.6777
10182SOL    HW131071   3.336   4.221   5.419  2.1369 -0.2445 -1.1680
10182SOL    HW231072   3.480   4.230   5.465  1.3681 -1.8950  1.8661
10183SOL     OW31073   1.668   4.825   5.493 -0.0190  0.0401  0.5625
10183SOL    HW131074   1.673   4.876   5.412  1.2224 -3.8448 -2.1545
10183SOL    HW231075   1.746   4.850   5.542  0.9695  0.2686 -1.0512
10184SOL     OW31076   5.986   5.091   4.399 -0.2136 -0.3676 -0.4462
10184SOL    HW131077   5.954   5.067   4.485 -0.5551 -0.3077 -0.5535
10184SOL    HW231078   5.920   5.058   4.338  0.6299 -1.4940 -0.7761
10185SOL     OW31079   6.357   2.719   0.109  0.0324 -0.7741  0.1697
10185SOL    HW131080   6.422   2.788   0.120 -0.3389 -0.2470 -0.7503
10185SOL    HW231081   6.407   2.638   0.101  0.5600 -0.4064 -0.2694
10186SOL     OW31082   4.639   5.429   7.490  0.1176 -0.5798  0.0004
10186SOL    HW131083   4.643   5.336   7.514  1.0047 -0.1298  1.8219
10186SOL    HW231084   4.583   5.432   7.413 -1.4888 -2.4153  1.0211
10187SOL     OW31085   2.379   3.467   6.245 -0.3540  0.1618 -0.2664
10187SOL    HW131086   2.431   3.457   6.325 -2.3244  1.6478  1.2812
10187SOL    HW231087   2.432   3.424   6.177  1.6478 -0.6577  1.6884
10188SOL     OW31088   6.163   7.080   4.239  0.6076  0.2629 -1.1572
10188SOL    HW131089   6.080   7.123   4.261  1.0921  0.2034  0.9744
10188SOL    HW231090   6.138   7.008   4.181 -0.8412  0.1815 -0.4734
10189SOL     OW31091   3.896   5.449   0.171 -0.2199  0.0781  0.3817
10189SOL    HW131092   3.978   5.470   0.126  1.3615 -0.7166  2.6441
10189SOL    HW231093   3.859   5.534   0.194 -1.6895  0.5607 -3.1904
10190SOL     OW31094   4.623   5.788   4.977  0.2919 -0.1953 -0.0132
10190SOL    HW131095   4.564   5.751   5.043  0.7511  0.9117  1.0727
10190SOL    HW231096   4.568   5.797   4.899 -0.2566 -1.5809  0.1927
10191SOL     OW31097   0.005   3.324   1.608  0.4294  0.9131  0.0974
10191SOL    HW131098   0.012   3.414   1.642  0.2077  2.2107 -2.9635
10191SOL    HW231099  -0.080   3.321   1.565  0.8683 -0.4351 -0.7355
10192SOL     OW31100   2.146   2.231   2.431 -0.3287 -0.0816 -0.1512
10192SOL    HW131101   2.080   2.208   2.366  0.8337 -1.7870 -0.8079
10192SOL    HW231102   2.187   2.311   2.397 -0.7106 -0.1412 -0.7653
10193SOL     OW31103   2.892   6.968   6.910  0.3008 -0.0208 -0.1808
10193SOL    HW131104   2.934   6.892   6.869 -0.9154 -0.4277 -0.7186
10193SOL    HW231105   2.916   7.042   6.855  0.4300 -0.2207 -0.3965
10194SOL     OW31106   0.575   6.391   3.226  0.0102  0.5121  0.3827
10194SOL    HW131107   0.482   6.370   3.211  0.2886  0.1967 -1.0595
10194SOL    HW231108   0.574   6.478   3.265 -0.8427  1.4554 -1.5832
10195SOL     OW31109   0.883   6.442   2.650 -0.1453 -0.2349  0.4677
10195SOL    HW131110   0.812   6.498   2.619 -1.0159 -2.2241 -1.4376
10195SOL    HW231111   0.922   6.406   2.570  1.1789 -1.3643  1.5659
10196SOL     OW31112   4.432   1.010   7.542  0.5744  0.4233 -0.3098
10196SOL    HW131113   4.463   1.009   7.451 -1.0933 -2.3159 -0.9845
10196SOL    HW231114   4.497   0.960   7.591 -0.3295 -1.3464 -0.8180
10197SOL     OW31115   4.291   5.918   7.154  0.1037 -0.7253  0.5557
10197SOL    HW131116   4.351   5.868   7.209 -0.3420 -0.3827  1.3753
10197SOL    HW231117   4.220   5.857   7.135 -0.1371 -0.5930  1.0358
10198SOL     OW31118   0.487   6.255   4.397  0.4437  0.4367 -0.3979
10198SOL    HW131119   0.513   6.231   4.487 -0.4071  0.4102 -0.1504
10198SOL    HW231120   0.568   6.251   4.347  1.1133  1.3672  0.5629
10199SOL     OW31121   2.843   7.564   5.861 -0.0527  0.0906 -0.8876
10199SOL    HW131122   2.846   7.469   5.865  1.1281  0.0597 -2.1054
10199SOL    HW231123   2.896   7.588   5.785  0.3813  1.7631 -0.1188
10200SOL     OW31124   7.515   1.826   3.504  0.2255  0.1495 -0.6303
10200SOL    HW131125   7.524   1.755   3.440  1.0522  0.5587 -0.9732
10200SOL    HW231126   7.556   1.792   3.583 -0.0188 -0.0201 -0.5731
10201SOL     OW31127   7.470   6.189   1.346  0.3480 -1.0154 -0.0152
10201SOL    HW131128   7.540   6.126   1.364  0.6110  0.0737  3.7370
10201SOL    HW231129   7.502   6.271   1.385 -0.6008  1.1928 -3.3791
10202SOL     OW31130   3.257   1.539   3.596  0.0235  0.0609  0.1297
10202SOL    HW131131   3.176   1.587   3.580 -0.8401 -1.3900 -0.0045
10202SOL    HW231132   3.285   1.567   3.684 -0.4911  0.7280  0.0904
10203SOL     OW31133   3.700   2.133   0.089 -0.5876  0.1505  0.2443
10203SOL    HW131134   3.680   2.042   0.109 -2.4866  0.4514 -0.0872
10203SOL    HW231135   3.742   2.130   0.002 -0.1224 -0.4354  0.4846
10204SOL     OW31136   3.868   2.087   2.269 -0.4733  0.5795  0.0960
10204SOL    HW131137   3.872   2.160   2.207 -0.7700  0.8819  0.4279
10204SOL    HW231138   3.785   2.044   2.249 -0.6297  0.7525  0.3597
10205SOL     OW31139   0.915   6.259   4.937  0.1467 -0.3317 -0.3016
10205SOL    HW131140   0.956   6.173   4.930 -1.3939 -1.1481  0.0861
10205SOL    HW231141   0.833   6.251   4.888 -0.3665  0.6805  0.3436
10206SOL     OW31142   4.029   2.856   5.503  0.5593  0.4176 -0.3998
10206SOL    HW131143   3.958   2.819   5.452  0.4149  0.6599 -0.3778
10206SOL    HW231144   4.065   2.925   5.448  0.0125  1.0850  0.0614
10207SOL     OW31145   4.709   2.386   7.044 -0.4631 -0.1613  0.0740
10207SOL    HW131146   4.634   2.339   7.080 -0.4829  0.0892  0.3649
10207SOL    HW231147   4.714   2.467   7.096 -0.0820 -0.1087 -0.0411
10208SOL     OW31148   7.201   0.446   5.255 -0.1646 -0.1976  0.1079
10208SOL    HW131149   7.287   0.464   5.291  0.4464  1.0819 -1.7947
10208SOL    HW231150   7.165   0.533   5.234 -2.4989 -0.6009  2.0253
10209SOL     OW31151   4.102   6.761   5.060  0.7808 -0.2825  0.1935
10209SOL    HW131152   4.164   6.691   5.039  0.7883 -1.1007  2.6180
10209SOL    HW231153   4.155   6.826   5.107  0.5962  0.9913 -1.3105
10210SOL     OW31154   0.478   1.374   7.154 -0.0211 -0.0563 -0.0661
10210SOL    HW131155   0.517   1.458   7.178 -1.8947  1.0800 -0.7905
10210SOL    HW231156   0.471   1.327   7.237  1.2953  0.3570  0.3146
10211SOL     OW31157   0.589   1.693   0.916 -0.1061  0.1797 -0.1851
10211SOL    HW131158   0.671   1.653   0.886  0.5872  0.4373  1.3111
10211SOL    HW231159   0.590   1.781   0.878 -0.4087 -0.2937 -1.3538
10212SOL     OW31160   5.746   6.214   6.290 -0.2538  0.0270  0.4163
10212SOL    HW131161   5.839   6.201   6.307  0.0556  0.5447 -0.7786
10212SOL    HW231162   5.731   6.306   6.312 -0.8630 -0.4373  2.1179
10213SOL     OW31163   3.233   0.464   3.200  0.1803  0.6561 -0.2449
10213SOL    HW131164   3.174   0.398   3.235  1.2796 -0.1771  0.0753
10213SOL    HW231165   3.190   0.547   3.219  0.3922  0.2270  2.4777
10214SOL     OW31166   6.337   3.479   4.261 -0.2288  0.0151 -0.2604
10214SOL    HW131167   6.363   3.567   4.288  0.8822 -0.4303  0.2015
10214SOL    HW231168   6.242   3.483   4.252 -0.1337  1.4409 -0.9297
10215SOL     OW31169   0.285   4.771   2.020 -0.1954  0.2871  0.1509
10215SOL    HW131170   0.376   4.766   1.989 -0.6125 -0.5480 -0.9498
10215SOL    HW231171   0.265   4.865   2.016  0.5956  0.4809  0.3672
10216SOL     OW31172   5.826   7.486   3.758  0.5132 -0.1037  0.0466
10216SOL    HW131173   5.770   7.523   3.826 -0.0706 -0.6404 -0.1340
10216SOL    HW231174   5.909   7.467   3.803 -0.0556 -0.9960  0.7596
10217SOL     OW31175   6.715   1.818   6.984  0.2578  0.4550  0.0305
10217SOL    HW131176   6.638   1.836   6.930 -0.7657 -0.7402  1.0238
10217SOL    HW231177   6.737   1.902   7.023 -1.1657  0.6371  0.4971
10218SOL     OW31178   0.121   5.232   0.234  0.2727  0.1389 -0.2462
10218SOL    HW131179   0.046   5.210   0.289  0.0354  1.6653  0.0960
10218SOL    HW231180   0.186   5.267   0.295 -0.4960  3.1352 -0.9756
10219SOL     OW31181   0.029   6.016   3.549  0.2405 -0.8154 -0.1505
10219SOL    HW131182   0.125   6.024   3.556  0.1934 -0.4316  0.0663
10219SOL    HW231183   0.013   6.001   3.456  0.4297  0.3085 -0.3771
10220SOL     OW31184   3.323   6.574   4.662 -0.7803 -0.4789  0.1555
10220SOL    HW131185   3.284   6.654   4.696 -1.4514 -0.2147 -1.1795
10220SOL    HW231186   3.407   6.601   4.626 -0.4646 -0.6075  0.7704
10221SOL     OW31187   1.866   3.123   1.834  0.0955  0.4705  0.4114
10221SOL    HW131188   1.796   3.123   1.768 -0.1738  0.4809  0.6942
10221SOL    HW231189   1.876   3.215   1.858  1.2237  0.6613 -0.6860
10222SOL     OW31190   5.837   6.975   3.293 -0.1710  0.3121  0.1782
10222SOL    HW131191   5.857   6.960   3.201  0.4285 -0.0564  0.3630
10222SOL    HW231192   5.772   6.908   3.315  1.1169 -0.8738  0.5159
10223SOL     OW31193   2.150   2.674   1.810 -0.0439 -0.0663 -0.2348
10223SOL    HW131194   2.067   2.631   1.831 -0.7794  1.6354  0.4645
10223SOL    HW231195   2.136   2.714   1.725 -1.0739  2.7833  1.1460
10224SOL     OW31196   2.328   6.109   6.299 -0.3520 -0.1378  0.2784
10224SOL    HW131197   2.370   6.151   6.224 -0.5647  0.0760  0.2778
10224SOL    HW231198   2.294   6.026   6.264 -0.7943  0.1398  0.0437
10225SOL     OW31199   6.590   6.321   5.234 -0.0676 -0.6492 -0.1762
10225SOL    HW131200   6.500   6.354   5.246 -0.0449 -0.6473 -0.0054
10225SOL    HW231201   6.643   6.378   5.289  0.0849 -0.4353 -0.5395
10226SOL     OW31202   5.682   0.901   5.961 -0.2697 -0.0047 -0.1259
10226SOL    HW131203   5.621   0.890   5.888 -1.1829  0.2732  0.5725
10226SOL    HW231204   5.713   0.992   5.954  0.1657 -0.1837 -0.5527
10227SOL     OW31205   5.038   5.919   6.713  0.4845 -0.1820  0.1854
10227SOL    HW131206   5.077   5.833   6.729  2.7391  0.4870 -1.2536
10227SOL    HW231207   5.094   5.980   6.762 -1.1784  0.5007  1.3209
10228SOL     OW31208   6.141   7.324   5.200  0.0052  0.2800  0.3845
10228SOL    HW131209   6.122   7.384   5.271  1.7525 -0.8403  1.9073
10228SOL    HW231210   6.149   7.238   5.243  1.1166 -0.4259 -1.1384
10229SOL     OW31211   6.265   5.052   4.115 -0.2127  0.1879  0.0500
10229SOL    HW131212   6.238   5.022   4.201  0.0684  1.4480  0.5965
10229SOL    HW231213   6.226   4.989   4.054 -0.9323 -0.3571  1.0550
10230SOL     OW31214   1.290   6.267   3.056 -0.1875  0.0186 -0.4131
10230SOL    HW131215   1.361   6.212   3.022  0.8814  0.0404  1.6037
10230SOL    HW231216   1.210   6.226   3.024  0.6633 -1.3064 -0.9188
10231SOL     OW31217   0.169   7.368   7.383 -0.0511  0.2394  0.7290
10231SOL    HW131218   0.181   7.376   7.288 -1.5692 -0.3142  0.4666
10231SOL    HW231219   0.210   7.448   7.418  0.2211  0.6268 -0.4085
10232SOL     OW31220   4.271   1.874   4.992  0.5522 -0.2212 -0.2630
10232SOL    HW131221   4.196   1.907   5.040 -0.1063 -0.5863 -1.0184
10232SOL    HW231222   4.346   1.895   5.047 -0.1035  0.1091  0.5196
10233SOL     OW31223   6.747   5.880   2.440 -0.0154 -0.5144  0.2057
10233SOL    HW131224   6.670   5.937   2.433 -0.4941 -1.1862 -0.0453
10233SOL    HW231225   6.770   5.860   2.349  0.2420 -0.5980  0.2894
10234SOL     OW31226   3.107   6.010   0.093 -0.0184 -0.2778  0.3715
10234SOL    HW131227   3.147   6.036   0.176 -2.1602  0.8661  1.1224
10234SOL    HW231228   3.059   5.930   0.115 -0.1484 -0.2715  0.1026
10235SOL     OW31229   5.911   2.737   3.012  0.2815 -0.2006  0.3069
10235SOL    HW131230   5.830   2.707   3.055 -0.2797 -2.4321 -2.0275
10235SOL    HW231231   5.881   2.772   2.928  1.4593  2.7485  0.9917
10236SOL     OW31232   1.755   5.625   5.513  0.0420  0.3773 -0.3555
10236SOL    HW131233   1.753   5.694   5.447 -0.3504  0.6462 -0.0736
10236SOL    HW231234   1.838   5.637   5.559  0.4543 -0.0051 -0.9990
10237SOL     OW31235   4.296   2.639   4.567  0.4314 -0.2932 -0.0118
10237SOL    HW131236   4.391   2.647   4.556  0.8477 -4.4999 -0.9895
10237SOL    HW231237   4.265   2.605   4.483 -2.2385  1.9946 -0.0996
10238SOL     OW31238   2.575   4.658   3.406 -0.0510  0.6045 -0.1399
10238SOL    HW131239   2.606   4.747   3.426 -0.1691  0.5828  0.1496
10238SOL    HW231240   2.480   4.665   3.413 -0.0197  0.2521  0.7459
10239SOL     OW31241   2.003   0.656   1.223  0.2425  0.1824  0.1633
10239SOL    HW131242   1.996   0.582   1.162  0.5801  0.8133 -0.6737
10239SOL    HW231243   2.069   0.629   1.287  0.7731 -0.0289 -0.4616
10240SOL     OW31244   2.832   3.802   5.694 -0.0663  0.4662  0.0555
10240SOL    HW131245   2.877   3.732   5.743 -0.7990  0.8031  1.2589
10240SOL    HW231246   2.889   3.878   5.703  0.8057  0.0212 -1.3815
10241SOL     OW31247   4.936   3.007   7.106 -0.1344 -0.2072 -0.3283
10241SOL    HW131248   4.950   3.093   7.146  0.1076 -0.1702 -0.4898
10241SOL    HW231249   4.915   2.950   7.179  2.8162 -0.7208  0.2438
10242SOL     OW31250   0.402   5.533   2.172  0.3022  0.3799 -0.2527
10242SOL    HW131251   0.488   5.505   2.142 -0.2252 -0.5647 -0.8865
10242SOL    HW231252   0.421   5.593   2.245  1.4568 -2.3782  1.8643
10243SOL     OW31253   6.205   7.422   2.291  0.6784 -0.7548  0.1338
10243SOL    HW131254   6.266   7.490   2.261 -0.2298 -1.3249 -3.5652
10243SOL    HW231255   6.244   7.340   2.262  0.1912 -1.5297  1.5996
10244SOL     OW31256   5.822   5.022   4.996  0.1152 -0.7306  0.4668
10244SOL    HW131257   5.891   4.985   5.051 -1.7900 -3.8324  1.0521
10244SOL    HW231258   5.866   5.086   4.941  3.2484 -1.8254  1.4726
10245SOL     OW31259   1.666   4.249   7.131  0.0236  0.4313 -0.1469
10245SOL    HW131260   1.677   4.314   7.200 -0.4342 -0.7506  1.0728
10245SOL    HW231261   1.721   4.176   7.157 -2.0658 -1.0738  0.3514
10246SOL     OW31262   4.227   4.235   2.762 -0.2983 -0.2176  0.0393
10246SOL    HW131263   4.140   4.273   2.757 -0.3122 -0.2561 -0.0111
10246SOL    HW231264   4.213   4.143   2.782 -0.3262 -0.5041 -1.2212
10247SOL     OW31265   3.944   1.278   1.727  0.5560  0.3862 -0.4004
10247SOL    HW131266   3.984   1.261   1.641  1.7617  1.7715 -0.1477
10247SOL    HW231267   3.928   1.372   1.728  2.1239  0.6962  1.5205
10248SOL     OW31268   1.645   1.130   7.150  0.9448 -0.2091  0.7460
10248SOL    HW131269   1.616   1.098   7.236  1.7374 -1.1335  0.6782
10248SOL    HW231270   1.591   1.082   7.088 -0.0976  0.9455  0.7244
10249SOL     OW31271   6.602   2.225   3.949  0.8658  0.6577 -0.0016
10249SOL    HW131272   6.586   2.268   3.865  0.1935 -0.8264 -0.6672
10249SOL    HW231273   6.525   2.244   4.002  0.9909  1.0394  0.0435
10250SOL     OW31274   4.812   3.299   6.663 -0.0527  0.1075  0.5899
10250SOL    HW131275   4.795   3.207   6.680  0.6498 -0.3014 -0.7766
10250SOL    HW231276   4.730   3.344   6.686 -0.4287 -0.8544  1.1705
10251SOL     OW31277   1.803   3.866   0.950 -0.3851  0.6482  0.0274
10251SOL    HW131278   1.728   3.889   1.005 -1.4681 -0.1986 -1.0509
10251SOL    HW231279   1.765   3.840   0.866  0.8736 -2.2212  0.2157
10252SOL     OW31280   2.507   4.880   6.250 -0.1747 -0.0313  0.4373
10252SOL    HW131281   2.446   4.943   6.289 -1.0758 -1.7061  1.8543
10252SOL    HW231282   2.514   4.810   6.315  1.7503 -0.8289 -0.5580
10253SOL     OW31283   1.496   7.460   1.762  0.0180 -0.2342  0.5332
10253SOL    HW131284   1.569   7.487   1.818  0.7480 -1.9530  0.4939
10253SOL    HW231285   1.439   7.536   1.758  0.1848  0.1386  3.2123
10254SOL     OW31286   0.578   4.237   4.510 -0.1867 -0.0983  0.1047
10254SOL    HW131287   0.492   4.265   4.543 -1.1313 -0.3574 -1.9395
10254SOL    HW231288   0.610   4.312   4.459  1.2350  0.3113  1.5338
10255SOL     OW31289   0.753   2.214   2.194  0.0794  0.3012  0.0047
10255SOL    HW131290   0.794   2.232   2.278  0.2418  0.6829 -0.1546
10255SOL    HW231291   0.698   2.137   2.210  0.9525 -0.3014  0.1861
10256SOL     OW31292   0.336   3.303   3.777 -0.0837 -0.2245  0.2663
10256SOL    HW131293   0.400   3.260   3.720  0.8244  0.5661  0.6508
10256SOL    HW231294   0.263   3.324   3.719 -0.3388 -1.8166 -0.0263
10257SOL     OW31295   0.318   4.422   7.088  0.2191 -0.0867 -0.2230
10257SOL    HW131296   0.324   4.453   6.998  0.4688  1.0448  0.1599
10257SOL    HW231297   0.404   4.441   7.126 -0.1902  0.3411  0.5137
10258SOL     OW31298   4.198   2.710   6.197 -0.3429 -0.2480  0.0173
10258SOL    HW131299   4.229   2.669   6.277 -0.0775  0.7799  0.4630
10258SOL    HW231300   4.140   2.780   6.227  0.0427  0.3849 -0.6673
10259SOL     OW31301   7.352   0.385   0.745  0.0364  0.1977 -0.2335
10259SOL    HW131302   7.300   0.338   0.680  0.1352 -1.6636  0.9542
10259SOL    HW231303   7.441   0.355   0.732  0.7557  2.7002 -1.6605
10260SOL     OW31304   6.723   0.601   7.267  0.6314 -0.1319  0.1341
10260SOL    HW131305   6.808   0.630   7.300 -0.5871  0.1178  3.3643
10260SOL    HW231306   6.659   0.641   7.326 -1.7482 -0.8462 -1.7714
10261SOL     OW31307   1.746   5.376   6.347  0.3814 -0.2306 -0.4815
10261SOL    HW131308   1.667   5.418   6.316  0.0541 -0.0558  0.5564
10261SOL    HW231309   1.755   5.297   6.292 -0.8557 -0.5900 -0.1801
10262SOL     OW31310   5.268   6.665   5.317 -0.8834  0.6759 -0.1773
10262SOL    HW131311   5.285   6.572   5.329  0.9031  0.7228 -1.8483
10262SOL    HW231312   5.187   6.668   5.265 -1.6503  0.1297  0.9597
10263SOL     OW31313   7.429   5.623   2.495 -0.5006 -0.3057 -0.0650
10263SOL    HW131314   7.388   5.576   2.568  0.5279 -0.5776  0.3663
10263SOL    HW231315   7.356   5.650   2.439 -1.2467 -0.8275  0.6313
10264SOL     OW31316   5.082   6.522   3.188 -0.2021 -0.0188 -0.1007
10264SOL    HW131317   5.156   6.461   3.185 -0.2508 -0.1112  0.5207
10264SOL    HW231318   5.122   6.607   3.203 -0.1526  0.0685 -0.7213
10265SOL     OW31319   1.558   6.203   2.260 -0.1566  0.2616 -0.5469
10265SOL    HW131320   1.485   6.231   2.316 -0.3324 -0.6310 -0.3103
10265SOL    HW231321   1.556   6.264   2.187 -0.0428  1.3336  0.3186
10266SOL     OW31322   0.750   1.694   2.882 -0.3754 -0.3866  0.0391
10266SOL    HW131323   0.846   1.691   2.882 -0.2848  1.3697 -0.0057
10266SOL    HW231324   0.724   1.618   2.831  0.9849 -1.0938  0.3559
10267SOL     OW31325   4.232   1.829   1.215  0.1561 -0.1047 -0.2340
10267SOL    HW131326   4.209   1.868   1.299 -0.1119  0.3740 -0.5277
10267SOL    HW231327   4.327   1.839   1.209  0.4673 -1.9016  0.8897
10268SOL     OW31328   0.951   1.778   2.617 -0.2158 -0.3634 -0.2218
10268SOL    HW131329   0.947   1.872   2.635 -0.3883 -0.2408 -0.8702
10268SOL    HW231330   1.034   1.766   2.572  0.4052 -0.7307  0.9952
10269SOL     OW31331   5.319   3.518   4.270  0.0220 -0.6976  0.7708
10269SOL    HW131332   5.372   3.532   4.191 -0.2469  1.1676  0.8656
10269SOL    HW231333   5.272   3.601   4.281 -1.2322 -1.5377  1.9416
10270SOL     OW31334   4.841   5.528   1.543  0.0529 -0.3345  0.1097
10270SOL    HW131335   4.867   5.443   1.580 -0.2135 -0.6625 -0.4452
10270SOL    HW231336   4.915   5.586   1.563 -1.6681  0.6421  4.7455
10271SOL     OW31337   7.139   5.498   3.068  0.5671  0.7650 -0.0282
10271SOL    HW131338   7.082   5.422   3.060 -0.5472  1.7748 -3.0758
10271SOL    HW231339   7.091   5.559   3.124 -0.9282  1.1461 -1.6409
10272SOL     OW31340   5.472   0.728   3.284  0.6992 -0.2047  0.8131
10272SOL    HW131341   5.507   0.788   3.350  0.0573  0.3070  0.6946
10272SOL    HW231342   5.519   0.646   3.299  0.4587 -0.1425  2.0134
10273SOL     OW31343   2.434   7.281   6.378  0.1569  0.2703 -0.6760
10273SOL    HW131344   2.440   7.331   6.459 -1.1207 -0.3932 -0.1469
10273SOL    HW231345   2.467   7.340   6.311  2.4436  0.4045  0.4692
10274SOL     OW31346   2.327   3.075   2.149  0.5489 -0.4344 -0.3081
10274SOL    HW131347   2.311   3.042   2.237  1.5412 -0.5653 -0.1579
10274SOL    HW231348   2.364   3.163   2.163  1.3465 -0.7175 -0.5457
10275SOL     OW31349   3.365   6.787   1.206 -0.4332 -0.6484  0.1744
10275SOL    HW131350   3.297   6.854   1.211  0.5843  0.5686 -1.4270
10275SOL    HW231351   3.347   6.740   1.124 -1.2833 -2.5784  1.3875
10276SOL     OW31352   5.843   5.287   2.617  0.1860  0.1710  0.0990
10276SOL    HW131353   5.860   5.260   2.527 -2.7744  0.4435 -0.6610
10276SOL    HW231354   5.895   5.366   2.629  0.2057  0.4399 -1.5673
10277SOL     OW31355   2.296   6.405   4.433  0.3821 -0.1675  0.4924
10277SOL    HW131356   2.352   6.421   4.357 -1.4070 -0.5260 -0.9734
10277SOL    HW231357   2.223   6.354   4.398  1.0102 -3.1451  3.0316
10278SOL     OW31358   4.756   0.757   4.731  0.9390 -0.0099  0.9184
10278SOL    HW131359   4.798   0.682   4.689  0.7603  0.6578 -0.5077
10278SOL    HW231360   4.667   0.758   4.695 -0.2631 -1.1070  3.5109
10279SOL     OW31361   6.337   5.978   4.593 -0.2958 -0.4364 -0.5312
10279SOL    HW131362   6.414   6.034   4.598 -1.1253  0.6760  0.3674
10279SOL    HW231363   6.310   5.982   4.501 -0.3349  0.6335 -0.4753
10280SOL     OW31364   1.413   6.792   7.067 -0.1571 -0.2402  0.0931
10280SOL    HW131365   1.435   6.877   7.028 -0.0272 -0.0332  0.6124
10280SOL    HW231366   1.485   6.774   7.128 -0.2141 -0.6953  0.0279
10281SOL     OW31367   6.325   0.539   5.410  0.2451  0.4706 -0.5694
10281SOL    HW131368   6.350   0.631   5.396 -2.5165  1.0372 -2.4229
10281SOL    HW231369   6.365   0.492   5.337  0.2064  0.4757 -0.5934
10282SOL     OW31370   3.353   5.617   3.434  0.3652 -0.1622  0.0894
10282SOL    HW131371   3.300   5.562   3.377 -0.0642  0.7760 -0.4490
10282SOL    HW231372   3.368   5.564   3.513 -1.5287 -0.3785  0.3452
10283SOL     OW31373   0.138   1.443   2.538 -1.1591 -0.1079 -0.3455
10283SOL    HW131374   0.229   1.451   2.566 -1.2862 -0.4795  0.1852
10283SOL    HW231375   0.100   1.528   2.558 -1.6867 -0.8794  2.2699
10284SOL     OW31376   5.668   0.149   7.465  0.0038 -0.0725 -0.2410
10284SOL    HW131377   5.757   0.122   7.442  0.1897  0.0316  0.3419
10284SOL    HW231378   5.614   0.114   7.395  0.3804 -1.0153 -0.0883
10285SOL     OW31379   0.275   4.194   2.460  0.5504  0.5681  0.2537
10285SOL    HW131380   0.352   4.137   2.458 -0.3086 -0.6547 -2.1691
10285SOL    HW231381   0.249   4.202   2.368 -2.1270  1.0663  0.9713
10286SOL     OW31382   6.813   7.392   3.651 -0.3923 -0.0302  0.5899
10286SOL    HW131383   6.877   7.463   3.641 -1.5873  1.3173  2.0361
10286SOL    HW231384   6.863   7.321   3.692  0.9449 -0.3025 -1.3557
10287SOL     OW31385   5.218   3.706   5.561 -0.0836  0.6327 -0.5466
10287SOL    HW131386   5.220   3.722   5.655  2.3682  2.4445 -0.8153
10287SOL    HW231387   5.130   3.671   5.545 -0.4588 -0.0592  2.4252
10288SOL     OW31388   3.713   1.332   5.358 -0.5416 -0.2023 -0.0041
10288SOL    HW131389   3.689   1.318   5.450 -3.5351  0.7597 -0.5327
10288SOL    HW231390   3.751   1.420   5.357 -1.0438  0.0216  0.2296
10289SOL     OW31391   2.152   3.366   1.983 -0.3144 -0.1743  0.4449
10289SOL    HW131392   2.120   3.350   2.072 -0.8655 -0.6132  0.1747
10289SOL    HW231393   2.171   3.278   1.949  1.8009  0.0872  0.8076
10290SOL     OW31394   6.427   7.100   4.271 -0.0145  0.4948  0.2427
10290SOL    HW131395   6.334   7.094   4.248 -0.3336  2.2256  0.9537
10290SOL    HW231396   6.432   7.065   4.360  0.1722 -0.3287 -0.0782
10291SOL     OW31397   5.402   2.318   4.356 -0.0471  0.0183  0.2366
10291SOL    HW131398   5.351   2.262   4.415 -1.7245 -1.5560 -2.4860
10291SOL    HW231399   5.418   2.263   4.279  1.4985  2.1182 -1.0513
10292SOL     OW31400   3.129   6.044   1.259 -0.3564  0.3818 -0.2147
10292SOL    HW131401   3.195   6.049   1.190 -0.8962 -0.3951 -0.8073
10292SOL    HW231402   3.157   6.109   1.324  0.7342  0.3763 -0.6613
10293SOL     OW31403   6.491   3.487   3.991  0.3081  0.0889 -0.2129
10293SOL    HW131404   6.567   3.544   4.001  0.6737 -0.3874 -0.2587
10293SOL    HW231405   6.471   3.457   4.080  0.1953  0.1906 -0.2043
10294SOL     OW31406   3.919   5.877   2.198  0.3478 -0.0830  0.1615
10294SOL    HW131407   3.870   5.799   2.226  0.4396  0.0601  0.7409
10294SOL    HW231408   3.955   5.854   2.113 -2.3580  0.4999 -1.2588
10295SOL     OW31409   0.362   6.512   6.249 -0.2394  0.2459  0.3622
10295SOL    HW131410   0.270   6.491   6.231 -0.3620  0.0264  1.1942
10295SOL    HW231411   0.361   6.605   6.272 -0.3175  0.1466  0.7681
10296SOL     OW31412   3.444   6.415   4.438 -0.1370  0.0837 -0.6538
10296SOL    HW131413   3.433   6.394   4.346  0.7799 -1.6475 -0.4046
10296SOL    HW231414   3.373   6.368   4.482 -1.9189  2.5850 -0.5814
10297SOL     OW31415   1.628   6.157   7.512 -0.4465 -0.5071  0.5525
10297SOL    HW131416   1.608   6.118   7.598 -1.1077  0.5493  0.8957
10297SOL    HW231417   1.550   6.140   7.459  0.6448 -2.7537 -0.4732
10298SOL     OW31418   3.278   6.499   2.370 -0.3225 -0.1924 -0.3403
10298SOL    HW131419   3.302   6.590   2.354  0.6651 -0.0624  1.6451
10298SOL    HW231420   3.220   6.502   2.446  1.3327 -1.3259  1.0585
10299SOL     OW31421   0.019   3.024   5.275 -0.5542  0.1019 -0.0604
10299SOL    HW131422   0.036   3.116   5.295 -2.8232  0.6880 -0.6009
10299SOL    HW231423   0.084   3.002   5.207 -0.4808  1.5236 -0.4813
10300SOL     OW31424   4.137   3.124   6.907  0.0882  0.2709  0.6046
10300SOL    HW131425   4.184   3.044   6.884  0.4466  1.1759 -2.1738
10300SOL    HW231426   4.058   3.123   6.853 -0.0156  1.6476  0.6750
10301SOL     OW31427   4.231   5.435   2.612  0.4721 -0.5514  0.3617
10301SOL    HW131428   4.191   5.348   2.608  1.2869 -1.0093  1.6442
10301SOL    HW231429   4.220   5.470   2.523 -0.9216 -1.4704  0.1350
10302SOL     OW31430   0.411   4.577   0.747  0.3843 -0.0945  0.1180
10302SOL    HW131431   0.431   4.483   0.752  1.0162  0.0908  1.6632
10302SOL    HW231432   0.493   4.620   0.773  0.4872  0.9433 -1.7429
10303SOL     OW31433   4.581   5.278   2.533 -0.0100 -0.1666  0.3607
10303SOL    HW131434   4.530   5.312   2.459 -2.4201  0.0058  1.9970
10303SOL    HW231435   4.623   5.356   2.570 -0.5824  0.0910  0.4778
10304SOL     OW31436   5.929   5.310   1.449 -0.2463  0.1671  0.3377
10304SOL    HW131437   5.957   5.218   1.452  1.4446  0.6626  0.4957
10304SOL    HW231438   5.870   5.314   1.374  0.4976 -0.8386 -0.3322
10305SOL     OW31439   4.815   4.429   1.736  0.4640  0.4083  0.0953
10305SOL    HW131440   4.801   4.461   1.646 -1.3527  2.3476  0.9592
10305SOL    HW231441   4.760   4.351   1.742  0.4354  0.3838 -0.4100
10306SOL     OW31442   1.445   6.205   2.518  0.1904 -0.7823 -0.0524
10306SOL    HW131443   1.385   6.161   2.578  1.8665 -0.1831  2.2038
10306SOL    HW231444   1.532   6.171   2.542  0.9599 -0.2487 -1.9375
10307SOL     OW31445   0.014   3.133   0.879  0.1770 -0.1381 -0.2333
10307SOL    HW131446   0.044   3.046   0.904  1.8343 -0.1957 -2.1623
10307SOL    HW231447  -0.060   3.117   0.820  1.6256 -0.3990 -2.0780
10308SOL     OW31448   7.131   5.161   7.160 -0.4092 -0.2989 -0.2730
10308SOL    HW131449   7.207   5.104   7.154 -0.1426  0.1440 -1.3427
10308SOL    HW231450   7.056   5.102   7.162 -0.1105 -0.6998 -0.8453
10309SOL     OW31451   6.719   6.921   6.026  0.1122 -0.5076 -0.2777
10309SOL    HW131452   6.753   6.910   6.115 -2.4767  0.7888  0.9629
10309SOL    HW231453   6.797   6.934   5.972  1.6706  0.9980  2.1487
10310SOL     OW31454   4.674   2.824   4.328 -0.8456 -0.2220  0.7025
10310SOL    HW131455   4.648   2.787   4.244  0.6316 -1.0667  0.5681
10310SOL    HW231456   4.697   2.915   4.308  5.2322 -1.6906 -1.3274
10311SOL     OW31457   6.661   6.976   6.717  0.3959  0.4898 -0.6748
10311SOL    HW131458   6.686   6.884   6.729 -0.9125  0.2108  0.2103
10311SOL    HW231459   6.566   6.976   6.728  0.4228  2.0272 -0.2055
10312SOL     OW31460   2.277   1.310   2.518 -0.5085  0.0140 -0.2934
10312SOL    HW131461   2.286   1.240   2.583  0.2338 -0.3838 -0.8078
10312SOL    HW231462   2.201   1.361   2.547  0.7668  0.8110  1.7892
10313SOL     OW31463   6.334   4.965   7.232  0.3469  0.4167  0.6052
10313SOL    HW131464   6.351   4.974   7.139 -0.5382 -0.5259  0.3384
10313SOL    HW231465   6.276   5.038   7.254  1.8581  1.6000  0.7864
10314SOL     OW31466   3.831   3.217   1.569 -0.4664 -0.3540 -0.0938
10314SOL    HW131467   3.767   3.152   1.542  1.2565 -3.1483  1.9989
10314SOL    HW231468   3.811   3.233   1.661  1.3303 -0.7418  0.3971
10315SOL     OW31469   1.367   6.041   2.715 -0.4104  0.0882 -0.2099
10315SOL    HW131470   1.417   6.082   2.785 -1.5709  1.3263 -0.0706
10315SOL    HW231471   1.365   5.948   2.737  1.1753  0.1266  0.1633
10316SOL     OW31472   2.405   5.184   2.054 -0.2264  0.3499 -0.3846
10316SOL    HW131473   2.485   5.166   2.102 -0.1822  2.2109  0.3225
10316SOL    HW231474   2.397   5.112   1.992  2.2839  0.4162 -0.8727
10317SOL     OW31475   5.766   4.138   2.939 -0.4329 -0.4748  0.0483
10317SOL    HW131476   5.833   4.180   2.884 -1.0829 -0.4472 -0.7260
10317SOL    HW231477   5.800   4.049   2.953  0.1507 -0.2184  0.3315
10318SOL     OW31478   2.440   7.236   1.263  0.1219  0.1265  0.4721
10318SOL    HW131479   2.522   7.270   1.297 -0.3372 -0.5004  2.3546
10318SOL    HW231480   2.379   7.310   1.268  0.5102  0.5541 -0.8000
10319SOL     OW31481   7.374   5.131   7.458  0.3046 -0.2390 -0.1533
10319SOL    HW131482   7.315   5.064   7.494 -0.6340  0.1568 -0.9178
10319SOL    HW231483   7.320   5.180   7.396  1.4643  0.0998 -0.9276
10320SOL     OW31484   0.056   5.906   2.001 -1.0994 -0.3502  0.3873
10320SOL    HW131485  -0.009   5.838   1.981 -1.6400 -0.0777  1.1628
10320SOL    HW231486   0.118   5.864   2.060  0.1390 -0.9641 -1.2558
10321SOL     OW31487   7.291   6.147   3.500 -0.2623  0.0105  0.4360
10321SOL    HW131488   7.224   6.128   3.435  0.3307 -0.0194 -0.1831
10321SOL    HW231489   7.327   6.061   3.524 -0.4772  0.0213  0.7999
10322SOL     OW31490   1.660   3.610   5.380 -0.5493 -0.6276 -0.1131
10322SOL    HW131491   1.752   3.634   5.393 -0.7459  0.9841 -1.3774
10322SOL    HW231492   1.614   3.694   5.371 -2.2043 -1.3950  0.7460
10323SOL     OW31493   5.172   4.927   0.172  0.0402 -0.3659 -0.1606
10323SOL    HW131494   5.158   5.018   0.198  1.0506 -0.3652  0.4211
10323SOL    HW231495   5.267   4.914   0.179 -0.1052 -1.4959 -0.1198
10324SOL     OW31496   6.211   1.935   7.313  0.4699 -0.3714  0.0965
10324SOL    HW131497   6.179   1.877   7.244 -0.5047 -1.4253  1.3958
10324SOL    HW231498   6.222   1.879   7.389  1.0776  0.8607  0.9511
10325SOL     OW31499   0.994   4.895   5.706  0.0558  0.0456 -0.2925
10325SOL    HW131500   1.046   4.960   5.659  0.1776  0.0148 -0.2018
10325SOL    HW231501   0.925   4.870   5.645  0.0806  0.1716 -0.3720
10326SOL     OW31502   1.504   6.617   5.380 -0.1505 -0.1255  0.5393
10326SOL    HW131503   1.533   6.648   5.466 -0.4657 -0.8896  0.9346
10326SOL    HW231504   1.557   6.539   5.364 -0.2427 -0.1056  0.1362
10327SOL     OW31505   2.719   4.644   3.647  0.3374  0.2153  0.4376
10327SOL    HW131506   2.641   4.697   3.664 -0.0532 -0.5947  1.2422
10327SOL    HW231507   2.710   4.615   3.556 -1.3031 -1.4559  1.0652
10328SOL     OW31508   1.318   3.198   2.394 -0.1238 -0.7287  0.0276
10328SOL    HW131509   1.302   3.135   2.323  0.6884 -0.5688 -0.3125
10328SOL    HW231510   1.231   3.230   2.417 -0.3938 -0.6744 -1.0045
10329SOL     OW31511   4.643   2.212   0.658  0.0007 -0.2153 -0.3356
10329SOL    HW131512   4.614   2.244   0.573 -2.0800 -2.9480 -0.7739
10329SOL    HW231513   4.690   2.131   0.639  1.5035  0.2725  1.0165
10330SOL     OW31514   4.596   7.028   6.365 -0.0459  0.9115  0.3453
10330SOL    HW131515   4.593   7.116   6.327 -0.3675  1.6840  2.0873
10330SOL    HW231516   4.512   7.017   6.408 -0.0863 -0.3507 -0.0100
10331SOL     OW31517   2.440   7.058   0.037  0.3607  0.3642 -0.4913
10331SOL    HW131518   2.449   7.071  -0.057  1.2688  0.6899 -0.3662
10331SOL    HW231519   2.408   6.968   0.046  1.7884 -0.2349 -1.0531
10332SOL     OW31520   2.720   4.759   1.001 -0.1058  0.4575  0.2178
10332SOL    HW131521   2.789   4.694   1.015 -0.3484  0.1922  0.1689
10332SOL    HW231522   2.693   4.746   0.911  2.0181  2.6870 -0.8853
10333SOL     OW31523   3.098   4.802   0.916 -0.4464  0.1037  0.0427
10333SOL    HW131524   3.118   4.821   1.008  1.6728 -1.1951 -0.0703
10333SOL    HW231525   3.082   4.708   0.914  0.3346 -0.0232 -1.0153
10334SOL     OW31526   1.891   7.561   0.420 -0.2243 -0.5542 -0.6514
10334SOL    HW131527   1.824   7.629   0.415  0.6238  0.3508 -0.1217
10334SOL    HW231528   1.885   7.515   0.337 -1.2940 -0.3010 -0.7314
10335SOL     OW31529   3.300   4.963   1.897 -0.3495 -0.3977 -0.1655
10335SOL    HW131530   3.221   4.932   1.941  0.4357 -0.2610  1.4055
10335SOL    HW231531   3.281   5.054   1.875 -0.5939 -0.3256  0.3257
10336SOL     OW31532   1.233   5.977   2.303 -0.5320  0.3851 -0.3370
10336SOL    HW131533   1.217   6.021   2.387  0.5655  1.2800 -0.5784
10336SOL    HW231534   1.151   5.930   2.286  0.0995 -2.0477  2.5229
10337SOL     OW31535   2.245   7.044   5.206 -0.0733  0.4084 -0.3577
10337SOL    HW131536   2.281   6.971   5.257  0.1050  1.3580  0.9094
10337SOL    HW231537   2.190   7.092   5.268 -0.6013  1.0687 -1.3172
10338SOL     OW31538   3.542   4.375   0.865 -0.6943 -0.0497  0.3367
10338SOL    HW131539   3.563   4.458   0.823 -0.9277 -0.3025 -0.2885
10338SOL    HW231540   3.627   4.339   0.891 -0.4288 -0.4238 -0.9534
10339SOL     OW31541   5.811   2.653   4.193  0.1944 -0.9357 -0.3533
10339SOL    HW131542   5.802   2.567   4.152 -0.2058 -0.0108 -2.3247
10339SOL    HW231543   5.787   2.638   4.284 -0.2496 -2.8371 -0.7290
10340SOL     OW31544   4.867   2.307   7.531 -0.2980  0.2854  0.0594
10340SOL    HW131545   4.779   2.341   7.514 -0.3126  0.2427  0.0500
10340SOL    HW231546   4.853   2.223   7.574 -0.2640  0.3959  0.2946
10341SOL     OW31547   1.260   4.189   4.505  0.1666  0.0621 -0.0904
10341SOL    HW131548   1.226   4.138   4.579 -1.3631 -0.9458 -1.4289
10341SOL    HW231549   1.216   4.274   4.512  1.5231  0.7138  1.2315
10342SOL     OW31550   2.126   4.283   0.020  0.1421  0.3414  0.3314
10342SOL    HW131551   2.066   4.280  -0.054  0.1503 -0.9193  0.3566
10342SOL    HW231552   2.207   4.320  -0.015  0.7348 -1.8271 -0.7591
10343SOL     OW31553   2.480   1.695   6.574 -0.2085 -0.0144  0.2714
10343SOL    HW131554   2.440   1.608   6.574  1.2933 -0.7527  1.6435
10343SOL    HW231555   2.414   1.752   6.614 -0.7322 -0.7573  0.4731
10344SOL     OW31556   1.021   5.836   2.520  0.7147 -0.9606 -0.6032
10344SOL    HW131557   1.029   5.859   2.428 -0.6657 -0.3940 -0.6020
10344SOL    HW231558   0.929   5.812   2.532  0.7803 -0.6619  0.7086
10345SOL     OW31559   7.195   7.367   6.033 -0.0044 -0.5386  0.0630
10345SOL    HW131560   7.283   7.330   6.028  0.3196  0.3397 -1.1507
10345SOL    HW231561   7.138   7.291   6.049  1.0486 -0.9662  2.1034
10346SOL     OW31562   6.573   3.271   6.294 -0.0662 -0.2941 -0.4816
10346SOL    HW131563   6.602   3.321   6.218  0.6835 -0.6959 -0.4694
10346SOL    HW231564   6.495   3.317   6.326  1.8104  2.1538  0.8473
10347SOL     OW31565   5.752   3.367   4.770  0.1132  0.4347  0.3418
10347SOL    HW131566   5.825   3.354   4.831 -1.2877  0.1285  2.0042
10347SOL    HW231567   5.693   3.427   4.816 -0.4307  1.1390 -1.2203
10348SOL     OW31568   4.006   7.497   6.619 -0.3898  0.5110 -0.3450
10348SOL    HW131569   4.040   7.514   6.532  0.5782  2.5382  0.3659
10348SOL    HW231570   3.929   7.554   6.626 -0.9878 -0.2890 -0.1472
10349SOL     OW31571   1.769   1.976   3.430  0.0807  0.4419  0.2749
10349SOL    HW131572   1.859   1.950   3.414 -0.1379  1.4213 -3.5604
10349SOL    HW231573   1.744   2.026   3.353 -3.7568  0.2431  1.1563
10350SOL     OW31574   5.185   4.105   6.785 -0.4562  0.1516 -0.0436
10350SOL    HW131575   5.200   4.011   6.796  1.1542  0.3644 -0.1500
10350SOL    HW231576   5.114   4.125   6.846 -1.2189 -1.2275 -0.4441
10351SOL     OW31577   4.710   2.597   0.534 -0.0507 -0.0674  0.5419
10351SOL    HW131578   4.744   2.667   0.477  0.7149  0.5014  1.6715
10351SOL    HW231579   4.755   2.518   0.503 -0.3253  0.0629 -0.2257
10352SOL     OW31580   0.765   2.566   3.588 -0.1757 -0.5056  0.0740
10352SOL    HW131581   0.846   2.616   3.583  0.5072 -1.6807 -1.5887
10352SOL    HW231582   0.782   2.488   3.535 -1.9150 -1.4703  0.8557
10353SOL     OW31583   0.707   5.198   4.553 -0.2352 -0.8449 -0.7848
10353SOL    HW131584   0.667   5.111   4.561 -2.4021 -0.0226 -1.9369
10353SOL    HW231585   0.636   5.255   4.526  1.4191  1.0682 -1.3558
10354SOL     OW31586   1.701   6.760   4.441  0.1815  0.2444  0.3129
10354SOL    HW131587   1.687   6.845   4.483  0.3121  0.2042  0.4394
10354SOL    HW231588   1.737   6.705   4.510  0.0532  0.0727  0.2436
10355SOL     OW31589   6.345   0.458   6.427 -0.2755 -0.0570  0.3520
10355SOL    HW131590   6.350   0.551   6.447  1.6674 -0.1140  0.3702
10355SOL    HW231591   6.391   0.449   6.343 -0.2412 -1.0191  0.4608
10356SOL     OW31592   1.065   1.837   3.620 -0.1311 -0.0329 -0.2515
10356SOL    HW131593   0.979   1.812   3.586 -0.3191  0.9242 -0.4917
10356SOL    HW231594   1.099   1.757   3.661 -0.7892 -0.6272 -0.8614
10357SOL     OW31595   1.592   4.621   3.311  0.0189 -0.7953 -0.4639
10357SOL    HW131596   1.503   4.610   3.277 -0.7085 -0.3197  1.1484
10357SOL    HW231597   1.643   4.553   3.268 -1.6734 -2.6814  0.3564
10358SOL     OW31598   5.250   4.192   3.000 -0.3633 -0.0423 -0.5783
10358SOL    HW131599   5.236   4.282   2.970 -1.7400 -0.2387 -0.5671
10358SOL    HW231600   5.346   4.182   3.001 -0.1989  1.2971 -0.9190
10359SOL     OW31601   4.491   4.452   3.542  0.0933 -0.1551 -0.0187
10359SOL    HW131602   4.501   4.420   3.452 -0.7729  1.2355 -0.6331
10359SOL    HW231603   4.438   4.385   3.585  0.2859 -0.7039 -0.6073
10360SOL     OW31604   1.499   6.422   2.087 -0.2512  0.2260  0.0800
10360SOL    HW131605   1.436   6.472   2.138  2.4192  1.6017  2.3170
10360SOL    HW231606   1.463   6.421   1.998 -1.8164  3.7790  0.5264
10361SOL     OW31607   2.126   1.684   0.398 -0.0137 -0.4484  0.4860
10361SOL    HW131608   2.046   1.632   0.396 -0.3638  0.0832 -2.0434
10361SOL    HW231609   2.101   1.770   0.364  1.5217 -0.1332  0.0606
10362SOL     OW31610   2.903   4.559   1.068  0.2711  0.6975  0.5407
10362SOL    HW131611   2.896   4.496   1.140  0.7292 -1.8183 -1.4692
10362SOL    HW231612   2.996   4.557   1.045 -0.1616 -0.0103 -1.2929
10363SOL     OW31613   6.194   0.241   5.466  0.7549 -0.5311 -0.0716
10363SOL    HW131614   6.215   0.319   5.415  1.0611 -0.0337  0.7943
10363SOL    HW231615   6.104   0.254   5.495  0.8258 -0.4678  0.1225
10364SOL     OW31616   0.235   3.712   0.116 -0.0828 -0.3280  0.1781
10364SOL    HW131617   0.198   3.793   0.083 -0.3936 -0.7482 -0.5119
10364SOL    HW231618   0.327   3.715   0.089  0.0369  0.0356  0.6165
10365SOL     OW31619   6.889   0.876   7.115  0.3583 -0.0688 -0.0937
10365SOL    HW131620   6.969   0.825   7.107  0.2071 -0.0534 -2.4193
10365SOL    HW231621   6.820   0.810   7.126  0.3436 -0.3111 -1.4753
10366SOL     OW31622   0.006   1.190   1.149  0.3447 -0.4338  0.1296
10366SOL    HW131623   0.021   1.269   1.096  0.1020 -1.2390 -1.1967
10366SOL    HW231624  -0.025   1.223   1.233  2.2283  0.9741  0.3448
10367SOL     OW31625   3.517   0.657   7.382  0.0728  0.2647  0.5924
10367SOL    HW131626   3.441   0.702   7.418 -0.8604 -1.2882  0.6494
10367SOL    HW231627   3.533   0.585   7.442  1.5968  0.5367  0.5569
10368SOL     OW31628   0.462   3.620   1.249 -0.4141 -0.0922 -0.0215
10368SOL    HW131629   0.457   3.553   1.180  1.4410  0.0683 -0.3650
10368SOL    HW231630   0.384   3.606   1.302 -0.2544 -2.3087 -0.2939
10369SOL     OW31631   0.211   5.768   2.194 -0.9902  0.3886  0.1440
10369SOL    HW131632   0.289   5.717   2.170 -0.1470  1.4600  0.5195
10369SOL    HW231633   0.168   5.715   2.260 -1.8247 -1.2742 -1.6136
10370SOL     OW31634   4.823   4.117   4.378 -0.1062  0.8885 -0.6536
10370SOL    HW131635   4.748   4.076   4.336 -1.1267  1.3870  0.6415
10370SOL    HW231636   4.851   4.184   4.315 -1.5475  1.5544 -0.6151
10371SOL     OW31637   3.245   5.482   2.411 -0.5072 -0.0366 -0.2487
10371SOL    HW131638   3.301   5.560   2.407  0.0366 -0.4528 -1.3700
10371SOL    HW231639   3.157   5.516   2.424 -0.0822  0.6754  0.8814
10372SOL     OW31640   4.787   1.002   3.289 -0.1476 -0.6045  0.3659
10372SOL    HW131641   4.791   0.908   3.307  0.5429 -0.7450 -0.4514
10372SOL    HW231642   4.695   1.017   3.268 -0.4515 -0.9105  1.4069
10373SOL     OW31643   1.331   6.722   5.214  0.1216 -0.4833  0.5510
10373SOL    HW131644   1.410   6.708   5.267 -0.2800 -0.8895  1.0507
10373SOL    HW231645   1.310   6.636   5.180 -0.2802 -0.4271  0.6604
10374SOL     OW31646   7.061   0.528   1.878  0.3954 -0.1059  0.2236
10374SOL    HW131647   6.983   0.583   1.890  0.1841 -0.3586  0.0096
10374SOL    HW231648   7.091   0.548   1.790  0.1452 -0.5527  0.0349
10375SOL     OW31649   1.862   1.569   4.895 -0.3153  0.5062 -0.0342
10375SOL    HW131650   1.851   1.492   4.951 -1.7616  0.9501  0.3328
10375SOL    HW231651   1.894   1.637   4.953 -1.9947  1.0196  0.3404
10376SOL     OW31652   6.950   7.204   3.831 -1.1201  0.1315  0.1918
10376SOL    HW131653   6.958   7.265   3.904 -1.3417  0.5686 -0.1450
10376SOL    HW231654   7.006   7.130   3.855 -0.1717  0.8402  0.2145
10377SOL     OW31655   4.330   2.736   5.813 -0.1953 -0.3338  0.0602
10377SOL    HW131656   4.381   2.725   5.894  0.2613 -2.3531 -0.4590
10377SOL    HW231657   4.239   2.725   5.840  0.0501 -2.8665  0.0802
10378SOL     OW31658   5.554   4.887   0.745  0.3896 -0.6859  0.3248
10378SOL    HW131659   5.589   4.824   0.808  0.5381 -0.1271  0.8175
10378SOL    HW231660   5.608   4.876   0.667  0.9357 -0.6082  0.6872
10379SOL     OW31661   4.984   6.523   6.011  0.2011  0.2813  0.2738
10379SOL    HW131662   5.022   6.585   5.948 -0.2489 -0.6693 -0.9719
10379SOL    HW231663   5.032   6.442   5.997 -0.8211 -0.3279  0.1987
10380SOL     OW31664   6.755   4.925   1.528 -0.3054  0.2084 -0.3763
10380SOL    HW131665   6.726   5.014   1.548  0.9384  0.4903  0.2866
10380SOL    HW231666   6.676   4.880   1.498 -1.1731  1.2403  0.2804
10381SOL     OW31667   1.495   1.673   6.045  0.2081 -0.2666  0.2049
10381SOL    HW131668   1.497   1.586   6.004 -0.5485 -0.1774 -0.0378
10381SOL    HW231669   1.422   1.669   6.107  0.0586  0.2475  0.0686
10382SOL     OW31670   2.221   7.428   0.251  0.3433 -0.0417  0.1241
10382SOL    HW131671   2.291   7.429   0.186 -1.1599 -0.9913 -1.6005
10382SOL    HW231672   2.164   7.501   0.227 -1.2172 -1.4991 -0.8740
10383SOL     OW31673   6.138   3.627   1.379 -0.1478 -0.1204 -0.1141
10383SOL    HW131674   6.064   3.573   1.405  0.5867 -0.7057  0.8269
10383SOL    HW231675   6.200   3.619   1.451  1.5047 -0.8896 -1.5349
10384SOL     OW31676   6.799   5.080   6.470  0.3322  0.0074 -0.0379
10384SOL    HW131677   6.761   5.114   6.389  0.4245  2.3661  0.8438
10384SOL    HW231678   6.891   5.105   6.466  0.1165  1.1426  1.2475
10385SOL     OW31679   0.065   7.193   4.733  0.0746 -0.1957  0.5587
10385SOL    HW131680   0.098   7.277   4.701  0.5349  0.2412  2.1020
10385SOL    HW231681   0.114   7.127   4.684 -0.0610  0.4143 -0.4347
10386SOL     OW31682   2.137   3.968   4.218  0.0130  0.3805  0.2505
10386SOL    HW131683   2.162   3.884   4.179  0.5648  0.4222  0.4968
10386SOL    HW231684   2.058   3.949   4.268  0.0847  0.0234  0.2306
10387SOL     OW31685   5.479   2.013   5.878  0.1157  0.0538 -0.2736
10387SOL    HW131686   5.526   1.986   5.799  0.0544  0.9222 -0.6122
10387SOL    HW231687   5.454   2.104   5.862 -2.2312 -0.5251 -0.3757
10388SOL     OW31688   2.754   4.976   7.391 -0.3493 -0.0556 -0.2672
10388SOL    HW131689   2.678   4.954   7.338  0.0894  0.8273 -1.3130
10388SOL    HW231690   2.829   4.954   7.336  0.1547 -0.6505  0.6387
10389SOL     OW31691   6.660   1.149   3.698 -0.2759 -0.0542  0.0566
10389SOL    HW131692   6.590   1.204   3.663 -1.1543 -0.3478  1.2771
10389SOL    HW231693   6.740   1.197   3.677 -0.6132 -0.6503 -3.1215
10390SOL     OW31694   1.796   5.673   3.108  0.0543 -0.2481  0.2337
10390SOL    HW131695   1.826   5.703   3.022  0.0970 -2.2371 -0.5069
10390SOL    HW231696   1.731   5.605   3.088 -0.9259  0.1860  1.7973
10391SOL     OW31697   2.968   3.258   3.505  0.0380  0.4792 -0.5423
10391SOL    HW131698   2.942   3.168   3.524  1.6255 -0.1182 -1.0557
10391SOL    HW231699   3.025   3.251   3.428 -1.6128  2.1852 -2.0206
10392SOL     OW31700   6.113   4.590   2.735  0.2078 -0.4810  0.0170
10392SOL    HW131701   6.175   4.538   2.785 -0.6701 -0.8943  0.6945
10392SOL    HW231702   6.159   4.672   2.718  2.7282 -2.3927 -3.5282
10393SOL     OW31703   4.750   0.460   2.716  0.1965  0.2715 -0.1884
10393SOL    HW131704   4.810   0.396   2.678  0.9846  0.6505  0.3990
10393SOL    HW231705   4.691   0.482   2.644  1.2159  0.4319 -1.0028
10394SOL     OW31706   0.152   6.051   3.970 -0.2764  0.1429  0.0476
10394SOL    HW131707   0.146   6.131   4.022  1.1224  1.4696 -1.6963
10394SOL    HW231708   0.246   6.037   3.960 -0.5044 -0.5382 -1.3738
10395SOL     OW31709   7.463   5.645   4.219 -0.1085 -0.4914  0.1872
10395SOL    HW131710   7.508   5.591   4.284  1.5215  2.9643  2.2173
10395SOL    HW231711   7.522   5.648   4.144  0.0640 -0.9896  0.3017
10396SOL     OW31712   2.773   6.479   4.491  0.1425 -0.0394  0.4497
10396SOL    HW131713   2.796   6.486   4.398 -1.7323 -0.9427 -0.1250
10396SOL    HW231714   2.780   6.385   4.510 -1.0794 -0.0791  0.7635
10397SOL     OW31715   4.311   0.232   1.857  0.2626 -0.3099  0.7306
10397SOL    HW131716   4.379   0.299   1.863 -1.2966  1.5468 -0.7653
10397SOL    HW231717   4.354   0.151   1.883  3.3254  0.5520 -1.1416
10398SOL     OW31718   3.199   7.103   2.774 -0.2128  0.3926  0.3250
10398SOL    HW131719   3.108   7.080   2.792  0.0422 -1.1293 -0.2198
10398SOL    HW231720   3.197   7.141   2.686 -0.6433  2.7060  1.2518
10399SOL     OW31721   4.309   2.716   3.182  0.0429  0.0060  0.4292
10399SOL    HW131722   4.349   2.634   3.212  0.0972 -0.5047 -1.0061
10399SOL    HW231723   4.225   2.719   3.227  0.0492 -0.8276  0.5120
10400SOL     OW31724   1.232   1.791   3.256 -0.2449  0.2813  0.1956
10400SOL    HW131725   1.274   1.724   3.311 -0.6856  0.8103  1.1951
10400SOL    HW231726   1.196   1.741   3.182  1.8520 -0.2243 -0.5467
10401SOL     OW31727   3.315   4.855   7.331  0.3144 -0.2665  0.7955
10401SOL    HW131728   3.378   4.854   7.259 -0.2231  0.4733  0.3017
10401SOL    HW231729   3.309   4.764   7.359  1.7671 -0.3300  1.0014
10402SOL     OW31730   1.297   5.302   3.386  0.1442  0.5263  0.0845
10402SOL    HW131731   1.290   5.213   3.421  0.7086 -0.0114 -1.0896
10402SOL    HW231732   1.212   5.319   3.347 -0.3866  1.0113  1.4095
10403SOL     OW31733   2.886   4.083   1.392 -0.1353  0.5596 -0.3880
10403SOL    HW131734   2.886   4.110   1.484  3.1111 -1.4797  0.3819
10403SOL    HW231735   2.832   4.004   1.391  0.1726  0.3406 -0.1121
10404SOL     OW31736   2.161   1.697   2.687 -0.2227  0.7509  0.1359
10404SOL    HW131737   2.218   1.632   2.728 -1.4087 -0.8345 -0.6535
10404SOL    HW231738   2.110   1.733   2.760  0.2585  0.6165  0.5442
10405SOL     OW31739   5.859   4.106   3.941 -0.1590  0.4794 -0.2545
10405SOL    HW131740   5.938   4.058   3.967 -1.7279 -0.5496  3.1951
10405SOL    HW231741   5.791   4.040   3.938 -1.3036  1.6513 -1.1894
10406SOL     OW31742   5.564   2.271   5.204 -0.4876 -0.1512  0.2550
10406SOL    HW131743   5.556   2.194   5.260  0.4062 -0.6552 -0.2875
10406SOL    HW231744   5.480   2.278   5.160 -0.2629 -1.4029 -0.4164
10407SOL     OW31745   1.271   1.986   1.663  0.3712  0.1929 -0.2854
10407SOL    HW131746   1.360   1.957   1.684  0.1777  0.1218  0.4719
10407SOL    HW231747   1.221   1.905   1.653  0.1146  0.2437  0.5512
10408SOL     OW31748   3.511   0.606   4.330  0.5102 -0.4316  0.1954
10408SOL    HW131749   3.483   0.532   4.385  0.7043 -1.7447 -1.3754
10408SOL    HW231750   3.603   0.588   4.310  1.6605  2.0933  2.5533
10409SOL     OW31751   3.237   5.596   2.937 -0.3841 -0.1531  0.3545
10409SOL    HW131752   3.144   5.574   2.934 -0.4039  0.0496 -0.9182
10409SOL    HW231753   3.277   5.524   2.986 -1.0962 -0.6757  0.1829
10410SOL     OW31754   0.488   4.975   1.029 -0.5092  0.2299  0.0165
10410SOL    HW131755   0.572   5.005   1.065 -1.2108 -0.0105  1.9646
10410SOL    HW231756   0.453   5.051   0.984 -0.1358  0.9574  0.9083
10411SOL     OW31757   2.776   5.372   2.992 -0.4059 -0.4417 -0.0458
10411SOL    HW131758   2.734   5.458   2.999 -0.7052 -0.5883 -0.0508
10411SOL    HW231759   2.730   5.317   3.055  1.9373  0.2467  2.4861
10412SOL     OW31760   4.209   2.851   2.291  0.0262 -0.0367 -0.0471
10412SOL    HW131761   4.169   2.837   2.376  1.1063 -0.6339  0.3830
10412SOL    HW231762   4.254   2.769   2.272  0.2417  0.2785 -0.9446
10413SOL     OW31763   2.895   3.097   0.440  0.5328 -0.9207  0.4370
10413SOL    HW131764   2.802   3.107   0.458  0.5692  0.0819  0.1405
10413SOL    HW231765   2.939   3.149   0.508  0.7561  0.6905 -0.8637
10414SOL     OW31766   2.588   7.465   1.372 -0.2239 -0.2286  0.3242
10414SOL    HW131767   2.673   7.508   1.361 -0.2371  0.0153  1.1077
10414SOL    HW231768   2.605   7.397   1.438 -0.6036 -0.2974  0.3505
10415SOL     OW31769   4.721   2.698   3.081  0.7481  0.4704 -0.2353
10415SOL    HW131770   4.709   2.604   3.075 -0.7116  0.5707  0.6386
10415SOL    HW231771   4.764   2.722   2.999 -0.2341 -0.7558 -1.1480
10416SOL     OW31772   4.161   3.392   0.626 -0.4471 -0.4354  0.0229
10416SOL    HW131773   4.254   3.370   0.632 -0.2052  0.1090 -1.3501
10416SOL    HW231774   4.151   3.472   0.677  0.0983  0.1964 -0.8429
10417SOL     OW31775   2.423   2.588   7.075  0.1663 -0.2522  0.1552
10417SOL    HW131776   2.472   2.664   7.045  0.3465 -0.6094 -0.4619
10417SOL    HW231777   2.347   2.584   7.017 -0.4525  0.1267  0.9170
10418SOL     OW31778   1.197   3.571   2.265 -0.3782 -0.2395 -0.1959
10418SOL    HW131779   1.209   3.500   2.202 -1.4058 -0.3217 -0.3163
10418SOL    HW231780   1.106   3.598   2.253 -0.4743 -0.0066  1.0089
10419SOL     OW31781   1.905   7.048   6.898 -0.5054 -0.1109  0.2986
10419SOL    HW131782   1.977   7.111   6.890 -1.1535  0.5966 -0.1855
10419SOL    HW231783   1.935   6.971   6.851  0.6250 -0.4817  1.5705
10420SOL     OW31784   7.405   0.447   5.772 -0.7274  0.7875 -0.8682
10420SOL    HW131785   7.406   0.542   5.777  0.9485  0.8843 -2.1860
10420SOL    HW231786   7.439   0.427   5.685 -1.3387 -1.0123 -0.7328
10421SOL     OW31787   0.425   0.832   3.380 -0.3592 -0.0035 -0.4288
10421SOL    HW131788   0.349   0.778   3.399 -0.7296  0.5118 -0.4323
10421SOL    HW231789   0.394   0.894   3.314  0.1597 -0.0161 -0.6899
10422SOL     OW31790   4.539   1.881   0.335  0.8673  0.4774 -0.0355
10422SOL    HW131791   4.523   1.854   0.425 -1.0341 -4.0042 -1.4379
10422SOL    HW231792   4.453   1.903   0.300  1.2039 -0.1084 -1.3223
10423SOL     OW31793   1.565   4.629   5.305  0.2386  0.0140 -0.1820
10423SOL    HW131794   1.601   4.701   5.356  0.1522 -0.1037  0.0457
10423SOL    HW231795   1.622   4.623   5.228  0.0993  0.4842 -0.3239
10424SOL     OW31796   7.335   1.435   4.138  0.9426  0.5330  0.1395
10424SOL    HW131797   7.314   1.356   4.188  1.2238  0.4111  0.0687
10424SOL    HW231798   7.275   1.502   4.171 -0.0384  0.0218 -0.5301
10425SOL     OW31799   0.521   1.299   5.307  0.2656  0.4558  0.8617
10425SOL    HW131800   0.486   1.211   5.297  1.3454  0.0335  0.7204
10425SOL    HW231801   0.444   1.354   5.322 -1.0273  0.2358 -3.4744
10426SOL     OW31802   0.940   4.985   5.461 -0.1663  0.0730  0.5760
10426SOL    HW131803   0.851   4.965   5.430 -0.2207  1.9965 -0.6991
10426SOL    HW231804   0.997   4.928   5.409 -0.5770 -0.3230  0.5535
10427SOL     OW31805   6.873   4.220   3.997 -0.0684 -0.1004  0.0989
10427SOL    HW131806   6.966   4.242   4.006 -0.1544  0.2684  0.1126
10427SOL    HW231807   6.866   4.177   3.911 -0.1829  1.5671 -0.7667
10428SOL     OW31808   5.500   2.398   5.519 -0.2525 -0.1023 -0.4463
10428SOL    HW131809   5.581   2.349   5.533 -0.1553  0.2923  0.4814
10428SOL    HW231810   5.495   2.457   5.595 -1.4581 -0.1925 -0.4422
10429SOL     OW31811   5.147   6.190   0.072 -0.9463  0.6524 -0.1777
10429SOL    HW131812   5.104   6.235   0.145 -1.1456 -1.6628  1.2481
10429SOL    HW231813   5.237   6.177   0.101 -1.1328 -0.6671 -0.1147
10430SOL     OW31814   0.992   3.060   3.127  0.6649  0.2905 -0.0352
10430SOL    HW131815   0.898   3.057   3.108  0.6272 -0.6734  0.2196
10430SOL    HW231816   1.016   3.152   3.119  0.2457  0.2434 -2.6890
10431SOL     OW31817   3.934   5.196   2.265 -0.3311  0.4825  0.1946
10431SOL    HW131818   3.966   5.277   2.224  1.5775 -0.2653  0.0987
10431SOL    HW231819   3.905   5.142   2.191  0.4776  0.2435  0.0332
10432SOL     OW31820   1.213   1.980   3.910 -0.1245 -0.4090 -0.3148
10432SOL    HW131821   1.190   1.951   3.822  1.5600  0.0963 -0.9648
10432SOL    HW231822   1.211   2.076   3.905  1.4911 -0.3535 -0.2605
10433SOL     OW31823   1.490   5.778   0.418 -0.0843  0.3774  0.7396
10433SOL    HW131824   1.476   5.781   0.323  1.6284  1.5286  0.4942
10433SOL    HW231825   1.404   5.755   0.453 -0.7440 -0.1602 -1.0812
10434SOL     OW31826   6.055   2.524   1.546  0.1650  0.6216  0.2735
10434SOL    HW131827   6.122   2.476   1.596  0.5603  1.0021  0.1179
10434SOL    HW231828   5.992   2.552   1.611 -1.1268 -1.7397  0.1702
10435SOL     OW31829   1.501   0.237   5.102  0.2507 -0.6344 -0.2303
10435SOL    HW131830   1.499   0.175   5.029  0.7706 -0.4770 -0.3835
10435SOL    HW231831   1.447   0.196   5.170  0.5093 -1.2115 -0.3662
10436SOL     OW31832   3.345   6.103   5.457 -0.2988 -0.3053  0.0736
10436SOL    HW131833   3.386   6.169   5.513 -2.6895 -0.2984  2.0108
10436SOL    HW231834   3.324   6.150   5.376 -0.9906  1.0452  1.0013
10437SOL     OW31835   3.659   6.908   5.747 -0.0664 -0.7900 -0.4403
10437SOL    HW131836   3.662   6.934   5.655  2.1594 -1.3667 -0.5896
10437SOL    HW231837   3.721   6.836   5.754  1.3771  0.5395  1.8670
10438SOL     OW31838   3.212   5.049   4.179 -0.2425  0.1997  0.0723
10438SOL    HW131839   3.176   5.036   4.091 -0.5662  0.7099  0.1266
10438SOL    HW231840   3.230   4.960   4.211 -1.8664 -0.1050  0.2189
10439SOL     OW31841   1.367   2.982   0.379  0.2166 -0.0802  0.4701
10439SOL    HW131842   1.452   3.001   0.339  0.3679  0.1978  0.9178
10439SOL    HW231843   1.323   3.067   0.382  0.3034 -0.0576  1.1176
10440SOL     OW31844   4.908   3.639   4.409  0.2936 -0.2651  0.2053
10440SOL    HW131845   4.856   3.636   4.489 -1.3046 -1.6032 -0.8259
10440SOL    HW231846   4.870   3.711   4.358 -0.0952 -0.7737 -0.2368
10441SOL     OW31847   0.806   1.447   4.117  0.0803  0.0643 -0.4806
10441SOL    HW131848   0.817   1.439   4.211 -0.6784  1.7163 -0.2281
10441SOL    HW231849   0.870   1.386   4.080 -1.5090 -2.7672  1.0793
10442SOL     OW31850   5.043   6.219   6.602  0.2691  0.3009  0.0861
10442SOL    HW131851   5.027   6.256   6.689  0.3477  0.4346  0.0441
10442SOL    HW231852   5.126   6.171   6.612  0.8716  1.2551 -0.1964
10443SOL     OW31853   3.725   3.691   5.631  0.3032 -0.1585 -0.6522
10443SOL    HW131854   3.662   3.641   5.579  0.2614 -2.0684  1.0806
10443SOL    HW231855   3.672   3.745   5.688  0.3487  2.2282 -2.6993
10444SOL     OW31856   0.496   7.505   1.832 -0.2892  0.7512  0.2873
10444SOL    HW131857   0.464   7.537   1.917 -1.4629 -2.9484  1.4229
10444SOL    HW231858   0.563   7.440   1.855 -0.4539 -0.1494 -1.6219
10445SOL     OW31859   5.298   3.501   4.627 -0.4794 -0.3063  0.8756
10445SOL    HW131860   5.386   3.490   4.591 -0.1243 -0.8085  1.8467
10445SOL    HW231861   5.239   3.492   4.552  0.2946  0.0025  0.2245
10446SOL     OW31862   4.378   3.221   3.629  0.1004  0.2628 -0.2431
10446SOL    HW131863   4.320   3.150   3.600  0.2672 -0.1537  0.4104
10446SOL    HW231864   4.331   3.301   3.606 -0.8823 -0.0646  0.5342
10447SOL     OW31865   4.021   1.479   7.289  0.3074  0.0374  0.0053
10447SOL    HW131866   4.070   1.398   7.272 -0.1065 -0.4574  1.0725
10447SOL    HW231867   4.058   1.512   7.371 -0.4054  0.2294  0.2552
10448SOL     OW31868   3.255   1.588   5.230  0.5983 -0.0288  0.1999
10448SOL    HW131869   3.341   1.622   5.253  0.7043  0.8352 -1.3287
10448SOL    HW231870   3.273   1.513   5.173  0.3636  0.0973 -0.0472
10449SOL     OW31871   2.376   6.890   1.416 -1.0588  0.0782 -0.3072
10449SOL    HW131872   2.384   6.868   1.323  0.4454  1.0646 -0.4463
10449SOL    HW231873   2.435   6.964   1.428 -2.5376  1.0955  1.0848
10450SOL     OW31874   6.589   0.720   6.772  0.2556 -0.3194  0.0619
10450SOL    HW131875   6.508   0.727   6.721 -0.6368 -1.4027  1.2796
10450SOL    HW231876   6.610   0.627   6.771  2.0163  0.0474 -0.9838
10451SOL     OW31877   0.499   1.924   5.516 -0.3276 -0.1912 -0.5989
10451SOL    HW131878   0.496   2.017   5.538  2.3621 -0.7010  2.8600
10451SOL    HW231879   0.416   1.888   5.548 -0.7302  0.7844 -0.5342
10452SOL     OW31880   0.276   1.432   5.341  0.3535 -0.0508 -0.4791
10452SOL    HW131881   0.248   1.440   5.250  1.1437 -0.8076 -0.8059
10452SOL    HW231882   0.208   1.477   5.392 -0.9781 -1.0664 -1.3090
10453SOL     OW31883   6.733   6.593   6.056  0.1168 -0.5271 -0.5575
10453SOL    HW131884   6.752   6.670   6.110  0.1032 -0.9288  0.0384
10453SOL    HW231885   6.731   6.626   5.966  2.0798 -0.1740 -0.5136
10454SOL     OW31886   4.008   2.817   6.508  0.2390 -0.2583  0.2274
10454SOL    HW131887   4.069   2.862   6.450 -0.2040  1.5236  1.0844
10454SOL    HW231888   3.921   2.847   6.481 -0.0021  0.2664  1.5182
10455SOL     OW31889   0.774   1.394   0.395 -0.3265 -0.2967 -0.3071
10455SOL    HW131890   0.820   1.477   0.377 -2.4096  0.9234 -0.2630
10455SOL    HW231891   0.803   1.370   0.483  1.8928 -0.7656 -1.0916
10456SOL     OW31892   0.748   1.744   3.465  0.0319  0.7008 -0.4430
10456SOL    HW131893   0.684   1.749   3.394 -1.0338 -1.6941  0.2441
10456SOL    HW231894   0.701   1.773   3.543  0.3286  0.6144 -0.2276
10457SOL     OW31895   7.114   2.339   3.169 -0.2926 -0.1493  0.4776
10457SOL    HW131896   7.042   2.384   3.213 -0.8084 -0.8317  0.3488
10457SOL    HW231897   7.133   2.392   3.092 -0.1905  0.4078  0.8841
10458SOL     OW31898   2.030   0.099   2.245  0.0054 -0.3187  0.0549
10458SOL    HW131899   2.071   0.155   2.178 -0.6482  0.2595  0.1274
10458SOL    HW231900   2.103   0.047   2.280  0.9049  1.4053  0.9032
10459SOL     OW31901   2.861   6.702   2.003 -0.4152  0.1223  0.1957
10459SOL    HW131902   2.874   6.706   2.097 -1.4266 -2.3491  0.5013
10459SOL    HW231903   2.938   6.655   1.970 -1.2012 -1.1722  0.1382
10460SOL     OW31904   5.673   4.169   0.734  0.0591  0.3878 -0.0868
10460SOL    HW131905   5.665   4.203   0.823 -0.2000  0.5930 -0.1883
10460SOL    HW231906   5.657   4.075   0.743 -1.3366  0.6055 -0.1136
10461SOL     OW31907   1.678   4.519   3.560  0.2951 -0.2612  0.1349
10461SOL    HW131908   1.633   4.582   3.504  0.9208  0.0502 -0.0357
10461SOL    HW231909   1.638   4.435   3.538 -0.8413  0.1191  0.6714
10462SOL     OW31910   3.515   2.595   2.830 -0.0662 -0.3026 -0.1673
10462SOL    HW131911   3.451   2.564   2.766  0.1566 -0.7361 -0.1856
10462SOL    HW231912   3.599   2.561   2.798  0.2285  0.5897 -0.3616
10463SOL     OW31913   0.721   5.908   3.133  0.6059 -0.3359 -0.2420
10463SOL    HW131914   0.712   5.814   3.147  0.9781 -0.2762  0.4415
10463SOL    HW231915   0.633   5.943   3.147  0.4627 -0.5794 -0.5247
10464SOL     OW31916   2.531   2.951   6.801  0.0459 -0.1789 -0.8770
10464SOL    HW131917   2.558   3.021   6.742  1.0450 -0.8231 -1.2093
10464SOL    HW231918   2.441   2.932   6.776 -0.1358  0.7755 -0.9814
10465SOL     OW31919   7.530   0.419   1.319 -0.9467 -0.2232 -0.1652
10465SOL    HW131920   7.610   0.369   1.308 -0.6324 -0.0077  0.9504
10465SOL    HW231921   7.475   0.395   1.245 -0.7101 -2.0197  0.1923
10466SOL     OW31922   6.097   1.938   1.295  0.1800  0.3815 -0.1554
10466SOL    HW131923   6.162   1.908   1.232  1.8969 -0.0403  1.6889
10466SOL    HW231924   6.071   2.025   1.265  1.3529  0.4204 -1.1208
10467SOL     OW31925   4.958   1.783   5.515  0.1157 -0.1632  0.4975
10467SOL    HW131926   4.917   1.829   5.588 -0.7878  0.9600 -0.6699
10467SOL    HW231927   5.041   1.829   5.501  0.3983 -0.5288  0.9557
10468SOL     OW31928   0.473   5.965   0.006  0.0367  0.0671 -0.6338
10468SOL    HW131929   0.378   5.969   0.014 -0.0282  0.4414 -1.5170
10468SOL    HW231930   0.490   5.889  -0.050  0.2033  0.5340 -1.2257
10469SOL     OW31931   2.779   1.338   1.849 -0.0437  0.1277 -0.0833
10469SOL    HW131932   2.815   1.306   1.767  1.0403  1.9722 -0.3783
10469SOL    HW231933   2.798   1.432   1.849  0.3871  0.1172  2.4760
10470SOL     OW31934   6.166   2.667   4.404  0.4359 -0.4900 -0.7306
10470SOL    HW131935   6.149   2.608   4.478  1.4667  0.1450  0.0445
10470SOL    HW231936   6.192   2.609   4.332  0.3888 -1.0507 -0.3026
10471SOL     OW31937   5.263   4.573   2.312  0.3636  0.3965  0.1947
10471SOL    HW131938   5.187   4.631   2.318 -0.7446 -0.8102 -1.2880
10471SOL    HW231939   5.267   4.530   2.397 -0.8829  0.1857  0.1704
10472SOL     OW31940   0.601   5.125   6.173  0.1084 -0.0185 -0.1752
10472SOL    HW131941   0.624   5.036   6.144 -1.7208 -0.6046  0.0473
10472SOL    HW231942   0.684   5.163   6.202  1.0152 -1.4680 -0.7718
10473SOL     OW31943   3.012   4.619   7.188 -0.0335 -0.2392 -0.0713
10473SOL    HW131944   2.952   4.577   7.126  1.8605 -1.2746 -1.3508
10473SOL    HW231945   3.099   4.605   7.149  0.9236  2.7853  0.7337
10474SOL     OW31946   1.274   0.323   4.688 -0.0955  0.8570  0.0977
10474SOL    HW131947   1.191   0.327   4.735 -0.4234  1.1290 -0.5062
10474SOL    HW231948   1.324   0.398   4.722  0.3604  0.0657  1.2810
10475SOL     OW31949   2.568   4.173   1.112  0.2625 -0.4646  0.7156
10475SOL    HW131950   2.500   4.179   1.179 -1.0953 -2.4707 -0.3911
10475SOL    HW231951   2.540   4.235   1.044  1.3841  1.2027  1.6871
10476SOL     OW31952   6.931   0.458   1.260  0.1602 -0.1237  0.1896
10476SOL    HW131953   6.942   0.546   1.225  0.5253 -0.2539 -0.0346
10476SOL    HW231954   6.837   0.441   1.253  0.3063 -0.4392 -1.4801
10477SOL     OW31955   6.678   2.259   2.687 -0.4896 -0.2813  0.5375
10477SOL    HW131956   6.623   2.181   2.677  2.9294 -2.6308 -2.4734
10477SOL    HW231957   6.745   2.233   2.751  1.6930 -0.6930 -1.7353
10478SOL     OW31958   6.821   6.818   3.610  0.0625 -0.0401 -0.0919
10478SOL    HW131959   6.869   6.778   3.683  0.8228  1.1647  0.0936
10478SOL    HW231960   6.736   6.842   3.649  0.6477  1.0611  0.5754
10479SOL     OW31961   0.198   7.001   2.045 -0.1219  0.0597  0.0365
10479SOL    HW131962   0.141   6.926   2.066  0.8851 -0.2608  1.8193
10479SOL    HW231963   0.153   7.045   1.973 -0.7589 -2.2414 -1.0977
10480SOL     OW31964   5.925   2.502   5.511  0.4517 -0.0008 -0.0409
10480SOL    HW131965   5.868   2.508   5.435 -0.0483  2.0736  0.4572
10480SOL    HW231966   5.878   2.446   5.573 -0.2436  0.2897 -0.3057
10481SOL     OW31967   6.943   4.210   1.558 -0.0820  0.3893  0.1522
10481SOL    HW131968   7.030   4.194   1.522  0.0452 -0.9587  1.0209
10481SOL    HW231969   6.951   4.294   1.604  0.1616  1.3523 -1.5457
10482SOL     OW31970   5.178   2.046   0.663  0.4850  0.1095 -0.0887
10482SOL    HW131971   5.109   2.108   0.640  0.6864  0.7416  0.9405
10482SOL    HW231972   5.137   1.987   0.727  0.8942  0.5090  0.5529
10483SOL     OW31973   2.638   7.021   3.210 -0.3569 -0.0931  0.2000
10483SOL    HW131974   2.556   6.992   3.250 -1.3376 -0.9188 -2.1818
10483SOL    HW231975   2.680   7.074   3.277 -2.8300  0.3523  1.5368
10484SOL     OW31976   4.421   3.277   2.613 -0.1097 -0.0666 -0.0981
10484SOL    HW131977   4.415   3.227   2.531 -0.2334  1.1797 -0.8867
10484SOL    HW231978   4.478   3.225   2.669  0.4464 -0.6806 -1.1908
10485SOL     OW31979   1.658   6.269   1.202  0.0337  0.2471 -0.2904
10485SOL    HW131980   1.612   6.255   1.119 -0.7664 -1.3080  0.3882
10485SOL    HW231981   1.590   6.297   1.263  0.0094 -1.5543  0.5811
10486SOL     OW31982   5.790   7.256   3.320  0.4241 -0.5686  0.0102
10486SOL    HW131983   5.703   7.271   3.283 -0.1448 -0.8770  1.1778
10486SOL    HW231984   5.806   7.163   3.305  0.7473 -0.4216 -0.5870
10487SOL     OW31985   0.341   7.093   0.987  0.2850  0.4892 -0.0594
10487SOL    HW131986   0.290   7.035   1.044  0.5727  0.6362  0.3518
10487SOL    HW231987   0.397   7.142   1.047  1.0370  0.2085 -0.5281
10488SOL     OW31988   2.396   6.826   5.428 -0.2816  0.4457  0.0815
10488SOL    HW131989   2.316   6.777   5.413 -0.2740 -0.1231  1.7359
10488SOL    HW231990   2.371   6.897   5.487  0.4321  0.2819  0.5903
10489SOL     OW31991   4.883   2.216   4.469 -0.2219 -0.2980  0.4098
10489SOL    HW131992   4.810   2.196   4.411  0.1479 -1.4266  0.3075
10489SOL    HW231993   4.867   2.306   4.497 -1.1201 -0.1912 -0.3788
10490SOL     OW31994   0.115   0.137   3.366 -0.0413 -0.0763  0.6007
10490SOL    HW131995   0.031   0.138   3.319  0.0335 -1.4522  0.3938
10490SOL    HW231996   0.113   0.056   3.417  1.6697 -0.7669 -0.3482
10491SOL     OW31997   2.028   5.572   4.339  0.0395  0.3305  0.1878
10491SOL    HW131998   1.999   5.524   4.416  1.3978  1.3380  1.3787
10491SOL    HW231999   1.947   5.601   4.296 -0.7712 -1.8511  0.1430
10492SOL     OW32000   4.088   7.300   2.620 -0.0444  0.2719  0.3859
10492SOL    HW132001   4.154   7.362   2.649  0.3932 -0.4736  1.0365
10492SOL    HW232002   4.004   7.340   2.644  0.1001  1.5746 -1.1350
10493SOL     OW32003   0.326   1.594   0.917 -0.5902  0.3992 -0.4115
10493SOL    HW132004   0.300   1.589   0.825 -2.5898  2.6157 -0.0514
10493SOL    HW232005   0.422   1.595   0.915 -0.5847 -0.6450 -2.3644
10494SOL     OW32006   4.108   6.306   7.221 -0.3329  0.6412  0.2277
10494SOL    HW132007   4.145   6.226   7.184 -0.1970  1.0627 -0.5773
10494SOL    HW232008   4.147   6.312   7.308 -0.9954 -0.6071  0.6389
10495SOL     OW32009   7.516   6.957   5.871 -0.1210 -1.2558  0.0850
10495SOL    HW132010   7.612   6.956   5.874 -0.0208  0.7165 -1.0149
10495SOL    HW232011   7.494   6.894   5.803  0.5006 -0.4544 -0.8800
10496SOL     OW32012   0.731   4.894   2.356  0.6636  0.2850  0.2213
10496SOL    HW132013   0.731   4.806   2.318  1.2549  0.2005  0.4029
10496SOL    HW232014   0.650   4.933   2.325  0.4430 -0.2888  0.0536
10497SOL     OW32015   6.314   0.705   1.291  0.1925 -1.1213 -0.0471
10497SOL    HW132016   6.233   0.744   1.322  0.2390 -0.8462 -0.2731
10497SOL    HW232017   6.342   0.648   1.363  0.8136  0.2478  0.8206
10498SOL     OW32018   4.721   1.002   4.364 -0.1888  0.1243  0.1725
10498SOL    HW132019   4.772   0.925   4.339  1.5261  1.4584 -0.5889
10498SOL    HW232020   4.658   1.012   4.293 -0.5370 -0.6491  0.3563
10499SOL     OW32021   7.428   6.936   3.719 -0.3127 -0.6812 -0.3510
10499SOL    HW132022   7.501   6.903   3.667  1.2740 -1.1760  2.0208
10499SOL    HW232023   7.468   7.000   3.778 -1.3404 -2.3844  2.3689
10500SOL     OW32024   1.588   0.951   5.369  0.3759  0.1049 -0.1983
10500SOL    HW132025   1.653   0.956   5.439 -0.2462  0.6837  0.3546
10500SOL    HW232026   1.505   0.933   5.415  0.3067 -1.9003 -0.9797
10501SOL     OW32027   6.386   5.971   3.332  0.3379  0.2172 -0.1241
10501SOL    HW132028   6.290   5.973   3.342  0.2180  0.7039 -1.2821
10501SOL    HW232029   6.418   6.019   3.409 -0.2704 -1.0109  0.9394
10502SOL     OW32030   5.662   4.336   6.675  0.1975 -0.6295 -0.0630
10502SOL    HW132031   5.709   4.401   6.727 -0.2798 -0.3082 -0.0259
10502SOL    HW232032   5.596   4.301   6.735 -0.4268 -0.1829 -0.4734
10503SOL     OW32033   6.288   6.970   5.698 -0.2402  0.4028  0.2105
10503SOL    HW132034   6.368   6.927   5.726 -0.1729 -0.9017 -1.7641
10503SOL    HW232035   6.257   7.017   5.775  1.3998 -0.6067  1.5414
10504SOL     OW32036   3.788   7.004   2.750 -0.0365 -0.1652 -0.2078
10504SOL    HW132037   3.758   7.088   2.786  2.5848 -0.2792  2.6309
10504SOL    HW232038   3.857   7.028   2.689  1.3352 -0.1622  1.2620
10505SOL     OW32039   1.283   6.959   2.915  0.5794 -0.1586 -0.7802
10505SOL    HW132040   1.219   6.896   2.949 -1.0885  1.3803 -0.9191
10505SOL    HW232041   1.343   6.974   2.988 -0.1267 -0.4785 -0.1208
10506SOL     OW32042   5.303   6.070   0.276 -0.3630  0.1732  0.1970
10506SOL    HW132043   5.230   6.021   0.314 -0.1664 -0.8563 -0.7081
10506SOL    HW232044   5.357   6.095   0.352 -0.4306 -1.0843  0.6795
10507SOL     OW32045   4.126   4.021   4.457  0.5556 -0.1054  0.2866
10507SOL    HW132046   4.044   4.057   4.422  1.0125  0.6317 -0.0613
10507SOL    HW232047   4.108   3.928   4.469  0.4615 -0.4930 -2.2852
10508SOL     OW32048   7.426   2.648   6.072  0.7074 -0.2805 -0.2610
10508SOL    HW132049   7.414   2.553   6.063  0.7049 -0.2618 -0.4609
10508SOL    HW232050   7.481   2.672   5.997  2.2047 -0.3974  0.7643
10509SOL     OW32051   6.585   4.510   0.301  0.2396  0.8411  0.0152
10509SOL    HW132052   6.529   4.441   0.336 -0.8752  1.7683  0.1007
10509SOL    HW232053   6.658   4.463   0.259 -1.0366 -0.4290 -0.8559
10510SOL     OW32054   4.477   1.561   4.190  0.3003 -0.6718  0.1361
10510SOL    HW132055   4.553   1.541   4.136  0.5322  1.0455 -0.2585
10510SOL    HW232056   4.408   1.503   4.158  1.2136 -1.6848 -0.0442
10511SOL     OW32057   3.250   4.950   6.518  0.2258  0.8772  0.1060
10511SOL    HW132058   3.240   4.868   6.566 -0.9362  0.4418 -0.8618
10511SOL    HW232059   3.304   4.927   6.442  1.5292  1.4364  0.8264
10512SOL     OW32060   6.105   2.028   1.696  0.3247 -0.3044 -0.4345
10512SOL    HW132061   6.117   2.030   1.791 -0.4959  1.2195 -0.3213
10512SOL    HW232062   6.182   2.073   1.661  0.8292 -1.2234 -0.5388
10513SOL     OW32063   1.577   5.258   5.962 -0.6933  0.0006  0.0392
10513SOL    HW132064   1.652   5.265   5.902 -0.8647  0.7280 -0.1079
10513SOL    HW232065   1.509   5.312   5.921 -0.0618  2.4764  2.0001
10514SOL     OW32066   1.528   3.049   3.444 -0.5520 -0.2673  0.6210
10514SOL    HW132067   1.496   3.114   3.381 -1.2698  0.4731  1.7268
10514SOL    HW232068   1.464   3.051   3.515  1.9536  1.4420  3.0396
10515SOL     OW32069   7.355   5.345   4.365  0.2445 -0.1605  0.1731
10515SOL    HW132070   7.351   5.267   4.420  0.0984  0.9485  1.8061
10515SOL    HW232071   7.449   5.359   4.351  0.3185 -0.0923  0.7018
10516SOL     OW32072   5.241   0.352   4.153 -0.4181 -0.3229 -0.3574
10516SOL    HW132073   5.178   0.418   4.123 -0.6262 -0.8178 -1.0353
10516SOL    HW232074   5.327   0.391   4.132 -0.5407 -0.2972 -0.8217
10517SOL     OW32075   6.011   5.270   6.336  0.2556 -0.2709  0.2359
10517SOL    HW132076   6.041   5.227   6.416 -0.6900 -0.2816  0.5968
10517SOL    HW232077   6.048   5.358   6.340  3.9786 -1.5298 -1.5030
10518SOL     OW32078   4.470   2.344   1.833 -0.3745 -0.2477  0.1846
10518SOL    HW132079   4.490   2.399   1.757 -0.9365 -0.3290 -0.0219
10518SOL    HW232080   4.552   2.299   1.852  0.7670  2.2303  1.6676
10519SOL     OW32081   5.653   6.131   7.462 -0.4764  0.6310 -0.4579
10519SOL    HW132082   5.716   6.101   7.396  1.5638  1.9901  0.7601
10519SOL    HW232083   5.606   6.052   7.488  0.9851 -0.5236 -1.1644
10520SOL     OW32084   6.200   6.695   3.452  0.6615  0.2870  0.3042
10520SOL    HW132085   6.207   6.604   3.424 -0.5476 -0.3007  1.7737
10520SOL    HW232086   6.248   6.699   3.534  1.5022  1.2269 -0.2080
10521SOL     OW32087   4.645   5.989   4.319 -0.2336 -0.1135  0.1263
10521SOL    HW132088   4.688   6.053   4.262 -2.1612  0.8955 -0.3051
10521SOL    HW232089   4.700   5.911   4.315  2.0990  1.4299  0.5062
10522SOL     OW32090   1.184   3.850   2.362  0.3708 -0.0299  0.1900
10522SOL    HW132091   1.237   3.925   2.336  2.0661 -1.2308 -0.0508
10522SOL    HW232092   1.220   3.777   2.311 -0.9654 -1.0688  0.6878
10523SOL     OW32093   3.042   3.859   4.677  0.4531 -0.6725  0.5333
10523SOL    HW132094   2.967   3.908   4.712  0.1008  0.4286 -1.5820
10523SOL    HW232095   3.117   3.891   4.727 -0.0314  0.7255  0.4168
10524SOL     OW32096   5.835   1.002   0.518 -0.0528  0.0292 -0.1991
10524SOL    HW132097   5.882   1.074   0.475  2.3151 -0.1483  1.8771
10524SOL    HW232098   5.867   1.003   0.608  1.3794 -4.6387 -0.3981
10525SOL     OW32099   3.918   1.692   2.746  0.0495  0.5271  0.8461
10525SOL    HW132100   4.003   1.656   2.771 -0.1128 -1.1609 -0.8513
10525SOL    HW232101   3.876   1.623   2.695 -1.9651  1.6740  0.8323
10526SOL     OW32102   4.518   3.734   6.429 -0.2032 -0.4972 -1.0133
10526SOL    HW132103   4.458   3.668   6.462  0.6300 -0.0431  1.5979
10526SOL    HW232104   4.463   3.810   6.411 -0.6977 -0.8070 -0.8194
10527SOL     OW32105   3.465   4.622   1.772 -0.2917  0.1528 -0.4991
10527SOL    HW132106   3.485   4.675   1.849  1.0559 -1.6370  0.4541
10527SOL    HW232107   3.415   4.548   1.806 -0.5467 -0.1617 -1.5207
10528SOL     OW32108   6.536   4.743   2.753 -0.4872  0.5110  0.3226
10528SOL    HW132109   6.545   4.710   2.842 -2.0972  0.9793  0.6836
10528SOL    HW232110   6.625   4.768   2.728  0.0471  0.0243  1.6495
10529SOL     OW32111   0.047   0.698   5.716  0.0784 -0.5655  0.1433
10529SOL    HW132112   0.050   0.768   5.650  0.5874 -1.9877 -1.4306
10529SOL    HW232113   0.027   0.620   5.665  2.2694 -2.0349  1.3821
10530SOL     OW32114   4.355   0.182   7.499 -0.3131 -0.5031 -0.5584
10530SOL    HW132115   4.385   0.201   7.411  1.3881  3.0265  0.5989
10530SOL    HW232116   4.282   0.243   7.514 -0.0565 -0.4594  0.6991
10531SOL     OW32117   4.997   1.590   2.331  0.6282 -0.1715  1.0213
10531SOL    HW132118   5.027   1.507   2.367 -0.7723  0.0771  2.9287
10531SOL    HW232119   5.075   1.645   2.328  1.4971 -1.3921  0.0974
10532SOL     OW32120   2.170   4.538   5.418  0.4561  0.4641  0.0750
10532SOL    HW132121   2.122   4.455   5.422  1.7508 -0.3225 -0.2380
10532SOL    HW232122   2.192   4.547   5.325 -1.0935  2.0148 -0.1849
10533SOL     OW32123   5.827   6.183   2.435  0.2152 -0.0347 -0.5324
10533SOL    HW132124   5.849   6.177   2.342 -0.4762 -0.4753 -0.6728
10533SOL    HW232125   5.865   6.267   2.463  0.4654  0.0799 -1.1984
10534SOL     OW32126   1.281   4.228   1.443 -0.0706 -0.1224 -1.1631
10534SOL    HW132127   1.314   4.281   1.371  1.4613  0.6323  0.0344
10534SOL    HW232128   1.211   4.176   1.405 -1.0424  2.1102 -2.6009
10535SOL     OW32129   2.177   1.956   0.984  0.2787  0.5641  0.1913
10535SOL    HW132130   2.255   2.010   0.998  0.7703 -0.7085  3.4249
10535SOL    HW232131   2.105   2.019   0.979  1.2647  1.6738 -0.8616
10536SOL     OW32132   5.403   6.383   5.361  0.1506 -0.7936  0.1715
10536SOL    HW132133   5.310   6.360   5.366 -0.4243  1.2055 -0.4073
10536SOL    HW232134   5.441   6.317   5.303 -2.0906  1.3799 -4.2643
10537SOL     OW32135   1.419   1.987   0.499  0.3089  0.3334  0.1209
10537SOL    HW132136   1.411   1.899   0.535 -0.0980  0.5229  0.4988
10537SOL    HW232137   1.383   1.980   0.410  0.5617  0.0524  0.0400
10538SOL     OW32138   1.386   2.206   7.072 -0.5229 -0.0864  0.1034
10538SOL    HW132139   1.397   2.212   6.977  0.5769 -1.6664  0.0956
10538SOL    HW232140   1.334   2.283   7.095  0.3893  1.0864 -1.5882
10539SOL     OW32141   1.518   4.498   6.027  0.2271  0.0589  0.8005
10539SOL    HW132142   1.471   4.473   6.107 -0.1605 -1.0946  0.2344
10539SOL    HW232143   1.561   4.417   5.998  1.4422  0.7734  0.5497
10540SOL     OW32144   6.421   1.672   0.213  0.5352  0.2432 -0.0361
10540SOL    HW132145   6.389   1.761   0.199 -0.6385  0.2045  2.0605
10540SOL    HW232146   6.346   1.616   0.192  0.2121 -0.0355  1.7134
10541SOL     OW32147   7.477   0.057   5.978 -0.0948 -0.0992  0.0157
10541SOL    HW132148   7.403   0.022   5.930  1.1500 -2.1655 -0.5428
10541SOL    HW232149   7.438   0.105   6.051 -1.9607 -1.2621 -0.1557
10542SOL     OW32150   5.414   3.340   0.053 -0.2041  0.0864 -0.1695
10542SOL    HW132151   5.501   3.312   0.081  0.2589  1.1462 -0.4933
10542SOL    HW232152   5.410   3.316  -0.040 -0.3184 -0.1054 -0.1148
10543SOL     OW32153   3.768   5.831   4.216 -0.0700  0.3946  0.5309
10543SOL    HW132154   3.836   5.850   4.280  0.1108  0.5652  0.2880
10543SOL    HW232155   3.812   5.783   4.146 -0.4633 -0.6786  1.0007
10544SOL     OW32156   0.143   0.461   2.589 -0.1591 -0.4169  0.2136
10544SOL    HW132157   0.096   0.481   2.509 -0.5882  0.5646  0.7027
10544SOL    HW232158   0.235   0.457   2.563 -0.1449  1.3654 -0.0704
10545SOL     OW32159   3.980   0.991   1.935  0.5400  0.4155 -0.3879
10545SOL    HW132160   3.902   1.019   1.983 -0.5920 -1.1688 -1.2259
10545SOL    HW232161   4.053   1.027   1.986 -0.6956  1.1579  0.9319
10546SOL     OW32162   0.526   1.088   1.435 -0.0698 -0.0638 -0.4354
10546SOL    HW132163   0.576   1.025   1.487 -0.7160  1.3311  2.0439
10546SOL    HW232164   0.452   1.037   1.401  0.4483 -1.0734 -0.0886
10547SOL     OW32165   7.321   5.269   0.409  0.8780  0.3132 -0.0472
10547SOL    HW132166   7.380   5.289   0.337  0.9322 -0.2448 -0.1619
10547SOL    HW232167   7.254   5.212   0.370  2.1123 -1.8568  0.7884
10548SOL     OW32168   1.272   1.182   2.312  0.2409 -0.0858 -0.1868
10548SOL    HW132169   1.302   1.168   2.401  0.1589 -2.5937 -0.4814
10548SOL    HW232170   1.177   1.192   2.319  0.4660  2.4858  0.2058
10549SOL     OW32171   1.722   4.172   1.448  0.0511 -0.4142  0.4761
10549SOL    HW132172   1.814   4.174   1.419  0.0366  0.4438  0.4705
10549SOL    HW232173   1.672   4.195   1.369 -0.1509 -0.5971  0.5522
10550SOL     OW32174   4.788   0.378   4.495  0.7052 -0.2898  0.0593
10550SOL    HW132175   4.852   0.442   4.466  0.3677 -0.4575 -1.0976
10550SOL    HW232176   4.813   0.297   4.452  1.1509 -0.9772  1.5373
10551SOL     OW32177   4.960   1.921   5.765  0.3141 -0.6237 -0.2945
10551SOL    HW132178   5.021   1.956   5.831 -0.0915 -0.2909 -0.0946
10551SOL    HW232179   4.930   1.838   5.803  1.9755 -1.6943 -1.1722
10552SOL     OW32180   0.700   7.334   2.918 -0.2501  0.5286 -0.5636
10552SOL    HW132181   0.652   7.401   2.966  1.7896  0.6364  1.4856
10552SOL    HW232182   0.787   7.371   2.903  0.4755 -1.0813 -0.6291
10553SOL     OW32183   3.336   6.706   6.039 -0.0782 -1.0021 -0.3036
10553SOL    HW132184   3.406   6.697   6.104  0.3867 -0.3085 -0.7022
10553SOL    HW232185   3.259   6.729   6.090  0.1874 -0.8746  0.0439
10554SOL     OW32186   7.546   4.365   1.315  0.0365 -0.1735 -0.2351
10554SOL    HW132187   7.590   4.298   1.262  0.8659 -0.7415  1.1058
10554SOL    HW232188   7.506   4.315   1.387  1.1467  0.7950  1.1044
10555SOL     OW32189   4.087   1.372   7.537  0.3539 -0.2565  0.2656
10555SOL    HW132190   4.054   1.309   7.600 -0.5997 -0.3031 -0.2606
10555SOL    HW232191   4.168   1.406   7.576  0.3330 -1.0515  1.0107
10556SOL     OW32192   0.940   1.246   5.967  0.1106  0.6411 -0.2591
10556SOL    HW132193   0.948   1.339   5.989 -1.0076  0.6140  0.3362
10556SOL    HW232194   0.867   1.242   5.904  2.7598  0.6293 -3.6086
10557SOL     OW32195   3.389   0.916   4.622  0.6849 -0.0242  0.3645
10557SOL    HW132196   3.334   0.953   4.691  0.3372 -0.5767  0.3899
10557SOL    HW232197   3.354   0.954   4.541 -0.0003 -0.6808  0.3440
10558SOL     OW32198   5.473   4.400   7.536  0.4858  0.3357 -0.1045
10558SOL    HW132199   5.390   4.410   7.489 -0.0772 -1.9945  0.2507
10558SOL    HW232200   5.450   4.411   7.628  0.0302 -2.4569  0.2082
10559SOL     OW32201   2.201   2.497   0.000 -0.5152 -0.1040  0.1128
10559SOL    HW132202   2.252   2.560  -0.051 -0.9791 -0.0495 -0.2914
10559SOL    HW232203   2.212   2.526   0.091  0.9100 -0.6347  0.1211
10560SOL     OW32204   6.503   2.299   3.703 -0.1638  0.1947 -0.3365
10560SOL    HW132205   6.441   2.368   3.680  0.8405  0.6539 -1.8446
10560SOL    HW232206   6.502   2.240   3.627 -0.3053 -0.9402  0.5224
10561SOL     OW32207   7.434   2.384   6.067  0.1974  0.5005 -0.1089
10561SOL    HW132208   7.520   2.394   6.027  0.3361 -1.0840 -0.2713
10561SOL    HW232209   7.452   2.341   6.151 -0.5042 -1.1312 -0.7480
10562SOL     OW32210   3.560   5.570   1.869  0.1120  0.0332 -0.1005
10562SOL    HW132211   3.517   5.524   1.941 -0.5610 -0.1121 -0.5870
10562SOL    HW232212   3.489   5.595   1.810  0.3488  2.3321  0.4815
10563SOL     OW32213   3.139   0.408   2.149  0.1833 -0.1868  0.1558
10563SOL    HW132214   3.115   0.500   2.140  1.0979  0.2216  1.5360
10563SOL    HW232215   3.080   0.375   2.217 -0.7597 -0.8873 -0.9644
10564SOL     OW32216   7.447   7.435   6.713 -0.4748 -0.1094  0.3031
10564SOL    HW132217   7.378   7.381   6.674 -1.3560  0.9209  0.3771
10564SOL    HW232218   7.499   7.463   6.639 -1.8929  1.4907 -0.1563
10565SOL     OW32219   4.267   2.431   5.488 -0.0234  0.5075  0.3853
10565SOL    HW132220   4.329   2.472   5.548  1.1204  2.3198 -1.9058
10565SOL    HW232221   4.252   2.496   5.420 -0.5337 -1.7279 -1.8085
10566SOL     OW32222   7.376   6.390   2.728  0.3318  0.0019  0.0537
10566SOL    HW132223   7.287   6.413   2.754 -0.0435 -1.9769  0.7530
10566SOL    HW232224   7.424   6.387   2.811 -0.3239 -4.1365  0.5305
10567SOL     OW32225   6.914   5.209   0.749  0.5756 -0.6971  0.2317
10567SOL    HW132226   6.877   5.242   0.667 -2.4009 -2.4749  0.7123
10567SOL    HW232227   6.867   5.258   0.817  1.3999 -0.8195  0.8985
10568SOL     OW32228   2.414   2.252   4.343 -0.0246  0.0100  0.5682
10568SOL    HW132229   2.503   2.266   4.375 -0.8706  1.8896  2.2892
10568SOL    HW232230   2.376   2.189   4.405  0.2437 -1.2811 -0.5255
10569SOL     OW32231   5.614   1.348   5.448 -0.0398 -0.2687 -0.2678
10569SOL    HW132232   5.535   1.321   5.401 -0.4508  0.9798 -0.3150
10569SOL    HW232233   5.582   1.390   5.527  0.6486 -3.2443  1.7524
10570SOL     OW32234   5.954   3.778   2.462 -0.0884 -0.0353  0.1022
10570SOL    HW132235   5.882   3.730   2.503 -1.5572  1.9580  0.0046
10570SOL    HW232236   5.952   3.864   2.504 -0.8924  1.7195 -3.1644
10571SOL     OW32237   2.102   3.022   1.676 -0.1262 -0.0924  0.3532
10571SOL    HW132238   2.156   3.041   1.752  2.8756 -0.1965 -1.6089
10571SOL    HW232239   2.014   3.051   1.701  0.4387 -1.2297  4.2137
10572SOL     OW32240   1.593   2.592   4.805  0.2237  0.1006 -0.1323
10572SOL    HW132241   1.658   2.584   4.875  0.2914 -1.2164 -0.3054
10572SOL    HW232242   1.556   2.680   4.815 -0.2082 -0.2639  1.9632
10573SOL     OW32243   5.038   4.713   3.334 -1.1469  0.1109 -0.2815
10573SOL    HW132244   4.993   4.668   3.405 -0.8828 -1.3038 -0.9640
10573SOL    HW232245   5.130   4.714   3.361 -0.7301 -2.1765 -1.4040
10574SOL     OW32246   4.696   2.019   2.290  0.3495  0.0000  0.2324
10574SOL    HW132247   4.683   1.933   2.330  1.1295 -1.0729 -1.7031
10574SOL    HW232248   4.662   2.009   2.201  2.2715  1.0736 -0.6721
10575SOL     OW32249   3.727   1.704   7.447 -0.3193  0.2585 -0.1395
10575SOL    HW132250   3.778   1.741   7.375 -1.4520  0.5421 -0.8425
10575SOL    HW232251   3.677   1.633   7.406 -0.8020  0.2726  0.4147
10576SOL     OW32252   2.005   1.103   3.064  0.0232  0.2914 -0.1582
10576SOL    HW132253   1.999   1.029   3.126 -2.9095  0.9671  0.5065
10576SOL    HW232254   2.012   1.061   2.978  2.7471 -0.6628  0.4055
10577SOL     OW32255   2.098   7.536   6.801 -0.1991 -0.1045  0.1405
10577SOL    HW132256   2.017   7.570   6.839 -1.9153 -3.1009 -0.5095
10577SOL    HW232257   2.074   7.511   6.712  0.4473 -3.8872  0.8515
10578SOL     OW32258   0.411   2.456   0.593 -0.2297 -0.2572 -0.1413
10578SOL    HW132259   0.351   2.421   0.526  1.0519 -0.5726 -1.1595
10578SOL    HW232260   0.359   2.522   0.639 -1.7113 -1.2770 -0.2629
10579SOL     OW32261   5.238   2.780   7.311  0.2691  0.3822 -0.1440
10579SOL    HW132262   5.188   2.741   7.240 -0.9922  0.7605  0.4958
10579SOL    HW232263   5.291   2.848   7.270 -0.6862  0.8120 -0.6888
10580SOL     OW32264   3.957   4.889   5.192 -0.0126  0.4259 -0.1096
10580SOL    HW132265   4.010   4.968   5.185  1.1772 -0.1348  1.7615
10580SOL    HW232266   4.008   4.821   5.147  0.0485  0.2628  0.1981
10581SOL     OW32267   0.974   3.359   3.807  0.2713 -0.6779 -0.1944
10581SOL    HW132268   0.895   3.413   3.813  0.7381  0.3762 -2.5442
10581SOL    HW232269   1.019   3.373   3.890 -1.3654 -0.2978  0.6784
10582SOL     OW32270   6.780   2.204   0.977 -0.5328 -0.7531  0.1261
10582SOL    HW132271   6.828   2.158   1.046 -0.6118 -1.0407 -0.0090
10582SOL    HW232272   6.847   2.251   0.928 -0.6114  0.6100  1.2554
10583SOL     OW32273   6.685   1.412   6.437  0.4230 -0.2934 -0.5104
10583SOL    HW132274   6.624   1.392   6.366  1.1000 -0.0857 -1.1756
10583SOL    HW232275   6.752   1.467   6.395 -0.8465  2.6101  0.9802
10584SOL     OW32276   7.500   0.958   2.162 -0.3315  0.4463  0.0458
10584SOL    HW132277   7.493   0.892   2.231 -0.1777 -0.2620 -0.6025
10584SOL    HW232278   7.470   0.913   2.083  1.9135  0.4195 -0.8624
10585SOL     OW32279   0.288   0.106   5.197  0.4024  0.3595 -0.5760
10585SOL    HW132280   0.373   0.145   5.176  1.3869  0.3368  2.8949
10585SOL    HW232281   0.295   0.079   5.288 -3.1788 -0.1846 -0.3212
10586SOL     OW32282   0.834   6.143   5.317  0.4939  0.2475 -0.4979
10586SOL    HW132283   0.833   6.223   5.264  1.6337  0.3566 -0.3935
10586SOL    HW232284   0.911   6.096   5.286 -1.1894 -1.7480 -1.8697
10587SOL     OW32285   1.759   1.526   1.335  0.5002 -0.2484 -0.2780
10587SOL    HW132286   1.822   1.585   1.376 -0.4059 -0.5438  1.6554
10587SOL    HW232287   1.751   1.558   1.245  1.4172  1.4125  0.1885
10588SOL     OW32288   2.646   5.654   0.429 -0.6005  0.7101  0.1041
10588SOL    HW132289   2.562   5.608   0.434 -0.2599  0.2378  2.8401
10588SOL    HW232290   2.646   5.711   0.506  1.9243  0.0410  0.6856
10589SOL     OW32291   5.289   6.777   3.771 -0.3293 -0.6494 -0.2776
10589SOL    HW132292   5.351   6.825   3.826  0.2052  0.4102 -1.7275
10589SOL    HW232293   5.297   6.686   3.799  1.8431 -0.5392 -0.3528
10590SOL     OW32294   4.380   7.477   5.605  0.1174  0.1871 -0.3426
10590SOL    HW132295   4.354   7.458   5.695  0.2941 -0.0767 -0.3463
10590SOL    HW232296   4.299   7.502   5.561 -0.2594 -1.3227 -0.5360
10591SOL     OW32297   4.570   0.509   3.825  0.5029 -0.0274  0.0042
10591SOL    HW132298   4.527   0.445   3.768 -0.4889  0.4420  0.1939
10591SOL    HW232299   4.660   0.479   3.832  0.9592  0.4781 -2.7048
10592SOL     OW32300   6.678   0.462   6.685 -0.0412  0.1413 -0.9012
10592SOL    HW132301   6.702   0.527   6.619  0.4655  0.3720 -0.4911
10592SOL    HW232302   6.681   0.378   6.638  1.4350  0.1774 -0.8913
10593SOL     OW32303   4.710   0.867   2.517 -0.0940  0.0915  0.3285
10593SOL    HW132304   4.765   0.830   2.448  1.3443 -1.4519  2.1655
10593SOL    HW232305   4.657   0.933   2.473  2.3547  0.8122 -1.8066
10594SOL     OW32306   6.411   0.263   1.209 -0.3633  0.6023 -0.4785
10594SOL    HW132307   6.374   0.318   1.140 -1.7250  3.3972  2.2516
10594SOL    HW232308   6.344   0.197   1.226 -0.2645  0.2558 -1.3704
10595SOL     OW32309   1.873   0.908   7.272 -0.3663  0.0937  0.0001
10595SOL    HW132310   1.806   0.847   7.240  0.6868 -0.0516 -2.1595
10595SOL    HW232311   1.954   0.877   7.231  1.0534  0.3403  2.4127
10596SOL     OW32312   3.759   5.599   5.082 -0.1523 -0.3506  0.2086
10596SOL    HW132313   3.803   5.545   5.016 -0.2881 -0.2418  0.0264
10596SOL    HW232314   3.688   5.545   5.116 -0.6241 -0.1013 -0.3580
10597SOL     OW32315   1.527   6.986   0.722 -0.4238 -0.5635  0.8808
10597SOL    HW132316   1.609   6.938   0.714  0.3690  0.9426 -0.9102
10597SOL    HW232317   1.543   7.048   0.794 -0.0623 -0.3997  0.6609
10598SOL     OW32318   3.064   7.547   6.051  0.0151  0.2738 -0.4447
10598SOL    HW132319   3.148   7.581   6.081 -0.5390  1.1861  0.1281
10598SOL    HW232320   3.086   7.484   5.982  1.1731  0.2377 -0.0586
10599SOL     OW32321   3.651   3.557   1.542 -0.0741 -0.5540  0.4317
10599SOL    HW132322   3.720   3.508   1.497  0.3642 -0.0781  0.5782
10599SOL    HW232323   3.672   3.551   1.635 -0.9883 -1.5446  0.5945
10600SOL     OW32324   2.740   6.654   3.971  0.0165 -0.2451  0.1455
10600SOL    HW132325   2.664   6.596   3.970 -0.0304 -0.2236  1.1210
10600SOL    HW232326   2.759   6.670   3.879 -1.7140  0.4747 -0.1295
10601SOL     OW32327   2.556   0.305   1.654  0.2216 -0.7929  0.0649
10601SOL    HW132328   2.544   0.273   1.743  1.6960  1.0446  1.0006
10601SOL    HW232329   2.617   0.242   1.614  0.7161 -0.8385  0.8631
10602SOL     OW32330   7.441   0.607   4.297 -0.8209  0.0301 -0.0470
10602SOL    HW132331   7.502   0.664   4.250 -2.3056  0.3314 -1.7513
10602SOL    HW232332   7.466   0.518   4.271 -1.6985  0.2001 -1.5752
10603SOL     OW32333   4.611   7.241   5.906  0.1953 -0.2182 -0.5459
10603SOL    HW132334   4.664   7.162   5.907  0.5843  0.0398 -0.2664
10603SOL    HW232335   4.567   7.241   5.821  1.5079  0.1375 -1.2384
10604SOL     OW32336   5.337   2.222   0.181 -0.6025 -0.0468 -0.0553
10604SOL    HW132337   5.249   2.206   0.216 -2.1754  2.0718 -2.6318
10604SOL    HW232338   5.326   2.215   0.086  1.6813  1.6442 -0.5279
10605SOL     OW32339   4.128   4.543   6.807  0.0902  0.0927  0.2463
10605SOL    HW132340   4.181   4.554   6.886 -0.9938 -0.3055  1.0485
10605SOL    HW232341   4.057   4.484   6.833  0.5984 -1.3599 -1.4549
10606SOL     OW32342   3.143   0.153   7.272 -0.3151 -0.0210 -0.6653
10606SOL    HW132343   3.049   0.146   7.288 -0.6337  1.1450 -1.8652
10606SOL    HW232344   3.164   0.245   7.290  0.0851  0.3516 -2.7198
10607SOL     OW32345   1.378   0.190   3.605 -0.2706 -0.0809 -0.8807
10607SOL    HW132346   1.299   0.203   3.552 -1.5697  0.2766  1.0327
10607SOL    HW232347   1.411   0.278   3.621 -0.4491 -0.1136 -0.3094
10608SOL     OW32348   2.027   2.625   6.680 -0.1071  0.4844  0.3817
10608SOL    HW132349   1.939   2.594   6.701 -0.0692  0.6617  0.8211
10608SOL    HW232350   2.021   2.655   6.589 -0.2273 -0.4922  0.0547
10609SOL     OW32351   0.165   2.740   3.501  0.0481  0.3516 -0.3036
10609SOL    HW132352   0.099   2.670   3.503  0.0811  0.3400  0.4533
10609SOL    HW232353   0.242   2.698   3.462 -0.0114  0.0364 -0.0883
10610SOL     OW32354   1.372   5.721   0.806  0.2482 -0.0774 -0.0426
10610SOL    HW132355   1.388   5.656   0.738  2.2476  0.8256 -0.5103
10610SOL    HW232356   1.281   5.746   0.794 -0.1365 -1.7093 -0.7928
10611SOL     OW32357   3.285   0.843   1.536 -0.1773  0.8248  0.3336
10611SOL    HW132358   3.373   0.869   1.509  0.6071 -0.7231  1.3049
10611SOL    HW232359   3.283   0.858   1.631  0.0684 -1.8059  0.8287
10612SOL     OW32360   2.792   1.806   5.935 -0.0147  0.3491 -0.1990
10612SOL    HW132361   2.859   1.747   5.902 -0.0853 -0.1562  0.5165
10612SOL    HW232362   2.722   1.802   5.870  0.0428 -0.2515 -0.2317
10613SOL     OW32363   7.514   4.547   6.334  0.2056  0.2160  0.8335
10613SOL    HW132364   7.596   4.597   6.346  1.1126 -0.7275 -0.9758
10613SOL    HW232365   7.537   4.480   6.269 -1.4584 -1.4429  1.8828
10614SOL     OW32366   0.825   1.297   2.096 -0.1514 -0.0908 -0.2062
10614SOL    HW132367   0.914   1.264   2.109 -0.3227 -0.2189  0.6932
10614SOL    HW232368   0.836   1.390   2.077  0.0608  0.5993  2.7750
10615SOL     OW32369   0.512   1.812   4.337  0.3484  0.3174  0.3899
10615SOL    HW132370   0.532   1.894   4.382 -2.1563 -0.7799  3.8945
10615SOL    HW232371   0.437   1.832   4.281  0.3050  0.5818  0.5424
10616SOL     OW32372   5.105   7.124   4.780 -0.1418 -0.6146 -0.3943
10616SOL    HW132373   5.038   7.192   4.790  0.7264  0.1291  0.5514
10616SOL    HW232374   5.057   7.042   4.790 -1.2150 -0.1647 -1.5964
10617SOL     OW32375   0.232   7.082   5.564  0.1333  0.3060  0.7513
10617SOL    HW132376   0.149   7.120   5.535  0.5814  0.6529 -0.1198
10617SOL    HW232377   0.207   7.017   5.629 -0.8873 -0.1421 -0.0571
10618SOL     OW32378   4.545   4.193   4.666 -0.4033 -0.2226  0.5647
10618SOL    HW132379   4.470   4.214   4.611  0.1813  2.1492  0.5447
10618SOL    HW232380   4.544   4.261   4.734  1.1044 -0.7807  1.1767
10619SOL     OW32381   2.612   2.880   1.636  0.8335  0.0079  0.2898
10619SOL    HW132382   2.527   2.838   1.628  1.6093 -1.5304 -0.1913
10619SOL    HW232383   2.621   2.898   1.730 -0.4150  1.1249  0.2347
10620SOL     OW32384   6.790   5.130   0.313 -0.5575 -0.6057 -0.2192
10620SOL    HW132385   6.864   5.116   0.254  0.4910 -0.6614  1.0618
10620SOL    HW232386   6.713   5.117   0.258  0.3248 -3.9075 -0.9009
10621SOL     OW32387   6.752   2.077   3.749  0.1778  0.2835  0.1707
10621SOL    HW132388   6.715   1.989   3.742 -2.0414  1.2374 -0.8942
10621SOL    HW232389   6.705   2.117   3.822  1.3620  0.5387  0.8193
10622SOL     OW32390   7.298   4.051   4.866 -0.3543 -0.3429 -0.5155
10622SOL    HW132391   7.299   4.039   4.961 -0.5629  1.4528 -0.2508
10622SOL    HW232392   7.390   4.064   4.843 -0.5043  1.6689 -0.1599
10623SOL     OW32393   0.163   2.890   1.611  0.0990 -0.2338 -0.3072
10623SOL    HW132394   0.178   2.816   1.670 -1.7486  0.4746  1.1484
10623SOL    HW232395   0.166   2.852   1.523 -0.3761 -1.9561  0.3881
10624SOL     OW32396   3.021   4.735   2.668 -0.2677  0.2019 -0.0665
10624SOL    HW132397   2.963   4.661   2.651  2.5249 -1.7763 -1.9274
10624SOL    HW232398   3.010   4.791   2.591 -0.3863  0.3113  0.0299
10625SOL     OW32399   3.269   5.844   0.468 -0.1006  0.0527 -0.1723
10625SOL    HW132400   3.260   5.840   0.563  0.1182 -0.7796 -0.1832
10625SOL    HW232401   3.363   5.843   0.452 -0.1429 -0.2332 -0.4116
10626SOL     OW32402   5.670   3.684   6.932  0.3797 -0.5473  0.1925
10626SOL    HW132403   5.593   3.702   6.878  0.4959  2.2084  0.7895
10626SOL    HW232404   5.641   3.616   6.993 -0.8596 -1.1724 -1.0420
10627SOL     OW32405   3.691   6.351   2.905  0.4463 -0.4308  0.6372
10627SOL    HW132406   3.633   6.424   2.924 -0.1355 -0.8620  0.5624
10627SOL    HW232407   3.632   6.276   2.895  0.9849 -0.7893  0.1086
10628SOL     OW32408   1.036   1.271   5.036  0.1972 -0.2942  0.2831
10628SOL    HW132409   0.953   1.240   5.072  0.3778 -1.3036 -0.1167
10628SOL    HW232410   1.100   1.208   5.067  0.8389  0.5580  0.6965
10629SOL     OW32411   5.587   2.717   5.499  0.5810  0.3473 -0.6235
10629SOL    HW132412   5.493   2.718   5.516  0.1430  1.5757 -2.7340
10629SOL    HW232413   5.625   2.768   5.571 -0.1150 -1.4521  1.1233
10630SOL     OW32414   6.185   2.162   6.487  0.6049 -0.2453 -0.4169
10630SOL    HW132415   6.204   2.155   6.394  1.4414  2.8239 -0.5924
10630SOL    HW232416   6.090   2.164   6.492  0.5315  1.5470 -1.5016
10631SOL     OW32417   0.254   4.178   0.616  0.7174 -0.1454 -0.7988
10631SOL    HW132418   0.290   4.137   0.537  1.8871 -1.1369  0.2117
10631SOL    HW232419   0.316   4.249   0.635 -0.1556  0.7909 -1.3521
10632SOL     OW32420   3.697   6.256   2.479  0.0937  0.0348 -0.4771
10632SOL    HW132421   3.775   6.308   2.501  0.8635 -1.3920  0.3444
10632SOL    HW232422   3.631   6.321   2.457  1.1620  1.3467 -0.0030
10633SOL     OW32423   7.304   5.934   5.889 -0.1353  0.5925  0.2257
10633SOL    HW132424   7.334   5.909   5.801 -2.0006 -2.1324  0.2475
10633SOL    HW232425   7.255   6.015   5.875 -0.1009  0.4011 -1.1902
10634SOL     OW32426   6.872   2.219   2.894  0.3905 -0.6653  0.0887
10634SOL    HW132427   6.796   2.265   2.929  0.2499 -0.8290  0.0028
10634SOL    HW232428   6.917   2.186   2.972  1.6710  1.4052  0.2923
10635SOL     OW32429   4.989   4.771   4.850  0.0274 -0.3818 -0.2080
10635SOL    HW132430   4.931   4.820   4.908  0.7948  1.6433 -1.0501
10635SOL    HW232431   5.070   4.760   4.900  0.3183  0.4356 -0.4755
10636SOL     OW32432   5.830   0.263   4.932  0.3136  0.1057 -0.0383
10636SOL    HW132433   5.774   0.331   4.969  1.3793  0.7560  0.4215
10636SOL    HW232434   5.776   0.184   4.933 -0.4720  0.6394  0.7268
10637SOL     OW32435   1.598   3.443   4.860  0.0052 -0.2148  0.3670
10637SOL    HW132436   1.582   3.518   4.802  0.1285  0.4189  1.1363
10637SOL    HW232437   1.527   3.447   4.925  2.1227  1.5998  2.7751
10638SOL     OW32438   4.096   2.771   1.004 -0.2894  0.1157  0.8817
10638SOL    HW132439   4.131   2.823   0.931 -0.7164  0.1415  0.6923
10638SOL    HW232440   4.165   2.707   1.023 -0.5518 -0.5006 -0.1712
10639SOL     OW32441   2.622   7.150   5.771 -0.4251  0.4992 -0.3634
10639SOL    HW132442   2.529   7.163   5.789 -0.4794 -0.5826  0.2395
10639SOL    HW232443   2.635   7.187   5.684 -2.1869 -2.2682 -1.9839
10640SOL     OW32444   6.335   5.683   4.118 -0.0809  0.6138 -0.0670
10640SOL    HW132445   6.285   5.601   4.114  1.1611 -0.2731  1.3414
10640SOL    HW232446   6.306   5.724   4.200  0.2664  0.9146 -0.0938
10641SOL     OW32447   0.539   7.369   2.225  0.5550  0.3799 -0.3276
10641SOL    HW132448   0.607   7.381   2.159  0.3835  1.0236 -0.3964
10641SOL    HW232449   0.520   7.458   2.256  0.2960  0.1269  0.2404
10642SOL     OW32450   6.032   7.541   5.359 -0.7111 -0.0472 -0.5712
10642SOL    HW132451   5.955   7.595   5.376 -0.0253  0.5529  0.7760
10642SOL    HW232452   6.089   7.555   5.435  0.6973 -0.5420 -1.4931
10643SOL     OW32453   5.317   1.518   2.881 -0.1879  0.4816  0.3949
10643SOL    HW132454   5.354   1.451   2.939  1.7384  0.5082 -0.7099
10643SOL    HW232455   5.233   1.541   2.921  0.1211 -0.9862  2.0055
10644SOL     OW32456   5.607   5.528   2.453 -0.2018  0.1096  0.1863
10644SOL    HW132457   5.696   5.493   2.446 -0.6644 -1.0141 -0.2264
10644SOL    HW232458   5.618   5.622   2.438  0.6445 -0.2919 -2.2872
10645SOL     OW32459   1.741   1.655   3.268  0.0829  0.2066 -0.2087
10645SOL    HW132460   1.821   1.679   3.316 -0.3688  0.2973  0.5118
10645SOL    HW232461   1.757   1.565   3.240 -0.2535 -0.3908  1.4390
10646SOL     OW32462   0.720   6.889   2.447  0.5737  0.0125 -0.0305
10646SOL    HW132463   0.633   6.866   2.416  0.5183 -0.5549  0.5272
10646SOL    HW232464   0.719   6.984   2.455 -0.2247 -0.0493  0.6597
10647SOL     OW32465   6.234   0.328   4.297 -0.1431 -0.3996  0.0368
10647SOL    HW132466   6.187   0.374   4.366 -2.2543 -2.1247 -0.1518
10647SOL    HW232467   6.271   0.251   4.341  0.8523 -0.0816 -0.2228
10648SOL     OW32468   3.421   0.009   2.103  0.1910  0.2679  0.0456
10648SOL    HW132469   3.426   0.095   2.145  0.8238 -1.1703  3.2096
10648SOL    HW232470   3.510  -0.025   2.109 -0.4900 -1.4416  0.8511
10649SOL     OW32471   3.480   2.012   5.611 -0.3576 -0.2221  0.5540
10649SOL    HW132472   3.393   2.040   5.639 -0.1744  0.0747  0.8263
10649SOL    HW232473   3.541   2.069   5.659 -0.0527  1.8855 -2.1073
10650SOL     OW32474   5.072   5.240   0.230  0.2348 -0.1153 -0.5943
10650SOL    HW132475   5.036   5.316   0.275  0.5714 -0.4401  0.2488
10650SOL    HW232476   5.007   5.218   0.163  0.1028  0.8603 -0.8025
10651SOL     OW32477   2.522   2.372   2.228 -0.3090  0.1567 -0.0820
10651SOL    HW132478   2.525   2.283   2.261  4.9732 -0.5729 -1.5365
10651SOL    HW232479   2.499   2.363   2.135  1.0534  0.0866 -0.4409
10652SOL     OW32480   1.639   6.138   5.359  0.7967  0.3962  0.0814
10652SOL    HW132481   1.608   6.088   5.284  0.4002  1.3605 -0.4186
10652SOL    HW232482   1.734   6.140   5.348  0.8090 -0.1443  0.0523
10653SOL     OW32483   5.071   0.030   2.145  0.2962 -0.4055  0.0317
10653SOL    HW132484   5.100  -0.039   2.206 -0.6058 -0.2522  0.6641
10653SOL    HW232485   5.062  -0.015   2.061  0.4238 -0.8993  0.2745
10654SOL     OW32486   1.966   4.112   4.726  0.3462 -0.3234 -0.3352
10654SOL    HW132487   1.938   4.182   4.668 -0.3535  0.5055  0.9480
10654SOL    HW232488   1.890   4.093   4.781  1.2002 -0.5190  0.8447
10655SOL     OW32489   6.405   2.297   2.456  0.2595 -0.4090  0.4151
10655SOL    HW132490   6.471   2.362   2.429  0.6457 -1.0724 -0.2697
10655SOL    HW232491   6.386   2.320   2.547  2.0987 -0.7400  0.9395
10656SOL     OW32492   3.972   1.444   6.539 -0.1029  0.5318 -0.7023
10656SOL    HW132493   4.042   1.381   6.555 -0.1177  0.8841  0.9049
10656SOL    HW232494   3.991   1.479   6.452  0.0335 -1.4855 -1.5531
10657SOL     OW32495   1.109   6.190   6.825  0.2582 -0.1879 -0.1957
10657SOL    HW132496   1.139   6.099   6.834  0.1146 -0.1026  1.3114
10657SOL    HW232497   1.187   6.243   6.839 -0.3219  0.0079  2.8706
10658SOL     OW32498   1.690   1.917   4.943 -0.2202  0.3107 -0.5757
10658SOL    HW132499   1.631   1.850   4.978 -0.1020  0.6111  0.2313
10658SOL    HW232500   1.696   1.982   5.013  1.1317  0.2398 -0.5882
10659SOL     OW32501   6.063   0.804   4.203 -0.1872  0.2841  1.1209
10659SOL    HW132502   6.024   0.717   4.214  0.4744 -0.1641  0.0772
10659SOL    HW232503   6.151   0.786   4.169 -0.1578  1.3724  0.5964
10660SOL     OW32504   3.081   5.008   3.907  0.1388  0.0835 -0.2278
10660SOL    HW132505   2.991   5.037   3.926 -1.3184 -2.9969 -1.6942
10660SOL    HW232506   3.100   5.046   3.821 -0.0847  0.0602 -0.2894
10661SOL     OW32507   5.491   6.780   3.953  0.5103 -0.0232  0.5961
10661SOL    HW132508   5.556   6.710   3.944  1.8241  0.9849  1.7878
10661SOL    HW232509   5.490   6.799   4.047 -1.5266  0.0195  0.6119
10662SOL     OW32510   6.669   5.992   5.325  0.1058 -0.1381 -0.3385
10662SOL    HW132511   6.654   6.067   5.383 -2.2970  0.7897 -2.0078
10662SOL    HW232512   6.583   5.971   5.289  0.4627 -4.3438  0.6894
10663SOL     OW32513   1.015   5.275   2.517  0.2168  0.6104  0.0351
10663SOL    HW132514   0.949   5.208   2.501 -1.1205  2.0612 -0.7560
10663SOL    HW232515   1.095   5.239   2.479 -0.1761 -1.0111  0.6640
10664SOL     OW32516   7.084   3.077   3.977 -0.3022 -0.6265 -0.1479
10664SOL    HW132517   7.018   3.085   4.046 -1.4232  0.7033 -1.2966
10664SOL    HW232518   7.117   2.988   3.984 -1.5454 -1.0091  1.0850
10665SOL     OW32519   1.415   6.064   5.914  0.5670  0.5956  0.3814
10665SOL    HW132520   1.335   6.092   5.870 -0.0473 -1.6622 -0.0967
10665SOL    HW232521   1.434   6.134   5.977 -1.1279  1.7232 -0.2851
10666SOL     OW32522   0.775   4.171   4.665 -0.0969  0.4484 -0.0832
10666SOL    HW132523   0.692   4.216   4.650  0.9148  1.9833 -1.3218
10666SOL    HW232524   0.818   4.171   4.580  1.2708 -0.1345  0.5832
10667SOL     OW32525   3.179   5.178   6.626  0.8279 -0.2407  0.5488
10667SOL    HW132526   3.176   5.152   6.719  1.2455  1.0110  0.9333
10667SOL    HW232527   3.222   5.104   6.582  1.2095 -0.5766  1.4560
10668SOL     OW32528   4.001   3.103   2.857 -0.1626  0.3471 -0.0781
10668SOL    HW132529   3.981   3.039   2.925 -2.4931  0.5829 -0.4600
10668SOL    HW232530   4.023   3.183   2.906 -0.9835  0.2729  0.4451
10669SOL     OW32531   2.819   5.502   5.475 -0.4380 -0.3640  0.1303
10669SOL    HW132532   2.914   5.508   5.468 -0.5610  0.9306 -1.0723
10669SOL    HW232533   2.791   5.471   5.389 -1.1643  0.4967  0.0377
10670SOL     OW32534   1.888   5.164   1.117  0.4055 -0.4458  0.3228
10670SOL    HW132535   1.939   5.233   1.159 -0.4114 -0.1133  0.7714
10670SOL    HW232536   1.799   5.199   1.112 -0.2948 -1.9192  1.6390
10671SOL     OW32537   4.297   0.779   5.387  0.1701  0.3971 -0.0935
10671SOL    HW132538   4.266   0.747   5.472  0.3445 -0.5330 -0.3666
10671SOL    HW232539   4.385   0.812   5.404  0.2203  0.1760  0.0778
10672SOL     OW32540   4.432   1.172   4.075 -0.2287 -0.0052 -0.1284
10672SOL    HW132541   4.464   1.112   4.142 -2.3630 -0.1502  0.8693
10672SOL    HW232542   4.510   1.217   4.043  0.9158 -0.0428  2.3436
10673SOL     OW32543   1.148   0.617   4.158  0.0789  0.1999  0.6547
10673SOL    HW132544   1.168   0.535   4.205 -1.3346 -0.2333  0.5364
10673SOL    HW232545   1.159   0.595   4.066  0.5627  0.3987  0.6623
10674SOL     OW32546   1.592   4.220   4.112 -0.3349  0.0006 -0.1745
10674SOL    HW132547   1.681   4.253   4.117 -0.5427  1.3842 -3.3328
10674SOL    HW232548   1.543   4.269   4.178  0.8082  0.7097  0.1589
10675SOL     OW32549   3.923   4.406   4.443 -0.4261 -0.0089  0.1798
10675SOL    HW132550   3.886   4.481   4.397  0.6095 -0.7826 -2.0489
10675SOL    HW232551   3.890   4.414   4.532 -1.2395  2.4609 -0.2699
10676SOL     OW32552   3.201   3.148   7.116 -0.1095  0.0517  0.2299
10676SOL    HW132553   3.242   3.066   7.090 -1.1306 -0.2273 -0.5842
10676SOL    HW232554   3.268   3.215   7.101  0.1095 -0.4059 -0.9439
10677SOL     OW32555   5.300   0.155   4.829 -0.4817  0.2547  0.4441
10677SOL    HW132556   5.216   0.120   4.858 -1.0317  0.4381 -0.8603
10677SOL    HW232557   5.301   0.245   4.861 -0.6476  0.1509  0.7380
10678SOL     OW32558   7.399   2.476   1.256 -0.1837  0.2137  0.5963
10678SOL    HW132559   7.426   2.561   1.223  0.3754  0.4900  1.7014
10678SOL    HW232560   7.460   2.414   1.216  1.0987  0.6505  1.7684
10679SOL     OW32561   2.996   0.789   5.214 -0.9042  0.1424 -0.2955
10679SOL    HW132562   2.967   0.861   5.269 -0.3063  1.1006 -1.1748
10679SOL    HW232563   3.054   0.831   5.149 -0.4594 -1.1446 -0.7638
10680SOL     OW32564   5.020   6.805   0.998  0.1109  0.2407  0.3867
10680SOL    HW132565   5.025   6.728   0.941  0.7298  0.7686 -0.2942
10680SOL    HW232566   5.078   6.784   1.072  0.6216  0.2142 -0.0121
10681SOL     OW32567   1.500   2.714   3.934 -0.1165  0.0027  0.0585
10681SOL    HW132568   1.564   2.731   3.865  0.8825 -0.2334  0.9013
10681SOL    HW232569   1.539   2.752   4.012 -0.1229 -1.7491  0.9654
10682SOL     OW32570   4.738   5.796   4.672 -0.6075  0.1984  0.1129
10682SOL    HW132571   4.662   5.824   4.620  0.2672  1.3902 -0.5986
10682SOL    HW232572   4.787   5.738   4.613 -0.5725  0.0513  0.2873
10683SOL     OW32573   0.413   6.515   2.343 -0.0733  0.0069  0.0336
10683SOL    HW132574   0.326   6.531   2.306  1.2012  1.8310 -2.4223
10683SOL    HW232575   0.411   6.422   2.367 -3.1898  0.3354  1.6483
10684SOL     OW32576   0.040   4.156   4.911 -0.3692 -0.0879  0.0656
10684SOL    HW132577   0.023   4.152   5.005 -1.5030  0.2714 -0.1106
10684SOL    HW232578   0.115   4.215   4.903 -0.6125  0.3253  0.7118
10685SOL     OW32579   7.128   7.382   0.159  0.2245  0.2774 -0.3419
10685SOL    HW132580   7.222   7.401   0.155  1.1295 -3.3830  0.0105
10685SOL    HW232581   7.107   7.387   0.252 -0.1552  1.8145 -0.4899
10686SOL     OW32582   7.505   2.056   6.793  0.1324  0.5808 -0.0724
10686SOL    HW132583   7.466   2.013   6.716 -0.2084  0.8220 -0.0410
10686SOL    HW232584   7.462   2.142   6.796  1.4786  1.3145 -0.6887
10687SOL     OW32585   3.932   5.614   4.063 -0.1152  0.5881 -0.0862
10687SOL    HW132586   3.886   5.546   4.014 -0.5978  0.3122  0.7466
10687SOL    HW232587   4.025   5.597   4.046 -0.2501 -0.0324 -0.2040
10688SOL     OW32588   0.892   4.861   1.656  0.3553  0.1428  0.3354
10688SOL    HW132589   0.967   4.802   1.643  0.1439  0.1683 -1.2334
10688SOL    HW232590   0.922   4.946   1.625  0.1790  0.5380  1.2170
10689SOL     OW32591   0.164   4.857   5.387  0.1721 -0.0343  0.2268
10689SOL    HW132592   0.105   4.864   5.312 -1.5026 -0.3639  1.4517
10689SOL    HW232593   0.122   4.910   5.455  0.2715 -1.8117  1.7480
10690SOL     OW32594   4.385   3.562   6.143 -0.0322 -0.0579 -0.1393
10690SOL    HW132595   4.303   3.607   6.162  0.7727  1.1077  0.6823
10690SOL    HW232596   4.411   3.523   6.227  0.5445  0.0928 -0.2413
10691SOL     OW32597   7.109   0.959   0.250  0.1988 -0.5030 -0.3649
10691SOL    HW132598   7.124   0.945   0.343 -0.2252 -2.1252 -0.5257
10691SOL    HW232599   7.129   1.052   0.237 -1.6900  0.2920  1.7252
10692SOL     OW32600   3.729   1.991   3.670 -0.4661  0.1860 -0.3822
10692SOL    HW132601   3.818   2.015   3.645  0.3151  0.4810  2.3129
10692SOL    HW232602   3.696   1.940   3.596  2.1869 -0.5432 -1.1811
10693SOL     OW32603   2.723   2.528   5.458  0.3540 -0.0714 -0.7768
10693SOL    HW132604   2.758   2.603   5.410 -0.7725 -0.2375 -1.8809
10693SOL    HW232605   2.797   2.498   5.511  1.1912  1.0291 -1.2719
10694SOL     OW32606   2.325   2.074   5.109 -0.1725 -0.4830 -0.1648
10694SOL    HW132607   2.390   2.055   5.041  0.4584  1.5114 -0.1785
10694SOL    HW232608   2.359   2.031   5.187 -0.0856 -1.4570 -0.7238
10695SOL     OW32609   0.466   4.638   4.627 -0.1164 -0.3616  0.0020
10695SOL    HW132610   0.509   4.651   4.542 -1.0777 -1.3178 -0.6632
10695SOL    HW232611   0.391   4.697   4.625 -0.7450 -1.1571 -0.2726
10696SOL     OW32612   2.832   0.584   6.594 -0.4252 -0.6620  0.0391
10696SOL    HW132613   2.923   0.570   6.567 -1.0377 -1.4056 -1.7774
10696SOL    HW232614   2.793   0.633   6.521 -1.0963  1.1337  1.5176
10697SOL     OW32615   7.497   0.386   6.563  0.4054  0.0725 -0.8648
10697SOL    HW132616   7.483   0.318   6.628 -0.2908 -0.1575 -1.2348
10697SOL    HW232617   7.590   0.381   6.541  1.7304  2.7727  2.9741
10698SOL     OW32618   1.626   6.576   5.044 -0.4225  0.4565 -0.1730
10698SOL    HW132619   1.633   6.495   5.096 -1.0606  0.8518  0.5427
10698SOL    HW232620   1.646   6.646   5.106  1.7226  0.7978 -1.1370
10699SOL     OW32621   4.024   1.413   3.328  0.1913 -0.2238  0.1848
10699SOL    HW132622   3.978   1.456   3.400  2.8626  1.1553  1.1974
10699SOL    HW232623   4.047   1.327   3.362  0.6957  0.1049  0.6975
10700SOL     OW32624   3.888   3.129   2.262 -0.1350 -0.7050 -0.1831
10700SOL    HW132625   3.874   3.092   2.350  0.5235 -1.3805 -0.3512
10700SOL    HW232626   3.979   3.109   2.242  0.5490  1.8439  0.0819
10701SOL     OW32627   2.856   2.947   0.187 -0.1473  0.2266 -0.6057
10701SOL    HW132628   2.841   2.988   0.272 -1.5055 -0.8085 -0.3096
10701SOL    HW232629   2.923   3.001   0.146  1.4090  0.1057  1.5739
10702SOL     OW32630   1.247   4.630   2.786 -0.6958  0.2792  0.1943
10702SOL    HW132631   1.220   4.672   2.868 -0.8701  0.0652  0.2493
10702SOL    HW232632   1.252   4.701   2.723 -0.0485  0.5255  0.5187
10703SOL     OW32633   4.023   3.538   6.409  0.1116  0.6663 -0.3795
10703SOL    HW132634   4.011   3.452   6.450 -0.2186  1.2012  0.6633
10703SOL    HW232635   3.960   3.538   6.336  1.1968 -0.5582 -1.3560
10704SOL     OW32636   5.262   1.305   4.952  0.6079  0.2296  0.0109
10704SOL    HW132637   5.271   1.227   4.898  1.6764 -0.7893  1.5490
10704SOL    HW232638   5.191   1.284   5.013  0.6063  0.6289  0.1503
10705SOL     OW32639   2.049   0.728   6.953  0.0196  0.6443 -0.8917
10705SOL    HW132640   2.118   0.662   6.962 -1.3176 -0.9094 -1.6083
10705SOL    HW232641   2.069   0.792   7.021  1.8921 -0.0043 -0.7708
10706SOL     OW32642   0.512   5.132   0.025  0.2149 -0.5113  0.3861
10706SOL    HW132643   0.564   5.091  -0.044 -0.6645  0.2554 -0.7515
10706SOL    HW232644   0.446   5.067   0.048 -0.0654 -0.4283 -0.1637
10707SOL     OW32645   1.472   1.201   0.015 -0.1440 -0.2256  0.1347
10707SOL    HW132646   1.545   1.166   0.066  0.2222  2.3242  1.5213
10707SOL    HW232647   1.395   1.178   0.066 -0.0595 -0.3687  0.2010
10708SOL     OW32648   2.737   3.456   6.379  0.1890  0.3006 -0.1249
10708SOL    HW132649   2.793   3.403   6.321 -0.0138 -2.2066  1.7815
10708SOL    HW232650   2.656   3.406   6.385  0.2281  0.4455  2.3075
10709SOL     OW32651   0.054   1.164   0.524  0.2724 -0.1560  0.2566
10709SOL    HW132652   0.126   1.226   0.511  1.2503 -0.8872  1.9137
10709SOL    HW232653   0.067   1.099   0.455  0.4827  0.3472 -0.1865
10710SOL     OW32654   7.362   6.912   4.931 -0.4324  0.1362  0.2837
10710SOL    HW132655   7.311   6.898   5.011 -0.8783 -0.5214 -0.1026
10710SOL    HW232656   7.435   6.851   4.937 -0.8719 -0.4449 -0.1411
10711SOL     OW32657   6.554   4.461   2.868 -0.1814  0.0745 -0.0833
10711SOL    HW132658   6.626   4.415   2.912 -0.5249  0.0993  0.5252
10711SOL    HW232659   6.565   4.552   2.895 -0.2559  0.1301 -0.2448
10712SOL     OW32660   5.646   1.747   0.404  0.0650 -0.5264 -0.2522
10712SOL    HW132661   5.679   1.719   0.319  0.1829 -1.3098  0.0378
10712SOL    HW232662   5.693   1.691   0.467 -0.2778 -0.2040  0.2961
10713SOL     OW32663   5.474   5.008   6.202  0.0191  0.4019  0.0080
10713SOL    HW132664   5.556   5.047   6.173  1.2477  0.5612  3.3717
10713SOL    HW232665   5.492   4.914   6.205 -1.8067 -0.3862 -4.4890
10714SOL     OW32666   6.256   2.769   4.697  0.0950 -0.1818 -0.3019
10714SOL    HW132667   6.269   2.838   4.632 -1.0124  1.2694  0.9488
10714SOL    HW232668   6.164   2.745   4.690  0.2089 -0.7417  0.0393
10715SOL     OW32669   1.609   7.390   1.148 -0.3759 -0.0205 -0.5664
10715SOL    HW132670   1.606   7.465   1.089 -1.2730  0.0739 -0.4130
10715SOL    HW232671   1.576   7.317   1.096  0.1442 -0.2393 -0.5996
10716SOL     OW32672   4.974   5.445   2.595 -0.5831 -0.6693 -0.3642
10716SOL    HW132673   4.916   5.465   2.521 -1.2556 -0.0931  0.3086
10716SOL    HW232674   5.040   5.385   2.558 -1.9893 -1.8871 -0.9791
10717SOL     OW32675   2.083   0.675   4.544  0.2347 -0.1979  0.2952
10717SOL    HW132676   2.037   0.668   4.461 -1.8372  1.1055  1.2401
10717SOL    HW232677   2.045   0.607   4.599  0.9823 -0.5057  0.4378
10718SOL     OW32678   3.420   1.956   2.249 -0.0681 -0.0777  0.7088
10718SOL    HW132679   3.337   2.004   2.247  0.9265  1.7207  0.4273
10718SOL    HW232680   3.406   1.887   2.314 -1.9225 -0.1367  0.3265
10719SOL     OW32681   5.131   7.062   0.025 -0.5263  0.0251 -0.4771
10719SOL    HW132682   5.190   7.137   0.018  2.6195 -2.3437 -1.7083
10719SOL    HW232683   5.113   7.037  -0.065 -2.2035 -0.2565 -0.0890
10720SOL     OW32684   3.603   4.678   0.655 -0.0122  0.1855  0.0353
10720SOL    HW132685   3.511   4.702   0.667 -0.3394  0.2139 -2.1706
10720SOL    HW232686   3.650   4.761   0.660 -0.4403  0.5505 -1.3727
10721SOL     OW32687   0.289   4.177   7.513 -0.6345  0.2765  0.4973
10721SOL    HW132688   0.258   4.228   7.588  0.3532  1.8236 -0.0936
10721SOL    HW232689   0.246   4.216   7.437 -1.2422 -0.9540  0.1751
10722SOL     OW32690   1.833   3.031   5.152  0.3153  0.0049  0.4264
10722SOL    HW132691   1.740   3.009   5.150  1.0463 -3.5698 -0.9486
10722SOL    HW232692   1.843   3.097   5.083 -1.1968  0.5814  0.7149
10723SOL     OW32693   1.931   2.517   1.891  0.2693  0.6534  0.1552
10723SOL    HW132694   1.969   2.498   1.977 -0.2308 -1.5583 -0.0460
10723SOL    HW232695   1.872   2.591   1.906 -2.3590 -1.6805  2.5408
10724SOL     OW32696   7.412   2.850   4.561  0.6231  0.4616  0.6574
10724SOL    HW132697   7.377   2.928   4.605  2.1478  1.7590 -0.3175
10724SOL    HW232698   7.469   2.885   4.493 -1.0862 -1.4288 -1.9507
10725SOL     OW32699   7.368   1.525   3.709 -0.1774  0.0098  0.0160
10725SOL    HW132700   7.279   1.514   3.743 -0.0694 -0.1273  0.2533
10725SOL    HW232701   7.360   1.508   3.616 -0.5862  0.9392 -0.1355
10726SOL     OW32702   0.887   4.646   0.355 -0.4840  0.1945 -0.2066
10726SOL    HW132703   0.895   4.600   0.271 -0.2835  0.9716 -0.6211
10726SOL    HW232704   0.952   4.716   0.351  0.1035 -0.2523  0.9468
10727SOL     OW32705   3.895   2.138   0.474  0.1111  0.5741  0.3288
10727SOL    HW132706   3.815   2.085   0.474  0.3375  0.2089 -0.7321
10727SOL    HW232707   3.966   2.074   0.469  0.4582  0.9211  0.6938
10728SOL     OW32708   1.136   3.178   7.298  0.1249  0.6535 -0.0553
10728SOL    HW132709   1.228   3.174   7.274 -0.0215  1.4470 -0.7865
10728SOL    HW232710   1.108   3.087   7.303  1.2910  0.3527  1.5780
10729SOL     OW32711   0.563   6.752   3.604 -0.0194 -0.5102 -0.1645
10729SOL    HW132712   0.633   6.817   3.611  0.8459 -1.2141 -1.6879
10729SOL    HW232713   0.515   6.777   3.525  0.9583 -2.2286 -1.3850
10730SOL     OW32714   3.188   5.338   1.097 -0.3217  0.4339 -0.1174
10730SOL    HW132715   3.248   5.273   1.132  1.0313  0.4327 -2.2191
10730SOL    HW232716   3.114   5.287   1.064 -0.5798  0.2461  0.7349
10731SOL     OW32717   0.830   7.250   6.971  0.0685 -0.1197 -0.1220
10731SOL    HW132718   0.817   7.308   6.896 -0.4304 -0.4508 -0.2939
10731SOL    HW232719   0.902   7.193   6.945 -0.9138 -1.0607 -0.8618
10732SOL     OW32720   6.457   2.333   4.631 -0.6211  0.1479  0.3974
10732SOL    HW132721   6.397   2.384   4.687  0.7286  0.7713  1.3462
10732SOL    HW232722   6.457   2.245   4.670 -0.4348  0.3221  0.8031
10733SOL     OW32723   6.926   5.646   1.758  0.2454 -0.1767 -0.0485
10733SOL    HW132724   6.876   5.601   1.690  1.6874  0.2003 -1.4050
10733SOL    HW232725   6.876   5.725   1.777 -0.3943 -0.5017 -0.3404
10734SOL     OW32726   5.321   7.253   0.956  0.5321 -0.1013 -0.2179
10734SOL    HW132727   5.230   7.279   0.970  0.2535 -0.4193 -1.3102
10734SOL    HW232728   5.364   7.333   0.926  0.2107 -0.3232 -1.3228
10735SOL     OW32729   4.656   2.667   3.773  0.1110 -0.5056 -0.2695
10735SOL    HW132730   4.614   2.636   3.692  2.0355 -1.5808 -0.9121
10735SOL    HW232731   4.675   2.588   3.823 -0.0013  0.0755  0.7234
10736SOL     OW32732   2.273   4.588   4.076 -0.4430  0.2945 -0.3116
10736SOL    HW132733   2.336   4.636   4.022  1.3586 -0.2296  1.1967
10736SOL    HW232734   2.192   4.590   4.026  0.6429  1.3936 -2.1562
10737SOL     OW32735   1.887   5.389   2.749  0.1008  0.5599 -0.3655
10737SOL    HW132736   1.847   5.323   2.693  0.5959 -0.3157  0.2827
10737SOL    HW232737   1.919   5.340   2.824  2.4764  1.1606 -0.8927
10738SOL     OW32738   1.776   7.403   1.354 -0.0374 -0.1746  0.0219
10738SOL    HW132739   1.755   7.321   1.399 -0.0121  0.0600  0.4653
10738SOL    HW232740   1.730   7.397   1.271  0.2264 -0.7832 -0.0884
10739SOL     OW32741   4.418   3.196   1.289 -0.6217  0.1690 -0.1663
10739SOL    HW132742   4.374   3.157   1.213 -0.0799  0.5329 -0.6768
10739SOL    HW232743   4.431   3.287   1.265 -1.2235  0.5067  0.7287
10740SOL     OW32744   7.132   3.544   3.486  0.6363  0.8111 -0.4910
10740SOL    HW132745   7.193   3.500   3.545  0.7205  0.5911 -0.7434
10740SOL    HW232746   7.127   3.634   3.520 -1.3384  0.0714  1.4799
10741SOL     OW32747   3.269   0.946   7.174 -0.0081  0.1865  0.0269
10741SOL    HW132748   3.227   0.907   7.097  0.0221  2.1286 -1.0360
10741SOL    HW232749   3.361   0.923   7.166 -0.0758  0.0170 -0.2834
10742SOL     OW32750   1.591   7.494   0.397  0.6333 -0.0521  0.5553
10742SOL    HW132751   1.541   7.572   0.372  1.4355  0.4874  0.5726
10742SOL    HW232752   1.611   7.451   0.314  1.1279  0.3658  0.4492
10743SOL     OW32753   5.549   4.275   0.948  0.1447 -0.2282  0.0381
10743SOL    HW132754   5.469   4.321   0.974  0.9273  0.6269  1.0593
10743SOL    HW232755   5.564   4.211   1.018  0.7512  0.1601  0.2824
10744SOL     OW32756   3.076   2.545   4.283  0.3777 -0.0792  0.4040
10744SOL    HW132757   3.153   2.552   4.227  0.8351 -2.1164  0.6948
10744SOL    HW232758   3.007   2.513   4.225 -0.6752  2.8420 -0.1327
10745SOL     OW32759   5.958   4.827   1.955  0.3907  0.5465  0.1632
10745SOL    HW132760   5.901   4.879   1.897 -0.8260  0.3954  1.1613
10745SOL    HW232761   5.911   4.827   2.039  0.8027 -1.4265  0.4301
10746SOL     OW32762   6.838   3.103   3.257 -0.2706  0.8752  0.1095
10746SOL    HW132763   6.895   3.031   3.284  0.1946  1.3008  0.2581
10746SOL    HW232764   6.772   3.109   3.326 -1.9111 -1.1130 -1.1254
10747SOL     OW32765   7.519   5.099   4.462  0.2768 -0.6132  0.1981
10747SOL    HW132766   7.528   5.149   4.381  2.2941 -0.8505  0.2303
10747SOL    HW232767   7.429   5.065   4.460  0.0048  0.1378 -1.4814
10748SOL     OW32768   5.057   1.132   7.450  0.4985 -0.6607 -0.0162
10748SOL    HW132769   5.003   1.195   7.403  0.2374 -1.6184 -1.0629
10748SOL    HW232770   5.112   1.093   7.381  0.4853 -1.7273  0.5596
10749SOL     OW32771   5.205   0.992   7.268  0.2442  0.7478 -0.1913
10749SOL    HW132772   5.249   1.036   7.195  1.5390  1.4958  0.9769
10749SOL    HW232773   5.229   0.900   7.259  2.6099  1.2003  0.6893
10750SOL     OW32774   5.652   1.747   4.004 -0.1291 -0.3371 -0.3292
10750SOL    HW132775   5.634   1.731   4.097 -0.0651 -0.2435 -0.3006
10750SOL    HW232776   5.747   1.735   3.996  0.0282  0.7483 -0.1639
10751SOL     OW32777   2.024   5.293   0.588 -0.3572  0.3132 -0.4930
10751SOL    HW132778   1.975   5.259   0.663  1.5909  2.1788  1.7992
10751SOL    HW232779   2.115   5.266   0.604 -0.0308 -0.1714 -2.8206
10752SOL     OW32780   0.887   6.310   6.660 -0.1550 -0.2939  0.2550
10752SOL    HW132781   0.966   6.330   6.610 -0.4470  0.1300 -0.0339
10752SOL    HW232782   0.917   6.249   6.728  0.6736  0.8788  0.9632
10753SOL     OW32783   2.904   5.561   2.080 -0.5109  0.0601  0.4585
10753SOL    HW132784   2.888   5.574   2.173 -0.1284 -0.4105  0.5996
10753SOL    HW232785   2.942   5.643   2.050  0.7232 -0.2666  1.0477
10754SOL     OW32786   7.360   5.366   3.257 -0.1799  0.2928  0.7728
10754SOL    HW132787   7.369   5.449   3.305  3.2923  0.1570  0.6690
10754SOL    HW232788   7.351   5.393   3.165  2.4017  0.7139  0.5510
10755SOL     OW32789   3.634   3.403   5.936  0.3281  0.2263  0.1551
10755SOL    HW132790   3.590   3.485   5.959 -3.4295 -1.3885 -0.6371
10755SOL    HW232791   3.660   3.415   5.845 -0.0591  0.6155  0.0904
10756SOL     OW32792   2.536   1.098   0.420  0.3663  0.1158 -0.4554
10756SOL    HW132793   2.542   1.147   0.339  1.1384  0.6523 -0.0795
10756SOL    HW232794   2.515   1.008   0.392 -1.8485  0.7650 -1.1071
10757SOL     OW32795   3.481   6.684   6.285 -0.0961 -0.3506 -0.0269
10757SOL    HW132796   3.542   6.676   6.358 -0.0755 -1.0426 -0.1154
10757SOL    HW232797   3.413   6.618   6.302 -1.4890  1.1789  0.6920
10758SOL     OW32798   1.828   3.903   1.349  0.1220 -0.2523 -0.3530
10758SOL    HW132799   1.842   3.982   1.401 -0.7406 -0.0740 -0.3802
10758SOL    HW232800   1.745   3.918   1.303 -0.8796 -1.8174  0.8418
10759SOL     OW32801   3.695   3.521   4.491  0.0162 -0.6253 -0.2466
10759SOL    HW132802   3.751   3.519   4.413  0.7556  0.3320  0.2354
10759SOL    HW232803   3.627   3.585   4.469  1.2376  1.0127  0.5132
10760SOL     OW32804   5.339   0.488   6.140  0.2416  0.0073  0.5648
10760SOL    HW132805   5.341   0.405   6.092 -2.0691 -1.3217  2.5716
10760SOL    HW232806   5.416   0.485   6.196  1.5471  0.4246 -1.1123
10761SOL     OW32807   2.246   5.550   3.891 -0.1439 -0.0153 -0.3343
10761SOL    HW132808   2.282   5.638   3.880 -1.5910  0.6985  0.3650
10761SOL    HW232809   2.267   5.526   3.981 -1.1479  0.3051 -0.0003
10762SOL     OW32810   0.766   1.236   6.496 -0.0722  0.6833  0.8051
10762SOL    HW132811   0.747   1.321   6.457 -1.6167  0.4594  1.0258
10762SOL    HW232812   0.859   1.241   6.520  1.1601  0.6950 -3.2245
10763SOL     OW32813   6.401   5.104   4.849 -0.1354  0.1935  0.4962
10763SOL    HW132814   6.382   5.198   4.845 -3.1285 -0.3670 -1.5154
10763SOL    HW232815   6.361   5.075   4.932 -0.6918  0.4406  0.3210
10764SOL     OW32816   0.876   0.836   3.564 -1.0276  0.3532  0.0488
10764SOL    HW132817   0.869   0.917   3.614 -1.2051  0.2684  0.1621
10764SOL    HW232818   0.899   0.864   3.475 -1.6720  0.5672 -0.0540
10765SOL     OW32819   5.027   4.001   2.910  0.0893 -0.0768  0.0988
10765SOL    HW132820   4.976   3.932   2.953 -2.4923  1.8930  0.4793
10765SOL    HW232821   5.067   4.049   2.982 -1.1778  0.9779  0.1449
10766SOL     OW32822   4.126   3.502   6.772 -0.0591 -0.0835  0.5706
10766SOL    HW132823   4.163   3.414   6.759  0.7853  0.1615  1.2437
10766SOL    HW232824   4.176   3.538   6.845 -0.1523  1.1036  0.0614
10767SOL     OW32825   4.493   3.179   1.840  0.0180  0.8239 -0.2397
10767SOL    HW132826   4.551   3.168   1.765  0.5041  2.6407 -0.1830
10767SOL    HW232827   4.550   3.170   1.916 -1.0171 -4.8343  0.2947
10768SOL     OW32828   1.967   5.581   7.555  0.0164 -0.3404 -0.1825
10768SOL    HW132829   2.056   5.560   7.528  0.7387  2.3187 -0.1895
10768SOL    HW232830   1.951   5.528   7.633  1.5615 -0.9310 -0.2389
10769SOL     OW32831   1.184   0.873   6.776 -0.1315  0.0267 -0.5761
10769SOL    HW132832   1.194   0.849   6.868 -1.5754  2.0003  0.1753
10769SOL    HW232833   1.116   0.815   6.743 -1.2883  0.8327  0.2999
10770SOL     OW32834   0.559   5.986   4.100  0.0194  0.0292 -0.3276
10770SOL    HW132835   0.618   6.048   4.141 -1.3986  0.1158  1.7704
10770SOL    HW232836   0.567   5.907   4.154  0.4679 -1.0168 -1.8715
10771SOL     OW32837   1.610   4.324   3.049  0.0940  0.2907 -0.7402
10771SOL    HW132838   1.555   4.378   2.994  0.7160  1.5413 -0.1677
10771SOL    HW232839   1.666   4.386   3.096 -1.5911 -0.5276  2.6695
10772SOL     OW32840   7.425   2.905   1.442 -0.0051 -0.3237  0.9452
10772SOL    HW132841   7.340   2.914   1.399  0.4755 -0.0940  0.0199
10772SOL    HW232842   7.437   2.811   1.454 -0.1219 -0.3934  0.5184
10773SOL     OW32843   1.091   7.295   6.687  0.1867 -0.2207  0.0920
10773SOL    HW132844   1.049   7.374   6.654  0.5545 -0.5243 -1.1627
10773SOL    HW232845   1.169   7.326   6.734 -0.3363  0.2191  0.6871
10774SOL     OW32846   2.784   2.697   0.054  0.0715  0.2671  0.5058
10774SOL    HW132847   2.866   2.655   0.080 -0.0760  0.4910  1.3906
10774SOL    HW232848   2.791   2.787   0.088  0.1420  0.7895 -0.8434
10775SOL     OW32849   0.342   6.917   5.194 -0.3421  0.3753  0.4175
10775SOL    HW132850   0.263   6.967   5.173 -1.0036 -0.1683  1.4750
10775SOL    HW232851   0.348   6.851   5.126  0.4861  1.7927 -0.9400
10776SOL     OW32852   0.424   6.148   7.114 -0.2736 -0.1614  0.5087
10776SOL    HW132853   0.330   6.135   7.098  0.0028 -0.0952 -1.4140
10776SOL    HW232854   0.438   6.241   7.100  0.4870 -0.5647 -1.9595
10777SOL     OW32855   0.663   3.402   1.439  0.0199 -0.7497  0.2257
10777SOL    HW132856   0.727   3.409   1.368  0.6089  0.6549  0.8667
10777SOL    HW232857   0.583   3.372   1.396  0.7783 -1.3873 -0.7757
10778SOL     OW32858   5.701   6.148   0.672  0.3457 -0.5730 -0.2135
10778SOL    HW132859   5.791   6.144   0.641  0.1467  1.5728 -1.2336
10778SOL    HW232860   5.701   6.218   0.737 -0.5553 -0.6546 -0.1075
10779SOL     OW32861   2.476   0.533   2.841  0.6534 -0.0898  0.2559
10779SOL    HW132862   2.382   0.518   2.826  0.5080 -0.2399  1.2423
10779SOL    HW232863   2.481   0.621   2.877  0.8577 -0.1990  0.4969
10780SOL     OW32864   4.059   3.618   0.752  0.3674  0.0502 -0.8660
10780SOL    HW132865   4.100   3.700   0.779 -1.5183  1.2549 -1.4876
10780SOL    HW232866   4.030   3.578   0.834 -1.2026  1.4115 -0.7194
10781SOL     OW32867   6.611   3.360   2.888  0.0861  0.3434 -0.3952
10781SOL    HW132868   6.579   3.440   2.846 -0.3395  0.5232  0.2422
10781SOL    HW232869   6.706   3.364   2.877  0.3237  2.1037  1.5231
10782SOL     OW32870   4.341   1.638   3.034 -0.0012 -0.3466 -0.5977
10782SOL    HW132871   4.422   1.596   3.006  1.1739  0.5473  1.2112
10782SOL    HW232872   4.320   1.595   3.117 -1.3702 -0.5305 -1.0295
10783SOL     OW32873   6.078   3.358   0.757 -0.7618  0.1693 -0.5640
10783SOL    HW132874   6.057   3.419   0.686  0.3991  0.7327 -0.4352
10783SOL    HW232875   6.142   3.298   0.720  0.3945  0.9058  0.2075
10784SOL     OW32876   5.154   3.107   0.446  0.0191 -0.4924 -0.0029
10784SOL    HW132877   5.182   3.133   0.358 -0.8576 -2.5145 -0.9318
10784SOL    HW232878   5.080   3.165   0.465 -0.8782 -1.1313 -1.3453
10785SOL     OW32879   0.743   2.977   2.265  0.2670 -0.6787 -0.0671
10785SOL    HW132880   0.714   3.062   2.233  0.7893  0.0599  1.3298
10785SOL    HW232881   0.793   2.997   2.344  2.8756 -2.0241 -1.2286
10786SOL     OW32882   5.034   1.673   6.883  0.4017  0.3828 -0.5234
10786SOL    HW132883   5.011   1.581   6.870 -0.3834  0.3951  0.6538
10786SOL    HW232884   4.976   1.720   6.823  1.1540  0.1009 -1.4976
10787SOL     OW32885   0.422   4.832   3.652 -0.7587  0.3033  0.0645
10787SOL    HW132886   0.394   4.861   3.565  2.8402 -0.9781 -1.7211
10787SOL    HW232887   0.515   4.854   3.657 -0.1181 -2.2456  2.3938
10788SOL     OW32888   2.087   5.508   5.295 -0.2548 -0.0927  0.5443
10788SOL    HW132889   2.085   5.420   5.257  1.7673  0.2634 -0.5398
10788SOL    HW232890   2.019   5.556   5.247  1.2382 -0.0696 -1.7018
10789SOL     OW32891   3.031   2.877   1.663  0.2451  0.3837 -0.4045
10789SOL    HW132892   3.064   2.845   1.579  0.7912  1.7429 -0.7302
10789SOL    HW232893   2.943   2.839   1.670  0.5269 -0.4537 -1.1656
10790SOL     OW32894   1.888   7.482   5.066  0.3145 -0.6143 -0.0643
10790SOL    HW132895   1.829   7.455   4.996  0.4637 -1.6215  0.1858
10790SOL    HW232896   1.880   7.578   5.069 -0.0885 -0.6056 -1.0960
10791SOL     OW32897   5.852   6.935   4.076  0.4978 -0.0957 -0.5477
10791SOL    HW132898   5.847   6.920   3.981 -0.0069  1.1492 -0.7420
10791SOL    HW232899   5.945   6.931   4.096  0.5304 -1.6289 -0.8552
10792SOL     OW32900   3.435   1.969   1.403  0.3629  0.1148  0.0626
10792SOL    HW132901   3.434   2.065   1.402 -0.8151  0.1247 -0.3527
10792SOL    HW232902   3.498   1.944   1.336 -1.7614  0.6457 -2.2580
10793SOL     OW32903   1.218   1.113   5.173 -0.1565 -0.4248  0.1938
10793SOL    HW132904   1.225   1.161   5.256  1.0006  0.9629 -0.6602
10793SOL    HW232905   1.192   1.025   5.199  1.2534 -0.3389  2.1304
10794SOL     OW32906   4.825   2.588   1.968 -0.3198  0.2237  0.4081
10794SOL    HW132907   4.888   2.561   1.901  0.1578  1.4199  0.3587
10794SOL    HW232908   4.793   2.673   1.938 -1.3690 -0.0085  0.8456
10795SOL     OW32909   0.027   3.416   0.097  0.3156  0.0331 -0.3211
10795SOL    HW132910  -0.058   3.373   0.112  0.0298  0.9306  0.8359
10795SOL    HW232911   0.008   3.484   0.031  0.1106  0.2683 -0.0246
10796SOL     OW32912   0.768   5.153   6.787 -0.0141  0.2773 -1.4687
10796SOL    HW132913   0.791   5.245   6.776  1.2734  0.1213 -0.3393
10796SOL    HW232914   0.802   5.129   6.873 -2.1673 -0.7257 -0.8118
10797SOL     OW32915   4.271   5.450   6.388  0.4898 -0.6973  0.7470
10797SOL    HW132916   4.231   5.517   6.333 -1.2644 -2.1140  0.1788
10797SOL    HW232917   4.365   5.464   6.380  0.2286  0.2800 -1.1526
10798SOL     OW32918   6.961   4.896   2.912  0.1015  0.0408  0.4496
10798SOL    HW132919   7.032   4.832   2.909  0.7675  0.7870 -1.1368
10798SOL    HW232920   6.894   4.861   2.853 -0.7514 -0.4925  1.6819
10799SOL     OW32921   3.218   5.115   0.396 -0.0494  0.2846 -0.3563
10799SOL    HW132922   3.285   5.083   0.336 -1.9747 -1.0528 -1.8808
10799SOL    HW232923   3.207   5.207   0.372 -0.0420  0.0395 -1.3225
10800SOL     OW32924   0.285   3.454   5.636 -0.2021 -0.2927 -0.4502
10800SOL    HW132925   0.361   3.480   5.583 -0.0955  0.3599  0.0167
10800SOL    HW232926   0.320   3.445   5.724 -0.8720  1.1104 -0.0098
10801SOL     OW32927   6.986   0.500   0.251 -0.1477 -0.0109 -0.3684
10801SOL    HW132928   7.069   0.519   0.206  0.1942  0.2301  0.3472
10801SOL    HW232929   6.974   0.406   0.241  0.0697 -0.0036 -0.7150
10802SOL     OW32930   7.114   2.492   2.286 -0.1510  0.1596  0.6825
10802SOL    HW132931   7.193   2.439   2.296  0.2713  0.7002  0.3172
10802SOL    HW232932   7.146   2.582   2.287 -0.4264  0.3743 -1.9239
10803SOL     OW32933   5.280   2.628   7.537  0.0028  0.2721 -0.2183
10803SOL    HW132934   5.281   2.691   7.464  0.4282  2.0307  1.2212
10803SOL    HW232935   5.195   2.586   7.532  0.0057  0.3915 -1.6812
10804SOL     OW32936   4.023   6.205   4.638 -0.2653  0.0828  0.2388
10804SOL    HW132937   3.955   6.232   4.699 -1.2535 -0.7981 -0.4503
10804SOL    HW232938   4.018   6.110   4.636 -0.6319  0.1079 -1.6087
10805SOL     OW32939   3.055   7.283   0.457  0.3082  0.0274 -0.0050
10805SOL    HW132940   3.111   7.348   0.415  0.1465 -0.1339 -0.4745
10805SOL    HW232941   3.097   7.199   0.438  0.1043 -0.0649 -0.0467
10806SOL     OW32942   3.964   2.486   5.587 -0.7105 -0.6179  0.0541
10806SOL    HW132943   4.027   2.493   5.515  0.1329 -0.6863  0.7618
10806SOL    HW232944   3.881   2.514   5.550 -0.2295 -0.3920 -0.8704
10807SOL     OW32945   3.737   3.813   0.352 -0.0182  0.8371 -0.4397
10807SOL    HW132946   3.779   3.731   0.377  0.6592  1.8245  1.9380
10807SOL    HW232947   3.762   3.825   0.260  1.2766 -0.7580 -0.3524
10808SOL     OW32948   4.783   6.776   3.896 -0.3474  0.3571 -0.0510
10808SOL    HW132949   4.869   6.785   3.854 -0.0002  0.8666  0.7429
10808SOL    HW232950   4.785   6.690   3.937  0.1278  0.7094  0.6928
10809SOL     OW32951   4.358   4.493   6.644  0.2472 -0.5189  0.0170
10809SOL    HW132952   4.401   4.486   6.729  0.6113 -0.7547 -0.1838
10809SOL    HW232953   4.264   4.500   6.665  0.0003 -3.4482  0.3768
10810SOL     OW32954   7.251   3.868   3.005 -0.1065 -0.7306 -0.1590
10810SOL    HW132955   7.269   3.954   2.965 -1.1635 -1.0186 -1.3070
10810SOL    HW232956   7.337   3.836   3.032  0.2391  1.0054  0.9962
10811SOL     OW32957   1.159   1.469   0.455  0.5622 -0.1072 -0.0680
10811SOL    HW132958   1.134   1.414   0.529  1.1606 -0.4884 -0.1454
10811SOL    HW232959   1.230   1.421   0.412  0.4484  0.2705 -0.6935
10812SOL     OW32960   2.388   2.054   6.445 -0.3909 -0.2405 -0.2277
10812SOL    HW132961   2.387   2.075   6.539 -0.9738 -1.2353  0.0018
10812SOL    HW232962   2.326   1.982   6.436  2.1576 -2.4942 -0.8252
10813SOL     OW32963   2.567   7.442   6.201  0.2012  0.3573  1.1893
10813SOL    HW132964   2.523   7.523   6.227  0.8637  1.2434 -0.3266
10813SOL    HW232965   2.657   7.468   6.183  0.3761 -0.6829  0.4797
10814SOL     OW32966   4.469   5.952   5.543  0.0651  0.0705  0.2879
10814SOL    HW132967   4.400   5.894   5.512  0.7530  0.5278 -2.3321
10814SOL    HW232968   4.452   6.036   5.500  2.2281  0.1800 -0.5100
10815SOL     OW32969   2.645   3.032   2.764 -0.1171 -0.0773  0.9682
10815SOL    HW132970   2.616   2.946   2.796  0.1819 -0.8386 -0.7031
10815SOL    HW232971   2.740   3.024   2.755  0.0379  0.7636  1.7109
10816SOL     OW32972   4.755   2.413   4.962  0.5611  0.1455 -0.1551
10816SOL    HW132973   4.723   2.414   4.872  3.1942  0.5930 -1.1936
10816SOL    HW232974   4.725   2.495   5.000 -1.2941 -0.4249 -0.2863
10817SOL     OW32975   6.449   7.281   1.656 -0.4306  0.1683 -0.2667
10817SOL    HW132976   6.446   7.191   1.688  0.0351  0.0901 -0.4377
10817SOL    HW232977   6.507   7.327   1.716 -1.0041  0.4587  0.0687
10818SOL     OW32978   4.993   6.533   1.173 -0.1886  0.3315  0.2891
10818SOL    HW132979   5.003   6.580   1.256 -0.5880 -0.4617  0.8023
10818SOL    HW232980   4.908   6.489   1.181  1.3761 -2.8641  1.0718
10819SOL     OW32981   3.375   6.657   0.974 -0.1296  0.3784  0.3099
10819SOL    HW132982   3.325   6.575   0.969  0.1338  0.3176 -1.9174
10819SOL    HW232983   3.350   6.706   0.896  2.0720  1.0577 -0.0307
10820SOL     OW32984   2.020   4.395   2.263 -0.0741  0.2680 -0.6150
10820SOL    HW132985   2.032   4.377   2.356 -1.6624 -0.1681 -0.4529
10820SOL    HW232986   1.925   4.386   2.249  0.2143 -0.4171 -2.4181
10821SOL     OW32987   7.453   0.710   3.276 -0.5301 -0.1081  0.5758
10821SOL    HW132988   7.449   0.614   3.284 -0.5148 -0.0620  1.2684
10821SOL    HW232989   7.510   0.726   3.201  1.4323 -0.6401  1.8856
10822SOL     OW32990   6.157   6.290   3.038  0.0447 -0.1786 -0.3812
10822SOL    HW132991   6.232   6.242   3.073  0.8766  0.4019 -1.3365
10822SOL    HW232992   6.186   6.381   3.034 -1.8323  0.6609  2.3077
10823SOL     OW32993   6.217   4.189   0.680 -0.9078  0.7143  0.0701
10823SOL    HW132994   6.163   4.112   0.664 -1.2058  0.6528  1.2811
10823SOL    HW232995   6.159   4.263   0.664 -1.3814  0.6488  1.3598
10824SOL     OW32996   3.955   3.775   2.763 -0.0239  0.2792  0.3501
10824SOL    HW132997   3.940   3.834   2.837  0.6040  0.3613  0.4136
10824SOL    HW232998   3.987   3.694   2.803  1.2810  0.6521  0.1230
10825SOL     OW32999   6.579   7.416   5.374  0.4167 -0.0505 -0.6053
10825SOL    HW133000   6.599   7.324   5.390 -0.2873 -0.4295 -1.7338
10825SOL    HW233001   6.663   7.461   5.383  1.5805 -1.3580 -3.6430
10826SOL     OW33002   1.343   6.907   4.213 -0.8987  0.5679 -0.3036
10826SOL    HW133003   1.351   6.811   4.210  0.7022  0.6000  1.1765
10826SOL    HW233004   1.396   6.938   4.139  1.2135  0.3305  1.0100
10827SOL     OW33005   2.144   6.018   2.577 -0.0559  0.0554  0.1487
10827SOL    HW133006   2.126   6.018   2.671 -0.0934  0.7044  0.1435
10827SOL    HW233007   2.067   5.977   2.538 -0.2826  0.2890  0.3524
10828SOL     OW33008   2.934   5.032   6.889  0.3623  0.0142 -0.2575
10828SOL    HW133009   2.922   4.959   6.950 -1.2932  0.8328  0.4495
10828SOL    HW233010   3.029   5.041   6.881  0.6259 -0.4459  1.8170
10829SOL     OW33011   4.510   6.200   7.338  0.0492 -0.1610 -0.9053
10829SOL    HW133012   4.598   6.165   7.355 -0.6756 -1.3472  0.6463
10829SOL    HW233013   4.519   6.294   7.350  0.8450 -0.4007  0.5408
10830SOL     OW33014   4.558   3.502   7.296  0.2163  0.4777  0.6012
10830SOL    HW133015   4.577   3.549   7.215  0.5554  0.1116  0.4592
10830SOL    HW233016   4.623   3.534   7.358 -0.7193  1.5490  1.0548
10831SOL     OW33017   1.913   6.385   4.946 -0.1707 -0.3795 -0.4280
10831SOL    HW133018   1.926   6.394   4.852  0.4841 -0.0529 -0.3177
10831SOL    HW233019   1.958   6.461   4.984  0.0801 -0.8151  0.1760
10832SOL     OW33020   7.288   6.704   4.138 -0.3228 -0.1283 -0.3400
10832SOL    HW133021   7.256   6.617   4.117  2.2682 -0.9974 -1.0675
10832SOL    HW233022   7.326   6.736   4.057  1.3228  0.4566  0.6131
10833SOL     OW33023   3.718   2.845   3.704 -0.5011 -0.0174 -0.3303
10833SOL    HW133024   3.644   2.829   3.647 -1.4298 -0.5050  0.9534
10833SOL    HW233025   3.729   2.940   3.705 -0.0720 -0.0342 -1.7701
10834SOL     OW33026   6.584   2.245   7.283  0.6151  0.0937 -0.0894
10834SOL    HW133027   6.564   2.277   7.194 -0.2587  0.8562  0.3523
10834SOL    HW233028   6.546   2.157   7.285  2.2673 -0.6833 -1.0447
10835SOL     OW33029   4.785   5.752   4.307  0.1521  0.1585  0.1506
10835SOL    HW133030   4.769   5.683   4.371  1.4790  0.1929  0.5520
10835SOL    HW233031   4.784   5.707   4.223 -1.2484  0.0536  0.1953
10836SOL     OW33032   4.847   0.459   3.222  0.0849  0.7346  0.0944
10836SOL    HW133033   4.854   0.422   3.310 -0.2285  0.7746  0.1354
10836SOL    HW233034   4.937   0.483   3.200  0.5612 -1.3583 -0.5100
10837SOL     OW33035   5.304   5.391   1.606 -0.9059  0.0737  0.5946
10837SOL    HW133036   5.389   5.421   1.574 -0.3777  1.4584  2.9748
10837SOL    HW233037   5.326   5.328   1.675 -1.9103 -1.3318 -0.3217
10838SOL     OW33038   3.878   1.942   3.215 -0.0475 -0.1810  0.2303
10838SOL    HW133039   3.943   1.971   3.279  0.1114 -0.6880  0.3029
10838SOL    HW233040   3.930   1.899   3.146 -0.4358 -2.7237  1.4090
10839SOL     OW33041   4.453   1.923   1.859  0.8114 -0.1508 -0.1081
10839SOL    HW133042   4.476   1.852   1.800  0.9879  0.8863 -1.3425
10839SOL    HW233043   4.358   1.917   1.868  0.7491 -0.1806 -0.7165
10840SOL     OW33044   1.932   0.409   1.395 -0.2605  0.0896  0.3198
10840SOL    HW133045   1.983   0.465   1.453 -0.7111 -0.0474  0.8623
10840SOL    HW233046   1.873   0.469   1.349  1.8865  0.5783 -2.0339
10841SOL     OW33047   5.149   3.048   5.538  0.4135 -0.4208  0.1599
10841SOL    HW133048   5.174   3.139   5.558 -0.7204 -0.1982  0.7159
10841SOL    HW233049   5.053   3.051   5.534  0.4298 -1.0179 -2.7543
10842SOL     OW33050   4.580   3.898   3.612 -0.1024 -0.3542 -0.0588
10842SOL    HW133051   4.647   3.949   3.659 -1.3913  1.6053 -0.2465
10842SOL    HW233052   4.572   3.817   3.663  2.4107 -0.6924 -0.0706
10843SOL     OW33053   7.367   4.825   3.453 -0.0838 -0.7376 -0.3566
10843SOL    HW133054   7.404   4.893   3.509 -2.0628  0.3076 -0.2643
10843SOL    HW233055   7.290   4.794   3.500  0.3039 -2.4910 -0.7969
10844SOL     OW33056   2.519   3.051   5.018  0.5454 -0.0980 -0.3711
10844SOL    HW133057   2.454   2.981   5.024  0.1599  0.2757 -0.1651
10844SOL    HW233058   2.504   3.104   5.096  0.6975  0.3348 -0.6348
10845SOL     OW33059   1.311   3.403   1.609 -0.4009  0.2078  0.1329
10845SOL    HW133060   1.362   3.347   1.667 -1.0176  1.7680  2.2887
10845SOL    HW233061   1.221   3.371   1.617 -0.5952  0.8439  0.6028
10846SOL     OW33062   7.201   4.996   2.861 -0.1080 -0.1940 -0.2621
10846SOL    HW133063   7.253   4.997   2.941 -0.4971  2.0778  0.0376
10846SOL    HW233064   7.111   5.004   2.890 -0.2496  0.7286 -0.8994
10847SOL     OW33065   4.584   1.410   3.970 -0.2213 -0.1994  0.1016
10847SOL    HW133066   4.546   1.358   3.900 -0.0040  1.0474 -0.9748
10847SOL    HW233067   4.652   1.462   3.927 -0.2349  0.7494  1.1899
10848SOL     OW33068   7.552   2.393   0.598  0.0521  0.4211 -0.1225
10848SOL    HW133069   7.627   2.388   0.539  1.2976 -0.7128  1.4872
10848SOL    HW233070   7.478   2.363   0.545  0.9509  0.4040 -1.3997
10849SOL     OW33071   5.438   5.844   6.997  0.2803 -0.0606 -0.1086
10849SOL    HW133072   5.418   5.935   7.016  1.4155  0.3722 -0.8949
10849SOL    HW233073   5.353   5.805   6.976 -0.5808  0.1940  2.5087
10850SOL     OW33074   2.924   5.284   5.668  0.3873  0.1198  0.3666
10850SOL    HW133075   2.962   5.343   5.732  1.5127  0.4493 -0.5717
10850SOL    HW233076   2.922   5.334   5.586  2.3864 -1.4017 -0.7256
10851SOL     OW33077   7.289   4.110   4.549  0.6163  0.5039  0.2717
10851SOL    HW133078   7.259   4.121   4.639 -0.8911 -1.7602  0.1264
10851SOL    HW233079   7.370   4.060   4.558  0.4887  0.3142  0.3762
10852SOL     OW33080   1.388   2.778   0.613 -0.9777  0.3077  0.7457
10852SOL    HW133081   1.399   2.786   0.518  0.5405 -0.1774  0.8482
10852SOL    HW233082   1.447   2.843   0.650  0.7816 -1.5368  1.3652
10853SOL     OW33083   7.009   0.519   4.070 -0.0148 -0.1028  0.6335
10853SOL    HW133084   6.945   0.503   4.001 -0.8232 -3.4911  1.9812
10853SOL    HW233085   6.959   0.557   4.142  0.1627  0.3051  0.5448
10854SOL     OW33086   2.912   2.836   4.368 -0.0089  0.2746  0.0288
10854SOL    HW133087   2.900   2.850   4.274 -2.9460  0.9770  0.4068
10854SOL    HW233088   2.859   2.904   4.409  0.7403 -0.3765  2.2098
10855SOL     OW33089   7.353   6.655   6.000 -0.0668 -0.9431  0.2776
10855SOL    HW133090   7.293   6.679   5.929  1.5315  1.3616 -0.4146
10855SOL    HW233091   7.300   6.661   6.080 -0.9472  0.2303 -0.3692
10856SOL     OW33092   7.043   4.959   0.790  0.4637 -0.0484  0.2016
10856SOL    HW133093   7.006   5.046   0.777  1.0702 -0.0683 -2.0258
10856SOL    HW233094   6.994   4.903   0.730  1.6751 -0.7620 -0.1455
10857SOL     OW33095   5.490   7.028   0.431 -0.3986  0.3799  0.5036
10857SOL    HW133096   5.416   6.979   0.396  0.2464  0.6557 -1.3493
10857SOL    HW233097   5.455   7.072   0.509 -2.2258  0.6659 -0.4348
10858SOL     OW33098   3.274   7.142   3.031 -0.4029 -0.1881 -0.5352
10858SOL    HW133099   3.249   7.138   2.939  0.0008 -0.3074 -0.6399
10858SOL    HW233100   3.369   7.135   3.031 -0.1687  2.2743 -0.2713
10859SOL     OW33101   1.386   5.419   6.665 -0.4563  0.5236  0.2115
10859SOL    HW133102   1.344   5.355   6.723 -0.4990 -0.4177 -0.8094
10859SOL    HW233103   1.461   5.373   6.629 -0.8853  0.7892 -1.0834
10860SOL     OW33104   6.314   1.428   0.465 -0.3395 -0.6554  0.9826
10860SOL    HW133105   6.242   1.487   0.444  1.3941  1.0287 -0.7063
10860SOL    HW233106   6.301   1.353   0.408 -0.3787  0.0063  0.0914
10861SOL     OW33107   4.219   0.672   5.622  0.0242  0.3539  0.5443
10861SOL    HW133108   4.235   0.693   5.714 -0.6913 -1.1163  1.0418
10861SOL    HW233109   4.133   0.631   5.622  0.9046 -1.6590 -0.4257
10862SOL     OW33110   4.952   0.773   1.178 -0.5793 -0.6973 -0.1461
10862SOL    HW133111   4.998   0.857   1.187 -0.9398 -0.5058 -0.0878
10862SOL    HW233112   4.861   0.793   1.199 -0.3747 -1.4501  1.6431
10863SOL     OW33113   3.369   6.303   0.315  0.0881  0.0060 -0.6562
10863SOL    HW133114   3.407   6.240   0.254 -1.7190 -2.1988  0.3612
10863SOL    HW233115   3.292   6.336   0.270 -0.8498 -1.0941  0.0880
10864SOL     OW33116   0.436   6.372   5.509 -0.1429  0.0066 -0.5439
10864SOL    HW133117   0.484   6.413   5.437  2.5248 -1.5742  0.2115
10864SOL    HW233118   0.489   6.389   5.586 -2.0636  0.1757  0.8054
10865SOL     OW33119   5.778   1.249   2.178  0.1469  0.2014 -0.2130
10865SOL    HW133120   5.794   1.155   2.164  0.3116 -0.1311  1.9508
10865SOL    HW233121   5.864   1.285   2.198 -0.1525  0.4992  0.5504
10866SOL     OW33122   7.252   0.512   2.246 -0.0666  0.7212 -0.6213
10866SOL    HW133123   7.186   0.527   2.313  0.9411 -1.4354  0.9883
10866SOL    HW233124   7.311   0.587   2.253 -0.3302  0.8350  0.4970
10867SOL     OW33125   4.579   5.286   6.197 -0.2139 -0.2008 -0.0889
10867SOL    HW133126   4.595   5.351   6.129  2.1726 -1.3683 -0.7597
10867SOL    HW233127   4.589   5.333   6.279 -0.3095  0.6292 -0.5458
10868SOL     OW33128   4.669   1.663   6.760 -0.4408  0.5910  0.5870
10868SOL    HW133129   4.659   1.670   6.855  0.4788 -0.4318  0.7744
10868SOL    HW233130   4.669   1.754   6.729  0.8936  1.0071  1.7328
10869SOL     OW33131   1.698   4.759   7.514 -0.1428  0.6676 -0.2665
10869SOL    HW133132   1.680   4.849   7.488 -0.3713  0.8790  0.5863
10869SOL    HW233133   1.633   4.740   7.582  0.0070 -0.0847 -0.3222
10870SOL     OW33134   6.966   3.205   1.318 -0.7643  0.3310 -0.0573
10870SOL    HW133135   6.890   3.147   1.326 -0.4730 -0.0389  0.0682
10870SOL    HW233136   6.992   3.223   1.408 -0.7861  0.5652 -0.0993
10871SOL     OW33137   2.988   1.152   1.719 -0.0373 -0.5399 -0.0068
10871SOL    HW133138   2.956   1.128   1.632 -0.2499 -0.8383  0.1503
10871SOL    HW233139   3.053   1.221   1.703 -0.8495  0.1685 -0.3209
10872SOL     OW33140   6.688   2.353   3.051  1.0199 -0.2933  0.2666
10872SOL    HW133141   6.661   2.297   3.124  1.5506 -0.4271  0.3668
10872SOL    HW233142   6.606   2.383   3.012  0.7268 -0.1525  0.9712
10873SOL     OW33143   1.295   7.302   1.242 -0.0735 -0.0126  0.7268
10873SOL    HW133144   1.283   7.375   1.303  1.4140  0.5067  0.4314
10873SOL    HW233145   1.385   7.273   1.255  0.3697  0.2349 -1.3247
10874SOL     OW33146   3.126   3.861   1.098  0.0314 -0.4954  1.1724
10874SOL    HW133147   3.220   3.845   1.095  0.0484 -0.2990  0.1502
10874SOL    HW233148   3.117   3.955   1.088 -0.2970 -0.6157  0.2220
10875SOL     OW33149   7.240   7.454   6.289  0.0767  0.0255  0.1302
10875SOL    HW133150   7.321   7.404   6.300 -0.5733 -1.5615 -1.6635
10875SOL    HW233151   7.225   7.455   6.194  0.4854  4.4918 -0.1165
10876SOL     OW33152   1.369   6.625   4.149 -0.7169  0.1752  0.3632
10876SOL    HW133153   1.335   6.633   4.060 -0.8885 -0.7714  0.3315
10876SOL    HW233154   1.336   6.541   4.180  1.0580 -0.4981  0.5624
10877SOL     OW33155   1.074   4.816   5.001  0.1902 -0.2960 -0.0500
10877SOL    HW133156   1.077   4.898   5.050 -0.2474 -1.4145  1.9624
10877SOL    HW233157   1.141   4.761   5.042  0.2288 -1.0852 -1.1311
10878SOL     OW33158   1.029   4.609   7.127  0.3774  0.3693 -0.0973
10878SOL    HW133159   0.965   4.544   7.098  1.6012 -0.3338 -1.3268
10878SOL    HW233160   1.104   4.557   7.156  0.4727  1.1845  1.1920
10879SOL     OW33161   4.843   5.991   5.843  0.4376 -0.1571 -0.1653
10879SOL    HW133162   4.925   5.989   5.892  1.1177  0.9714 -1.2013
10879SOL    HW233163   4.868   6.017   5.754 -1.1017  0.8160 -0.3572
10880SOL     OW33164   0.348   4.661   3.206  0.6544 -0.5080 -0.3309
10880SOL    HW133165   0.358   4.573   3.170 -0.6798 -0.1846 -1.5934
10880SOL    HW233166   0.371   4.718   3.132  0.8117  0.2076  0.2644
10881SOL     OW33167   5.603   0.760   3.860  0.2695 -0.5288 -0.5049
10881SOL    HW133168   5.517   0.743   3.821 -0.4414 -0.8955  1.1430
10881SOL    HW233169   5.585   0.774   3.953  1.7282  1.7791 -0.4943
10882SOL     OW33170   5.949   4.238   2.756 -0.2302  0.8933 -0.4143
10882SOL    HW133171   6.034   4.271   2.785 -0.1374 -0.4694  0.9910
10882SOL    HW233172   5.931   4.286   2.676  1.9212  1.1421 -0.8103
10883SOL     OW33173   3.916   7.093   7.058  0.5513 -0.1060 -0.7044
10883SOL    HW133174   3.912   7.009   7.012 -1.2257  0.3843 -1.5243
10883SOL    HW233175   3.922   7.159   6.989  0.9608  0.4907 -0.1135
10884SOL     OW33176   4.737   7.177   4.432  0.0122  0.0468 -0.2219
10884SOL    HW133177   4.754   7.103   4.373 -1.8420  0.5185 -1.4251
10884SOL    HW233178   4.684   7.139   4.503  0.1342 -0.0342 -0.1748
10885SOL     OW33179   0.791   6.060   1.611  0.1026  0.0456 -0.3827
10885SOL    HW133180   0.713   6.031   1.659 -0.2041 -0.2983 -1.0663
10885SOL    HW233181   0.764   6.058   1.519  1.0240 -0.3949 -0.6527
10886SOL     OW33182   7.182   5.938   4.734 -0.2340  0.0286  0.6610
10886SOL    HW133183   7.144   5.867   4.683  0.4328  0.2023 -0.0867
10886SOL    HW233184   7.256   5.897   4.780  0.6581  0.3994 -0.4039
10887SOL     OW33185   2.165   2.257   1.089  0.1265  0.3048 -0.2284
10887SOL    HW133186   2.170   2.321   1.160  0.3262 -0.7950  0.7743
10887SOL    HW233187   2.074   2.260   1.060 -0.5492 -0.8084  1.5995
10888SOL     OW33188   2.909   3.449   2.709 -0.0325  0.9576 -0.0768
10888SOL    HW133189   2.917   3.354   2.711 -1.8475  0.7550 -0.9595
10888SOL    HW233190   2.947   3.475   2.625  1.9949  1.2302  0.8631
10889SOL     OW33191   0.914   4.252   6.341  0.7457  0.2325 -0.6084
10889SOL    HW133192   1.000   4.289   6.322  0.6889  1.2395  0.9170
10889SOL    HW233193   0.867   4.322   6.386  0.3004 -1.3139  1.5177
10890SOL     OW33194   0.351   2.229   1.832  0.5200  0.2296  0.8881
10890SOL    HW133195   0.338   2.154   1.889  1.6272  0.0309  0.8900
10890SOL    HW233196   0.420   2.280   1.873  3.9802 -1.7305 -1.9799
10891SOL     OW33197   5.235   3.445   0.829  0.5034  0.0400  0.5250
10891SOL    HW133198   5.247   3.506   0.902 -2.8216  0.2279  1.0256
10891SOL    HW233199   5.283   3.486   0.757  3.0013  0.3755  2.2206
10892SOL     OW33200   4.220   6.527   0.998  0.2811 -0.6715 -0.1591
10892SOL    HW133201   4.276   6.579   0.940 -1.5352  1.2829 -0.2642
10892SOL    HW233202   4.218   6.575   1.080 -1.6153 -0.3658 -0.3257
10893SOL     OW33203   3.537   3.690   7.195 -0.5405  0.3003 -0.0639
10893SOL    HW133204   3.600   3.682   7.266  0.2599  0.6067 -0.7161
10893SOL    HW233205   3.583   3.656   7.118 -1.8255 -1.1875 -0.2129
10894SOL     OW33206   0.459   1.155   2.938  0.0766  0.1524  0.5356
10894SOL    HW133207   0.450   1.075   2.886 -1.6734 -0.1611  1.2369
10894SOL    HW233208   0.477   1.124   3.027  1.4599  0.6266  0.4351
10895SOL     OW33209   5.649   7.411   0.150 -0.1445 -0.2803 -0.2736
10895SOL    HW133210   5.654   7.506   0.161  2.1064 -0.5010  1.2767
10895SOL    HW233211   5.600   7.380   0.227  0.1144 -0.4417 -0.1699
10896SOL     OW33212   6.937   1.061   2.230  0.2079  0.5550 -0.2035
10896SOL    HW133213   6.952   1.114   2.308  0.5820 -1.9425  1.5268
10896SOL    HW233214   7.025   1.041   2.197  0.1621 -0.6681  0.3821
10897SOL     OW33215   5.942   2.944   6.723  0.1029  0.0928 -0.3953
10897SOL    HW133216   5.954   3.025   6.773  0.5959  1.2850 -2.3641
10897SOL    HW233217   6.029   2.923   6.690  0.0116 -1.3662  0.2128
10898SOL     OW33218   2.912   3.349   6.033 -0.1224 -0.1267 -0.6356
10898SOL    HW133219   2.934   3.305   6.115 -2.5705  0.1546  0.2582
10898SOL    HW233220   2.910   3.279   5.967  0.6602 -0.5543 -0.2151
10899SOL     OW33221   0.133   3.260   5.439 -0.5259  0.0875  0.1580
10899SOL    HW133222   0.220   3.250   5.400 -1.2664  0.2563 -1.6155
10899SOL    HW233223   0.150   3.297   5.526  1.1625  0.3490 -0.2550
10900SOL     OW33224   3.457   2.788   3.669 -0.1911  0.6326 -0.6198
10900SOL    HW133225   3.404   2.777   3.590 -2.6076  2.2799  0.6496
10900SOL    HW233226   3.452   2.702   3.713 -0.5765  0.3307 -1.2406
10901SOL     OW33227   1.910   2.949   0.103 -0.0276 -0.4330 -0.4495
10901SOL    HW133228   1.898   2.887   0.175  1.0644  0.3882  0.4841
10901SOL    HW233229   1.826   2.994   0.096 -0.4507 -1.1912 -0.3405
10902SOL     OW33230   1.456   6.475   3.562  0.0184  0.3731  0.3780
10902SOL    HW133231   1.413   6.560   3.568  2.1058  1.6226 -1.0072
10902SOL    HW233232   1.442   6.446   3.472 -0.5571 -0.7068  0.7987
10903SOL     OW33233   1.341   3.254   6.523 -0.4083  0.0011 -0.1122
10903SOL    HW133234   1.383   3.299   6.596 -2.3317  2.6240 -0.4612
10903SOL    HW233235   1.412   3.235   6.461  1.5111 -3.4297  2.7406
10904SOL     OW33236   3.126   4.542   3.657 -0.0404 -0.5291  0.1455
10904SOL    HW133237   3.212   4.521   3.620  0.6374  0.3357  1.1543
10904SOL    HW233238   3.141   4.621   3.709 -1.6916  0.2946 -0.5439
10905SOL     OW33239   5.870   1.575   2.318 -0.0013  0.1400  0.0499
10905SOL    HW133240   5.794   1.579   2.260 -1.2571 -2.0295  1.4460
10905SOL    HW233241   5.916   1.496   2.291  1.2732  0.9075 -0.1263
10906SOL     OW33242   2.162   2.155   5.740 -0.0935 -0.0469 -0.1230
10906SOL    HW133243   2.150   2.223   5.674  0.1261  0.0432 -0.0702
10906SOL    HW233244   2.078   2.109   5.743 -0.5904  0.8703  0.5792
10907SOL     OW33245   1.360   3.678   5.079  0.1408 -0.0143 -0.1941
10907SOL    HW133246   1.439   3.702   5.030  2.3687 -1.1964  2.5422
10907SOL    HW233247   1.381   3.592   5.116 -1.2610  0.8857  2.9636
10908SOL     OW33248   4.499   1.973   6.949  0.0774 -0.4018  0.4760
10908SOL    HW133249   4.469   2.034   7.016 -2.6066 -0.8443 -0.2136
10908SOL    HW233250   4.564   2.022   6.899  0.5203  0.6691  2.0422
10909SOL     OW33251   7.044   2.153   0.692 -0.1364 -0.2708  0.7034
10909SOL    HW133252   7.053   2.171   0.598 -0.7926  0.5446  0.7880
10909SOL    HW233253   7.131   2.173   0.728  0.7033 -2.4134  0.0172
10910SOL     OW33254   4.572   0.559   3.450  0.7574 -0.2127 -0.4186
10910SOL    HW133255   4.502   0.513   3.403  0.1676 -0.5075  0.7123
10910SOL    HW233256   4.548   0.652   3.441 -0.1352 -0.3383  0.4655
10911SOL     OW33257   7.287   0.343   0.254 -0.3423  0.5213  0.0291
10911SOL    HW133258   7.270   0.436   0.241  0.4326  0.4596 -1.6751
10911SOL    HW233259   7.382   0.336   0.257 -0.1535 -0.5310 -3.4336
10912SOL     OW33260   6.784   1.135   1.993  0.2048 -0.3210 -0.2220
10912SOL    HW133261   6.849   1.180   1.939 -1.0832 -1.9929 -3.3690
10912SOL    HW233262   6.837   1.076   2.048  1.4781  0.5053 -0.5014
10913SOL     OW33263   6.679   3.463   4.352 -0.1504 -0.3586 -0.5325
10913SOL    HW133264   6.627   3.505   4.421 -0.2592  0.2404 -0.9792
10913SOL    HW233265   6.666   3.369   4.368 -0.7980 -0.2243 -0.2018
10914SOL     OW33266   5.227   1.344   4.243 -0.3406  1.1900 -0.5198
10914SOL    HW133267   5.211   1.438   4.236  0.6723  1.4559  0.4078
10914SOL    HW233268   5.322   1.336   4.241 -0.4293 -0.0218 -2.6399
10915SOL     OW33269   5.059   4.174   0.417 -0.4423 -0.9990  0.0516
10915SOL    HW133270   4.974   4.158   0.457 -0.0272 -2.7490  0.3421
10915SOL    HW233271   5.042   4.237   0.347 -1.4483  0.9816  1.9575
10916SOL     OW33272   5.434   5.659   0.104 -0.1733  0.5217  0.4570
10916SOL    HW133273   5.457   5.590   0.042 -1.0018  1.1999 -0.6638
10916SOL    HW233274   5.479   5.635   0.185  1.2053 -0.2435 -0.4826
10917SOL     OW33275   0.724   6.351   3.892 -0.1778  0.2530  0.2917
10917SOL    HW133276   0.686   6.356   3.979  0.3802 -0.8772  0.6072
10917SOL    HW233277   0.722   6.442   3.860 -0.7684  0.6073  1.2957
10918SOL     OW33278   4.750   4.622   4.252  0.1737  0.0632  0.6560
10918SOL    HW133279   4.753   4.693   4.188  0.3780  0.2495  0.8690
10918SOL    HW233280   4.687   4.560   4.216 -0.6476  0.7498  0.8690
10919SOL     OW33281   0.062   2.161   4.979  0.3045  0.3522  0.3943
10919SOL    HW133282   0.026   2.240   4.939  1.3530  0.9146  0.5226
10919SOL    HW233283   0.014   2.089   4.938 -0.2100  1.0232 -0.2051
10920SOL     OW33284   0.296   2.562   4.444 -0.1659  0.2987 -0.4120
10920SOL    HW133285   0.276   2.626   4.513  1.0293  1.2991 -0.9449
10920SOL    HW233286   0.230   2.494   4.454 -1.4575  1.5918  0.2274
10921SOL     OW33287   0.341   3.350   5.136  0.6449 -0.5516 -0.6818
10921SOL    HW133288   0.289   3.415   5.183 -1.0172 -2.1994 -0.1052
10921SOL    HW233289   0.331   3.373   5.043 -0.2292 -0.1986 -0.5044
10922SOL     OW33290   0.070   6.506   0.989  0.4039 -0.0985 -0.2298
10922SOL    HW133291  -0.008   6.486   1.041 -0.2705  0.8484 -0.8461
10922SOL    HW233292   0.142   6.507   1.052 -0.1129 -0.7244  0.3847
10923SOL     OW33293   1.707   0.059   6.312 -0.1819 -0.4360 -0.1233
10923SOL    HW133294   1.800   0.063   6.334 -0.4729  1.9490  0.9918
10923SOL    HW233295   1.705   0.053   6.217  1.1110 -0.0149 -0.1981
10924SOL     OW33296   4.516   2.583   3.552 -0.2659 -0.1299  0.0216
10924SOL    HW133297   4.589   2.591   3.490 -0.6420 -1.6858 -0.6662
10924SOL    HW233298   4.440   2.615   3.504 -0.4318 -0.6661 -0.0788
10925SOL     OW33299   4.700   5.642   5.739  0.5321  0.2430  0.2374
10925SOL    HW133300   4.721   5.672   5.651 -0.6792 -0.5574 -0.3612
10925SOL    HW233301   4.627   5.698   5.767 -1.1149 -1.3983 -0.5179
10926SOL     OW33302   2.538   5.805   2.473 -0.4703 -0.6762  0.2459
10926SOL    HW133303   2.515   5.821   2.565  2.2819 -1.7607  1.2312
10926SOL    HW233304   2.600   5.875   2.451 -1.0679 -0.4536 -0.8133
10927SOL     OW33305   5.142   6.648   7.486 -0.1538 -0.0829  0.0195
10927SOL    HW133306   5.229   6.615   7.511 -0.2454 -0.8529 -0.6715
10927SOL    HW233307   5.159   6.708   7.413 -0.3315 -1.4322 -1.1706
10928SOL     OW33308   2.434   3.843   2.443 -0.5109 -0.4216  0.6373
10928SOL    HW133309   2.458   3.934   2.423 -1.1921 -0.1397  1.0464
10928SOL    HW233310   2.372   3.819   2.375 -2.0132  0.1806  1.7323
10929SOL     OW33311   5.687   0.705   1.801  0.0850  0.0719 -0.6742
10929SOL    HW133312   5.728   0.686   1.886 -0.5033 -2.3571 -0.8510
10929SOL    HW233313   5.741   0.773   1.763  0.1465  1.5479  1.7940
10930SOL     OW33314   4.262   2.864   1.710 -0.4589 -0.4525 -1.2237
10930SOL    HW133315   4.303   2.926   1.651 -1.2988 -0.5170 -1.9018
10930SOL    HW233316   4.335   2.820   1.753  0.1539  0.3357 -1.4299
10931SOL     OW33317   1.895   4.180   5.834  0.4905 -0.6348  0.0738
10931SOL    HW133318   1.962   4.220   5.778  2.5471 -0.9194  2.1604
10931SOL    HW233319   1.896   4.088   5.810  0.6019 -0.5743 -0.1604
10932SOL     OW33320   1.661   6.282   4.309 -0.0568  0.0128 -0.0630
10932SOL    HW133321   1.658   6.345   4.238 -0.3681 -0.1183 -0.1703
10932SOL    HW233322   1.596   6.314   4.372  0.0927  0.0334  0.0825
10933SOL     OW33323   5.192   0.641   7.426  0.5076  0.0479 -0.9451
10933SOL    HW133324   5.265   0.644   7.364 -0.0181 -1.4332 -1.6816
10933SOL    HW233325   5.230   0.607   7.507  0.7232 -0.3531 -1.2113
10934SOL     OW33326   0.187   7.253   2.498  0.5215  0.1803  0.1350
10934SOL    HW133327   0.229   7.195   2.435 -1.1312 -0.2759 -0.6073
10934SOL    HW233328   0.175   7.336   2.451  0.2982  0.1983  0.2206
10935SOL     OW33329   3.920   4.884   0.009  0.4194 -0.0888  0.5593
10935SOL    HW133330   3.916   4.823  -0.064  2.3263  1.5104 -1.0193
10935SOL    HW233331   3.862   4.956  -0.017  2.1089  1.1076 -0.1020
10936SOL     OW33332   5.949   3.085   7.142  0.1386  0.0661 -0.5442
10936SOL    HW133333   5.888   3.020   7.177  0.1868  0.2638 -0.0861
10936SOL    HW233334   5.896   3.136   7.081  0.3661 -1.0910 -1.7633
10937SOL     OW33335   6.617   0.848   0.799 -0.4921  0.4287  0.5108
10937SOL    HW133336   6.538   0.874   0.750  1.0027  2.1104 -1.1757
10937SOL    HW233337   6.673   0.807   0.734  0.6310  0.6208  1.3298
10938SOL     OW33338   1.731   1.134   4.060 -0.6777  0.0897  0.1351
10938SOL    HW133339   1.802   1.103   4.117 -0.6491 -0.0704  0.0143
10938SOL    HW233340   1.654   1.137   4.117 -0.5927  0.1791  0.2462
10939SOL     OW33341   0.416   2.147   2.279 -0.5223 -0.6639  0.0398
10939SOL    HW133342   0.488   2.087   2.265  0.3733 -0.0707  1.7538
10939SOL    HW233343   0.363   2.106   2.348  0.2896  0.5977  1.4775
10940SOL     OW33344   4.514   6.811   3.267  0.2735 -0.1921 -0.2536
10940SOL    HW133345   4.596   6.852   3.292 -0.4016 -0.5329  3.0386
10940SOL    HW233346   4.470   6.876   3.211  1.4596  1.3078  0.4968
10941SOL     OW33347   3.138   4.304   3.844 -0.7516 -0.0318  0.0785
10941SOL    HW133348   3.066   4.242   3.851  1.1288 -2.5760 -1.1973
10941SOL    HW233349   3.103   4.376   3.790 -2.4471 -0.9072 -0.0497
10942SOL     OW33350   3.781   0.470   7.433  0.1166 -0.0952  0.1875
10942SOL    HW133351   3.773   0.520   7.514 -2.9524 -0.2344  0.1023
10942SOL    HW233352   3.862   0.501   7.392  0.9102  1.1048  2.5285
10943SOL     OW33353   3.474   0.942   1.093  0.2708 -0.8510 -0.3619
10943SOL    HW133354   3.503   0.966   1.005  1.1347 -0.5157 -0.0017
10943SOL    HW233355   3.385   0.975   1.100  0.1893 -0.9108 -1.1201
10944SOL     OW33356   4.715   5.528   4.487  0.2480  0.5464  0.6435
10944SOL    HW133357   4.757   5.455   4.441 -0.1347  0.1052  0.9785
10944SOL    HW233358   4.628   5.495   4.511  0.7040  0.4524  2.3554
10945SOL     OW33359   1.456   1.256   3.915  0.5391  0.4165 -0.6851
10945SOL    HW133360   1.458   1.261   4.011 -1.2905  0.6008 -0.6251
10945SOL    HW233361   1.516   1.185   3.894  0.2376 -0.2678  0.6509
10946SOL     OW33362   0.817   6.446   0.189  0.1684 -0.8785 -0.3515
10946SOL    HW133363   0.907   6.444   0.223  0.4854  0.8300 -1.0253
10946SOL    HW233364   0.821   6.392   0.110  0.6268 -0.7257 -0.4376
10947SOL     OW33365   7.422   7.434   3.932 -0.2073  0.1936  0.6218
10947SOL    HW133366   7.369   7.499   3.978 -1.4582  0.9075 -1.6627
10947SOL    HW233367   7.512   7.458   3.953 -0.6808  1.3428  1.5161
10948SOL     OW33368   1.911   5.633   5.796  0.2416  0.3909 -0.2027
10948SOL    HW133369   1.969   5.688   5.848  2.3002 -1.6441 -0.1541
10948SOL    HW233370   1.823   5.652   5.829  1.0768  2.0126  1.2674
10949SOL     OW33371   5.760   0.316   2.947 -0.2034  0.5176  0.3802
10949SOL    HW133372   5.741   0.226   2.969 -0.0565  0.4013  0.0465
10949SOL    HW233373   5.679   0.364   2.965 -0.7477  0.0736 -0.7864
10950SOL     OW33374   7.010   2.019   1.417  0.6539 -0.7685  0.4131
10950SOL    HW133375   7.092   2.043   1.460 -0.0699  2.1999  0.3499
10950SOL    HW233376   7.014   1.924   1.410  3.1440 -0.9060  2.2605
10951SOL     OW33377   2.668   1.485   3.074  0.4045 -0.1767  0.5258
10951SOL    HW133378   2.711   1.518   3.153  1.6744  1.2468 -0.6928
10951SOL    HW233379   2.723   1.414   3.043  1.6478  1.2225 -0.6726
10952SOL     OW33380   4.235   5.664   0.073  0.0597 -0.1136 -0.3152
10952SOL    HW133381   4.283   5.668  -0.010  1.3994 -0.6607  0.4115
10952SOL    HW233382   4.192   5.578   0.071 -1.0852  0.4447 -1.0391
10953SOL     OW33383   3.950   5.411   1.449  0.3792 -0.3150  0.0514
10953SOL    HW133384   4.002   5.399   1.528 -0.4207 -0.0287  0.6318
10953SOL    HW233385   3.905   5.495   1.462  0.6571  0.0057 -0.9491
10954SOL     OW33386   2.960   6.931   3.322  0.9618 -0.8415 -0.1351
10954SOL    HW133387   2.873   6.969   3.335  0.7080 -1.2123 -0.7085
10954SOL    HW233388   2.998   6.980   3.249  0.9925 -1.0746 -0.2792
10955SOL     OW33389   4.592   2.706   0.104  0.0635  0.5963  0.4454
10955SOL    HW133390   4.500   2.728   0.091 -0.0243 -1.0376 -2.5217
10955SOL    HW233391   4.591   2.627   0.158 -0.4739 -0.8038 -1.5375
10956SOL     OW33392   7.469   1.502   4.941 -0.6769 -0.5199  0.3189
10956SOL    HW133393   7.475   1.455   5.024 -1.0288 -2.0260 -0.4692
10956SOL    HW233394   7.541   1.564   4.943  1.6813 -3.0580  0.2371
10957SOL     OW33395   4.551   1.281   7.507 -0.0154  0.1774  0.2726
10957SOL    HW133396   4.510   1.202   7.472  0.4271 -0.7740  1.8112
10957SOL    HW233397   4.566   1.261   7.599  1.0313  1.6945  0.4595
10958SOL     OW33398   3.398   2.573   0.328  0.0981 -0.8024 -0.2354
10958SOL    HW133399   3.370   2.577   0.419  0.9172 -0.4592  0.0064
10958SOL    HW233400   3.322   2.601   0.278  0.7039  2.6385  0.5379
10959SOL     OW33401   5.090   6.096   1.740  0.3370 -0.4240 -0.9210
10959SOL    HW133402   5.014   6.068   1.790  0.8169 -0.4046 -0.1566
10959SOL    HW233403   5.058   6.163   1.680 -0.5072 -1.4013 -1.5962
10960SOL     OW33404   3.370   1.247   1.654  0.3634  0.5513 -0.0946
10960SOL    HW133405   3.332   1.253   1.566  2.0621  1.1385 -0.8269
10960SOL    HW233406   3.305   1.289   1.711 -0.1160  1.5153 -1.3003
10961SOL     OW33407   5.084   0.731   5.911 -0.2902  0.3933  0.3380
10961SOL    HW133408   5.177   0.725   5.932  0.3108 -0.3233 -2.0971
10961SOL    HW233409   5.044   0.659   5.959  0.7013 -0.2832  0.1896
10962SOL     OW33410   3.616   1.696   4.229  0.0412 -0.0372  0.3255
10962SOL    HW133411   3.668   1.682   4.308 -1.1659 -0.9620  0.9894
10962SOL    HW233412   3.531   1.656   4.249 -0.1238 -0.7769 -1.6380
10963SOL     OW33413   3.728   0.562   0.903  0.4541 -0.2113 -0.4471
10963SOL    HW133414   3.665   0.491   0.914 -0.3036  0.4287 -0.5049
10963SOL    HW233415   3.812   0.519   0.889 -0.2266 -1.1110 -1.9049
10964SOL     OW33416   4.906   2.725   2.256 -0.4460 -0.0181  0.4340
10964SOL    HW133417   4.968   2.664   2.296 -2.0652 -1.3648  1.0542
10964SOL    HW233418   4.899   2.696   2.165 -1.4496 -1.0130  0.8066
10965SOL     OW33419   0.853   5.454   2.859  0.2967 -0.1417  0.3808
10965SOL    HW133420   0.780   5.503   2.897  0.2326  0.8386 -0.9270
10965SOL    HW233421   0.931   5.505   2.882  0.2671  0.4028 -0.6409
10966SOL     OW33422   3.103   6.863   3.858 -0.1125 -0.4433 -0.3341
10966SOL    HW133423   3.159   6.925   3.813  1.3678 -1.5256 -0.0581
10966SOL    HW233424   3.060   6.814   3.787  1.4052 -1.4357 -0.6052
10967SOL     OW33425   0.060   7.497   5.164 -0.1603  0.2481  0.4896
10967SOL    HW133426   0.127   7.554   5.202 -0.0166  0.2288  0.2646
10967SOL    HW233427   0.060   7.518   5.071  0.0822 -0.3079  0.3607
10968SOL     OW33428   7.331   0.869   3.908  0.2255 -0.1871 -0.0699
10968SOL    HW133429   7.269   0.814   3.957 -0.4215 -0.1280 -0.8074
10968SOL    HW233430   7.333   0.951   3.956  0.8111 -0.6687  0.7559
10969SOL     OW33431   2.284   6.262   2.554  0.1983  0.2595  0.1727
10969SOL    HW133432   2.222   6.301   2.615  0.1009  2.3246 -1.1313
10969SOL    HW233433   2.250   6.173   2.538 -0.9621  0.4508  1.4362
10970SOL     OW33434   6.155   0.221   4.062 -0.0383  0.2317 -0.1233
10970SOL    HW133435   6.216   0.150   4.082 -0.4115  0.2568  1.2183
10970SOL    HW233436   6.177   0.290   4.125  0.1852  1.2453 -1.2746
10971SOL     OW33437   0.240   7.305   2.781 -0.4060  0.0549 -0.1870
10971SOL    HW133438   0.216   7.316   2.689  1.3790 -0.4479 -0.7402
10971SOL    HW233439   0.286   7.385   2.804 -0.5063  0.0149  0.1653
10972SOL     OW33440   0.200   2.651   6.013 -0.3157 -0.5774 -0.4403
10972SOL    HW133441   0.186   2.681   5.924  0.7327  0.6571 -0.2238
10972SOL    HW233442   0.175   2.559   6.012 -2.5348 -0.0420 -1.4280
10973SOL     OW33443   4.263   5.719   1.005  0.0828 -0.2495  0.0510
10973SOL    HW133444   4.194   5.737   1.069 -0.0382 -0.2332 -0.0831
10973SOL    HW233445   4.342   5.709   1.057  0.2424  1.1196  0.1045
10974SOL     OW33446   5.371   2.247   3.363 -0.1768  0.3114 -0.3636
10974SOL    HW133447   5.323   2.319   3.403  0.1800  0.5992 -0.4497
10974SOL    HW233448   5.357   2.258   3.269 -1.6463 -0.8048 -0.3130
10975SOL     OW33449   0.455   4.320   3.389 -0.1711  0.2747 -0.7009
10975SOL    HW133450   0.440   4.386   3.457  0.1947 -1.5861  1.3266
10975SOL    HW233451   0.422   4.360   3.309  0.2237  2.9616  0.3632
10976SOL     OW33452   2.902   7.521   7.387  0.4821  0.4791 -0.0677
10976SOL    HW133453   2.876   7.547   7.298  0.5045 -1.4025 -0.6675
10976SOL    HW233454   2.820   7.498   7.430  0.7246 -3.3728 -1.2705
10977SOL     OW33455   4.519   3.605   7.047  0.0199 -0.2571 -0.5719
10977SOL    HW133456   4.547   3.633   6.960  0.1906 -1.3290 -0.8716
10977SOL    HW233457   4.425   3.589   7.038 -0.2461  0.9761 -0.1883
10978SOL     OW33458   0.423   1.044   5.287 -0.3670 -0.4541  0.5064
10978SOL    HW133459   0.478   1.007   5.218  1.8772  2.5495  0.4996
10978SOL    HW233460   0.335   1.044   5.249 -0.1146 -3.3103 -0.3770
10979SOL     OW33461   4.660   6.313   7.043 -0.8289  0.4436  0.0218
10979SOL    HW133462   4.634   6.226   7.074  0.5865 -0.2858 -0.7531
10979SOL    HW233463   4.577   6.357   7.022 -1.5270 -1.4927 -1.6106
10980SOL     OW33464   4.422   5.513   1.398 -0.4987 -0.9385  0.8948
10980SOL    HW133465   4.439   5.606   1.408  0.6265 -1.1660  1.2061
10980SOL    HW233466   4.456   5.473   1.477  0.8575 -1.8209 -0.0922
10981SOL     OW33467   3.818   3.559   0.416  0.2314  0.2045  0.0661
10981SOL    HW133468   3.790   3.489   0.357  0.0177 -1.5586  2.1458
10981SOL    HW233469   3.771   3.542   0.497  2.6182  0.8248  1.6847
10982SOL     OW33470   2.252   5.407   2.051 -0.0450  0.2291  0.6554
10982SOL    HW133471   2.336   5.451   2.064  0.0115  0.4531 -0.4188
10982SOL    HW233472   2.274   5.315   2.040  0.2147  0.4545 -0.9888
10983SOL     OW33473   2.687   6.464   1.161  0.5381 -0.1796 -0.0878
10983SOL    HW133474   2.659   6.544   1.205  0.8277  0.1910 -0.5597
10983SOL    HW233475   2.768   6.439   1.206 -1.0091 -1.8218  1.9545
10984SOL     OW33476   2.454   1.957   4.178  0.6566  0.5177  0.1242
10984SOL    HW133477   2.424   1.898   4.247 -3.6178  0.2601 -1.6703
10984SOL    HW233478   2.465   2.042   4.221 -1.1618  0.2024  1.2949
10985SOL     OW33479   2.342   4.364   0.466  1.0014 -0.0254 -0.1098
10985SOL    HW133480   2.290   4.316   0.401  0.1688  0.2277  0.3501
10985SOL    HW233481   2.349   4.303   0.540 -1.0432  0.9040  0.9445
10986SOL     OW33482   3.164   7.384   3.432  0.0286 -0.6222  0.1827
10986SOL    HW133483   3.162   7.421   3.520  1.9464  1.5011 -0.5654
10986SOL    HW233484   3.073   7.388   3.402 -0.4808 -0.4354  1.6635
10987SOL     OW33485   1.106   4.910   7.192 -0.1465 -0.4541  0.7384
10987SOL    HW133486   1.061   4.914   7.277  0.8956 -0.7067  1.3091
10987SOL    HW233487   1.098   4.819   7.166 -3.6166  0.2311 -1.2107
10988SOL     OW33488   5.756   4.547   1.141 -0.1065 -0.0574 -0.9036
10988SOL    HW133489   5.684   4.520   1.199 -1.1402  1.9833 -1.1310
10988SOL    HW233490   5.830   4.493   1.167 -1.6577 -2.1357 -0.5308
10989SOL     OW33491   0.753   1.103   2.912 -0.4468 -0.2016  0.4203
10989SOL    HW133492   0.674   1.151   2.888 -1.4877 -1.1449  1.8079
10989SOL    HW233493   0.764   1.120   3.006  1.9134  1.1507  0.0042
10990SOL     OW33494   5.495   1.904   6.970 -0.4979  0.1950 -0.0382
10990SOL    HW133495   5.454   1.851   6.902 -1.6987 -0.3532  1.0650
10990SOL    HW233496   5.443   1.984   6.972  1.0783  1.3011 -1.4381
10991SOL     OW33497   2.505   4.060   6.880 -0.4343 -0.3355  0.4548
10991SOL    HW133498   2.497   4.118   6.955  0.5827 -1.0807  1.1820
10991SOL    HW233499   2.487   3.972   6.916 -1.2252 -0.5653 -0.4592
10992SOL     OW33500   6.028   5.730   3.569  0.3697  0.1279  0.0138
10992SOL    HW133501   5.944   5.723   3.613  0.2523 -0.2677 -0.2685
10992SOL    HW233502   6.093   5.724   3.639  0.2105 -1.2440  0.0641
10993SOL     OW33503   5.450   2.212   6.566  0.5981 -0.3358  0.7924
10993SOL    HW133504   5.469   2.236   6.657  0.9886 -1.5842  1.0638
10993SOL    HW233505   5.446   2.117   6.567 -3.0566 -0.3210  0.1912
10994SOL     OW33506   2.055   4.418   5.004  0.0057 -0.3103  0.3254
10994SOL    HW133507   1.961   4.401   4.999  0.1195 -0.6556 -1.0670
10994SOL    HW233508   2.092   4.340   5.045 -0.3377 -0.0623  1.1133
10995SOL     OW33509   2.721   3.631   4.462  0.2550  0.2334 -0.3146
10995SOL    HW133510   2.700   3.592   4.547  1.6316  1.1636  0.4731
10995SOL    HW233511   2.810   3.663   4.471 -0.2709  2.1726 -1.4488
10996SOL     OW33512   3.884   0.546   3.179 -0.0840 -0.1166 -0.0864
10996SOL    HW133513   3.909   0.456   3.199 -0.1567 -0.9425 -3.1699
10996SOL    HW233514   3.947   0.600   3.228  1.8560 -1.9224 -0.4205
10997SOL     OW33515   0.567   6.360   0.930  0.2053  0.0091 -0.0599
10997SOL    HW133516   0.631   6.409   0.983 -0.1391 -0.9797  1.3356
10997SOL    HW233517   0.621   6.303   0.875  0.5578  0.2321  0.0476
10998SOL     OW33518   2.110   2.547   5.009 -0.0611  0.1743 -0.0002
10998SOL    HW133519   2.100   2.602   5.087 -0.2923  1.9411 -1.2006
10998SOL    HW233520   2.169   2.478   5.036  0.8459  1.4297  1.4195
10999SOL     OW33521   7.294   3.100   5.887  0.1075  0.4904  0.1828
10999SOL    HW133522   7.335   3.068   5.806 -2.5665 -0.1816 -1.0201
10999SOL    HW233523   7.216   3.045   5.898 -0.2621  1.3653  2.5942
11000SOL     OW33524   2.438   1.436   3.199 -0.4335 -0.9107 -0.0318
11000SOL    HW133525   2.464   1.365   3.258  0.4436 -2.0667 -1.7296
11000SOL    HW233526   2.520   1.463   3.156 -1.1485 -0.6983 -1.3254
11001SOL     OW33527   2.147   3.933   3.212  0.0401 -0.3643  0.5304
11001SOL    HW133528   2.163   4.015   3.166  1.6474 -0.2337  1.2640
11001SOL    HW233529   2.166   3.865   3.148 -0.3011 -0.1769  0.2265
11002SOL     OW33530   6.746   0.927   1.764 -0.4264 -0.1021 -0.0599
11002SOL    HW133531   6.742   0.955   1.856 -0.6623 -0.0101 -0.0964
11002SOL    HW233532   6.731   1.007   1.714  0.0522 -0.0918 -0.1836
11003SOL     OW33533   4.902   3.039   1.166 -0.5873  0.3170  0.6114
11003SOL    HW133534   4.960   3.115   1.158  1.2254 -0.8078  2.2151
11003SOL    HW233535   4.883   3.013   1.076  2.3919  0.0645 -0.0483
11004SOL     OW33536   0.400   5.675   4.436 -0.7129  0.2260  0.3546
11004SOL    HW133537   0.390   5.756   4.486  1.4066  0.6786  0.1182
11004SOL    HW233538   0.360   5.608   4.492 -0.8905  1.1553  1.3777
11005SOL     OW33539   6.505   2.502   4.068  0.4352  0.1532 -0.0754
11005SOL    HW133540   6.594   2.480   4.097 -0.9412 -4.7789  1.3110
11005SOL    HW233541   6.459   2.527   4.148 -0.4866 -2.0718  0.1673
11006SOL     OW33542   6.794   6.852   2.133 -0.6164 -0.2105  1.0467
11006SOL    HW133543   6.868   6.911   2.149 -1.6195  1.3001  0.3698
11006SOL    HW233544   6.717   6.902   2.162 -1.4724 -1.3768  0.8524
11007SOL     OW33545   5.321   2.196   5.739  0.1018 -0.3732 -0.3892
11007SOL    HW133546   5.245   2.150   5.702 -1.1109  2.5912 -1.9422
11007SOL    HW233547   5.374   2.219   5.662  2.8730 -2.5707  0.6704
11008SOL     OW33548   4.852   1.131   6.533 -0.1011 -0.5726 -0.6305
11008SOL    HW133549   4.810   1.143   6.618  2.6231 -2.0352  1.0616
11008SOL    HW233550   4.790   1.079   6.482 -0.8123 -1.8123  1.3831
11009SOL     OW33551   1.519   5.732   7.254 -0.0969  0.1226 -0.5307
11009SOL    HW133552   1.455   5.801   7.275  1.1796  1.0375  0.4944
11009SOL    HW233553   1.590   5.745   7.317  0.1882 -2.1610 -0.2900
11010SOL     OW33554   3.934   1.019   1.661 -0.3887  0.4927  0.1854
11010SOL    HW133555   3.970   0.989   1.744 -1.4368 -0.8898  0.1912
11010SOL    HW233556   3.912   1.110   1.676  2.7153  1.3501  0.2647
11011SOL     OW33557   0.758   0.777   5.258  0.0231  0.2822  0.5155
11011SOL    HW133558   0.666   0.760   5.238  0.5944 -0.0079 -2.1677
11011SOL    HW233559   0.773   0.729   5.340 -1.6683 -1.4754 -0.1063
11012SOL     OW33560   6.647   5.390   5.311 -0.2852 -0.4021  0.7086
11012SOL    HW133561   6.600   5.473   5.309 -1.0252 -0.7912  1.5994
11012SOL    HW233562   6.692   5.390   5.396 -0.4834 -1.0173  0.8154
11013SOL     OW33563   5.912   0.461   6.004 -1.0637  0.1939 -0.3524
11013SOL    HW133564   5.968   0.446   6.079 -1.9582 -0.8354  0.1341
11013SOL    HW233565   5.969   0.450   5.928 -0.3591  0.3297  0.1559
11014SOL     OW33566   6.050   2.153   7.406 -0.5811  0.7735 -0.0172
11014SOL    HW133567   6.114   2.224   7.417  1.0170 -0.7497  0.9227
11014SOL    HW233568   6.101   2.081   7.369 -2.0647 -0.0761 -0.4796
11015SOL     OW33569   5.834   6.866   1.062  0.2198  1.2924 -0.2303
11015SOL    HW133570   5.785   6.784   1.061  0.9517  0.8335  0.3920
11015SOL    HW233571   5.871   6.872   0.973  2.8406 -0.7599  0.5570
11016SOL     OW33572   1.121   5.889   1.452 -0.0637 -0.2948 -0.1662
11016SOL    HW133573   1.208   5.898   1.491 -0.7224 -0.8879  1.5896
11016SOL    HW233574   1.090   5.803   1.483 -1.0251 -0.3624 -1.2576
11017SOL     OW33575   7.128   4.181   7.375  0.0732 -0.4630  0.2177
11017SOL    HW133576   7.129   4.091   7.342  1.8984 -0.0081 -1.1457
11017SOL    HW233577   7.141   4.235   7.296  2.3148  0.8086  1.3518
11018SOL     OW33578   5.564   7.245   1.618 -0.5232  0.5662  0.1232
11018SOL    HW133579   5.536   7.168   1.568  0.9519  1.4795 -2.2557
11018SOL    HW233580   5.597   7.209   1.700 -0.8823 -1.2385 -0.4752
11019SOL     OW33581   6.052   0.297   3.833  0.2948  0.6805  0.2942
11019SOL    HW133582   6.129   0.251   3.869  1.0690  0.6978 -1.2487
11019SOL    HW233583   6.040   0.372   3.892  1.3464  0.5682  0.6885
11020SOL     OW33584   1.649   2.721   1.141 -0.6353 -0.4159  0.5886
11020SOL    HW133585   1.638   2.815   1.158 -0.2438 -0.2718  0.0783
11020SOL    HW233586   1.618   2.679   1.221 -0.4929  0.1656  0.9625
11021SOL     OW33587   1.386   3.546   4.481  0.3852 -0.1170  0.2754
11021SOL    HW133588   1.407   3.459   4.448  4.1283  0.9809 -0.8274
11021SOL    HW233589   1.384   3.536   4.576 -1.0201 -1.6572  0.1242
11022SOL     OW33590   1.498   6.366   0.137  0.1030  0.0288 -0.1605
11022SOL    HW133591   1.582   6.383   0.093  0.6099 -1.1375  0.3127
11022SOL    HW233592   1.520   6.364   0.230 -0.5647  0.2711  0.0060
11023SOL     OW33593   1.143   5.793   0.669 -0.1940 -0.2471 -0.1667
11023SOL    HW133594   1.148   5.778   0.575  0.4056 -2.9008  0.1914
11023SOL    HW233595   1.079   5.729   0.700  0.4705 -0.2278  1.3585
11024SOL     OW33596   1.452   0.281   6.029  0.1968 -0.5346  0.0010
11024SOL    HW133597   1.430   0.276   6.121 -0.0700  0.1097 -0.0227
11024SOL    HW233598   1.495   0.366   6.019  0.9674 -0.9508 -0.3131
11025SOL     OW33599   3.765   1.049   3.043  0.6490 -0.0158 -0.4211
11025SOL    HW133600   3.769   1.143   3.062  0.5846 -0.1056  0.0418
11025SOL    HW233601   3.853   1.017   3.061  0.9734  0.1489 -1.6385
11026SOL     OW33602   0.542   5.818   3.862 -0.2645 -0.0461 -0.4953
11026SOL    HW133603   0.619   5.820   3.805  0.2693  0.9528  0.2317
11026SOL    HW233604   0.575   5.843   3.948 -0.8992 -2.3006  0.4825
11027SOL     OW33605   1.894   5.575   1.355  0.4029  0.1564 -0.0117
11027SOL    HW133606   1.924   5.660   1.323 -1.0427  0.7916  0.2852
11027SOL    HW233607   1.883   5.587   1.449 -0.3299 -0.2046 -0.0492
11028SOL     OW33608   2.516   1.566   1.043  0.3207  0.2419 -0.3494
11028SOL    HW133609   2.579   1.553   1.114 -0.0004 -0.0814 -0.1181
11028SOL    HW233610   2.553   1.520   0.968  0.6739  0.6049 -0.4031
11029SOL     OW33611   1.880   1.895   6.008 -0.0114 -0.4215  0.3112
11029SOL    HW133612   1.965   1.937   5.999  0.4435 -1.5235 -0.9280
11029SOL    HW233613   1.897   1.814   6.055 -0.0201 -1.5025 -1.4391
11030SOL     OW33614   2.959   7.304   6.299  0.2823  0.7830 -0.1445
11030SOL    HW133615   2.918   7.383   6.264  0.4958  0.1909 -1.8227
11030SOL    HW233616   2.894   7.235   6.286 -0.1080  0.7504  1.7861
11031SOL     OW33617   4.939   1.059   7.156  0.1996  0.0506  0.0488
11031SOL    HW133618   5.030   1.032   7.141 -0.1419 -1.4852  0.5091
11031SOL    HW233619   4.946   1.143   7.201  1.4189 -0.1979  0.3746
11032SOL     OW33620   4.396   6.324   0.630 -0.5253 -0.4274 -0.0977
11032SOL    HW133621   4.305   6.339   0.604 -0.9226 -1.9030  0.3256
11032SOL    HW233622   4.390   6.265   0.705  0.7906 -0.8207 -0.2677
11033SOL     OW33623   3.038   6.645   1.699  0.2566  1.0694  0.2341
11033SOL    HW133624   3.091   6.681   1.770  2.2857 -1.0832 -0.0698
11033SOL    HW233625   3.071   6.687   1.620  2.5431 -1.1204 -0.1060
11034SOL     OW33626   5.608   1.059   7.128 -0.1744  0.2833 -0.1999
11034SOL    HW133627   5.570   1.016   7.052 -0.9804  0.9489 -0.1858
11034SOL    HW233628   5.610   0.992   7.196 -0.3376 -0.0461 -0.5175
11035SOL     OW33629   0.529   0.934   1.668 -0.0190 -0.3244  0.1210
11035SOL    HW133630   0.435   0.943   1.677 -0.0930 -0.2690 -0.5927
11035SOL    HW233631   0.548   0.845   1.699 -0.6896 -1.3434 -2.1010
11036SOL     OW33632   6.371   0.890   4.580  0.2400  0.6101  0.9963
11036SOL    HW133633   6.300   0.949   4.556  0.1922  0.1626  0.0050
11036SOL    HW233634   6.429   0.890   4.505 -0.3687 -1.5276  0.4518
11037SOL     OW33635   0.109   5.676   5.095 -0.1048 -0.0563  0.2349
11037SOL    HW133636   0.151   5.747   5.144 -0.9714 -0.1663  1.1786
11037SOL    HW233637   0.143   5.596   5.135  0.3850 -0.1694 -0.4028
11038SOL     OW33638   4.651   6.392   3.903 -0.4288 -0.0064 -0.6566
11038SOL    HW133639   4.731   6.345   3.880  0.3876  1.1097 -0.1747
11038SOL    HW233640   4.660   6.478   3.863 -1.8680 -0.1964 -1.4641
11039SOL     OW33641   6.996   2.410   5.728  0.4285 -0.0118  0.3902
11039SOL    HW133642   6.910   2.371   5.711  0.5179  0.0884 -0.3599
11039SOL    HW233643   6.977   2.492   5.774  0.0811  0.2813 -0.2595
11040SOL     OW33644   5.160   0.007   3.553  0.4524  0.0078 -0.4654
11040SOL    HW133645   5.116   0.001   3.469  0.6792 -1.1207 -0.5148
11040SOL    HW233646   5.228  -0.060   3.550  3.5417  2.8658 -1.1485
11041SOL     OW33647   3.660   7.226   3.154  0.1248 -0.9217 -0.6268
11041SOL    HW133648   3.650   7.130   3.157  0.1494 -0.9196 -0.4224
11041SOL    HW233649   3.705   7.247   3.236  1.1121 -0.8455 -1.1885
11042SOL     OW33650   1.692   5.126   1.354 -0.0103 -0.0582 -0.5426
11042SOL    HW133651   1.776   5.160   1.385  0.2447 -0.4696 -0.7632
11042SOL    HW233652   1.667   5.185   1.282 -1.1095  1.5180  1.0556
11043SOL     OW33653   3.555   1.104   7.108  0.0992  0.1031 -0.5433
11043SOL    HW133654   3.578   1.042   7.177 -2.3182  1.3465  1.5531
11043SOL    HW233655   3.626   1.169   7.109 -0.2331  0.4727  1.2882
11044SOL     OW33656   5.192   3.336   3.718 -0.2794 -0.0188 -0.4334
11044SOL    HW133657   5.195   3.386   3.636  1.4808  2.2705  0.8943
11044SOL    HW233658   5.150   3.395   3.780  0.7124 -0.6523  0.8970
11045SOL     OW33659   5.291   3.794   4.704 -0.0492 -0.6923 -0.4478
11045SOL    HW133660   5.312   3.701   4.706  1.1197 -0.4396 -0.3491
11045SOL    HW233661   5.309   3.820   4.614 -0.0305 -0.4959 -0.3876
11046SOL     OW33662   5.633   6.790   3.369  0.3502  0.4581  0.3686
11046SOL    HW133663   5.638   6.699   3.400 -1.2167  1.0914  2.7519
11046SOL    HW233664   5.551   6.794   3.320  0.2969  0.6379  0.4727
11047SOL     OW33665   3.672   6.759   6.652  0.1230  0.3101 -0.2777
11047SOL    HW133666   3.601   6.793   6.597 -0.1723 -0.3281 -0.2961
11047SOL    HW233667   3.748   6.756   6.594 -0.7372 -2.6561 -1.4056
11048SOL     OW33668   5.420   3.180   6.158  0.1034  0.0743  0.0341
11048SOL    HW133669   5.444   3.166   6.067  0.3263 -0.0565  0.1124
11048SOL    HW233670   5.459   3.106   6.205  1.4100  0.9938  0.4666
11049SOL     OW33671   7.096   3.108   4.938 -0.1086  0.0135  0.3598
11049SOL    HW133672   7.065   3.091   5.027  1.6242  2.0363  1.4538
11049SOL    HW233673   7.129   3.198   4.941  1.2090 -0.3036 -1.9966
11050SOL     OW33674   2.648   2.067   6.390 -0.1758 -0.0814 -0.6505
11050SOL    HW133675   2.666   2.154   6.356 -0.9271  0.3320 -0.0142
11050SOL    HW233676   2.553   2.065   6.402 -0.1459 -0.9185 -0.4871
11051SOL     OW33677   4.917   3.886   3.544  0.4172  0.2960  0.1995
11051SOL    HW133678   4.887   3.977   3.549  0.3749  0.6432 -3.5071
11051SOL    HW233679   5.012   3.892   3.544  0.4384  0.5855 -1.6558
11052SOL     OW33680   3.977   6.416   1.239 -0.3255 -0.6259  0.2480
11052SOL    HW133681   3.887   6.410   1.274 -1.6757  1.2638 -2.5964
11052SOL    HW233682   4.001   6.507   1.251  1.5233 -1.2048  1.4056
11053SOL     OW33683   2.055   3.114   6.022  0.7086 -0.1106 -0.1941
11053SOL    HW133684   2.143   3.151   6.036  0.6571  1.1695 -2.7046
11053SOL    HW233685   2.071   3.027   5.986  0.9659  0.1169 -0.6417
11054SOL     OW33686   7.461   3.898   0.282 -0.1579 -0.3354 -0.0733
11054SOL    HW133687   7.468   3.915   0.376 -0.0470  0.8111 -0.2784
11054SOL    HW233688   7.541   3.934   0.245  0.0038 -1.1705 -0.5688
11055SOL     OW33689   1.678   7.055   0.193 -0.1984 -0.3402 -0.2490
11055SOL    HW133690   1.673   7.089   0.283 -0.7523 -0.9599 -0.0359
11055SOL    HW233691   1.747   6.988   0.198  0.3883  0.2352 -0.4996
11056SOL     OW33692   3.688   1.701   2.922 -0.0973  0.0523 -0.0652
11056SOL    HW133693   3.648   1.782   2.953  0.1010  0.7563 -1.5786
11056SOL    HW233694   3.748   1.728   2.853  0.2102 -1.3584 -0.3880
11057SOL     OW33695   7.460   6.089   5.105 -0.2070 -0.2892 -0.0091
11057SOL    HW133696   7.372   6.099   5.141 -0.1277 -0.9353  0.3684
11057SOL    HW233697   7.452   6.018   5.041  0.0853 -0.5128  0.1994
11058SOL     OW33698   4.070   1.749   5.259  0.3064 -0.3952 -0.3172
11058SOL    HW133699   4.055   1.837   5.226  0.5698 -0.3168 -0.2307
11058SOL    HW233700   4.046   1.692   5.186  3.8463 -0.1636 -1.8687
11059SOL     OW33701   6.547   6.241   1.707 -0.3675 -0.0706 -0.1236
11059SOL    HW133702   6.507   6.157   1.684 -0.0564  0.3495 -2.3476
11059SOL    HW233703   6.622   6.217   1.761 -0.2302 -1.2445 -0.8028
11060SOL     OW33704   5.946   1.232   7.341  0.3880  0.4982  0.2009
11060SOL    HW133705   5.924   1.323   7.363 -1.8211  0.3125 -0.9121
11060SOL    HW233706   5.920   1.224   7.249  1.9634 -0.8700 -0.1574
11061SOL     OW33707   3.829   4.512   2.037 -0.2543 -0.3658  0.6285
11061SOL    HW133708   3.907   4.511   1.982 -1.2504  0.3415 -0.8419
11061SOL    HW233709   3.863   4.531   2.125  1.0884  1.7074 -0.2476
11062SOL     OW33710   2.108   4.213   4.111  0.1210 -0.0793 -0.9489
11062SOL    HW133711   2.197   4.250   4.107 -0.1128  0.4790 -1.0876
11062SOL    HW233712   2.120   4.126   4.149  0.6238  0.3442 -0.0998
11063SOL     OW33713   7.315   1.325   6.988  0.6948 -0.4580 -0.8505
11063SOL    HW133714   7.282   1.242   7.022  0.8083 -0.7032 -1.3322
11063SOL    HW233715   7.286   1.327   6.897  0.9381 -0.1034 -0.9230
11064SOL     OW33716   0.167   0.967   7.434  0.2430  0.1162  0.0945
11064SOL    HW133717   0.091   0.911   7.448 -0.7123  1.2582 -0.3314
11064SOL    HW233718   0.177   0.969   7.338  0.1277  0.8341  0.0947
11065SOL     OW33719   3.902   6.289   2.218  0.0386  0.6093 -0.3182
11065SOL    HW133720   3.978   6.339   2.189  0.6244  0.8841  1.5146
11065SOL    HW233721   3.939   6.224   2.279 -1.1097  0.2150 -0.0170
11066SOL     OW33722   7.120   4.523   6.051 -0.1624  0.5647  0.3596
11066SOL    HW133723   7.197   4.580   6.049 -0.3134  0.9743  2.9960
11066SOL    HW233724   7.053   4.571   6.003  0.4539  1.4482  0.3736
11067SOL     OW33725   7.444   1.368   0.494 -0.8014 -0.0746  0.4297
11067SOL    HW133726   7.367   1.310   0.496 -1.2492  0.4447 -0.7461
11067SOL    HW233727   7.518   1.309   0.512 -1.4902 -0.5144  1.9350
11068SOL     OW33728   3.323   6.437   5.945  0.1757  0.2758  0.1995
11068SOL    HW133729   3.298   6.473   5.860  0.9253  0.4285  0.0346
11068SOL    HW233730   3.337   6.514   6.000 -2.0972  0.1683  1.0256
11069SOL     OW33731   0.346   6.933   4.241 -0.1219 -0.6120  1.0366
11069SOL    HW133732   0.261   6.961   4.208 -0.6894 -1.3827  1.7859
11069SOL    HW233733   0.406   7.002   4.213 -0.8844 -0.3288  0.0182
11070SOL     OW33734   5.209   0.848   1.951 -0.1987 -0.0647 -0.2524
11070SOL    HW133735   5.168   0.762   1.939  1.3137 -0.9719  0.7054
11070SOL    HW233736   5.299   0.828   1.978  0.1087  1.8271  0.2799
11071SOL     OW33737   3.165   5.320   4.167 -0.7736 -0.5149 -0.2501
11071SOL    HW133738   3.180   5.227   4.188 -0.0575 -0.3708 -0.0755
11071SOL    HW233739   3.166   5.323   4.072  2.8515 -0.2095 -0.3679
11072SOL     OW33740   4.513   2.391   1.261  0.0094  0.4403 -0.0312
11072SOL    HW133741   4.550   2.447   1.192 -0.4153  0.6630 -0.0820
11072SOL    HW233742   4.589   2.360   1.310  0.5247 -1.5706 -1.9724
11073SOL     OW33743   3.357   2.813   2.469 -0.0622 -0.4462 -0.4865
11073SOL    HW133744   3.297   2.792   2.540 -1.7699  1.2231 -1.3489
11073SOL    HW233745   3.338   2.747   2.402 -0.1303 -0.5782 -0.3381
11074SOL     OW33746   1.144   6.897   4.668 -0.2312 -0.0735  0.1417
11074SOL    HW133747   1.226   6.927   4.706  1.3363 -2.9860 -0.6296
11074SOL    HW233748   1.155   6.911   4.574 -0.5873 -0.5285  0.0271
11075SOL     OW33749   1.256   5.656   1.110  0.0197 -0.2193  0.8359
11075SOL    HW133750   1.283   5.608   1.032  1.8498 -0.5606  1.6181
11075SOL    HW233751   1.224   5.740   1.077 -0.4581 -0.8536 -0.3545
11076SOL     OW33752   1.113   5.697   7.403  0.0063  0.2476  0.3586
11076SOL    HW133753   1.062   5.677   7.324 -1.0244 -0.5989  1.1916
11076SOL    HW233754   1.144   5.611   7.433  0.0702  0.5152  1.0645
11077SOL     OW33755   1.438   5.357   2.779  0.0287 -0.9647 -0.8162
11077SOL    HW133756   1.344   5.340   2.778 -0.0794 -0.8465  1.6269
11077SOL    HW233757   1.477   5.276   2.810  0.5169 -0.3148  0.3242
11078SOL     OW33758   5.076   0.135   6.835 -0.3983 -0.3843  0.5252
11078SOL    HW133759   4.988   0.107   6.810 -0.7066 -0.0151  1.1639
11078SOL    HW233760   5.104   0.071   6.901 -0.3756 -0.2401  0.6575
11079SOL     OW33761   6.073   7.322   1.380 -0.0027 -0.0403 -0.4062
11079SOL    HW133762   6.010   7.393   1.367 -0.9664 -0.9301 -0.7386
11079SOL    HW233763   6.028   7.244   1.346  1.1398 -0.7595 -0.3072
11080SOL     OW33764   3.336   4.123   0.471 -0.9871  0.3781 -0.2874
11080SOL    HW133765   3.408   4.077   0.427 -1.5291 -1.8739  1.0024
11080SOL    HW233766   3.288   4.166   0.400  0.6401  0.5278 -1.3534
11081SOL     OW33767   0.052   1.487   1.500  0.5167  0.4386 -0.8284
11081SOL    HW133768   0.010   1.526   1.576  1.3145 -0.9297  0.3663
11081SOL    HW233769  -0.020   1.457   1.445 -0.0748  0.1311  0.1010
11082SOL     OW33770   7.303   1.245   2.784  0.2005  0.0085 -0.1799
11082SOL    HW133771   7.322   1.337   2.767  1.6960 -0.6118 -2.3406
11082SOL    HW233772   7.384   1.211   2.822 -0.8405 -0.1519  2.0213
11083SOL     OW33773   0.506   4.205   7.005  0.5973 -0.1065  0.2811
11083SOL    HW133774   0.471   4.117   6.991  0.1366  0.0173  0.6460
11083SOL    HW233775   0.503   4.217   7.100 -0.9667  0.9650  0.1171
11084SOL     OW33776   3.966   6.416   0.376  0.5924 -0.4938  0.4419
11084SOL    HW133777   4.058   6.412   0.350  0.5563 -0.9211  0.3742
11084SOL    HW233778   3.968   6.445   0.467  0.7634  0.0700  0.2628
11085SOL     OW33779   1.991   3.054   7.144  0.0400  0.0841  0.5956
11085SOL    HW133780   2.073   3.063   7.192 -0.1044  1.3350  0.6627
11085SOL    HW233781   1.922   3.069   7.209 -0.1495  2.1567 -0.0067
11086SOL     OW33782   2.396   4.633   1.666  0.1215 -0.6739  0.8513
11086SOL    HW133783   2.363   4.552   1.705  2.0061 -0.4567  3.1851
11086SOL    HW233784   2.357   4.703   1.718 -0.9652 -0.0583 -0.7157
11087SOL     OW33785   5.580   4.679   0.946 -0.1562 -0.4426  0.4642
11087SOL    HW133786   5.633   4.650   1.020 -1.0730 -0.1875  1.2335
11087SOL    HW233787   5.583   4.606   0.884  1.5770 -0.1999  0.2136
11088SOL     OW33788   4.453   7.555   7.246 -0.1880 -0.1226 -0.0318
11088SOL    HW133789   4.486   7.564   7.336 -2.4372 -0.4273  0.9025
11088SOL    HW233790   4.414   7.640   7.227 -2.0950 -0.8579  0.3691
11089SOL     OW33791   7.273   0.164   4.339  0.0372 -0.2630  0.0333
11089SOL    HW133792   7.245   0.213   4.416 -0.3061  0.1796 -0.3698
11089SOL    HW233793   7.345   0.215   4.302  0.6751 -0.8418  0.4564
11090SOL     OW33794   6.465   1.238   5.397 -0.0554  0.5864  0.3189
11090SOL    HW133795   6.510   1.219   5.315  0.7340 -1.0818  1.0859
11090SOL    HW233796   6.516   1.192   5.463 -0.8628  1.6183  1.7200
11091SOL     OW33797   7.025   6.760   6.444  0.2051  0.5133  0.3283
11091SOL    HW133798   7.002   6.682   6.394 -2.1587  0.3273  1.5309
11091SOL    HW233799   7.089   6.730   6.509  1.6630  0.3111 -1.1439
11092SOL     OW33800   0.023   0.646   5.038  0.3428 -0.3482 -0.1468
11092SOL    HW133801   0.049   0.703   4.966 -0.3508 -1.5586 -1.4067
11092SOL    HW233802   0.102   0.596   5.059  0.1368 -1.1567 -1.2144
11093SOL     OW33803   2.400   5.208   1.728 -0.6395  0.4311  0.2582
11093SOL    HW133804   2.478   5.156   1.708 -0.4653  0.8282 -0.1076
11093SOL    HW233805   2.418   5.245   1.815 -1.0237 -0.5968  0.7801
11094SOL     OW33806   7.125   7.469   1.977  0.0776  0.2265  0.0919
11094SOL    HW133807   7.199   7.530   1.982  0.1322  0.4211 -2.1929
11094SOL    HW233808   7.053   7.516   2.018  0.0266  2.0505 -1.9447
11095SOL     OW33809   4.068   3.395   1.500 -0.2606 -0.2581 -0.0763
11095SOL    HW133810   3.991   3.357   1.544  0.4574  0.1301  1.5788
11095SOL    HW233811   4.129   3.322   1.493 -1.0870 -0.8279 -2.3042
11096SOL     OW33812   0.965   0.425   6.556 -0.3641 -0.2787  0.1810
11096SOL    HW133813   0.912   0.348   6.574  0.0736 -0.3106  1.4030
11096SOL    HW233814   1.050   0.390   6.530 -0.7079 -0.2183 -1.0730
11097SOL     OW33815   1.705   6.686   2.242  0.3228 -0.0537  0.0762
11097SOL    HW133816   1.622   6.657   2.281  0.4553  0.3610  0.6803
11097SOL    HW233817   1.772   6.654   2.303  0.5014  1.0316  0.4702
11098SOL     OW33818   4.104   0.717   2.973 -0.4462 -0.4484 -0.0046
11098SOL    HW133819   4.029   0.675   2.932 -0.6028 -1.2265  1.0350
11098SOL    HW233820   4.128   0.788   2.913 -1.5767 -0.6166 -0.6821
11099SOL     OW33821   6.850   4.136   0.862  0.1532  0.5259 -0.1210
11099SOL    HW133822   6.799   4.099   0.934  0.5476  1.2412  0.5408
11099SOL    HW233823   6.940   4.110   0.881  0.5336  2.2610  0.6797
11100SOL     OW33824   6.314   3.325   2.892 -0.3241 -0.4983 -0.1984
11100SOL    HW133825   6.224   3.296   2.878 -0.5188 -0.2722  0.5753
11100SOL    HW233826   6.361   3.295   2.813 -0.5491 -2.7535  0.4469
11101SOL     OW33827   3.676   1.992   0.514 -0.2363  0.5020 -0.0374
11101SOL    HW133828   3.688   1.898   0.529  3.0511  0.9717  1.0877
11101SOL    HW233829   3.609   2.018   0.578 -0.0300 -0.8044  0.7509
11102SOL     OW33830   0.120   4.024   2.627 -0.4294  0.3079  0.2890
11102SOL    HW133831   0.144   4.093   2.565  1.1351 -0.5762 -0.1215
11102SOL    HW233832   0.157   3.944   2.591  0.8349 -0.2000  2.5091
11103SOL     OW33833   6.932   3.499   4.177 -0.0812  0.1790  0.6968
11103SOL    HW133834   6.976   3.452   4.248 -0.5641 -3.0150 -0.9420
11103SOL    HW233835   6.839   3.486   4.193 -0.1910 -1.0714 -0.7499
11104SOL     OW33836   3.159   2.182   0.179  0.0722  0.0928  0.2942
11104SOL    HW133837   3.155   2.139   0.094  1.6414 -1.4556  0.9652
11104SOL    HW233838   3.246   2.222   0.182  0.3131 -0.4898  1.4447
11105SOL     OW33839   0.505   4.439   5.139 -0.5292  0.6412  0.1863
11105SOL    HW133840   0.571   4.388   5.186 -2.0650  1.2393  3.2585
11105SOL    HW233841   0.553   4.480   5.067  1.1454 -3.5481 -1.3985
11106SOL     OW33842   4.279   4.603   7.128  0.0446  0.3034  0.6649
11106SOL    HW133843   4.283   4.508   7.136 -1.4159  0.2046  0.5234
11106SOL    HW233844   4.367   4.633   7.150  0.8923 -1.1592 -0.5270
11107SOL     OW33845   1.801   2.827   4.746  0.3490 -0.0533  0.1613
11107SOL    HW133846   1.810   2.909   4.796  1.4237  1.2362 -1.9911
11107SOL    HW233847   1.752   2.769   4.804  1.7831  1.2079  2.8230
11108SOL     OW33848   2.173   3.821   6.409 -0.0818 -0.0026  0.4897
11108SOL    HW133849   2.133   3.741   6.374 -0.4964  1.1133 -1.7889
11108SOL    HW233850   2.253   3.832   6.358 -0.8028  1.7953 -0.3501
11109SOL     OW33851   1.772   4.216   2.841  0.2913  0.0933  0.1069
11109SOL    HW133852   1.775   4.121   2.851 -0.3813  0.1668  1.1548
11109SOL    HW233853   1.707   4.245   2.905  0.6116  1.2773 -0.0758
11110SOL     OW33854   4.843   0.287   6.127 -0.4189  0.0009 -0.6716
11110SOL    HW133855   4.760   0.307   6.171 -0.1136  0.8539 -0.4536
11110SOL    HW233856   4.866   0.200   6.158 -0.5356  0.3283  0.3821
11111SOL     OW33857   4.165   3.750   3.350  0.3455 -0.2022 -0.4120
11111SOL    HW133858   4.102   3.715   3.413 -0.6530  2.0365 -0.0610
11111SOL    HW233859   4.222   3.807   3.402  0.6421  0.2724 -1.2325
11112SOL     OW33860   3.706   2.864   1.679  0.9558 -0.0334  0.3415
11112SOL    HW133861   3.771   2.798   1.653 -1.2425 -2.2448  0.0811
11112SOL    HW233862   3.691   2.915   1.600  1.0947 -0.6629 -0.1035
11113SOL     OW33863   6.611   3.563   6.348  0.0202 -0.1070  0.1462
11113SOL    HW133864   6.628   3.564   6.442 -0.4857  0.1573  0.2425
11113SOL    HW233865   6.522   3.529   6.340  0.2328 -0.5825 -0.2702
11114SOL     OW33866   4.378   2.375   0.137  0.0320  0.1378  0.3502
11114SOL    HW133867   4.364   2.385   0.043 -0.9619  1.0081  0.5682
11114SOL    HW233868   4.473   2.369   0.146  0.2900  2.0488 -0.5655
11115SOL     OW33869   6.607   2.524   5.468 -0.5032  0.3811 -0.4377
11115SOL    HW133870   6.669   2.493   5.402 -0.7564  1.1582 -1.0574
11115SOL    HW233871   6.660   2.578   5.527 -0.0334 -1.2937  0.7279
11116SOL     OW33872   0.095   2.858   5.522 -0.5569  0.6015  0.4523
11116SOL    HW133873   0.149   2.795   5.475 -0.0563 -0.0242  1.8131
11116SOL    HW233874   0.029   2.886   5.458 -0.3493 -0.7492 -0.3866
11117SOL     OW33875   0.441   5.207   3.552 -0.2281 -0.6884  0.3020
11117SOL    HW133876   0.459   5.164   3.636  0.7489 -0.7721  0.0608
11117SOL    HW233877   0.504   5.279   3.548 -0.7788 -0.2176 -0.0261
11118SOL     OW33878   7.295   1.450   1.508 -0.0574  0.0151  0.3634
11118SOL    HW133879   7.228   1.403   1.458  1.3340  0.0916 -1.7267
11118SOL    HW233880   7.265   1.447   1.599 -1.4891 -2.3259 -0.1057
11119SOL     OW33881   2.182   1.888   7.242 -0.1990 -0.1418 -0.0418
11119SOL    HW133882   2.087   1.889   7.252 -0.3068  1.1993 -0.9006
11119SOL    HW233883   2.215   1.895   7.332 -0.9324  0.4280  0.1987
11120SOL     OW33884   3.246   5.182   5.217  0.1583 -0.0097  0.4761
11120SOL    HW133885   3.305   5.181   5.293  0.0175 -2.6979  0.6737
11120SOL    HW233886   3.296   5.140   5.147 -0.7943 -0.4611  0.0463
11121SOL     OW33887   2.567   7.248   0.872  0.1576 -0.4011 -0.1714
11121SOL    HW133888   2.582   7.219   0.782 -0.7758  1.2704 -0.9254
11121SOL    HW233889   2.512   7.326   0.863 -0.5447 -0.5895  1.8986
11122SOL     OW33890   6.420   2.343   3.424  0.4141  0.2304  0.2412
11122SOL    HW133891   6.488   2.409   3.409 -0.1219  0.8802  0.5819
11122SOL    HW233892   6.348   2.392   3.463  0.0487 -0.5907  0.6206
11123SOL     OW33893   6.504   2.198   1.409  0.6985 -0.1839  0.7291
11123SOL    HW133894   6.541   2.277   1.368  2.1565 -1.7658 -1.2550
11123SOL    HW233895   6.578   2.159   1.456 -0.0344 -0.3282  1.7766
11124SOL     OW33896   6.375   2.553   5.112 -0.2157 -0.1527  0.1448
11124SOL    HW133897   6.329   2.625   5.070  3.5424  1.2523 -1.9882
11124SOL    HW233898   6.380   2.579   5.204  0.2437  1.9049 -0.4035
11125SOL     OW33899   7.112   7.441   5.672 -0.4936  0.5789 -0.1845
11125SOL    HW133900   7.125   7.531   5.704 -0.6646  0.3011  0.6914
11125SOL    HW233901   7.193   7.396   5.694  0.5151  1.0513 -2.6402
11126SOL     OW33902   3.078   2.232   7.299 -0.0215  0.2919 -0.8813
11126SOL    HW133903   3.065   2.185   7.381 -0.8008  1.5659 -0.2424
11126SOL    HW233904   3.137   2.304   7.321  0.3473  0.2221 -1.6030
11127SOL     OW33905   1.884   1.770   0.932 -0.1122  0.2275  0.5115
11127SOL    HW133906   1.883   1.857   0.973 -1.7677  0.6637 -0.3648
11127SOL    HW233907   1.915   1.787   0.843 -0.9511  0.0030  0.1756
11128SOL     OW33908   4.870   1.653   0.845 -0.4494  0.0180  0.0754
11128SOL    HW133909   4.903   1.564   0.862 -2.3330 -0.6837  0.3469
11128SOL    HW233910   4.809   1.670   0.917 -0.2740  1.4604 -0.0885
11129SOL     OW33911   4.690   6.711   0.814 -0.1102  0.3907 -0.2941
11129SOL    HW133912   4.705   6.716   0.719  3.5062  0.9588  0.1958
11129SOL    HW233913   4.693   6.618   0.834 -0.2689  0.3062 -0.6409
11130SOL     OW33914   5.735   1.074   7.498  0.0807  0.0758 -0.7837
11130SOL    HW133915   5.664   1.135   7.519  0.2642  0.6836 -1.8787
11130SOL    HW233916   5.790   1.121   7.436 -0.5142 -1.6652 -2.7364
11131SOL     OW33917   3.299   1.471   2.333  0.0619  0.4427  0.6306
11131SOL    HW133918   3.251   1.479   2.250 -0.5443  1.5511  1.0657
11131SOL    HW233919   3.388   1.498   2.311 -0.1075  0.7855  0.3448
11132SOL     OW33920   5.378   5.725   6.569 -0.0007 -0.5800 -0.1049
11132SOL    HW133921   5.349   5.802   6.520 -1.3271 -1.2635 -0.4387
11132SOL    HW233922   5.463   5.702   6.530  2.2462  2.7126  2.2773
11133SOL     OW33923   0.838   5.811   4.756 -0.0075 -0.2729  0.0405
11133SOL    HW133924   0.882   5.890   4.725 -0.1783  0.0392  0.5845
11133SOL    HW233925   0.907   5.746   4.763 -0.1262 -0.7089 -2.0870
11134SOL     OW33926   7.274   3.100   4.410 -0.8626 -0.3690 -0.3209
11134SOL    HW133927   7.346   3.153   4.443 -0.7780  0.6281 -1.9766
11134SOL    HW233928   7.195   3.144   4.444 -0.7422 -1.3658  1.3505
11135SOL     OW33929   4.809   4.834   4.050  0.3973 -0.3726 -0.6303
11135SOL    HW133930   4.891   4.825   4.001  0.1443  2.5108 -1.7465
11135SOL    HW233931   4.744   4.859   3.985 -0.8153 -0.1705  0.6113
11136SOL     OW33932   6.018   0.458   7.059 -0.4116 -0.2991 -0.4024
11136SOL    HW133933   5.929   0.441   7.089 -0.6626 -0.0419 -0.9910
11136SOL    HW233934   6.058   0.371   7.052 -1.1745 -0.5652 -1.8082
11137SOL     OW33935   1.344   6.143   7.384 -0.2572  0.3258  0.1394
11137SOL    HW133936   1.358   6.232   7.415  1.7371  0.9107 -2.1294
11137SOL    HW233937   1.312   6.153   7.295 -0.7869 -1.2589  0.1106
11138SOL     OW33938   0.900   5.225   2.254  0.1392  0.0072 -0.0284
11138SOL    HW133939   0.863   5.274   2.180  0.0164 -0.6550 -0.4142
11138SOL    HW233940   0.832   5.227   2.321  0.0465  0.1775 -0.1287
11139SOL     OW33941   1.954   4.645   3.217  0.2670 -0.2749 -0.5590
11139SOL    HW133942   2.024   4.632   3.153 -0.6190 -0.6489 -1.4709
11139SOL    HW233943   1.907   4.722   3.186  0.7795  0.5181  0.5454
11140SOL     OW33944   0.526   3.798   7.043  0.2816 -0.0521 -0.0952
11140SOL    HW133945   0.575   3.715   7.045  1.8162  0.6898 -2.6854
11140SOL    HW233946   0.575   3.855   7.102 -0.0491 -0.5808  0.7164
11141SOL     OW33947   2.792   6.911   7.193 -0.5764  0.1315  0.3569
11141SOL    HW133948   2.790   6.891   7.100  1.8507 -0.2488  0.3055
11141SOL    HW233949   2.770   7.004   7.199  2.5816  1.1057 -1.0588
11142SOL     OW33950   3.145   5.003   4.572  0.6501 -0.2327 -0.0217
11142SOL    HW133951   3.063   4.996   4.523  0.7682 -1.1859 -0.1078
11142SOL    HW233952   3.161   5.097   4.578 -1.8953  0.1776  2.4101
11143SOL     OW33953   0.868   7.341   3.463  0.1470  0.3563  0.1054
11143SOL    HW133954   0.785   7.378   3.432  0.3222  0.3953 -0.3127
11143SOL    HW233955   0.876   7.257   3.417  0.0920  0.1147  0.5283
11144SOL     OW33956   3.859   6.793   6.073 -0.2436  0.2954 -0.2778
11144SOL    HW133957   3.821   6.706   6.080 -1.5954  0.8612 -0.4079
11144SOL    HW233958   3.785   6.853   6.083  0.3778  1.4048 -1.9221
11145SOL     OW33959   6.699   4.851   5.947  0.0182 -0.2763 -0.1333
11145SOL    HW133960   6.700   4.925   6.009 -0.6231  0.1210 -0.5892
11145SOL    HW233961   6.625   4.798   5.974 -1.6997  1.1003 -1.9207
11146SOL     OW33962   0.713   5.842   4.467  0.0279  0.4546  0.6493
11146SOL    HW133963   0.640   5.886   4.511  0.6779  2.0511  0.1891
11146SOL    HW233964   0.673   5.800   4.390 -0.8379 -1.0249  1.8336
11147SOL     OW33965   4.455   6.709   6.062  0.0308  0.2327 -0.0378
11147SOL    HW133966   4.439   6.803   6.058 -0.3775  0.2194  0.8957
11147SOL    HW233967   4.379   6.671   6.019 -0.2428  0.3144  0.3607
11148SOL     OW33968   0.840   3.688   5.630  0.3720  0.5935 -0.7286
11148SOL    HW133969   0.834   3.602   5.671 -1.0875  1.2041  0.4361
11148SOL    HW233970   0.889   3.741   5.693 -2.5576  1.7498  0.7604
11149SOL     OW33971   1.859   7.450   2.360 -0.4465 -0.2407 -0.3531
11149SOL    HW133972   1.921   7.494   2.302 -0.5951 -1.1283 -1.2006
11149SOL    HW233973   1.888   7.359   2.363 -1.3693 -0.5519 -0.3226
11150SOL     OW33974   5.222   2.014   6.370 -0.1649 -0.1723 -0.0050
11150SOL    HW133975   5.150   2.075   6.389 -0.4176 -0.8249  1.2934
11150SOL    HW233976   5.300   2.057   6.404 -0.1006  0.0976 -0.4949
11151SOL     OW33977   6.639   5.593   2.950  0.2205  0.0364  0.0863
11151SOL    HW133978   6.560   5.620   2.996 -0.2362 -1.8898  0.5552
11151SOL    HW233979   6.633   5.634   2.864 -1.8547 -0.9162 -0.2800
11152SOL     OW33980   3.503   3.761   1.821  0.1427  0.1429 -0.8353
11152SOL    HW133981   3.507   3.780   1.727  0.7293  1.8419 -0.4975
11152SOL    HW233982   3.482   3.845   1.862  1.8485 -0.1237  0.7162
11153SOL     OW33983   7.199   4.555   4.382 -0.5450  0.5894 -0.6352
11153SOL    HW133984   7.269   4.489   4.380  0.4174  1.6046 -1.6131
11153SOL    HW233985   7.148   4.532   4.460 -0.1877 -1.2446 -0.8880
11154SOL     OW33986   3.135   5.288   6.382 -0.1258 -0.2445 -0.2362
11154SOL    HW133987   3.143   5.270   6.476  0.3886 -2.3541 -0.6237
11154SOL    HW233988   3.209   5.344   6.362 -0.2336  0.2161  0.6068
11155SOL     OW33989   3.122   1.880   0.259 -0.5886 -0.1360  0.1002
11155SOL    HW133990   3.129   1.929   0.177 -0.9844  1.0823  0.7815
11155SOL    HW233991   3.028   1.871   0.274 -0.5180 -0.5467  0.3221
11156SOL     OW33992   0.479   5.953   3.468 -0.0076 -0.1800  0.6875
11156SOL    HW133993   0.465   5.928   3.377  2.0352  1.2197 -0.0954
11156SOL    HW233994   0.451   6.044   3.473  0.8335  0.0696  1.1622
11157SOL     OW33995   6.397   6.517   2.502 -0.5538  0.1270  0.3208
11157SOL    HW133996   6.446   6.511   2.420 -1.6331  1.2599 -0.4376
11157SOL    HW233997   6.454   6.567   2.560 -0.6711  1.2179 -0.4726
11158SOL     OW33998   2.623   5.104   2.683  0.1070 -0.4436 -0.1986
11158SOL    HW133999   2.600   5.196   2.702  0.7980 -0.3318  0.1045
11158SOL    HW234000   2.605   5.058   2.765 -1.5239 -0.8367 -0.7415
11159SOL     OW34001   0.110   1.565   5.528 -0.3401 -0.4682 -0.1921
11159SOL    HW134002   0.145   1.652   5.549  0.5672 -0.8397 -0.1266
11159SOL    HW234003   0.015   1.576   5.532 -0.2660  0.7655 -1.1792
11160SOL     OW34004   1.845   1.757   4.490  0.3529  0.4940  0.2087
11160SOL    HW134005   1.809   1.808   4.562  0.2812  0.6970  0.0296
11160SOL    HW234006   1.849   1.818   4.417 -0.1482  0.1201 -0.1335
11161SOL     OW34007   3.366   2.369   6.163  0.1324 -0.3694 -0.1203
11161SOL    HW134008   3.369   2.425   6.241 -0.8773 -2.2159  1.3058
11161SOL    HW234009   3.293   2.309   6.178  1.8715 -2.8861 -0.9888
11162SOL     OW34010   5.198   3.707   2.865 -0.2387  0.0113 -0.2882
11162SOL    HW134011   5.275   3.650   2.864  0.4671  0.8890  0.7204
11162SOL    HW234012   5.226   3.787   2.820 -1.5422 -0.7619 -2.6192
11163SOL     OW34013   7.567   1.675   6.853 -0.0736 -0.5537 -0.1451
11163SOL    HW134014   7.630   1.669   6.926 -1.4126  0.2454  1.1455
11163SOL    HW234015   7.482   1.656   6.894 -0.7972 -0.6603 -1.6478
11164SOL     OW34016   5.411   2.066   4.568 -0.1489 -0.2201  0.7996
11164SOL    HW134017   5.356   2.013   4.511  0.2055 -0.6400  0.8452
11164SOL    HW234018   5.451   2.003   4.629  0.1681  0.1116  0.9399
11165SOL     OW34019   3.765   0.167   0.995 -0.1337 -0.0924  0.2871
11165SOL    HW134020   3.728   0.094   1.044 -0.2522 -0.6821 -0.6619
11165SOL    HW234021   3.816   0.126   0.925 -0.1124  0.7305 -0.1901
11166SOL     OW34022   5.389   1.809   0.394  0.1891 -0.1268  0.2997
11166SOL    HW134023   5.475   1.768   0.405 -0.1085 -1.0689 -0.6782
11166SOL    HW234024   5.347   1.758   0.325 -1.4078 -0.0863  1.1885
11167SOL     OW34025   4.469   5.140   4.640 -0.1031 -0.7036 -0.4464
11167SOL    HW134026   4.528   5.072   4.671  1.1825  0.7242  0.3955
11167SOL    HW234027   4.399   5.143   4.706  0.9106  0.1328  0.6198
11168SOL     OW34028   4.176   0.746   5.142  0.4741 -0.1352  0.0179
11168SOL    HW134029   4.240   0.799   5.095 -0.2917  0.4359 -0.4236
11168SOL    HW234030   4.206   0.746   5.233  0.2669  1.4493  0.1114
11169SOL     OW34031   3.525   1.656   5.325 -0.7381  0.9573 -0.2445
11169SOL    HW134032   3.475   1.735   5.345 -0.9001  0.6700  0.5151
11169SOL    HW234033   3.554   1.623   5.410 -0.8613  0.0836 -0.5284
11170SOL     OW34034   2.654   3.472   1.609 -0.3374  0.3113 -0.3207
11170SOL    HW134035   2.570   3.487   1.653 -1.0296 -0.6415 -1.2655
11170SOL    HW234036   2.653   3.533   1.535  0.1232  0.7938  0.0637
11171SOL     OW34037   4.347   5.967   4.213  0.0059 -0.0571 -0.1109
11171SOL    HW134038   4.300   6.022   4.276 -0.0587  0.5459 -0.6777
11171SOL    HW234039   4.355   6.022   4.135  0.1104 -0.7890 -0.6184
11172SOL     OW34040   1.291   1.009   2.083 -0.0429 -0.2098  0.1693
11172SOL    HW134041   1.385   0.990   2.083  0.2655  1.0657 -1.7448
11172SOL    HW234042   1.282   1.081   2.146  0.2902 -0.1877  0.1932
11173SOL     OW34043   3.152   2.473   5.757 -0.6956  0.2302  0.3556
11173SOL    HW134044   3.111   2.552   5.721 -1.5678 -1.2004 -1.9902
11173SOL    HW234045   3.219   2.450   5.693 -0.8964 -1.2895  0.6640
11174SOL     OW34046   4.811   3.292   2.900 -0.5947  0.1868  0.1277
11174SOL    HW134047   4.819   3.320   2.991 -0.7450 -2.1073  0.9007
11174SOL    HW234048   4.765   3.365   2.857 -2.3898  0.4888  2.3507
11175SOL     OW34049   6.386   6.042   2.070  0.8701 -0.7154  0.2990
11175SOL    HW134050   6.323   6.074   2.005 -0.0082 -2.3720  0.2850
11175SOL    HW234051   6.335   6.035   2.151  1.9769  1.4388  1.2658
11176SOL     OW34052   2.160   1.034   1.838 -0.5989 -0.7180  0.3353
11176SOL    HW134053   2.249   1.043   1.873 -0.7931  0.9369  0.4470
11176SOL    HW234054   2.104   1.035   1.916 -0.8191 -0.1522  0.1730
11177SOL     OW34055   0.631   2.379   4.867  0.0305 -0.0693 -0.5971
11177SOL    HW134056   0.698   2.387   4.935  0.1063 -1.3993 -0.4835
11177SOL    HW234057   0.631   2.463   4.823  0.0218  0.8195  1.0103
11178SOL     OW34058   1.391   3.372   0.170  0.3373 -0.2313  0.3177
11178SOL    HW134059   1.345   3.367   0.086  0.3224  1.8129  0.1569
11178SOL    HW234060   1.406   3.465   0.184 -0.0174 -0.4788  2.8099
11179SOL     OW34061   6.285   5.021   3.556 -0.4953  0.1061  0.0982
11179SOL    HW134062   6.235   4.979   3.487  0.8243 -0.1274 -0.7361
11179SOL    HW234063   6.228   5.015   3.633 -2.0710  0.5361 -0.9786
11180SOL     OW34064   3.574   4.364   5.683 -0.0055  0.3542 -0.9697
11180SOL    HW134065   3.598   4.377   5.592  0.0012  1.7178 -0.7866
11180SOL    HW234066   3.495   4.416   5.695  0.4426  0.8402  0.0015
11181SOL     OW34067   0.744   4.943   0.328  0.2776 -0.2114  0.4111
11181SOL    HW134068   0.766   4.925   0.419  0.9422 -1.7414 -0.0246
11181SOL    HW234069   0.649   4.944   0.326  0.2470 -1.1118  0.9622
11182SOL     OW34070   3.272   2.998   4.136  0.2637  0.1908  0.3907
11182SOL    HW134071   3.223   2.992   4.055  0.3085  0.9312  0.2966
11182SOL    HW234072   3.263   3.090   4.163  1.2206  0.2420  0.6016
11183SOL     OW34073   2.845   3.980   4.357 -0.4891  0.4716 -0.0046
11183SOL    HW134074   2.932   3.941   4.370 -0.3280  0.8535  0.0724
11183SOL    HW234075   2.795   3.912   4.313 -0.0047  0.4281 -0.5030
11184SOL     OW34076   2.165   6.148   5.073 -0.1760 -0.0663 -0.0694
11184SOL    HW134077   2.084   6.195   5.092  0.4139  0.3872  1.4437
11184SOL    HW234078   2.168   6.078   5.138  0.0584 -0.8479 -0.8974
11185SOL     OW34079   3.089   0.366   1.339 -0.0008  0.2822 -0.2557
11185SOL    HW134080   3.156   0.334   1.279  0.3470  0.7203 -0.1040
11185SOL    HW234081   3.123   0.450   1.370 -0.7881  0.6834 -0.4601
11186SOL     OW34082   6.655   6.274   3.086  0.1349  0.2552 -0.2570
11186SOL    HW134083   6.731   6.273   3.145  0.3586  1.1509 -0.5084
11186SOL    HW234084   6.586   6.316   3.138  0.1862  0.5853 -0.4489
11187SOL     OW34085   4.977   0.715   4.145  0.5019  0.2232 -0.2672
11187SOL    HW134086   5.036   0.745   4.214  1.5758  0.8829 -1.4352
11187SOL    HW234087   5.031   0.659   4.090 -0.2301  0.0271 -0.7936
11188SOL     OW34088   5.698   2.557   3.416 -0.2523  0.4437 -0.3278
11188SOL    HW134089   5.774   2.514   3.377  0.3022 -2.4015  3.2834
11188SOL    HW234090   5.735   2.610   3.487 -1.4574  1.3771 -0.3640
11189SOL     OW34091   2.462   3.865   4.164  0.2864  0.3304  0.3692
11189SOL    HW134092   2.404   3.912   4.225 -1.6261 -0.0632 -1.0702
11189SOL    HW234093   2.452   3.912   4.081 -0.1554 -1.4188 -0.6026
11190SOL     OW34094   3.075   1.693   5.389 -0.0304 -0.2160  0.1831
11190SOL    HW134095   3.078   1.779   5.347 -0.8011  0.1559  0.8719
11190SOL    HW234096   3.121   1.635   5.328 -0.9812  0.3407 -1.1158
11191SOL     OW34097   0.346   5.346   0.363  0.2373 -0.3137 -0.5124
11191SOL    HW134098   0.353   5.403   0.439 -1.9442  0.3309 -0.7385
11191SOL    HW234099   0.432   5.353   0.320  0.4343  1.8601  0.1328
11192SOL     OW34100   2.360   5.482   6.660  0.5176  0.0585 -0.2505
11192SOL    HW134101   2.417   5.454   6.589  2.2045 -2.8713  2.0202
11192SOL    HW234102   2.419   5.517   6.726 -0.8553  1.4328  0.3142
11193SOL     OW34103   1.621   3.034   6.094 -0.0086  0.4493  0.0353
11193SOL    HW134104   1.591   3.111   6.046 -0.2540 -0.0780 -0.6759
11193SOL    HW234105   1.540   2.994   6.128  0.1498  0.7265  0.7506
11194SOL     OW34106   0.525   4.042   5.146 -0.4191 -0.2565 -0.0413
11194SOL    HW134107   0.447   4.071   5.194 -1.4298  1.6245 -2.6072
11194SOL    HW234108   0.504   3.954   5.117  0.3538 -1.5994  3.0357
11195SOL     OW34109   1.594   2.991   1.223  0.7417  0.0714  0.9882
11195SOL    HW134110   1.521   3.042   1.188  1.2897 -1.4675 -2.9060
11195SOL    HW234111   1.669   3.051   1.221  0.3823  0.5308  1.2353
11196SOL     OW34112   6.522   1.058   6.286  0.6706 -0.0508  0.1367
11196SOL    HW134113   6.496   1.135   6.335  0.8024 -0.2484  0.5201
11196SOL    HW234114   6.520   0.987   6.350 -1.6058 -0.8048 -0.6739
11197SOL     OW34115   3.766   1.987   6.011  0.3674 -0.0673 -0.4342
11197SOL    HW134116   3.752   1.919   5.946 -3.7344  2.1167 -2.1650
11197SOL    HW234117   3.805   2.059   5.963 -1.6226  1.1536 -0.3152
11198SOL     OW34118   3.499   0.932   5.651  0.0454 -0.3336 -0.3659
11198SOL    HW134119   3.475   0.870   5.581 -0.5610  2.1889 -2.5471
11198SOL    HW234120   3.572   0.982   5.614 -1.6285  2.4821 -0.1103
11199SOL     OW34121   6.678   3.009   6.812 -0.3912  0.0964 -0.8557
11199SOL    HW134122   6.660   2.978   6.724 -2.7741 -0.2930 -0.3178
11199SOL    HW234123   6.595   3.048   6.841  0.3991  0.4679  1.0875
11200SOL     OW34124   2.565   6.653   0.337  0.2835  0.1754  0.2065
11200SOL    HW134125   2.605   6.619   0.257  0.2452  0.3945  0.0928
11200SOL    HW234126   2.490   6.596   0.353 -0.3601  0.8112 -0.5329
11201SOL     OW34127   3.869   4.518   0.114  0.3782 -0.2038 -0.2942
11201SOL    HW134128   3.862   4.530   0.019 -1.4545 -0.1812 -0.1884
11201SOL    HW234129   3.811   4.445   0.133  0.6894 -0.1715  0.8322
11202SOL     OW34130   6.784   0.607   0.383  0.4618  0.1143  0.2493
11202SOL    HW134131   6.756   0.543   0.449  1.7985 -0.3993  0.3553
11202SOL    HW234132   6.849   0.561   0.331  2.3911  1.7123  1.0873
11203SOL     OW34133   1.335   0.098   1.850  0.2499  0.4265 -0.4720
11203SOL    HW134134   1.414   0.108   1.903 -0.8201  1.4538  1.0049
11203SOL    HW234135   1.267   0.072   1.912 -1.0053  1.4173 -1.3741
11204SOL     OW34136   6.332   0.687   2.941  0.0465  0.3129  0.2361
11204SOL    HW134137   6.362   0.632   3.013 -2.6896  0.4809  1.6417
11204SOL    HW234138   6.322   0.627   2.867 -2.4764 -1.1337  1.6215
11205SOL     OW34139   5.673   3.809   6.125 -0.2073  0.0156 -0.1707
11205SOL    HW134140   5.647   3.893   6.164 -0.3478  0.6288 -1.5284
11205SOL    HW234141   5.699   3.831   6.036 -1.2417 -1.5358 -0.8946
11206SOL     OW34142   3.730   0.110   3.239 -0.3909  0.1117  0.1289
11206SOL    HW134143   3.685   0.194   3.241 -1.0477 -0.2503  1.9735
11206SOL    HW234144   3.665   0.049   3.202  0.9154  0.7719 -3.7453
11207SOL     OW34145   6.689   7.173   5.666  0.4403 -0.3618  0.3856
11207SOL    HW134146   6.632   7.243   5.695  0.1006 -1.2037  1.8516
11207SOL    HW234147   6.778   7.203   5.688  0.2917 -0.4129  1.0742
11208SOL     OW34148   0.303   7.321   3.148  0.5952 -0.4160  0.6103
11208SOL    HW134149   0.220   7.328   3.195  0.7781  1.0788  0.7496
11208SOL    HW234150   0.297   7.387   3.079  0.1822 -2.7329 -1.7853
11209SOL     OW34151   4.606   0.457   5.134 -0.1386 -0.3414  0.1209
11209SOL    HW134152   4.551   0.531   5.109 -0.1546 -1.0928 -2.3137
11209SOL    HW234153   4.598   0.453   5.229 -1.3790  1.7936  0.1807
11210SOL     OW34154   2.510   2.337   1.177  0.1114  0.0549 -0.2645
11210SOL    HW134155   2.431   2.299   1.214 -2.6812  3.7404 -1.7855
11210SOL    HW234156   2.538   2.402   1.241 -1.7560  2.8645 -2.0647
11211SOL     OW34157   1.378   0.510   1.205 -0.8618  0.0859 -0.5561
11211SOL    HW134158   1.320   0.480   1.275 -0.4758  1.4261  0.3703
11211SOL    HW234159   1.401   0.599   1.229 -1.3170  0.8741 -2.7884
11212SOL     OW34160   0.465   1.116   2.498 -0.7505 -0.5296 -0.3769
11212SOL    HW134161   0.525   1.042   2.504 -0.1425 -0.1145 -1.1677
11212SOL    HW234162   0.515   1.184   2.453 -2.5823 -1.0140 -3.4830
11213SOL     OW34163   5.555   5.846   5.194 -0.1891  0.2918  0.0375
11213SOL    HW134164   5.515   5.855   5.281  2.0145  2.0017  0.9716
11213SOL    HW234165   5.499   5.899   5.137 -1.1689 -0.1314  0.5713
11214SOL     OW34166   5.817   3.244   6.593 -0.4306  0.1921 -0.7041
11214SOL    HW134167   5.855   3.237   6.681 -2.0127 -0.7483 -0.0660
11214SOL    HW234168   5.881   3.199   6.537  0.7419  1.0544 -0.1201
11215SOL     OW34169   5.644   5.228   4.432  0.4455  0.2368  0.2592
11215SOL    HW134170   5.673   5.171   4.504  0.9589  1.3102  0.9333
11215SOL    HW234171   5.657   5.175   4.353  2.8214  0.0813  0.6623
11216SOL     OW34172   3.190   5.931   4.181  0.5449  0.5474 -0.0316
11216SOL    HW134173   3.256   5.957   4.117 -0.1163  1.0304 -0.5373
11216SOL    HW234174   3.188   5.835   4.175  0.7760  0.5622 -0.4487
11217SOL     OW34175   1.121   2.220   4.738  0.2621  0.7507 -0.6523
11217SOL    HW134176   1.168   2.301   4.719  0.6831  0.3282 -1.4484
11217SOL    HW234177   1.159   2.188   4.820 -2.7992  3.5321  2.1569
11218SOL     OW34178   1.097   3.516   0.187 -0.7495  0.4695 -0.3711
11218SOL    HW134179   1.132   3.429   0.209  0.8786  1.1935  0.0364
11218SOL    HW234180   1.154   3.577   0.234 -1.3551  1.8017 -1.3166
11219SOL     OW34181   6.716   0.610   2.993 -0.3218  0.5779  0.3128
11219SOL    HW134182   6.778   0.640   2.927 -0.1284 -0.6022 -0.0593
11219SOL    HW234183   6.651   0.560   2.944 -1.8174  2.0913  0.6326
11220SOL     OW34184   6.347   0.035   1.553 -0.2969 -0.0169  0.0360
11220SOL    HW134185   6.353  -0.015   1.471 -0.2716 -0.5602  0.3668
11220SOL    HW234186   6.425   0.010   1.602  0.4643  1.4335 -0.3834
11221SOL     OW34187   0.913   6.021   4.401  0.9139 -0.5288  0.6126
11221SOL    HW134188   0.984   5.965   4.369  0.9577 -1.1799  1.7810
11221SOL    HW234189   0.851   5.960   4.441  0.2408  0.1378  0.5973
11222SOL     OW34190   3.361   0.903   0.266  0.4439 -0.2408  0.5154
11222SOL    HW134191   3.358   0.994   0.236  2.2170  0.1481  1.4090
11222SOL    HW234192   3.438   0.867   0.222  0.6870 -0.8309  1.4091
11223SOL     OW34193   7.221   4.387   7.158  0.0042 -0.4757  0.4206
11223SOL    HW134194   7.184   4.461   7.207  0.2322  1.1152 -1.6309
11223SOL    HW234195   7.145   4.343   7.121 -0.0930  1.2017 -1.6027
11224SOL     OW34196   5.907   3.841   6.992  0.1898  0.2527  0.0920
11224SOL    HW134197   5.839   3.783   6.959  0.7321 -0.7215  0.6304
11224SOL    HW234198   5.982   3.784   7.006  0.4657  0.9144  1.4767
11225SOL     OW34199   1.277   4.879   3.082 -0.0276 -0.1343  0.3762
11225SOL    HW134200   1.303   4.796   3.122 -1.1603 -0.0694  1.2829
11225SOL    HW234201   1.201   4.857   3.028 -0.4975  0.3532  0.8305
11226SOL     OW34202   3.731   4.245   0.377  0.2404 -0.2824  0.3101
11226SOL    HW134203   3.725   4.337   0.402  0.7903 -0.3119  0.5695
11226SOL    HW234204   3.743   4.247   0.282 -0.3521 -0.1123  0.2362
11227SOL     OW34205   7.258   1.846   1.702  0.6384 -0.2641  0.1076
11227SOL    HW134206   7.171   1.885   1.697  0.4371 -0.7012  0.1976
11227SOL    HW234207   7.245   1.753   1.681  0.7323 -0.8221  2.2809
11228SOL     OW34208   1.235   0.218   7.294  0.4536 -0.0601  0.3911
11228SOL    HW134209   1.300   0.148   7.291  1.5349  0.9272  0.0094
11228SOL    HW234210   1.272   0.283   7.354 -0.6275  0.1063  0.9033
11229SOL     OW34211   1.320   5.302   5.085 -0.4784  0.2086 -0.1084
11229SOL    HW134212   1.354   5.383   5.123  1.2275  0.0036 -1.0547
11229SOL    HW234213   1.257   5.269   5.149  1.7836  0.1903  2.2976
11230SOL     OW34214   3.731   7.064   4.281  0.1327 -0.2172 -0.0983
11230SOL    HW134215   3.664   7.107   4.334 -0.8554 -2.4304  0.5273
11230SOL    HW234216   3.814   7.100   4.314 -0.6234  1.2825  0.2796
11231SOL     OW34217   7.558   2.802   3.054 -0.3630  0.3646  0.0945
11231SOL    HW134218   7.579   2.881   3.004 -1.4177 -0.1809 -1.2834
11231SOL    HW234219   7.472   2.776   3.021  0.3956 -1.9345 -0.2194
11232SOL     OW34220   6.686   4.469   1.156  0.4155  0.5576 -0.3671
11232SOL    HW134221   6.683   4.399   1.221  1.8459  0.4309 -0.4128
11232SOL    HW234222   6.625   4.535   1.189 -1.8715 -1.1531 -0.9089
11233SOL     OW34223   6.408   0.761   6.355 -0.3739  0.1291  0.4843
11233SOL    HW134224   6.418   0.707   6.276  1.2401 -0.1954  0.8776
11233SOL    HW234225   6.343   0.827   6.330  0.4140  0.3035 -1.2732
11234SOL     OW34226   3.919   4.734   6.624 -0.7909 -0.2163 -0.2528
11234SOL    HW134227   3.826   4.739   6.599 -1.3301 -1.5078  1.2770
11234SOL    HW234228   3.921   4.765   6.714 -0.0664 -1.8296  0.3265
11235SOL     OW34229   0.844   5.039   7.030 -0.6679 -0.2356  0.3890
11235SOL    HW134230   0.764   5.044   7.083 -0.1705  0.4439  1.1078
11235SOL    HW234231   0.868   4.946   7.032 -1.6287 -0.5104 -0.1454
11236SOL     OW34232   2.174   0.689   3.405  0.1098  0.1464  0.3685
11236SOL    HW134233   2.214   0.604   3.392 -0.8994 -0.2917  0.0081
11236SOL    HW234234   2.238   0.738   3.457  1.2051 -0.4200 -0.4041
11237SOL     OW34235   5.476   0.248   4.324  0.4641  0.0619 -0.1702
11237SOL    HW134236   5.497   0.258   4.417  2.4419  0.5572 -0.6243
11237SOL    HW234237   5.471   0.338   4.291 -1.0275 -0.0888 -0.4054
11238SOL     OW34238   1.076   3.947   2.668 -0.3355  0.4310  0.5800
11238SOL    HW134239   1.161   3.908   2.651 -1.4713 -0.9134 -2.9391
11238SOL    HW234240   1.080   4.032   2.624 -0.7406  0.4348  0.5475
11239SOL     OW34241   7.014   7.405   0.410  0.1875 -0.6485 -0.1381
11239SOL    HW134242   7.000   7.420   0.503  3.0215 -0.5438  0.3524
11239SOL    HW234243   6.931   7.428   0.369 -1.3287 -1.2850  2.3958
11240SOL     OW34244   3.641   6.701   7.220  0.3545 -0.1944  0.5556
11240SOL    HW134245   3.627   6.683   7.127 -0.1040 -3.0913  1.0968
11240SOL    HW234246   3.557   6.682   7.261  1.2327 -1.5850  1.8252
11241SOL     OW34247   6.257   1.824   3.975 -0.3448  0.4597  0.1041
11241SOL    HW134248   6.172   1.841   4.017 -1.7118  1.1586 -2.6983
11241SOL    HW234249   6.239   1.753   3.914  1.8704 -1.3924  1.4433
11242SOL     OW34250   3.249   2.718   2.178 -0.2040  0.6271 -0.9609
11242SOL    HW134251   3.189   2.778   2.224 -1.4622 -0.9111 -0.5104
11242SOL    HW234252   3.197   2.686   2.104 -0.3430 -1.4883 -0.0070
11243SOL     OW34253   5.791   2.918   2.663 -0.1393 -0.5768  0.0867
11243SOL    HW134254   5.737   2.956   2.593 -0.2347 -0.7310  0.0744
11243SOL    HW234255   5.834   2.843   2.622  0.3070 -0.2876  0.0227
11244SOL     OW34256   1.206   6.226   0.830  0.7019  0.0579  0.1074
11244SOL    HW134257   1.295   6.193   0.840  0.7808 -0.0967 -1.0000
11244SOL    HW234258   1.167   6.172   0.762  0.3317  1.2157 -0.6448
11245SOL     OW34259   0.554   2.763   6.604 -0.0248  0.0835 -1.1818
11245SOL    HW134260   0.618   2.694   6.623 -2.8375 -2.0684  1.4074
11245SOL    HW234261   0.510   2.734   6.525 -0.8031 -0.8779 -0.4260
11246SOL     OW34262   5.230   4.284   0.614  0.2095 -0.2954 -0.5850
11246SOL    HW134263   5.309   4.301   0.563 -0.4841  1.5378 -1.1391
11246SOL    HW234264   5.165   4.255   0.550  0.1585 -0.8994 -0.2724
11247SOL     OW34265   1.145   3.698   4.371  0.2741  0.4088  0.4249
11247SOL    HW134266   1.230   3.653   4.372 -0.1593 -0.4917  2.6341
11247SOL    HW234267   1.085   3.633   4.334  0.3912  0.7670 -0.4141
11248SOL     OW34268   1.391   6.746   3.828  0.0914 -0.6786  0.1189
11248SOL    HW134269   1.400   6.751   3.733  0.1107  0.2864  0.1578
11248SOL    HW234270   1.297   6.756   3.844  0.2141  0.4027  0.2491
11249SOL     OW34271   4.025   4.773   7.169 -0.3509  0.0170  0.1369
11249SOL    HW134272   3.964   4.701   7.174 -0.9493  0.6076  2.3134
11249SOL    HW234273   4.093   4.743   7.109 -1.1265 -1.9123  0.1624
11250SOL     OW34274   0.959   6.476   1.282  0.0554  0.1342  0.2669
11250SOL    HW134275   0.948   6.514   1.369  2.2071  0.5720  0.4085
11250SOL    HW234276   0.962   6.552   1.223 -3.4999 -0.2234 -0.5493
11251SOL     OW34277   4.553   0.546   6.991 -0.5226 -0.2783  0.0928
11251SOL    HW134278   4.554   0.633   6.951 -1.9577  0.0615  0.7488
11251SOL    HW234279   4.581   0.561   7.081  1.1862 -0.8228 -0.2997
11252SOL     OW34280   1.033   1.307   2.400  0.1119 -0.3575 -0.3111
11252SOL    HW134281   1.035   1.342   2.311  0.2972  1.8181  0.4990
11252SOL    HW234282   1.005   1.380   2.455 -0.4835 -1.7823  1.3811
11253SOL     OW34283   7.401   1.556   5.540  0.0367  0.0965 -0.1506
11253SOL    HW134284   7.408   1.464   5.569  1.1114  0.0213 -0.5881
11253SOL    HW234285   7.308   1.576   5.548 -0.1863 -0.9578  0.1869
11254SOL     OW34286   7.220   2.396   2.666 -0.4604 -0.4326  0.6092
11254SOL    HW134287   7.220   2.413   2.760  0.9579 -1.0558  0.7435
11254SOL    HW234288   7.127   2.389   2.643 -0.8882  1.2544  1.6551
11255SOL     OW34289   0.457   2.235   5.562  0.7022 -0.0884  0.3784
11255SOL    HW134290   0.366   2.224   5.535 -0.1484  1.4497  2.4124
11255SOL    HW234291   0.502   2.264   5.482 -0.4763 -1.1109 -0.7178
11256SOL     OW34292   0.106   2.637   1.033  0.1553  0.3827 -0.0724
11256SOL    HW134293   0.017   2.623   1.002  0.0373  0.5349  0.1887
11256SOL    HW234294   0.117   2.733   1.034 -0.4595  0.4891  1.9868
11257SOL     OW34295   7.101   1.666   3.978 -0.6232 -0.0044  0.4821
11257SOL    HW134296   7.039   1.603   3.942  0.3861  0.5564 -2.5157
11257SOL    HW234297   7.176   1.614   4.005 -0.3901 -0.2577 -0.6147
11258SOL     OW34298   6.441   7.380   6.267  0.4264  0.2186 -0.1407
11258SOL    HW134299   6.513   7.317   6.268  0.7570  0.5947  0.0895
11258SOL    HW234300   6.388   7.354   6.192  0.5507 -0.3414 -0.0385
11259SOL     OW34301   3.625   6.550   2.469  0.0397 -0.1363 -0.8549
11259SOL    HW134302   3.675   6.603   2.407  1.9199 -0.1072  0.5954
11259SOL    HW234303   3.599   6.612   2.537  0.0368 -0.5977 -0.4307
11260SOL     OW34304   6.187   6.082   6.025 -0.0824  0.3353  0.1584
11260SOL    HW134305   6.159   6.142   5.956 -1.6927  1.9120  2.0617
11260SOL    HW234306   6.143   6.113   6.104  0.4341 -2.3148  1.6290
11261SOL     OW34307   6.020   4.438   1.561 -0.2867  0.1400 -0.0479
11261SOL    HW134308   6.064   4.522   1.548 -1.3358  0.3315 -3.2192
11261SOL    HW234309   5.991   4.412   1.474 -0.6041 -3.2349  0.9011
11262SOL     OW34310   2.263   3.254   3.067  0.1128  0.1956  0.3903
11262SOL    HW134311   2.218   3.292   2.992  0.1808 -1.4810 -0.5426
11262SOL    HW234312   2.355   3.278   3.054  0.0252  0.4876  0.3065
11263SOL     OW34313   3.209   4.270   4.395 -0.6020 -0.0356  0.1656
11263SOL    HW134314   3.132   4.238   4.441 -0.3898 -0.3767  0.2870
11263SOL    HW234315   3.236   4.197   4.338 -0.5393  0.1852 -0.0927
11264SOL     OW34316   7.230   6.259   3.910 -1.3562 -0.6785  0.2430
11264SOL    HW134317   7.250   6.315   3.985 -1.8248 -0.4206  0.1797
11264SOL    HW234318   7.309   6.206   3.898 -0.5508  0.5693 -0.2270
11265SOL     OW34319   1.462   6.413   7.262 -0.2017  0.6813  0.0189
11265SOL    HW134320   1.400   6.398   7.333 -0.3879  1.4737  0.0324
11265SOL    HW234321   1.445   6.343   7.199 -1.4580  1.1718 -0.2109
11266SOL     OW34322   0.537   0.055   4.839 -0.1551  0.4792  0.4811
11266SOL    HW134323   0.465   0.040   4.777 -0.3083  0.6822  0.6075
11266SOL    HW234324   0.606  -0.004   4.809 -1.4292 -2.0654  2.1657
11267SOL     OW34325   3.370   2.139   6.561 -0.0745  0.3641  0.4608
11267SOL    HW134326   3.356   2.106   6.472  0.7898 -0.4666  0.6176
11267SOL    HW234327   3.445   2.198   6.552  1.8178 -1.7990  1.0498
11268SOL     OW34328   7.262   0.090   5.747  0.1546  0.2875  0.1474
11268SOL    HW134329   7.221   0.165   5.705  0.5666  0.2472 -0.3312
11268SOL    HW234330   7.348   0.082   5.704  0.9826  0.8219  1.6091
11269SOL     OW34331   2.789   5.129   0.751  0.2535  0.6561 -0.1401
11269SOL    HW134332   2.859   5.077   0.711  2.1795  1.9907  1.3035
11269SOL    HW234333   2.788   5.099   0.842 -0.7118  1.0283 -0.0238
11270SOL     OW34334   1.060   0.168   2.737  0.1725  0.0087 -0.1530
11270SOL    HW134335   1.056   0.078   2.706  3.8922  0.1626 -1.6449
11270SOL    HW234336   1.127   0.167   2.805 -0.1629  1.5551  0.2392
11271SOL     OW34337   5.771   4.761   4.723  0.1791 -0.0332 -0.0154
11271SOL    HW134338   5.773   4.791   4.814 -0.8360 -1.2592  0.4515
11271SOL    HW234339   5.742   4.837   4.673  1.5775  0.9048  0.5565
11272SOL     OW34340   1.545   0.926   2.067  0.5801 -0.3582  0.3753
11272SOL    HW134341   1.539   0.850   2.125  1.2890 -1.6859 -1.1810
11272SOL    HW234342   1.563   0.888   1.981  0.0121  1.5414 -0.6449
11273SOL     OW34343   2.076   5.007   2.094 -0.3189 -0.4696 -0.4965
11273SOL    HW134344   2.117   5.047   2.017  2.6783 -0.4014  1.0111
11273SOL    HW234345   2.099   4.915   2.088  2.4272 -0.0394  1.6391
11274SOL     OW34346   2.051   7.481   1.470  0.2868 -0.0439  0.1064
11274SOL    HW134347   2.120   7.460   1.408 -0.7374 -0.8128 -0.8242
11274SOL    HW234348   1.986   7.411   1.458 -1.4110  1.5135 -0.2319
11275SOL     OW34349   6.129   4.026   3.953  0.8877 -0.2014  0.2221
11275SOL    HW134350   6.159   3.972   3.879  0.1529 -0.2508 -0.0410
11275SOL    HW234351   6.197   4.014   4.019  0.6119 -1.6928  0.2801
11276SOL     OW34352   7.040   6.950   4.695 -0.4791  0.1916 -0.4758
11276SOL    HW134353   6.963   6.895   4.683  1.2018 -1.9562 -2.2563
11276SOL    HW234354   7.113   6.889   4.701  1.3279  2.1793 -0.7886
11277SOL     OW34355   2.304   0.144   3.304  0.4651 -0.6049  0.0346
11277SOL    HW134356   2.230   0.158   3.364  0.5566  0.1297 -0.0093
11277SOL    HW234357   2.264   0.141   3.217  0.4866 -0.1152  0.0023
11278SOL     OW34358   2.209   3.240   3.490 -0.1634  0.0740 -0.3894
11278SOL    HW134359   2.203   3.275   3.401 -0.1973  0.0813 -0.3844
11278SOL    HW234360   2.146   3.168   3.492  0.5779 -0.5914 -0.6719
11279SOL     OW34361   4.971   2.687   5.294  0.2309 -0.0552 -0.4727
11279SOL    HW134362   4.938   2.623   5.357  0.4458  0.4702  0.1819
11279SOL    HW234363   5.042   2.641   5.249  0.6445 -0.1487  0.2690
11280SOL     OW34364   3.494   7.352   2.747 -0.0376  0.0174  0.2141
11280SOL    HW134365   3.411   7.398   2.762  0.4330  1.1730 -0.5459
11280SOL    HW234366   3.499   7.340   2.652  0.1275 -1.1088  0.3500
11281SOL     OW34367   1.010   3.893   1.912  0.5188  0.0366 -0.5088
11281SOL    HW134368   0.987   3.834   1.984 -1.4949 -1.0205 -1.9383
11281SOL    HW234369   1.078   3.950   1.949  1.0965 -1.8469  1.5459
11282SOL     OW34370   4.399   6.689   0.844 -0.4350 -0.1107  0.2436
11282SOL    HW134371   4.488   6.715   0.868 -1.1230  1.5022  1.2216
11282SOL    HW234372   4.389   6.720   0.754  0.3275 -1.2776 -0.2701
11283SOL     OW34373   3.168   4.136   1.350  0.0790 -0.4111 -0.3210
11283SOL    HW134374   3.174   4.123   1.255  0.1463  1.6755 -0.6489
11283SOL    HW234375   3.087   4.092   1.375 -0.2824 -0.4312 -1.4679
11284SOL     OW34376   2.226   2.044   2.687  0.5534  0.0957  0.7290
11284SOL    HW134377   2.185   2.130   2.694 -1.5608 -0.8750  1.1554
11284SOL    HW234378   2.196   1.996   2.764  2.6987 -0.6722  1.1695
11285SOL     OW34379   7.430   0.732   2.316  0.2043 -0.2625 -0.3289
11285SOL    HW134380   7.497   0.762   2.378 -0.5353  1.1258 -0.1730
11285SOL    HW234381   7.348   0.738   2.364 -0.1953 -0.7322 -0.9350
11286SOL     OW34382   6.347   3.800   1.245 -0.6138 -0.1638  0.2025
11286SOL    HW134383   6.427   3.756   1.218 -2.1080 -2.4002 -0.8368
11286SOL    HW234384   6.318   3.753   1.323 -1.1618  0.3154  0.2985
11287SOL     OW34385   7.197   3.167   2.878 -0.0750  0.3637 -0.0476
11287SOL    HW134386   7.131   3.133   2.817  0.2026 -0.2918  0.0076
11287SOL    HW234387   7.151   3.173   2.962 -0.2083  0.4019 -0.1233
11288SOL     OW34388   4.310   6.004   3.136  0.5623 -0.6590  0.2813
11288SOL    HW134389   4.246   6.049   3.080  1.5662  0.1118 -0.2809
11288SOL    HW234390   4.363   5.952   3.076  0.9201 -0.7269  0.6479
11289SOL     OW34391   1.748   1.449   2.878  0.0910 -0.3641  0.1447
11289SOL    HW134392   1.666   1.499   2.886  0.0953 -0.3283 -0.0220
11289SOL    HW234393   1.809   1.494   2.936  0.4516  0.5820 -0.9172
11290SOL     OW34394   2.598   2.473   3.690  0.0857 -0.5403  0.2772
11290SOL    HW134395   2.544   2.409   3.736 -1.8625 -1.9845 -3.6304
11290SOL    HW234396   2.682   2.428   3.677  0.1720 -0.6443  1.1334
11291SOL     OW34397   2.585   6.135   1.209 -0.1180 -0.4476 -0.0437
11291SOL    HW134398   2.649   6.204   1.230 -0.4056  0.3534 -1.6592
11291SOL    HW234399   2.638   6.065   1.171  0.2186 -1.3085  1.9019
11292SOL     OW34400   5.035   2.707   6.650 -0.1109 -0.2726  0.8390
11292SOL    HW134401   5.095   2.767   6.693 -0.2227 -0.4563  1.2526
11292SOL    HW234402   4.957   2.706   6.706  0.2108 -1.4397  1.2919
11293SOL     OW34403   5.124   3.050   7.340  0.4394  0.3418  0.0138
11293SOL    HW134404   5.194   3.050   7.275 -0.5896 -1.0890 -1.1695
11293SOL    HW234405   5.139   2.971   7.391  0.5042  0.7927  0.7026
11294SOL     OW34406   2.945   4.642   1.370  0.0091 -0.1307  0.1353
11294SOL    HW134407   2.867   4.590   1.353 -0.3214  0.7226 -1.1068
11294SOL    HW234408   2.912   4.723   1.408  0.0187  1.1144 -2.3060
11295SOL     OW34409   1.829   2.487   3.126  0.0089  0.5213 -0.5299
11295SOL    HW134410   1.826   2.582   3.140 -0.1245  0.4885 -0.3339
11295SOL    HW234411   1.800   2.474   3.036 -0.2981  0.6402 -0.4487
11296SOL     OW34412   2.424   2.241   7.073  0.7824  0.0920  0.6328
11296SOL    HW134413   2.461   2.193   6.999 -0.2878  0.2779 -0.0491
11296SOL    HW234414   2.472   2.324   7.075 -0.6294  1.0399 -1.2820
11297SOL     OW34415   2.869   1.221   0.593 -0.5299  0.0323 -0.2023
11297SOL    HW134416   2.923   1.260   0.524  2.6915  0.1638  2.1444
11297SOL    HW234417   2.785   1.266   0.587  0.9105  2.7575 -1.6225
11298SOL     OW34418   4.590   5.748   1.762  0.3409 -0.0322  0.0190
11298SOL    HW134419   4.532   5.786   1.696  0.1265 -1.8956 -0.9372
11298SOL    HW234420   4.534   5.735   1.838 -0.6484 -1.9768 -0.9508
11299SOL     OW34421   0.506   4.660   5.608  0.3095 -0.1513  0.1139
11299SOL    HW134422   0.541   4.571   5.602  2.5139  0.6809 -0.3329
11299SOL    HW234423   0.439   4.664   5.541  2.3724 -0.6007 -2.1178
11300SOL     OW34424   2.724   3.570   3.484  0.4366  0.6456 -1.1220
11300SOL    HW134425   2.695   3.543   3.571 -0.7417  2.5290 -0.8764
11300SOL    HW234426   2.725   3.489   3.433  1.4862 -0.5582  0.7005
11301SOL     OW34427   5.671   5.578   4.628  0.3562 -0.0248  0.1337
11301SOL    HW134428   5.629   5.580   4.714 -0.9036 -0.2016 -0.4592
11301SOL    HW234429   5.601   5.554   4.568  0.8088  1.6715 -1.1627
11302SOL     OW34430   4.872   3.694   4.684 -0.5863 -0.1035 -0.0379
11302SOL    HW134431   4.937   3.625   4.700 -1.2935 -1.1592 -1.4394
11302SOL    HW234432   4.900   3.767   4.738  0.9463 -1.0388  0.4918
11303SOL     OW34433   2.727   4.789   2.460 -0.1957 -0.0757 -0.0155
11303SOL    HW134434   2.725   4.774   2.365  0.8515 -0.6291  0.0375
11303SOL    HW234435   2.690   4.709   2.497 -2.0627  0.7402  0.0281
11304SOL     OW34436   6.868   4.432   0.810  0.2709  1.0001  0.0171
11304SOL    HW134437   6.866   4.336   0.813  0.6460  0.9586 -0.7535
11304SOL    HW234438   6.894   4.458   0.898 -1.9064  0.4932  0.8786
11305SOL     OW34439   3.648   5.605   6.747  0.4187  0.3189  0.2720
11305SOL    HW134440   3.555   5.598   6.767  0.2913  1.0806 -0.0089
11305SOL    HW234441   3.688   5.640   6.827  0.3991  0.4031  0.2445
11306SOL     OW34442   4.760   0.834   5.058  0.2020 -0.1143 -0.0232
11306SOL    HW134443   4.720   0.829   4.972 -0.2789 -0.4970  0.2217
11306SOL    HW234444   4.848   0.869   5.042  0.7782 -1.8755 -0.8643
11307SOL     OW34445   1.688   3.366   5.518 -0.1941 -0.3820  0.4372
11307SOL    HW134446   1.678   3.420   5.596  0.5952 -0.1569  0.3910
11307SOL    HW234447   1.652   3.419   5.447  1.3884  0.4943  0.2397
11308SOL     OW34448   0.716   7.176   2.645 -0.1573  1.0581 -0.4532
11308SOL    HW134449   0.711   7.091   2.690  2.3415  1.2231  0.2739
11308SOL    HW234450   0.683   7.239   2.709  2.6061  1.1795  1.0247
11309SOL     OW34451   1.243   1.202   7.293 -0.0824 -0.4233 -0.4528
11309SOL    HW134452   1.303   1.142   7.336 -0.1012 -0.4777 -0.5029
11309SOL    HW234453   1.300   1.255   7.236  0.0275  0.0492  0.0791
11310SOL     OW34454   1.213   4.350   3.054 -0.4021 -0.3193 -0.2054
11310SOL    HW134455   1.265   4.277   3.020 -1.4228 -0.3165 -1.8934
11310SOL    HW234456   1.167   4.384   2.978  0.3176  2.3773  0.4400
11311SOL     OW34457   0.298   4.121   6.470 -0.2757  0.0707  0.7614
11311SOL    HW134458   0.235   4.183   6.507  0.1827 -0.1268  1.9263
11311SOL    HW234459   0.357   4.175   6.417 -0.8122  0.4001  0.5005
11312SOL     OW34460   5.316   4.538   4.072 -0.0432  0.4414 -0.0370
11312SOL    HW134461   5.243   4.478   4.059 -1.2532  2.0332 -1.0582
11312SOL    HW234462   5.366   4.533   3.990 -0.0795  0.7253 -0.0780
11313SOL     OW34463   0.570   5.968   7.231 -0.1638 -0.5142 -0.1555
11313SOL    HW134464   0.514   6.029   7.184 -1.6782 -0.9685  0.9951
11313SOL    HW234465   0.540   5.881   7.204 -0.6348 -0.7748  1.1317
11314SOL     OW34466   6.820   2.073   3.377 -0.0917 -0.1097 -0.0059
11314SOL    HW134467   6.862   2.125   3.446 -1.1128  0.4752  0.1941
11314SOL    HW234468   6.810   1.986   3.416 -1.0502  0.3236  0.7607
11315SOL     OW34469   3.788   3.780   5.923 -0.0401 -0.2056 -0.0495
11315SOL    HW134470   3.724   3.827   5.869  0.5274  0.7610  0.0950
11315SOL    HW234471   3.870   3.825   5.907  0.5379 -1.1892  0.0721
11316SOL     OW34472   2.588   0.988   3.506  0.5867 -0.3366  0.3364
11316SOL    HW134473   2.548   0.931   3.572  0.5940  0.3188  0.9190
11316SOL    HW234474   2.662   0.936   3.472 -0.3209 -1.2742 -0.2497
11317SOL     OW34475   4.140   0.699   0.857  0.0704 -0.1960 -0.1634
11317SOL    HW134476   4.054   0.662   0.875  0.4373 -0.4988  1.1086
11317SOL    HW234477   4.156   0.679   0.765  0.6567 -4.2471  0.5930
11318SOL     OW34478   1.666   4.427   1.013 -0.1195  0.4581  0.4225
11318SOL    HW134479   1.634   4.514   0.988 -0.1022  0.6466  1.0450
11318SOL    HW234480   1.664   4.427   1.109  1.9953  0.5746  0.5175
11319SOL     OW34481   0.496   1.522   1.338 -0.8517 -0.7581  0.4007
11319SOL    HW134482   0.444   1.581   1.282 -1.1711 -1.1188  0.3118
11319SOL    HW234483   0.455   1.528   1.424 -1.6525 -1.7667  0.1125
11320SOL     OW34484   3.747   3.118   1.222  0.5426  0.9646  0.3629
11320SOL    HW134485   3.794   3.035   1.214 -0.6966  0.3895 -1.7976
11320SOL    HW234486   3.695   3.108   1.301  2.3166  0.7395  1.5612
11321SOL     OW34487   2.241   4.990   2.527 -0.0098 -0.0325 -0.5882
11321SOL    HW134488   2.172   5.054   2.513  1.2753  1.6966  0.4756
11321SOL    HW234489   2.270   5.006   2.617  2.1481 -0.2800 -1.1865
11322SOL     OW34490   2.320   2.275   1.652 -0.1011  0.1997  0.0375
11322SOL    HW134491   2.405   2.309   1.625  0.7908 -1.0688  1.1035
11322SOL    HW234492   2.298   2.326   1.731  0.4341 -0.5244  0.6656
11323SOL     OW34493   0.630   7.186   7.182 -0.5584 -0.1492  0.2005
11323SOL    HW134494   0.675   7.232   7.112 -1.4915  1.0275  0.3432
11323SOL    HW234495   0.699   7.139   7.229  0.2032 -0.1221 -0.8729
11324SOL     OW34496   4.143   0.030   0.187  0.2110  0.0859 -0.1156
11324SOL    HW134497   4.101   0.007   0.270  1.6885 -0.9584  0.3989
11324SOL    HW234498   4.235   0.043   0.210  0.3844  1.3192 -1.3582
11325SOL     OW34499   0.272   5.417   0.664  0.5352  0.7497  0.0075
11325SOL    HW134500   0.247   5.507   0.684 -1.4769 -0.1742  2.0741
11325SOL    HW234501   0.192   5.376   0.631  0.5899 -0.9848  1.8358
11326SOL     OW34502   2.616   0.191   0.556  0.2095  0.1145 -0.1304
11326SOL    HW134503   2.683   0.141   0.603  0.7648  0.4244 -0.5766
11326SOL    HW234504   2.666   0.246   0.495 -0.4802 -0.1096 -0.9140
11327SOL     OW34505   4.555   0.881   5.434 -0.1901  0.7539  0.2571
11327SOL    HW134506   4.611   0.931   5.375  0.8275  0.4095  0.9091
11327SOL    HW234507   4.576   0.914   5.521 -0.5616  0.2055  0.5603
11328SOL     OW34508   0.854   5.580   4.537 -0.3218 -0.2947 -0.4327
11328SOL    HW134509   0.766   5.541   4.541 -0.9677  1.1620  0.5575
11328SOL    HW234510   0.838   5.671   4.512  0.7919  0.2887  0.8586
11329SOL     OW34511   3.567   4.683   1.517  0.2618  0.1630  0.4574
11329SOL    HW134512   3.518   4.754   1.476  0.8117  0.5310  0.4301
11329SOL    HW234513   3.527   4.672   1.603 -0.3463 -0.0431  0.1547
11330SOL     OW34514   0.956   5.301   0.958 -0.7612  0.1866 -0.2776
11330SOL    HW134515   0.920   5.259   1.036 -1.0299 -1.3070 -1.1781
11330SOL    HW234516   0.893   5.370   0.937  0.5259  2.3044  2.1901
11331SOL     OW34517   2.102   6.192   2.022  0.4525  0.4768 -0.1433
11331SOL    HW134518   2.177   6.221   2.073  0.4334 -2.8321  2.0822
11331SOL    HW234519   2.135   6.117   1.972 -1.0119 -0.1656 -0.1915
11332SOL     OW34520   5.154   0.541   0.687 -1.0519  0.3391 -0.1969
11332SOL    HW134521   5.128   0.593   0.763 -0.6722  0.7796 -0.3616
11332SOL    HW234522   5.233   0.584   0.654 -0.1825 -0.8911  0.2036
11333SOL     OW34523   5.377   6.854   3.279  0.5823 -0.6758 -0.0500
11333SOL    HW134524   5.365   6.887   3.367 -0.4570  0.0369 -0.4432
11333SOL    HW234525   5.330   6.916   3.223  2.0775 -0.5377 -1.2086
11334SOL     OW34526   3.877   3.103   0.266 -0.0815 -0.5287  0.1631
11334SOL    HW134527   3.917   3.047   0.199 -0.2801 -2.4310  1.5219
11334SOL    HW234528   3.794   3.060   0.287  0.1605 -0.2384  1.8796
11335SOL     OW34529   3.992   3.532   1.019  0.7527  0.0143 -0.1421
11335SOL    HW134530   3.970   3.459   1.077  0.9548 -0.3641 -0.5419
11335SOL    HW234531   4.073   3.568   1.055  0.3648  0.3967  0.3793
11336SOL     OW34532   7.336   4.505   5.806 -0.6287 -0.3417 -0.3315
11336SOL    HW134533   7.428   4.530   5.792 -0.7664  1.4234  1.4672
11336SOL    HW234534   7.313   4.453   5.728  2.0093 -1.2415 -0.6168
11337SOL     OW34535   4.221   6.958   5.830  0.0098  0.2001  0.0736
11337SOL    HW134536   4.143   7.006   5.859  0.2877  2.1738 -2.1165
11337SOL    HW234537   4.280   6.959   5.906 -0.5249  2.2649  0.5285
11338SOL     OW34538   2.450   1.249   4.983  0.0497 -0.5488 -0.0813
11338SOL    HW134539   2.374   1.244   4.925  0.3466  0.2163 -0.5439
11338SOL    HW234540   2.526   1.235   4.926  0.3224 -0.1867  0.1903
11339SOL     OW34541   1.114   7.252   3.029  0.0959  0.6360 -0.0208
11339SOL    HW134542   1.038   7.217   2.983 -1.4557  1.1100  2.0354
11339SOL    HW234543   1.185   7.191   3.009 -0.4302  0.8887 -3.0561
11340SOL     OW34544   7.107   0.110   5.976 -0.5882 -0.1035  0.3271
11340SOL    HW134545   7.187   0.099   5.925 -0.8818 -0.9275  0.0332
11340SOL    HW234546   7.094   0.025   6.019 -1.1366  0.1236  0.6259
11341SOL     OW34547   3.122   3.148   4.886  0.4201 -0.1980 -0.0736
11341SOL    HW134548   3.120   3.130   4.792 -0.2540 -3.8610  0.4851
11341SOL    HW234549   3.043   3.199   4.903 -0.7391 -1.5550 -1.2024
11342SOL     OW34550   4.619   2.413   7.410  0.4770 -0.0306 -0.0275
11342SOL    HW134551   4.535   2.422   7.454  0.3565  2.5904 -0.6281
11342SOL    HW234552   4.601   2.357   7.335 -1.0776  1.4678 -0.8397
11343SOL     OW34553   0.336   1.445   2.973  0.2242 -0.0644  0.4444
11343SOL    HW134554   0.318   1.504   3.046  1.6282  0.1891  0.6043
11343SOL    HW234555   0.407   1.389   3.004  1.2008  0.3901 -0.9114
11344SOL     OW34556   4.614   5.337   1.058 -0.2751  0.3160 -0.1052
11344SOL    HW134557   4.659   5.365   1.138 -0.5537  0.7371 -0.0928
11344SOL    HW234558   4.654   5.389   0.989  1.2907 -1.3884 -0.5380
11345SOL     OW34559   7.499   3.856   4.529  0.2634 -0.0844 -0.2213
11345SOL    HW134560   7.580   3.906   4.523  0.1323  0.1160 -0.3116
11345SOL    HW234561   7.471   3.865   4.621 -0.3799  0.9759 -0.5111
11346SOL     OW34562   5.963   1.007   5.440  0.0834 -0.0304  0.2330
11346SOL    HW134563   6.048   1.052   5.440  0.3159 -0.4666  0.1324
11346SOL    HW234564   5.966   0.952   5.362 -0.2456 -0.1384  0.2980
11347SOL     OW34565   5.512   0.943   4.695 -0.0683  0.2732  0.1514
11347SOL    HW134566   5.546   1.005   4.632 -1.0804  0.0387 -0.6487
11347SOL    HW234567   5.590   0.905   4.736  0.6474 -0.1172 -1.4861
11348SOL     OW34568   1.002   2.182   7.360 -0.8899  0.2155 -0.4022
11348SOL    HW134569   1.050   2.112   7.403  1.3027  3.3181  2.7965
11348SOL    HW234570   1.015   2.166   7.267  2.8827 -1.5347  0.2196
11349SOL     OW34571   6.866   6.839   6.927  0.1875 -0.1362 -0.3693
11349SOL    HW134572   6.826   6.845   7.013 -0.6141 -0.3389 -0.7227
11349SOL    HW234573   6.821   6.766   6.884  1.0839 -0.5055 -0.7002
11350SOL     OW34574   5.089   1.787   5.072 -0.2059 -0.1811  0.5617
11350SOL    HW134575   5.127   1.702   5.093  0.5390 -0.0730 -0.3265
11350SOL    HW234576   5.022   1.800   5.140  1.4372 -0.2956  2.2843
11351SOL     OW34577   5.201   4.482   3.199  0.0295  0.1590 -0.2955
11351SOL    HW134578   5.146   4.466   3.275 -1.6721  0.9757 -1.2979
11351SOL    HW234579   5.142   4.477   3.124  1.2555  1.2643 -1.4058
11352SOL     OW34580   0.890   1.551   2.423 -0.2374  0.3335 -0.0775
11352SOL    HW134581   0.914   1.615   2.356 -0.2144 -0.9627 -1.3493
11352SOL    HW234582   0.863   1.605   2.498  0.3693  1.8226 -0.8751
11353SOL     OW34583   6.575   5.847   6.546  0.0150 -0.5047  0.3814
11353SOL    HW134584   6.660   5.888   6.529 -0.3251 -0.0880 -0.3686
11353SOL    HW234585   6.538   5.832   6.459 -1.2644  0.5600  0.6959
11354SOL     OW34586   5.828   1.045   3.405 -0.6639 -0.9333  0.5062
11354SOL    HW134587   5.867   0.958   3.394  0.5586 -0.5514  1.4980
11354SOL    HW234588   5.800   1.047   3.497  0.1686  0.0077  0.7696
11355SOL     OW34589   1.253   6.005   4.422 -0.1412  0.0626 -0.2648
11355SOL    HW134590   1.339   5.981   4.388 -0.7968 -1.3977 -0.9713
11355SOL    HW234591   1.213   6.058   4.353  0.6789  1.9199  0.6255
11356SOL     OW34592   1.198   1.661   4.689 -0.2942  1.1198  0.0825
11356SOL    HW134593   1.145   1.590   4.727  0.7315  0.6113  0.5793
11356SOL    HW234594   1.145   1.740   4.704 -1.1760  0.5546  0.0643
11357SOL     OW34595   1.241   2.031   6.162 -0.0162  0.1374 -0.2140
11357SOL    HW134596   1.295   2.103   6.195 -1.8537  1.6693 -0.3606
11357SOL    HW234597   1.243   2.039   6.067 -0.7091  0.3944 -0.2151
11358SOL     OW34598   7.385   0.752   1.974 -0.2029  0.2670  0.6238
11358SOL    HW134599   7.429   0.693   1.913  0.1949  0.6839  0.5023
11358SOL    HW234600   7.343   0.817   1.918  1.0814  1.2948  0.8142
11359SOL     OW34601   5.461   1.464   5.655  0.1851 -0.1092  0.0647
11359SOL    HW134602   5.468   1.497   5.744 -1.4249 -0.6098  0.4129
11359SOL    HW234603   5.368   1.444   5.644 -0.2637  2.5937 -2.6846
11360SOL     OW34604   5.415   6.327   6.010 -0.1572  0.7128 -0.2990
11360SOL    HW134605   5.485   6.265   6.030 -1.3673 -0.5292  0.2110
11360SOL    HW234606   5.396   6.369   6.094 -1.3120 -0.3555  0.0043
11361SOL     OW34607   3.358   3.440   4.775  0.2513  0.1192  0.1275
11361SOL    HW134608   3.376   3.414   4.866  1.0424 -2.4899 -0.6790
11361SOL    HW234609   3.429   3.500   4.754 -1.0671  2.4150  1.7868
11362SOL     OW34610   7.026   6.507   4.320  0.0282 -0.1575  0.8200
11362SOL    HW134611   7.101   6.527   4.376  1.0547 -1.4305 -0.0279
11362SOL    HW234612   6.982   6.434   4.364  0.8453 -1.1708  0.0230
11363SOL     OW34613   0.205   5.957   0.030  0.0884  0.2209  0.3311
11363SOL    HW134614   0.200   6.004  -0.053 -2.4091 -0.3504  0.0935
11363SOL    HW234615   0.202   6.026   0.096  1.6467  0.6487  0.0023
11364SOL     OW34616   1.363   1.963   5.424 -0.0262  0.3127  0.3700
11364SOL    HW134617   1.293   1.899   5.440  0.8078 -0.5675  0.5369
11364SOL    HW234618   1.393   1.988   5.512 -0.0698  0.6317  0.2966
11365SOL     OW34619   6.785   4.110   0.388  0.0592  0.0784 -0.3015
11365SOL    HW134620   6.794   4.027   0.342 -1.6636 -0.1790 -0.2297
11365SOL    HW234621   6.840   4.102   0.465  0.2467 -0.8212 -0.5269
11366SOL     OW34622   1.313   0.424   2.420 -0.0825 -0.2470 -0.1761
11366SOL    HW134623   1.318   0.519   2.426  0.3187 -0.3180  0.9071
11366SOL    HW234624   1.221   0.403   2.436 -0.3070 -0.0136 -1.1092
11367SOL     OW34625   1.595   1.249   6.570 -0.2188  0.4443  0.3576
11367SOL    HW134626   1.555   1.301   6.639 -1.7444 -0.0148 -0.1398
11367SOL    HW234627   1.682   1.287   6.558 -0.8480  2.1091  0.8084
11368SOL     OW34628   0.755   6.492   1.088  0.3828  0.0964  0.0887
11368SOL    HW134629   0.813   6.473   1.162  1.2233  0.6552 -0.4099
11368SOL    HW234630   0.748   6.588   1.088 -1.3368  0.0055  0.7302
11369SOL     OW34631   3.503   0.346   7.516  0.2124  0.0489 -0.5191
11369SOL    HW134632   3.599   0.353   7.513  0.1195  1.2990 -1.0523
11369SOL    HW234633   3.482   0.350   7.610  0.7855 -2.4594 -0.2060
11370SOL     OW34634   7.091   3.728   1.368  0.4297 -0.5007 -0.5199
11370SOL    HW134635   7.150   3.667   1.413  0.3518 -1.1351 -1.2746
11370SOL    HW234636   7.114   3.721   1.276 -0.5036 -0.3882 -0.7682
11371SOL     OW34637   6.590   7.081   2.811  0.2848  0.0741 -0.3631
11371SOL    HW134638   6.604   7.101   2.903  1.3589  0.6284 -0.6363
11371SOL    HW234639   6.561   7.163   2.772  0.8282  0.1001 -0.7189
11372SOL     OW34640   3.360   5.641   4.834  0.2597 -0.0985 -0.3645
11372SOL    HW134641   3.313   5.718   4.866  0.9139 -0.5876  2.0227
11372SOL    HW234642   3.450   5.653   4.867  0.6492 -1.3368 -0.9202
11373SOL     OW34643   5.306   4.422   3.479 -0.3438  0.1440  0.2969
11373SOL    HW134644   5.321   4.328   3.492 -0.2408  0.2848  1.3619
11373SOL    HW234645   5.214   4.429   3.455 -0.1385 -0.2930 -0.6191
11374SOL     OW34646   1.069   3.903   4.911 -0.0479 -0.2871  0.0926
11374SOL    HW134647   1.023   3.985   4.926 -3.1189 -1.6415 -1.1781
11374SOL    HW234648   1.035   3.843   4.977  1.5549 -0.8206  0.4919
11375SOL     OW34649   3.712   6.095   4.167  0.2889  0.0891  0.1019
11375SOL    HW134650   3.780   6.145   4.213  0.4745  0.0587 -0.1329
11375SOL    HW234651   3.739   6.004   4.177  1.2917  0.1608 -1.5235
11376SOL     OW34652   4.401   0.303   3.969 -0.2021  0.1994 -0.2584
11376SOL    HW134653   4.470   0.273   4.028 -0.9227  0.0930  0.5374
11376SOL    HW234654   4.432   0.388   3.938 -0.1762  0.6351  0.9061
11377SOL     OW34655   2.257   2.793   4.246 -0.5496 -0.2120 -0.1046
11377SOL    HW134656   2.278   2.750   4.329 -0.6084 -0.0540 -0.0063
11377SOL    HW234657   2.269   2.725   4.180 -1.0195 -0.4900  0.0881
11378SOL     OW34658   4.461   6.665   4.885  0.1223 -0.2982 -0.0498
11378SOL    HW134659   4.506   6.617   4.955 -1.5272 -2.7855 -0.5707
11378SOL    HW234660   4.457   6.755   4.917  0.2641 -1.1564  2.6454
11379SOL     OW34661   5.613   1.600   4.957  0.0775 -0.3893  0.4650
11379SOL    HW134662   5.648   1.591   5.046 -0.3802 -0.7993  0.6027
11379SOL    HW234663   5.525   1.636   4.969 -0.6906 -2.1426  0.2858
11380SOL     OW34664   4.030   4.599   3.317 -0.4159 -0.2790 -0.2243
11380SOL    HW134665   3.956   4.544   3.290  0.1975 -0.6212 -1.2284
11380SOL    HW234666   4.076   4.620   3.236  1.0856 -0.7734  0.4733
11381SOL     OW34667   0.892   3.354   7.558 -0.6583  0.1410 -0.3762
11381SOL    HW134668   0.975   3.401   7.566  0.3347 -1.2376 -1.8457
11381SOL    HW234669   0.913   3.277   7.505 -2.8986 -0.2270 -0.8450
11382SOL     OW34670   5.012   4.873   2.714 -0.6107 -0.3026  0.2792
11382SOL    HW134671   5.080   4.835   2.770  0.1231 -1.8428 -1.5864
11382SOL    HW234672   4.931   4.831   2.743 -0.2166 -1.1901  0.1227
11383SOL     OW34673   4.372   5.097   2.450 -0.1815  0.0970  0.0896
11383SOL    HW134674   4.408   5.010   2.467 -1.1410 -0.2832  0.1915
11383SOL    HW234675   4.439   5.157   2.484  0.2389 -0.5993  0.5206
11384SOL     OW34676   2.954   7.272   4.560 -0.2789  0.5202  0.1511
11384SOL    HW134677   2.984   7.281   4.469 -0.0608 -1.6406 -0.0319
11384SOL    HW234678   2.864   7.240   4.553  0.0447 -0.5363  0.6750
11385SOL     OW34679   3.069   7.005   1.841  0.5662  0.7740  0.0182
11385SOL    HW134680   3.115   7.079   1.881  1.0851  0.2245  0.4674
11385SOL    HW234681   3.112   6.928   1.877  0.3566  0.2491 -0.8183
11386SOL     OW34682   7.180   2.765   2.271 -0.0915  0.1975  0.5317
11386SOL    HW134683   7.232   2.843   2.291 -0.8723  0.7772  0.3454
11386SOL    HW234684   7.190   2.753   2.177  0.6539 -0.3877  0.6834
11387SOL     OW34685   5.714   4.206   0.022  0.1230  0.7199  0.5274
11387SOL    HW134686   5.662   4.240  -0.051  1.4998  0.1626 -0.7621
11387SOL    HW234687   5.685   4.116   0.032  1.0843  0.2839 -0.4602
11388SOL     OW34688   1.539   7.339   2.815  0.0833  0.1772 -0.6815
11388SOL    HW134689   1.604   7.391   2.768 -1.5630  3.0577  0.0056
11388SOL    HW234690   1.485   7.300   2.746  1.3908 -0.8018 -1.2046
11389SOL     OW34691   5.647   4.519   4.642  0.0565  0.6159 -0.3056
11389SOL    HW134692   5.657   4.589   4.706 -0.0795  0.0162  0.3916
11389SOL    HW234693   5.559   4.484   4.659 -0.1523  0.7362 -1.1164
11390SOL     OW34694   0.958   5.163   0.683 -0.0305 -0.1503  0.2708
11390SOL    HW134695   0.939   5.186   0.775  1.4980 -0.7657  0.7673
11390SOL    HW234696   0.875   5.127   0.650 -0.6545  0.2354  1.3498
11391SOL     OW34697   2.697   2.957   3.146  0.3817  0.0726  0.1664
11391SOL    HW134698   2.671   2.978   3.236  1.3081 -0.1893  0.5019
11391SOL    HW234699   2.636   2.888   3.119 -0.2627  0.5478  0.3861
11392SOL     OW34700   5.820   2.030   7.252  0.5455  0.2096 -0.1387
11392SOL    HW134701   5.900   2.076   7.280  1.8544 -1.8201 -0.3311
11392SOL    HW234702   5.783   2.086   7.184  0.7492  2.1265  1.2518
11393SOL     OW34703   7.532   7.272   4.361 -0.5103  0.2996 -0.3464
11393SOL    HW134704   7.507   7.187   4.395  0.3176  0.1408 -0.1193
11393SOL    HW234705   7.449   7.320   4.353 -0.7365  0.5406  2.3891
11394SOL     OW34706   4.253   3.939   6.467  0.3317 -0.3312 -0.0394
11394SOL    HW134707   4.301   3.959   6.547 -1.1091  2.0378  0.3489
11394SOL    HW234708   4.196   3.866   6.491 -0.2510  0.4934  1.2233
11395SOL     OW34709   6.543   6.933   5.752 -0.9409  0.0923  0.0070
11395SOL    HW134710   6.572   6.916   5.841  1.2231  0.1575 -0.6224
11395SOL    HW234711   6.574   7.022   5.733  1.4323 -0.9903 -1.7695
11396SOL     OW34712   3.310   2.509   6.404 -0.3111 -0.2781  0.5401
11396SOL    HW134713   3.347   2.589   6.441  0.4258  0.0881 -0.9165
11396SOL    HW234714   3.218   2.512   6.427 -0.0008  0.2039  1.8300
11397SOL     OW34715   6.295   2.562   0.517 -0.0188  0.6736 -0.1105
11397SOL    HW134716   6.369   2.517   0.557 -0.1101 -0.2816 -0.9726
11397SOL    HW234717   6.290   2.526   0.428  1.2701  3.9410 -1.6925
11398SOL     OW34718   5.082   6.329   5.719  0.4245 -0.0457  0.3896
11398SOL    HW134719   5.082   6.313   5.814  1.0726  0.4403  0.4718
11398SOL    HW234720   5.045   6.248   5.682 -0.3565 -0.0207  1.0853
11399SOL     OW34721   3.323   2.633   5.905  0.1480  0.2157  0.2562
11399SOL    HW134722   3.262   2.571   5.865  0.2777  1.0738 -1.3583
11399SOL    HW234723   3.280   2.660   5.986 -1.2538  0.1923 -0.4527
11400SOL     OW34724   5.691   6.488   6.354 -0.4211  0.7887 -0.7387
11400SOL    HW134725   5.762   6.465   6.414 -0.2235 -0.9211 -1.5487
11400SOL    HW234726   5.735   6.529   6.279 -0.4137  0.7606 -0.7498
11401SOL     OW34727   2.470   3.702   4.660  0.2714  0.1670  0.2219
11401SOL    HW134728   2.443   3.731   4.747 -0.0843  1.1274 -0.1992
11401SOL    HW234729   2.508   3.780   4.619  0.9495 -0.4128 -0.2882
11402SOL     OW34730   2.687   4.732   0.350  1.0283 -0.0544 -0.2889
11402SOL    HW134731   2.627   4.678   0.401  1.3926 -0.0252  0.1738
11402SOL    HW234732   2.694   4.814   0.400  0.1616  0.5923 -1.1885
11403SOL     OW34733   4.647   5.612   2.205 -0.2947  0.4413  0.4004
11403SOL    HW134734   4.613   5.559   2.133 -1.4377  3.1435 -1.2234
11403SOL    HW234735   4.587   5.593   2.278 -0.1307 -1.1047  0.1720
11404SOL     OW34736   5.816   2.229   7.063  0.1044 -0.1758 -0.0995
11404SOL    HW134737   5.893   2.285   7.050 -1.2202  1.5371 -1.0025
11404SOL    HW234738   5.743   2.291   7.069 -1.2623 -1.7755  0.3533
11405SOL     OW34739   1.989   3.769   4.842 -0.2292 -0.1834 -0.4450
11405SOL    HW134740   2.076   3.733   4.855  0.8734  1.7643 -1.8444
11405SOL    HW234741   1.986   3.792   4.749 -1.8565  0.7139 -0.2195
11406SOL     OW34742   0.039   2.535   4.140 -0.0883  0.0972  0.3555
11406SOL    HW134743   0.074   2.604   4.083 -0.7523  0.7049  0.6615
11406SOL    HW234744  -0.043   2.510   4.099  0.1746 -0.5609  0.2207
11407SOL     OW34745   2.999   4.056   0.089 -0.5939 -0.2478 -0.2394
11407SOL    HW134746   2.929   4.083   0.030 -1.7487 -1.9838  0.2510
11407SOL    HW234747   2.955   4.037   0.172  0.4109 -1.4622  0.0519
11408SOL     OW34748   4.214   3.202   1.883  0.2660 -0.2530  0.6977
11408SOL    HW134749   4.203   3.295   1.907  0.4379  0.1034 -0.5353
11408SOL    HW234750   4.307   3.184   1.899  0.3534 -0.0491  0.4403
11409SOL     OW34751   5.337   3.200   0.887 -0.1399 -0.5055 -0.2469
11409SOL    HW134752   5.389   3.244   0.954  0.6113 -1.4611 -0.1809
11409SOL    HW234753   5.293   3.271   0.841 -1.6253  0.1438  1.9933
11410SOL     OW34754   0.951   5.437   5.203 -0.1837  0.0465  0.3597
11410SOL    HW134755   0.934   5.484   5.284 -1.9439  1.2428 -0.6344
11410SOL    HW234756   1.004   5.497   5.150  3.2374 -1.7062  1.4781
11411SOL     OW34757   6.212   6.140   7.036 -0.2134 -0.1010  0.1445
11411SOL    HW134758   6.236   6.165   7.125  0.2189 -1.2068  0.3543
11411SOL    HW234759   6.239   6.049   7.028 -0.7105 -0.1748 -0.9569
11412SOL     OW34760   4.261   0.488   1.311  0.2108 -0.3654 -0.1551
11412SOL    HW134761   4.327   0.507   1.244  0.3946 -1.1805 -0.2151
11412SOL    HW234762   4.225   0.573   1.333 -1.5216 -0.2276 -2.9956
11413SOL     OW34763   2.112   4.316   6.353  0.0015 -0.0290  0.6830
11413SOL    HW134764   2.155   4.358   6.278 -1.4771  0.0461 -0.1627
11413SOL    HW234765   2.172   4.246   6.379  0.0624 -0.7609 -1.2652
11414SOL     OW34766   2.776   7.073   0.325 -0.0453  0.4653  0.5558
11414SOL    HW134767   2.719   7.013   0.373  0.7107 -1.4015 -0.7764
11414SOL    HW234768   2.865   7.046   0.350  0.3064  1.0390 -0.0574
11415SOL     OW34769   7.490   3.452   4.621  0.0858  0.4697  0.0899
11415SOL    HW134770   7.459   3.482   4.536  0.3475 -1.0318 -0.5803
11415SOL    HW234771   7.421   3.476   4.682 -1.2876 -0.6362 -0.9615
11416SOL     OW34772   1.919   4.633   4.824 -0.7421 -0.4532 -0.0962
11416SOL    HW134773   2.002   4.586   4.822 -0.8460 -0.7201  0.8929
11416SOL    HW234774   1.854   4.565   4.845 -1.0906 -0.1060 -0.0351
11417SOL     OW34775   1.034   1.308   4.034  0.1739  0.1836 -0.0774
11417SOL    HW134776   1.011   1.216   4.026 -1.0485  0.4831 -0.1506
11417SOL    HW234777   1.099   1.323   3.965  1.0895 -0.8241  0.5363
11418SOL     OW34778   3.196   5.909   1.994 -0.3127  0.2180 -0.2764
11418SOL    HW134779   3.116   5.864   1.966  0.0034  0.4773 -1.6739
11418SOL    HW234780   3.250   5.840   2.033 -0.7944 -0.1633 -0.2768
11419SOL     OW34781   1.655   4.950   6.591 -0.4399 -0.5530  0.1220
11419SOL    HW134782   1.564   4.941   6.564 -0.6807  0.9521  0.3632
11419SOL    HW234783   1.670   4.875   6.649 -1.6313 -0.6222  0.3606
11420SOL     OW34784   0.923   7.396   3.954  0.7545 -0.0381 -0.0724
11420SOL    HW134785   0.980   7.335   3.906  1.8770  1.1268 -0.2697
11420SOL    HW234786   0.950   7.387   4.045 -0.5970 -1.4068  0.2438
11421SOL     OW34787   3.408   2.113   5.239  0.4417 -0.2237 -0.0113
11421SOL    HW134788   3.422   2.127   5.146  0.8801  1.7184  0.3006
11421SOL    HW234789   3.482   2.157   5.281 -0.5917  0.3327  1.2937
11422SOL     OW34790   5.390   5.151   7.258 -0.0005  0.3212  0.2779
11422SOL    HW134791   5.315   5.142   7.199  0.5705 -0.3392 -0.3752
11422SOL    HW234792   5.359   5.118   7.342  0.0007 -1.4510 -0.3781
11423SOL     OW34793   6.288   0.307   5.883  0.0255  0.2157  0.3280
11423SOL    HW134794   6.283   0.288   5.976 -1.9765 -2.9979 -0.2562
11423SOL    HW234795   6.204   0.347   5.862 -0.6293 -1.4543 -0.4338
11424SOL     OW34796   3.196   0.484   0.642  0.2653  0.0330  0.3957
11424SOL    HW134797   3.225   0.556   0.698  0.6204  0.7522 -0.6855
11424SOL    HW234798   3.119   0.517   0.597  0.2661 -0.3631  0.0940
11425SOL     OW34799   3.173   3.778   7.294 -0.0112  0.3921 -0.4971
11425SOL    HW134800   3.106   3.782   7.363 -0.6764  2.9627 -1.1587
11425SOL    HW234801   3.255   3.797   7.339 -0.3270  1.2248 -0.2415
11426SOL     OW34802   1.670   4.907   7.292 -0.4577  0.0893 -0.0190
11426SOL    HW134803   1.695   4.851   7.218 -0.2957  2.7404 -2.1443
11426SOL    HW234804   1.593   4.954   7.261  0.8847  2.9019  0.5515
11427SOL     OW34805   3.423   5.115   2.909  0.3944 -0.1481  0.3172
11427SOL    HW134806   3.456   5.068   2.832 -0.1862 -0.6656  0.3779
11427SOL    HW234807   3.404   5.046   2.973  0.0497  0.2125  0.6087
11428SOL     OW34808   0.166   6.612   6.648 -0.8064  0.3516 -0.0080
11428SOL    HW134809   0.141   6.697   6.684  0.9241  0.7321  0.3871
11428SOL    HW234810   0.239   6.631   6.590 -0.5157 -0.8518 -0.0639
11429SOL     OW34811   0.542   4.254   6.414 -0.2389  0.0334  0.0902
11429SOL    HW134812   0.607   4.184   6.420  2.0400  1.7061 -2.5421
11429SOL    HW234813   0.557   4.307   6.493  0.6484 -0.3776  0.2079
11430SOL     OW34814   6.271   5.476   0.441 -0.3531 -0.2195 -0.0785
11430SOL    HW134815   6.208   5.468   0.369 -0.8806 -1.9351  0.5253
11430SOL    HW234816   6.356   5.482   0.397 -0.5605 -2.3217 -0.8916
11431SOL     OW34817   3.737   7.206   6.452 -0.2804  0.3044 -0.6090
11431SOL    HW134818   3.712   7.164   6.534  2.3114 -1.6322 -0.7047
11431SOL    HW234819   3.722   7.299   6.468 -0.0462 -0.0263  1.9855
11432SOL     OW34820   2.942   6.662   4.573 -0.4176  0.0104 -0.1358
11432SOL    HW134821   2.878   6.590   4.573 -0.3487 -0.0505 -0.6230
11432SOL    HW234822   2.891   6.739   4.548 -1.0094  0.6115  2.5602
11433SOL     OW34823   0.759   2.567   4.120  0.0314 -0.1795  0.0649
11433SOL    HW134824   0.679   2.558   4.171 -0.8058 -1.8161 -1.4546
11433SOL    HW234825   0.829   2.549   4.182 -0.9017 -1.1148  0.8795
11434SOL     OW34826   0.185   0.063   1.189 -0.0255 -0.0864  0.0844
11434SOL    HW134827   0.163   0.000   1.121  1.0020 -0.3988  0.0404
11434SOL    HW234828   0.202   0.010   1.267  2.0953  0.0090 -0.2637
11435SOL     OW34829   4.295   1.378   2.012 -0.6578  0.0666 -0.2956
11435SOL    HW134830   4.378   1.371   2.060 -0.8739  0.9543  0.2350
11435SOL    HW234831   4.229   1.347   2.075 -0.7338 -0.6426 -0.7183
11436SOL     OW34832   0.536   7.309   0.178  0.6382 -0.1515  0.1730
11436SOL    HW134833   0.518   7.403   0.173 -1.1017 -0.4310  0.5331
11436SOL    HW234834   0.474   7.269   0.117  1.7326 -1.0412 -0.3977
11437SOL     OW34835   4.246   4.376   6.289 -0.2582 -0.3155  0.2362
11437SOL    HW134836   4.236   4.469   6.308  0.2889 -0.1452 -0.2951
11437SOL    HW234837   4.315   4.347   6.350 -0.3061 -0.3364  0.2808
11438SOL     OW34838   2.673   0.547   3.840  0.2667 -0.2381 -0.0796
11438SOL    HW134839   2.686   0.575   3.750 -0.9710 -0.5580 -0.3696
11438SOL    HW234840   2.758   0.563   3.882  1.0110 -0.5488 -1.4045
11439SOL     OW34841   1.786   1.989   0.712 -0.1777 -0.3198  0.0507
11439SOL    HW134842   1.763   1.897   0.724 -0.2184 -0.4858 -1.1694
11439SOL    HW234843   1.876   1.987   0.682  0.1510  0.1094  0.9750
11440SOL     OW34844   2.319   4.177   3.765 -0.5854 -0.0435 -0.2031
11440SOL    HW134845   2.284   4.266   3.767 -2.6362 -0.8028  0.4642
11440SOL    HW234846   2.319   4.153   3.672 -0.9888  0.3100 -0.2977
11441SOL     OW34847   4.760   1.654   3.908  0.2961  0.6680  0.2397
11441SOL    HW134848   4.854   1.643   3.924  0.4171  2.0854  0.6636
11441SOL    HW234849   4.730   1.710   3.980 -0.5475  1.5039 -0.7211
11442SOL     OW34850   6.678   3.846   2.579 -0.3727  0.4957 -0.0819
11442SOL    HW134851   6.634   3.879   2.657  1.8888  2.1776  0.5972
11442SOL    HW234852   6.741   3.782   2.611  0.4797  1.1001 -0.5120
11443SOL     OW34853   1.311   1.027   3.677 -0.2701  0.1138 -0.1011
11443SOL    HW134854   1.247   1.054   3.611  0.8261  0.4012 -1.0666
11443SOL    HW234855   1.258   1.011   3.755 -1.4111  1.2714 -0.5960
11444SOL     OW34856   4.066   3.388   4.000 -0.1353 -0.4009 -0.6960
11444SOL    HW134857   3.998   3.335   3.959 -2.0164  0.4584  1.1503
11444SOL    HW234858   4.094   3.337   4.076 -1.7234  0.9871  0.9015
11445SOL     OW34859   7.107   6.061   3.315  0.1496  0.3270 -0.7546
11445SOL    HW134860   7.190   6.049   3.270  0.0462 -2.7323 -0.3490
11445SOL    HW234861   7.043   6.074   3.245  0.8010  1.8162 -1.1036
11446SOL     OW34862   2.692   1.753   2.993 -0.2591  0.4415  0.0237
11446SOL    HW134863   2.731   1.809   3.060 -2.0461  0.2847  1.2793
11446SOL    HW234864   2.689   1.666   3.032  1.0363 -0.2437 -1.3016
11447SOL     OW34865   6.808   1.677   7.516 -0.2746  0.1617  0.3317
11447SOL    HW134866   6.736   1.616   7.505 -1.4668  1.4606  0.5711
11447SOL    HW234867   6.809   1.697   7.610  0.0995  0.5122  0.2593
11448SOL     OW34868   0.190   1.670   7.056 -0.3286 -0.1499 -0.0093
11448SOL    HW134869   0.243   1.711   6.987 -1.1695  0.1077 -0.5238
11448SOL    HW234870   0.188   1.735   7.127  0.4302 -0.3593  0.2061
11449SOL     OW34871   3.606   5.118   4.579  0.3023 -0.4988 -0.2934
11449SOL    HW134872   3.532   5.140   4.636  1.2261 -2.9631  2.1130
11449SOL    HW234873   3.571   5.056   4.515 -0.0892 -0.2535 -0.3156
11450SOL     OW34874   4.136   4.190   5.668  0.7220  0.1063  0.0084
11450SOL    HW134875   4.188   4.261   5.630 -1.7164  1.0062 -1.9092
11450SOL    HW234876   4.063   4.235   5.712 -0.0248 -1.1526  0.0915
11451SOL     OW34877   1.170   0.118   3.992  0.3036 -0.0371  0.0774
11451SOL    HW134878   1.261   0.117   3.962  0.3121  0.6123  0.0711
11451SOL    HW234879   1.118   0.135   3.914  0.3522  2.0417  0.4347
11452SOL     OW34880   1.905   2.344   1.557 -0.0013  0.4089  0.1344
11452SOL    HW134881   1.916   2.439   1.554 -2.3473  0.7467  0.3284
11452SOL    HW234882   1.921   2.315   1.468 -0.5880  1.1848 -0.2369
11453SOL     OW34883   1.516   4.833   5.066 -0.5617 -0.0913 -0.0968
11453SOL    HW134884   1.466   4.907   5.031 -1.1514 -0.4564 -0.0314
11453SOL    HW234885   1.591   4.874   5.110  0.8686  0.3538 -2.7333
11454SOL     OW34886   0.576   4.248   4.884  0.1544  0.0408  0.0251
11454SOL    HW134887   0.656   4.298   4.865  0.0868  0.3565  0.5489
11454SOL    HW234888   0.608   4.162   4.913  0.4237  0.8745  2.4253
11455SOL     OW34889   6.808   7.481   4.337 -0.4044  0.4192 -0.2550
11455SOL    HW134890   6.718   7.501   4.364 -0.1078  1.1954  0.1816
11455SOL    HW234891   6.849   7.445   4.415 -0.0058  1.1550 -0.1178
11456SOL     OW34892   7.013   3.287   6.978 -0.4429 -0.5332 -0.1735
11456SOL    HW134893   7.028   3.275   6.884  1.3388 -0.6779  0.0872
11456SOL    HW234894   6.979   3.202   7.007  0.8280 -1.1443 -0.3827
11457SOL     OW34895   5.546   1.925   5.607  0.5219  0.5475 -0.7190
11457SOL    HW134896   5.566   1.995   5.544  0.8819  0.5341 -0.6214
11457SOL    HW234897   5.469   1.881   5.570  1.2664 -0.0404 -1.6210
11458SOL     OW34898   1.865   5.536   2.342 -0.3546 -0.9487  0.1380
11458SOL    HW134899   1.795   5.595   2.313 -0.3906 -1.2158 -0.3252
11458SOL    HW234900   1.931   5.593   2.379 -0.2522 -0.5899 -0.5926
11459SOL     OW34901   4.094   6.968   7.375 -0.1220 -0.2658 -0.7318
11459SOL    HW134902   4.160   6.969   7.306 -1.5013  1.6305 -2.1098
11459SOL    HW234903   4.031   6.902   7.348 -0.6970  0.5244 -1.3417
11460SOL     OW34904   7.275   5.860   0.384  0.3639  0.0413 -0.4306
11460SOL    HW134905   7.281   5.937   0.440  0.4692  0.3443 -0.8542
11460SOL    HW234906   7.331   5.880   0.309  1.1142 -0.8172 -0.1221
11461SOL     OW34907   1.961   3.103   4.661 -0.6433 -0.1323  0.0572
11461SOL    HW134908   1.888   3.159   4.684  1.7775  3.5161 -0.3217
11461SOL    HW234909   1.976   3.120   4.568 -0.1462 -1.9107 -0.2212
11462SOL     OW34910   7.406   5.323   0.844 -0.2904 -0.0942 -0.0904
11462SOL    HW134911   7.361   5.335   0.927  0.1200 -1.1775  0.3098
11462SOL    HW234912   7.339   5.289   0.785 -0.2180 -0.9062  0.2728
11463SOL     OW34913   0.668   7.026   2.131 -0.0575  0.1856 -0.9154
11463SOL    HW134914   0.584   7.055   2.095  0.3438  0.5059 -1.6147
11463SOL    HW234915   0.668   7.056   2.222 -0.3104  0.9900 -1.1765
11464SOL     OW34916   4.631   4.363   6.266 -0.1474 -0.0338 -0.3690
11464SOL    HW134917   4.718   4.351   6.303  0.0035  1.1163 -0.3083
11464SOL    HW234918   4.572   4.323   6.330  0.2858 -0.1819 -0.0561
11465SOL     OW34919   0.197   6.725   1.335 -0.1891 -0.1722  0.5104
11465SOL    HW134920   0.139   6.651   1.352  0.0112  0.2084  3.2324
11465SOL    HW234921   0.196   6.777   1.416  0.7882  2.0555 -0.7967
11466SOL     OW34922   4.444   1.015   6.972  0.3771 -0.5979  0.5280
11466SOL    HW134923   4.387   0.970   7.035 -1.4784  0.4389 -0.3199
11466SOL    HW234924   4.466   1.097   7.015 -0.4024 -0.1499  0.0966
11467SOL     OW34925   5.090   1.351   4.619  0.0063 -0.0351 -0.6809
11467SOL    HW134926   5.087   1.256   4.622  2.6410 -0.1560  0.3003
11467SOL    HW234927   5.086   1.373   4.526  1.0111 -1.2070 -1.0191
11468SOL     OW34928   1.644   2.123   0.498  0.7184  0.6029 -0.4207
11468SOL    HW134929   1.691   2.111   0.580  2.8453 -1.0366 -1.7776
11468SOL    HW234930   1.561   2.076   0.511  1.6006 -0.7949  0.3359
11469SOL     OW34931   4.399   6.211   4.068  0.1706  0.2352 -0.1523
11469SOL    HW134932   4.349   6.291   4.081 -0.7021 -0.6282  2.2643
11469SOL    HW234933   4.484   6.229   4.108  0.7952  0.6584 -1.5864
11470SOL     OW34934   4.224   6.533   4.878  0.2930  0.1640 -0.3043
11470SOL    HW134935   4.239   6.448   4.837  0.4959 -0.5066  1.0969
11470SOL    HW234936   4.311   6.572   4.885  0.3175  0.0694 -0.0817
11471SOL     OW34937   3.962   6.055   2.386  0.2286  0.1229 -0.1702
11471SOL    HW134938   3.954   5.981   2.446  1.9612  0.3632  0.4065
11471SOL    HW234939   3.975   6.014   2.300 -0.8777 -0.2177 -0.1924
11472SOL     OW34940   3.002   2.792   0.764  0.3644  0.3440 -0.0174
11472SOL    HW134941   2.973   2.883   0.774  3.6757  1.3468  1.9123
11472SOL    HW234942   2.970   2.747   0.842  1.0724  0.6148  0.4430
11473SOL     OW34943   5.689   7.315   6.476  0.1059  0.5077  0.0857
11473SOL    HW134944   5.720   7.259   6.404  0.0142 -0.7561  0.9808
11473SOL    HW234945   5.702   7.261   6.554 -2.2549  0.8077  0.7451
11474SOL     OW34946   1.387   3.224   3.279  0.1811  0.4610  0.1634
11474SOL    HW134947   1.452   3.199   3.213 -1.0094  1.7438 -1.6072
11474SOL    HW234948   1.311   3.169   3.260 -0.1985  0.8999  0.3720
11475SOL     OW34949   0.385   2.859   3.286 -0.2547 -0.3453  0.1761
11475SOL    HW134950   0.475   2.844   3.316 -0.0488 -1.4017 -0.8696
11475SOL    HW234951   0.376   2.954   3.282  1.1769 -0.2141 -0.6790
11476SOL     OW34952   0.709   6.241   5.858  0.2667  0.2918  0.2707
11476SOL    HW134953   0.626   6.288   5.849  0.3479  0.5811  0.9627
11476SOL    HW234954   0.722   6.199   5.773  0.6160  2.2081 -0.6866
11477SOL     OW34955   5.702   6.990   5.604 -0.2559 -0.2010  0.0854
11477SOL    HW134956   5.743   7.070   5.637 -1.2474  0.7274 -0.8513
11477SOL    HW234957   5.626   6.977   5.661 -0.4195 -0.1418 -0.1168
11478SOL     OW34958   7.310   7.420   4.332  0.1581 -1.0344  0.0483
11478SOL    HW134959   7.269   7.496   4.290 -1.2573 -1.1962  1.0847
11478SOL    HW234960   7.244   7.352   4.327  1.1874 -2.0456 -0.3091
11479SOL     OW34961   7.429   4.602   0.671  0.3252  0.1815  0.3850
11479SOL    HW134962   7.376   4.679   0.653 -0.2213 -0.3877 -0.5229
11479SOL    HW234963   7.519   4.632   0.664  0.1217  0.5734 -0.7073
11480SOL     OW34964   7.386   0.263   2.189 -0.2620 -0.5338 -0.4452
11480SOL    HW134965   7.340   0.221   2.115  0.3866  0.4713 -1.4600
11480SOL    HW234966   7.342   0.347   2.200  0.2397 -0.2837 -0.3027
11481SOL     OW34967   0.973   3.832   0.190 -0.0473  0.2400 -0.0486
11481SOL    HW134968   1.051   3.797   0.234 -0.8199  0.8437  1.9061
11481SOL    HW234969   0.993   3.825   0.096  2.0865 -0.1847  0.3921
11482SOL     OW34970   1.759   6.861   0.733 -0.2373  0.2841  0.5118
11482SOL    HW134971   1.780   6.809   0.811 -0.3722 -0.1593  0.2585
11482SOL    HW234972   1.733   6.796   0.667 -0.0462  0.6485  0.0695
11483SOL     OW34973   7.199   2.866   2.634 -0.3167  0.2826  0.3347
11483SOL    HW134974   7.274   2.889   2.689 -0.6391  0.5713  0.6602
11483SOL    HW234975   7.219   2.904   2.549  0.6011 -0.9216 -0.0117
11484SOL     OW34976   5.036   1.547   3.443 -0.3999  0.8303  0.0157
11484SOL    HW134977   5.009   1.468   3.489  0.1101  0.9833  0.6076
11484SOL    HW234978   5.054   1.518   3.354  1.1060 -0.0302  0.5478
11485SOL     OW34979   1.884   3.411   4.423  0.1292  0.1195  0.3141
11485SOL    HW134980   1.811   3.392   4.363  1.2140 -1.4445 -0.5914
11485SOL    HW234981   1.937   3.476   4.377 -0.3457  0.7837  0.6941
11486SOL     OW34982   6.778   6.492   2.900 -0.5263 -0.0890 -0.0604
11486SOL    HW134983   6.740   6.510   2.814 -0.6054 -0.7904 -0.1797
11486SOL    HW234984   6.723   6.424   2.937 -1.7886  1.6412  1.4516
11487SOL     OW34985   4.107   1.232   0.526 -0.5945 -0.4616 -0.0175
11487SOL    HW134986   4.140   1.282   0.452 -0.0954  0.6628  0.9200
11487SOL    HW234987   4.062   1.157   0.487 -1.9299  1.0429 -1.5256
11488SOL     OW34988   7.442   6.236   7.391 -0.3972  0.0952  0.2789
11488SOL    HW134989   7.434   6.186   7.472 -1.1710 -2.7105 -1.3894
11488SOL    HW234990   7.367   6.296   7.392 -0.6722 -0.2519  1.4027
11489SOL     OW34991   0.293   1.596   0.647  0.4215  0.4755  0.0994
11489SOL    HW134992   0.257   1.539   0.579  0.5953  1.4913 -0.8802
11489SOL    HW234993   0.376   1.627   0.610  0.4564  1.1461  0.7219
11490SOL     OW34994   1.141   1.399   4.269 -0.0469 -0.1910 -0.3172
11490SOL    HW134995   1.073   1.415   4.334  1.0287  1.9916  0.3413
11490SOL    HW234996   1.094   1.391   4.186 -1.1831 -0.0183  0.2957
11491SOL     OW34997   6.720   0.562   3.621  0.0737  0.5981 -0.9495
11491SOL    HW134998   6.758   0.499   3.560  0.5263 -1.6528  1.4956
11491SOL    HW234999   6.629   0.536   3.630  0.5688 -0.6643  1.0634
11492SOL     OW35000   0.529   1.609   7.347 -0.1889 -0.2442  0.3063
11492SOL    HW135001   0.465   1.645   7.408  0.1349  0.8048  0.0519
11492SOL    HW235002   0.612   1.609   7.395  0.0413  0.4668 -0.0697
11493SOL     OW35003   6.466   0.916   5.022  0.2490 -0.1333 -0.3369
11493SOL    HW135004   6.483   0.824   5.045 -2.9269 -0.1527  2.6574
11493SOL    HW235005   6.373   0.918   5.000 -0.1762  2.6423  1.3879
11494SOL     OW35006   2.536   3.199   1.893 -0.1960 -0.1793  0.4623
11494SOL    HW135007   2.613   3.256   1.899 -0.4519  0.0536  2.0784
11494SOL    HW235008   2.565   3.117   1.933 -0.5871 -0.3145  0.4647
11495SOL     OW35009   3.052   2.561   6.469  0.3581  0.1841 -0.0131
11495SOL    HW135010   3.078   2.650   6.493 -3.3340  0.8735  2.0719
11495SOL    HW235011   2.971   2.571   6.420  0.1487 -2.0121 -0.2536
11496SOL     OW35012   5.334   0.004   6.618  0.4953  0.0456  0.2178
11496SOL    HW135013   5.264  -0.059   6.631  0.0527  0.4888  0.0175
11496SOL    HW235014   5.298   0.088   6.647  0.8114  0.3464 -0.2185
11497SOL     OW35015   0.536   0.702   3.068 -0.6385  0.2843  0.6427
11497SOL    HW135016   0.507   0.632   3.126 -1.1625 -0.2268 -0.2120
11497SOL    HW235017   0.506   0.676   2.981 -0.3960  1.3195  0.2237
11498SOL     OW35018   5.590   5.821   1.145 -0.3615  0.0740  0.6312
11498SOL    HW135019   5.513   5.776   1.179 -0.7881 -0.0193 -0.4398
11498SOL    HW235020   5.569   5.914   1.153  0.9047  0.2328  3.7657
11499SOL     OW35021   0.890   2.863   5.709 -0.1499  0.2058 -0.8966
11499SOL    HW135022   0.914   2.954   5.693  1.1431 -0.2368 -1.6357
11499SOL    HW235023   0.804   2.853   5.669 -0.7454  1.3431  0.0637
11500SOL     OW35024   5.798   6.300   0.388  0.3828  0.3338  0.4830
11500SOL    HW135025   5.802   6.271   0.296  0.1163 -1.3047  0.9527
11500SOL    HW235026   5.867   6.366   0.395  0.6262  0.2558 -0.8140
11501SOL     OW35027   6.652   2.439   6.674  0.1147  0.3039 -0.5612
11501SOL    HW135028   6.710   2.366   6.651  1.2179  0.7212  0.7722
11501SOL    HW235029   6.711   2.514   6.686 -0.5341  0.4979  1.8612
11502SOL     OW35030   2.409   6.330   7.060  0.2925  0.5382  0.6679
11502SOL    HW135031   2.367   6.414   7.080  0.1938  0.2389  1.7873
11502SOL    HW235032   2.439   6.339   6.970  2.1908  2.5989  1.4111
11503SOL     OW35033   4.016   6.769   5.612 -1.1033 -0.4024 -0.6832
11503SOL    HW135034   4.062   6.696   5.571  0.2470 -0.0423  0.1243
11503SOL    HW235035   3.934   6.731   5.645 -0.9416 -1.2812 -1.2852
11504SOL     OW35036   4.299   1.567   5.349  0.2657 -0.3197  0.2715
11504SOL    HW135037   4.221   1.600   5.305 -0.5757 -3.2545 -0.6918
11504SOL    HW235038   4.289   1.593   5.440  0.1227  2.5903 -0.4780
11505SOL     OW35039   0.589   2.825   5.911  0.0641  0.5826  0.0440
11505SOL    HW135040   0.512   2.859   5.866 -1.3742 -0.8908  1.2738
11505SOL    HW235041   0.643   2.902   5.929 -0.8973  1.5887 -1.2193
11506SOL     OW35042   4.055   7.242   6.106 -0.1146 -0.4425  0.5962
11506SOL    HW135043   4.032   7.198   6.188  2.2745 -1.9702  0.5572
11506SOL    HW235044   4.027   7.180   6.038 -0.5841  0.0685  0.3177
11507SOL     OW35045   7.451   1.612   2.181 -0.3010  1.0344  0.2777
11507SOL    HW135046   7.374   1.629   2.235  0.3338  0.8405  1.2646
11507SOL    HW235047   7.415   1.577   2.100 -1.1683 -1.6173  1.6931
11508SOL     OW35048   1.907   5.882   2.504  0.4350  0.2441 -0.2675
11508SOL    HW135049   1.873   5.799   2.538  1.9771 -1.1139 -1.8054
11508SOL    HW235050   1.832   5.923   2.462 -0.3000 -0.5146  0.2564
11509SOL     OW35051   5.095   4.208   2.545 -0.0808  0.4855 -0.3051
11509SOL    HW135052   5.123   4.119   2.567  0.6961  0.3432 -1.7540
11509SOL    HW235053   5.010   4.197   2.503  0.3638  0.3400 -1.1816
11510SOL     OW35054   2.180   0.685   3.753 -0.0095  0.5188 -0.1156
11510SOL    HW135055   2.132   0.747   3.809  0.8759  0.9035  0.2365
11510SOL    HW235056   2.214   0.739   3.682  0.7009  0.4258  0.1526
11511SOL     OW35057   3.796   0.171   7.527  0.2295 -0.3923  0.1649
11511SOL    HW135058   3.807   0.262   7.500 -0.3987 -0.2989  0.2008
11511SOL    HW235059   3.823   0.119   7.452 -0.4178 -0.1519 -0.2471
11512SOL     OW35060   0.439   3.646   6.497 -0.5471 -0.0330  0.0482
11512SOL    HW135061   0.461   3.577   6.559 -1.2574 -0.3903 -0.0759
11512SOL    HW235062   0.505   3.713   6.510 -0.2871 -0.4093  0.7049
11513SOL     OW35063   7.426   0.004   7.557 -0.2490  0.0700  0.1474
11513SOL    HW135064   7.514   0.034   7.532 -0.7498  0.0867 -1.8096
11513SOL    HW235065   7.424  -0.088   7.529 -0.9279  0.1408 -0.0449
11514SOL     OW35066   1.461   1.018   3.252 -0.0887  0.3697 -0.4727
11514SOL    HW135067   1.511   1.087   3.296 -3.0505  2.7307 -0.5696
11514SOL    HW235068   1.425   0.966   3.324 -1.3573  1.5812 -0.2056
11515SOL     OW35069   4.341   3.907   3.466 -0.2787 -0.1219 -0.4901
11515SOL    HW135070   4.415   3.884   3.522 -0.6647  0.4314  0.2459
11515SOL    HW235071   4.378   3.966   3.400  0.0411 -0.2663 -0.4406
11516SOL     OW35072   3.616   3.152   2.099  0.0433  0.0523  0.3111
11516SOL    HW135073   3.538   3.122   2.052 -0.0337 -3.2691  2.2387
11516SOL    HW235074   3.689   3.109   2.054  0.2404 -0.7850  1.3935
11517SOL     OW35075   1.687   5.233   2.047  0.2870  0.2587 -0.0344
11517SOL    HW135076   1.680   5.233   2.142 -2.4183  1.7024 -0.1249
11517SOL    HW235077   1.768   5.282   2.029  0.5636  0.4234  1.5163
11518SOL     OW35078   5.678   6.830   2.029  0.0898 -0.4780  0.1280
11518SOL    HW135079   5.772   6.813   2.024  0.1450 -0.0219 -0.4498
11518SOL    HW235080   5.639   6.770   1.967 -0.0154 -0.7529  0.4577
11519SOL     OW35081   5.649   2.776   7.454  0.0735 -0.2758 -0.4493
11519SOL    HW135082   5.615   2.696   7.415 -0.1235  0.8116 -2.6898
11519SOL    HW235083   5.735   2.788   7.414 -0.0848  0.8351 -0.4978
11520SOL     OW35084   4.950   2.625   7.259  0.1463  0.1937 -0.2953
11520SOL    HW135085   4.857   2.627   7.236  0.0935 -0.5509 -0.1536
11520SOL    HW235086   4.965   2.709   7.303 -0.1290  0.9176 -1.5481
11521SOL     OW35087   2.042   1.166   6.422 -0.0225 -0.2147  0.4302
11521SOL    HW135088   2.102   1.120   6.480 -1.3791 -0.3271  1.7923
11521SOL    HW235089   1.990   1.096   6.382  0.5681 -0.1005 -0.5819
11522SOL     OW35090   1.836   4.543   1.564  0.3367  0.5396  0.0472
11522SOL    HW135091   1.829   4.637   1.580  2.2254  0.8241 -0.6056
11522SOL    HW235092   1.849   4.535   1.470 -3.0776 -0.6529 -0.4834
11523SOL     OW35093   3.002   6.581   7.034 -0.0145 -0.3127 -0.2164
11523SOL    HW135094   3.020   6.487   7.030  0.0110 -0.4329  1.7551
11523SOL    HW235095   3.083   6.620   7.067 -0.9404 -0.0055  1.8605
11524SOL     OW35096   4.850   3.890   0.343 -0.0174  0.4483 -0.1627
11524SOL    HW135097   4.791   3.869   0.416  1.1934 -0.9298  0.4728
11524SOL    HW235098   4.925   3.932   0.385 -0.5103  2.2335 -0.9702
11525SOL     OW35099   0.731   2.833   2.994 -0.5079 -0.0500 -0.1091
11525SOL    HW135100   0.756   2.925   2.989  1.8069 -0.4497  2.2158
11525SOL    HW235101   0.737   2.802   2.903  1.7741  1.3648 -0.5171
11526SOL     OW35102   6.713   7.096   0.898 -0.4555  0.0784 -0.1793
11526SOL    HW135103   6.697   7.043   0.820 -1.0035 -0.3621  0.2204
11526SOL    HW235104   6.638   7.078   0.954  0.3011 -0.1958  0.7677
11527SOL     OW35105   7.329   2.786   0.041  0.0571  0.0408  0.4926
11527SOL    HW135106   7.311   2.779   0.135  0.6893  1.4508  0.7484
11527SOL    HW235107   7.328   2.881   0.024 -2.3267 -0.2184 -1.3887
11528SOL     OW35108   3.806   2.677   2.982 -0.0007  0.3959 -0.1202
11528SOL    HW135109   3.741   2.680   3.052 -0.1992  1.7778 -0.3325
11528SOL    HW235110   3.756   2.654   2.903  0.1535 -0.7351  0.0941
11529SOL     OW35111   1.587   2.140   5.576  0.3092  0.2218 -0.4652
11529SOL    HW135112   1.669   2.154   5.529  0.2449  3.3227  0.1033
11529SOL    HW235113   1.560   2.228   5.603 -3.2038 -0.6544 -0.5961
11530SOL     OW35114   2.395   5.090   3.523  0.0100  0.1219  0.3695
11530SOL    HW135115   2.327   5.153   3.549  0.9810  1.6483 -0.6228
11530SOL    HW235116   2.462   5.098   3.591 -0.1526 -0.3155  0.5820
11531SOL     OW35117   5.416   6.713   2.443 -0.1911  0.2932  0.2190
11531SOL    HW135118   5.405   6.785   2.505 -1.2255  0.9335 -0.6638
11531SOL    HW235119   5.486   6.742   2.385  0.0558  0.1544  0.4435
11532SOL     OW35120   5.301   4.615   6.321  0.0052 -0.0755 -0.2061
11532SOL    HW135121   5.338   4.528   6.306  0.4078  0.4173 -2.4087
11532SOL    HW235122   5.335   4.641   6.407  1.7445 -1.1461 -0.5239
11533SOL     OW35123   0.251   0.383   0.870 -0.2901 -0.7335  1.0791
11533SOL    HW135124   0.189   0.455   0.874 -0.6583 -1.0320  0.7694
11533SOL    HW235125   0.323   0.416   0.816  0.1039 -0.1825  1.9163
11534SOL     OW35126   2.039   7.262   3.854  0.0363  0.1248 -0.6404
11534SOL    HW135127   2.031   7.173   3.820  0.9434 -0.7826  1.3480
11534SOL    HW235128   2.131   7.284   3.844  0.5913 -0.5942  1.9822
11535SOL     OW35129   1.008   6.418   5.552  0.6217 -0.0280  0.5893
11535SOL    HW135130   1.075   6.478   5.520  1.1812 -2.0079 -2.3587
11535SOL    HW235131   0.928   6.471   5.558  1.6347  1.5411  0.6318
11536SOL     OW35132   2.187   4.854   6.533  0.4481 -0.2066 -0.2488
11536SOL    HW135133   2.125   4.881   6.601 -0.4979 -2.6267 -0.0691
11536SOL    HW235134   2.160   4.902   6.455 -0.1585  0.5312  0.3933
11537SOL     OW35135   4.379   0.518   0.071 -0.2763  0.6030 -0.1719
11537SOL    HW135136   4.315   0.554   0.009 -2.1807  0.3952  1.5740
11537SOL    HW235137   4.395   0.429   0.039 -2.1037  0.0985  0.2039
11538SOL     OW35138   0.188   4.644   7.172 -0.3421 -0.0706 -0.3346
11538SOL    HW135139   0.206   4.711   7.106 -0.3447 -0.6176 -0.9057
11538SOL    HW235140   0.188   4.562   7.123  1.7378 -0.7501  0.6484
11539SOL     OW35141   5.858   7.391   6.878  0.0373 -0.5109  0.0240
11539SOL    HW135142   5.911   7.438   6.943  0.8061 -0.0384 -0.9210
11539SOL    HW235143   5.874   7.438   6.796 -1.5561 -0.6083 -0.3561
11540SOL     OW35144   0.119   2.045   2.248 -0.2500 -0.2865 -0.6071
11540SOL    HW135145   0.043   2.012   2.201 -0.3263 -0.8344 -0.1027
11540SOL    HW235146   0.136   1.980   2.316  1.8597 -1.2251 -1.9135
11541SOL     OW35147   0.875   5.063   3.160  0.1633  0.2054 -0.1316
11541SOL    HW135148   0.955   5.012   3.151  0.1231  0.4183 -1.9604
11541SOL    HW235149   0.809   5.000   3.189  0.5644 -0.3599 -0.4360
11542SOL     OW35150   1.326   5.965   4.951 -0.4618  0.7218 -0.5214
11542SOL    HW135151   1.381   5.966   4.873 -0.2693 -0.6474 -0.4343
11542SOL    HW235152   1.388   5.952   5.024 -0.8094  0.0292 -0.3403
11543SOL     OW35153   5.743   2.618   1.948 -0.4683  0.0694 -0.2829
11543SOL    HW135154   5.796   2.609   1.868  0.5608  0.9987  0.2642
11543SOL    HW235155   5.776   2.550   2.006 -0.0175  0.4981 -0.0282
11544SOL     OW35156   5.097   5.264   3.965  0.6307 -0.5521  0.0637
11544SOL    HW135157   5.021   5.210   3.986  0.3333  0.1136  0.7694
11544SOL    HW235158   5.105   5.323   4.040  0.5294  0.8449 -0.9912
11545SOL     OW35159   0.916   3.760   5.876  0.2463 -0.4393  0.3980
11545SOL    HW135160   1.003   3.798   5.871  1.1821 -2.6102 -2.4356
11545SOL    HW235161   0.920   3.701   5.951  1.1711 -0.3680  0.4163
11546SOL     OW35162   6.918   7.549   6.212 -0.3778  0.0621  0.0804
11546SOL    HW135163   6.971   7.473   6.238 -2.6977 -1.5465  0.4010
11546SOL    HW235164   6.959   7.623   6.256  2.7093 -0.7267 -1.2123
11547SOL     OW35165   2.282   1.704   3.912  0.3446  0.4463  0.0313
11547SOL    HW135166   2.244   1.706   3.824 -1.2685  0.6254  0.6973
11547SOL    HW235167   2.270   1.613   3.941  0.2538  0.5563  0.3354
11548SOL     OW35168   6.365   6.037   1.093  0.4040  0.1189 -0.1090
11548SOL    HW135169   6.377   6.132   1.089  1.1848  0.0595  0.4970
11548SOL    HW235170   6.422   6.003   1.024 -0.1379  0.1056 -0.5540
11549SOL     OW35171   2.363   6.104   7.544  0.6563  0.1484 -0.1069
11549SOL    HW135172   2.333   6.013   7.548  0.4278  0.2302  0.0431
11549SOL    HW235173   2.347   6.130   7.453 -0.4212  0.4250  0.1565
11550SOL     OW35174   4.643   6.993   4.643  0.0718 -1.2354  0.1648
11550SOL    HW135175   4.706   6.931   4.605  2.8504  2.1084 -1.2898
11550SOL    HW235176   4.644   6.972   4.736  2.5304 -2.1398  0.0360
11551SOL     OW35177   5.792   0.142   4.518 -0.5852  0.8039  0.1570
11551SOL    HW135178   5.778   0.055   4.555 -1.4566  0.0344 -1.8431
11551SOL    HW235179   5.842   0.189   4.585 -0.9752 -0.8877  1.7110
11552SOL     OW35180   6.393   3.181   6.589  0.3695 -0.0804  0.4016
11552SOL    HW135181   6.468   3.240   6.588  1.5007 -1.4862 -0.3383
11552SOL    HW235182   6.318   3.239   6.575  1.5385  1.0548 -1.6646
11553SOL     OW35183   4.859   7.510   2.291 -0.2406  0.1560 -0.2172
11553SOL    HW135184   4.826   7.455   2.220 -0.0319  0.5216 -0.6102
11553SOL    HW235185   4.927   7.564   2.249  0.9896 -0.7100  0.6052
11554SOL     OW35186   2.241   3.852   5.309 -0.1016 -0.4012  0.1208
11554SOL    HW135187   2.243   3.938   5.351 -0.8272  0.4810 -1.5363
11554SOL    HW235188   2.156   3.816   5.334 -0.9871  0.5656 -1.3287
11555SOL     OW35189   2.704   4.460   6.574  0.8883  0.7565 -0.0460
11555SOL    HW135190   2.798   4.443   6.568  0.8125  0.2051  0.2693
11555SOL    HW235191   2.668   4.381   6.615  0.0525  0.2543 -1.6837
11556SOL     OW35192   6.454   7.117   3.294 -0.1503  0.3078 -0.0914
11556SOL    HW135193   6.457   7.200   3.341 -0.3585  0.4136 -0.2593
11556SOL    HW235194   6.369   7.119   3.249 -0.2635 -0.1016  0.0973
11557SOL     OW35195   6.095   7.160   7.409 -0.2218 -0.2865 -0.1761
11557SOL    HW135196   6.142   7.165   7.326  0.8769  2.2307  0.4870
11557SOL    HW235197   6.012   7.205   7.393 -0.2999 -0.3978 -0.0890
11558SOL     OW35198   3.769   1.668   1.967  0.2055 -0.0006 -0.2854
11558SOL    HW135199   3.780   1.622   2.049  1.9979  1.0359  0.1052
11558SOL    HW235200   3.681   1.706   1.972 -0.8525 -2.2985 -0.1407
11559SOL     OW35201   5.311   6.026   5.052  0.4367  0.6304  0.3923
11559SOL    HW135202   5.345   6.112   5.078 -0.2927  0.6583  1.3128
11559SOL    HW235203   5.216   6.035   5.061  0.4024 -0.5318  1.3335
11560SOL     OW35204   4.219   7.017   0.195 -0.0663  0.1896 -0.4036
11560SOL    HW135205   4.210   7.103   0.236 -2.4170  0.5841 -1.5876
11560SOL    HW235206   4.168   6.958   0.251 -0.4820  0.0607 -0.9136
11561SOL     OW35207   1.320   2.388   2.654  0.1072  0.1320  0.0067
11561SOL    HW135208   1.314   2.431   2.740  0.4424  0.1880  0.0029
11561SOL    HW235209   1.238   2.411   2.611 -1.3170 -2.1040  1.3164
11562SOL     OW35210   4.516   6.521   1.853 -0.1615 -0.1584  0.4588
11562SOL    HW135211   4.606   6.551   1.852 -0.3430  0.4642  1.4321
11562SOL    HW235212   4.464   6.601   1.860 -0.9051 -0.3537 -1.9116
11563SOL     OW35213   2.494   0.407   7.384  0.1572  0.6445  0.5003
11563SOL    HW135214   2.555   0.472   7.350  0.9755  1.3781  3.0924
11563SOL    HW235215   2.543   0.325   7.385  1.2092  1.2326  2.5820
11564SOL     OW35216   4.006   0.230   1.107 -0.2587 -0.1897 -0.0162
11564SOL    HW135217   4.030   0.321   1.089 -0.6181 -0.3419 -1.4395
11564SOL    HW235218   3.921   0.219   1.064 -0.5483 -1.0019  0.7474
11565SOL     OW35219   1.610   4.771   4.025 -0.1842  0.7613  0.0005
11565SOL    HW135220   1.609   4.708   3.953  0.3481 -1.2704  1.6758
11565SOL    HW235221   1.688   4.748   4.076 -0.5288  2.1403  1.2173
11566SOL     OW35222   6.992   4.369   2.358 -0.4073 -0.2066  0.5429
11566SOL    HW135223   7.020   4.459   2.341  0.5433 -0.6319 -0.2105
11566SOL    HW235224   7.014   4.321   2.278 -2.1003 -0.8589  0.4158
11567SOL     OW35225   0.937   1.618   0.402  0.3000  0.3171  0.1856
11567SOL    HW135226   0.924   1.647   0.492 -0.2858  0.6119  0.0081
11567SOL    HW235227   1.029   1.591   0.399  0.3099  0.2614  0.8801
11568SOL     OW35228   0.826   2.247   2.517  0.1063  0.8087 -0.0458
11568SOL    HW135229   0.853   2.284   2.601 -0.1677  0.2878  0.2771
11568SOL    HW235230   0.907   2.241   2.466  0.4881 -0.0264  0.6323
11569SOL     OW35231   3.022   1.657   3.525  0.1780  0.2413 -0.5427
11569SOL    HW135232   2.954   1.718   3.550  1.2792  0.5247  2.1054
11569SOL    HW235233   3.064   1.697   3.448 -2.3482  0.1784 -2.0559
11570SOL     OW35234   3.204   0.772   0.821  0.2010  0.5828  0.2922
11570SOL    HW135235   3.273   0.793   0.758  0.6786  1.0917  0.9776
11570SOL    HW235236   3.130   0.826   0.794  0.8882  1.9332  1.0456
11571SOL     OW35237   0.955   1.778   5.275  0.3830 -0.1337  0.2016
11571SOL    HW135238   0.863   1.801   5.261  0.3368  1.1062  2.1237
11571SOL    HW235239   0.998   1.801   5.193 -0.9596 -0.3754 -0.5957
11572SOL     OW35240   3.475   0.159   1.544 -0.4003 -0.1438  0.4613
11572SOL    HW135241   3.535   0.191   1.611 -0.2989 -0.1238  0.3613
11572SOL    HW235242   3.417   0.098   1.590  0.5487 -1.2162  0.3023
11573SOL     OW35243   0.160   7.448   6.159  0.4504  0.1060  0.2695
11573SOL    HW135244   0.182   7.487   6.074  2.4261 -1.9850 -0.2611
11573SOL    HW235245   0.228   7.479   6.218 -0.8300  1.4271  1.1320
11574SOL     OW35246   2.559   1.220   1.060 -0.0978  0.5045 -0.2573
11574SOL    HW135247   2.472   1.260   1.060  0.4501  1.8174 -1.2950
11574SOL    HW235248   2.584   1.219   0.967  1.1649  0.5802  0.0651
11575SOL     OW35249   5.772   6.760   5.916 -0.1590 -0.4399 -0.1826
11575SOL    HW135250   5.698   6.700   5.926 -0.3848  0.1202  1.9155
11575SOL    HW235251   5.790   6.760   5.822 -0.2276 -3.6366 -0.3034
11576SOL     OW35252   7.508   0.578   1.765 -0.4299  0.7462  0.2756
11576SOL    HW135253   7.446   0.520   1.722  0.2534 -0.8446  1.3294
11576SOL    HW235254   7.594   0.544   1.741  0.0183  1.8835  0.1984
11577SOL     OW35255   0.223   3.598   6.342  0.5545 -0.0900  0.4128
11577SOL    HW135256   0.165   3.564   6.410 -1.8440  1.7761 -0.5662
11577SOL    HW235257   0.300   3.630   6.389  0.8585 -2.5131  1.7652
11578SOL     OW35258   1.504   2.688   1.588 -0.5460  0.4845 -1.0926
11578SOL    HW135259   1.416   2.725   1.598 -0.7645  0.2166 -1.9022
11578SOL    HW235260   1.501   2.606   1.638 -0.5258  0.8355 -0.5153
11579SOL     OW35261   3.732   6.112   6.808 -0.2007  0.4001 -0.7356
11579SOL    HW135262   3.767   6.190   6.851  0.5599  0.2375 -1.0429
11579SOL    HW235263   3.810   6.065   6.778 -0.2973 -2.4300  2.7270
11580SOL     OW35264   2.157   3.543   2.327 -0.4359  0.4373  0.0598
11580SOL    HW135265   2.163   3.526   2.421  1.7301 -1.0570 -0.2754
11580SOL    HW235266   2.135   3.458   2.289  1.6066  0.3183 -0.9715
11581SOL     OW35267   5.595   2.086   2.014  0.6569  0.3187  0.5079
11581SOL    HW135268   5.599   2.079   2.109 -1.7059  3.2055  0.9930
11581SOL    HW235269   5.679   2.125   1.988  0.4530  1.6212  1.7352
11582SOL     OW35270   1.317   4.917   5.517 -0.2862 -0.0119 -0.4098
11582SOL    HW135271   1.368   4.992   5.549  0.2316 -0.7855  0.6287
11582SOL    HW235272   1.333   4.848   5.581  0.0965 -1.3775 -1.9036
11583SOL     OW35273   1.476   5.941   1.113 -0.2720  0.0396  0.5051
11583SOL    HW135274   1.422   6.017   1.133  0.7034  0.5731  1.2172
11583SOL    HW235275   1.438   5.869   1.164 -2.5466 -0.5717 -1.8245
11584SOL     OW35276   1.356   1.491   2.989  0.6779  0.1793  0.2837
11584SOL    HW135277   1.275   1.536   3.012  1.8548  1.4650  2.1501
11584SOL    HW235278   1.376   1.521   2.900 -1.7590 -1.5715 -0.9650
11585SOL     OW35279   1.719   6.151   2.572 -0.0218  0.3580 -0.1306
11585SOL    HW135280   1.743   6.149   2.480 -2.0382  2.5881 -0.8048
11585SOL    HW235281   1.756   6.233   2.605 -1.3682  0.7916  0.3659
11586SOL     OW35282   5.560   7.028   5.377  0.7151  0.3418 -0.1320
11586SOL    HW135283   5.602   7.026   5.463 -0.1168  1.4765  0.3246
11586SOL    HW235284   5.488   6.966   5.384  1.1228 -0.1548 -0.2783
11587SOL     OW35285   5.687   0.115   0.454  0.6259  0.3712 -0.1310
11587SOL    HW135286   5.629   0.189   0.471 -0.5846 -0.9130  1.6195
11587SOL    HW235287   5.645   0.067   0.383  0.5270  0.4593 -0.1316
11588SOL     OW35288   1.404   5.379   3.105  0.0766  0.1231  0.5006
11588SOL    HW135289   1.399   5.369   3.200  1.4256  2.9596  0.9887
11588SOL    HW235290   1.319   5.416   3.081 -0.1069 -0.1745  0.6862
11589SOL     OW35291   4.192   1.405   1.337 -0.2364  0.2700  0.0556
11589SOL    HW135292   4.243   1.433   1.413  0.0798  1.4823 -0.5707
11589SOL    HW235293   4.159   1.486   1.299 -3.7507 -0.4986  1.1467
11590SOL     OW35294   3.642   4.964   5.027  0.5756 -0.0184 -0.3265
11590SOL    HW135295   3.611   4.936   5.113  0.7492 -0.0640 -0.2786
11590SOL    HW235296   3.571   4.939   4.967  0.0794  0.7859 -0.0901
11591SOL     OW35297   0.217   1.744   6.481 -0.3898 -0.3708 -0.7056
11591SOL    HW135298   0.252   1.720   6.395  1.0386 -1.7934  0.2073
11591SOL    HW235299   0.286   1.800   6.519 -0.4701 -0.7158 -0.0443
11592SOL     OW35300   6.736   0.315   6.350  0.1882  0.0294  0.4108
11592SOL    HW135301   6.692   0.263   6.283  0.3508 -0.4963  0.7074
11592SOL    HW235302   6.819   0.342   6.309 -0.1298  0.5046  0.0708
11593SOL     OW35303   1.759   7.252   5.155  0.1137  0.3748  0.2416
11593SOL    HW135304   1.810   7.332   5.148  0.0071  0.4045 -0.2288
11593SOL    HW235305   1.715   7.258   5.240 -1.2781  1.6476 -0.5279
11594SOL     OW35306   0.436   0.561   5.623  0.5785 -0.2503 -0.5817
11594SOL    HW135307   0.359   0.519   5.662  0.1492 -0.5677 -1.7234
11594SOL    HW235308   0.400   0.635   5.574  1.1468  0.3845 -0.0589
11595SOL     OW35309   1.951   0.902   4.891 -0.0486 -0.1775  0.4118
11595SOL    HW135310   1.900   0.823   4.876  0.0230 -0.3761  1.1969
11595SOL    HW235311   1.908   0.946   4.964 -0.0470  0.4749  0.0285
11596SOL     OW35312   5.679   7.172   4.096  0.1358 -0.5493 -0.4330
11596SOL    HW135313   5.661   7.236   4.027  0.1097 -0.3585 -0.2476
11596SOL    HW235314   5.720   7.099   4.049 -1.5764 -1.2347 -0.9643
11597SOL     OW35315   5.170   6.608   2.331 -0.3994 -0.1497 -0.0557
11597SOL    HW135316   5.097   6.623   2.390  0.8118  1.6782  1.0904
11597SOL    HW235317   5.240   6.664   2.365  1.3500 -1.3850 -1.4408
11598SOL     OW35318   5.711   1.673   5.976 -0.2015  0.4654  0.2276
11598SOL    HW135319   5.665   1.752   6.003  1.2159  1.1297  0.7863
11598SOL    HW235320   5.693   1.610   6.046 -0.6798  0.5386  0.1746
11599SOL     OW35321   2.832   0.155   3.795 -0.2677 -0.2390  0.0470
11599SOL    HW135322   2.794   0.163   3.708 -0.9676  1.0830  0.4397
11599SOL    HW235323   2.900   0.223   3.798 -1.0883  0.5818  0.9142
11600SOL     OW35324   3.437   2.049   0.082 -0.0304  0.2676  0.2451
11600SOL    HW135325   3.501   1.981   0.061 -0.2679 -0.3809  1.5446
11600SOL    HW235326   3.490   2.123   0.111  0.1699  0.1120  0.2821
11601SOL     OW35327   7.104   2.296   6.268 -0.8072 -0.5463 -0.3848
11601SOL    HW135328   7.047   2.371   6.287  1.6318  1.4376 -0.3160
11601SOL    HW235329   7.099   2.286   6.173  0.3102  1.0446 -0.6477
11602SOL     OW35330   6.437   3.291   0.853  0.5903 -0.3105  0.2143
11602SOL    HW135331   6.518   3.241   0.857  1.0383  0.4412  0.7969
11602SOL    HW235332   6.388   3.250   0.782  2.1244  0.1459 -1.1865
11603SOL     OW35333   5.778   1.326   1.148 -0.4389  0.4624 -0.4631
11603SOL    HW135334   5.697   1.329   1.199 -0.0698  1.1927  0.1058
11603SOL    HW235335   5.844   1.292   1.208 -0.3818 -0.4503 -1.0243
11604SOL     OW35336   4.975   4.596   5.732  0.2430 -0.3469 -0.2398
11604SOL    HW135337   4.977   4.593   5.828  1.3059 -0.4938 -0.2529
11604SOL    HW235338   4.939   4.511   5.707  0.2143 -0.4149  0.0250
11605SOL     OW35339   3.096   0.549   6.535 -0.3604 -0.0086  0.2897
11605SOL    HW135340   3.143   0.609   6.594 -1.0086  1.3122 -0.4815
11605SOL    HW235341   3.162   0.485   6.508  0.3190  0.2581  1.2608
11606SOL     OW35342   3.460   7.407   0.943  0.4090 -0.3005  0.3881
11606SOL    HW135343   3.367   7.400   0.965  0.7885 -1.1383  1.8060
11606SOL    HW235344   3.462   7.469   0.870 -1.3926 -1.2300 -0.5442
11607SOL     OW35345   5.958   7.476   0.548 -0.0287  0.0701  0.0258
11607SOL    HW135346   5.928   7.447   0.462  0.2070  1.5072 -0.5663
11607SOL    HW235347   6.026   7.413   0.572  0.8411  0.3952 -1.4625
11608SOL     OW35348   4.094   3.751   5.495  0.1559  0.5403  0.6594
11608SOL    HW135349   4.058   3.703   5.420 -1.5001  0.6122  1.3624
11608SOL    HW235350   4.188   3.758   5.477  0.0322 -0.7977 -0.6405
11609SOL     OW35351   2.200   3.490   6.998  0.1024  0.0627  0.2614
11609SOL    HW135352   2.183   3.413   6.944  0.8995 -0.5894  0.9116
11609SOL    HW235353   2.237   3.455   7.079 -0.8853  1.0316  1.1638
11610SOL     OW35354   7.198   5.811   2.966  0.0497 -0.2761  0.0266
11610SOL    HW135355   7.218   5.888   2.912  0.8491 -1.1835 -1.0507
11610SOL    HW235356   7.283   5.787   3.004 -0.3305 -0.2279  0.9167
11611SOL     OW35357   0.805   2.955   6.178 -0.4147 -0.0168 -0.1331
11611SOL    HW135358   0.713   2.981   6.185 -0.3830 -0.1617  1.2220
11611SOL    HW235359   0.838   3.003   6.102 -1.4392  0.5555 -0.2442
11612SOL     OW35360   6.265   6.192   2.498  0.5514 -0.1506 -0.1595
11612SOL    HW135361   6.306   6.277   2.479 -0.4291  0.3311 -0.1652
11612SOL    HW235362   6.256   6.191   2.593 -1.0356  0.5287 -0.2777
11613SOL     OW35363   4.612   7.024   3.989 -1.0174 -0.3549  0.0012
11613SOL    HW135364   4.668   6.977   3.927 -1.6847 -2.3303  0.8056
11613SOL    HW235365   4.668   7.038   4.065 -0.6135  0.8219 -0.4928
11614SOL     OW35366   6.961   0.988   6.082  0.0192  0.9200  0.0172
11614SOL    HW135367   7.045   0.961   6.117 -0.8449 -1.2918  0.5573
11614SOL    HW235368   6.908   0.908   6.081 -1.8183  2.0636 -1.0595
11615SOL     OW35369   3.996   5.772   4.810 -0.1941  0.2033  0.4078
11615SOL    HW135370   3.910   5.732   4.794 -0.2884  0.5657  0.0072
11615SOL    HW235371   4.049   5.700   4.846 -0.1848 -0.4511 -0.8626
11616SOL     OW35372   6.737   6.333   3.747  0.1904  0.2282  0.0085
11616SOL    HW135373   6.754   6.239   3.739 -2.1742 -0.0881 -2.9642
11616SOL    HW235374   6.821   6.370   3.775  1.2304 -2.6859  1.1794
11617SOL     OW35375   6.192   2.901   6.652 -0.0347  0.1708 -0.4048
11617SOL    HW135376   6.230   2.815   6.634 -0.6184 -1.1733  3.6714
11617SOL    HW235377   6.252   2.941   6.715 -1.1258  1.6083 -0.2145
11618SOL     OW35378   0.270   5.619   2.719  0.1267  0.3769 -0.0770
11618SOL    HW135379   0.202   5.619   2.786 -1.4500  0.9315 -1.6188
11618SOL    HW235380   0.331   5.687   2.747 -0.0157 -0.0172  1.2488
11619SOL     OW35381   2.790   0.239   5.941  0.1647 -0.1298  0.4969
11619SOL    HW135382   2.695   0.243   5.948  0.0771  0.1294 -0.5661
11619SOL    HW235383   2.809   0.146   5.925  0.0662 -0.1529  0.5165
11620SOL     OW35384   6.402   4.292   7.207 -0.2626  0.4534  0.0970
11620SOL    HW135385   6.366   4.299   7.296  2.3222 -1.4666  1.4356
11620SOL    HW235386   6.473   4.356   7.205 -0.1624  0.3272 -0.4998
11621SOL     OW35387   0.476   1.829   6.573  0.6866  0.2714 -0.0607
11621SOL    HW135388   0.507   1.755   6.625  0.6881  1.6371  1.9998
11621SOL    HW235389   0.550   1.889   6.568 -0.1972  1.5162  1.0182
11622SOL     OW35390   0.743   4.171   6.870 -0.1941 -0.4952 -0.1176
11622SOL    HW135391   0.662   4.163   6.921 -1.3396 -1.9131 -1.9991
11622SOL    HW235392   0.807   4.116   6.916 -0.6390 -0.2685  0.7824
11623SOL     OW35393   4.888   5.529   1.912 -0.1376  0.5914 -0.6921
11623SOL    HW135394   4.876   5.602   1.852  1.5443  1.4044 -0.1083
11623SOL    HW235395   4.945   5.564   1.981  0.1726 -1.0810 -0.0535
11624SOL     OW35396   6.231   3.759   2.391  0.2837 -0.3231  0.4811
11624SOL    HW135397   6.242   3.685   2.332 -0.3346  2.1747 -3.1539
11624SOL    HW235398   6.136   3.771   2.397  0.3735  0.6798  0.1974
11625SOL     OW35399   2.715   0.969   6.587  0.7553  0.2029  0.6214
11625SOL    HW135400   2.751   0.892   6.544 -1.0784 -0.4806  0.2114
11625SOL    HW235401   2.707   1.034   6.517 -0.8550 -0.4140  0.1934
11626SOL     OW35402   2.514   6.319   4.576 -0.1810 -0.0811  0.0120
11626SOL    HW135403   2.440   6.339   4.519 -1.4981 -0.1746  1.6284
11626SOL    HW235404   2.486   6.348   4.662  2.0040  0.6420  0.5448
11627SOL     OW35405   0.971   7.206   3.735  0.4858  0.3626  0.1028
11627SOL    HW135406   1.035   7.140   3.761 -2.4599 -2.9127 -0.2176
11627SOL    HW235407   0.993   7.227   3.644 -0.1199 -2.4555 -0.7830
11628SOL     OW35408   4.643   2.291   5.335 -0.3112  0.7875  0.2310
11628SOL    HW135409   4.598   2.305   5.251 -0.6769  0.5206  0.3746
11628SOL    HW235410   4.598   2.349   5.396  0.5781  1.6961  0.0518
11629SOL     OW35411   2.228   1.567   5.939  0.6895 -0.2232  0.0002
11629SOL    HW135412   2.303   1.621   5.966  0.9144 -1.4855  2.0778
11629SOL    HW235413   2.256   1.477   5.957 -0.8767 -0.8056 -0.3668
11630SOL     OW35414   5.223   0.269   3.063 -0.2524 -0.0052  0.0741
11630SOL    HW135415   5.268   0.335   3.115 -1.4540 -1.6355  3.5212
11630SOL    HW235416   5.155   0.318   3.016  1.4168  1.6650 -0.7145
11631SOL     OW35417   3.777   7.381   4.026  0.1854  0.2413 -0.5140
11631SOL    HW135418   3.774   7.292   3.993  1.9980  0.5321 -1.5711
11631SOL    HW235419   3.861   7.416   3.996 -0.7315  2.5110 -0.6672
11632SOL     OW35420   6.160   1.643   3.161 -0.6015 -0.3324  0.1486
11632SOL    HW135421   6.084   1.585   3.155  0.8802 -2.3838  0.1805
11632SOL    HW235422   6.202   1.619   3.244  0.1176  0.7568  0.1203
11633SOL     OW35423   5.031   3.506   7.307 -0.1578 -0.0750 -0.7161
11633SOL    HW135424   4.992   3.474   7.226  1.2828  0.8636 -1.8313
11633SOL    HW235425   5.113   3.546   7.280  0.2960  0.3962  1.2044
11634SOL     OW35426   5.798   4.666   7.423  0.3302  0.5545 -0.7267
11634SOL    HW135427   5.731   4.599   7.414 -0.0163  0.7982 -0.0504
11634SOL    HW235428   5.840   4.646   7.507 -1.6563  2.7996  0.9553
11635SOL     OW35429   2.776   5.793   5.882  0.2869  0.0885  0.5675
11635SOL    HW135430   2.832   5.868   5.866 -0.9765  1.1513  0.9612
11635SOL    HW235431   2.697   5.810   5.830 -0.7302 -0.0861  1.9740
11636SOL     OW35432   1.603   5.512   5.155 -0.3211 -0.3966  0.5225
11636SOL    HW135433   1.517   5.501   5.196 -0.8727  1.0182 -0.2181
11636SOL    HW235434   1.627   5.602   5.173 -0.3155  0.1077 -1.7156
11637SOL     OW35435   4.875   1.677   0.177 -0.2938 -0.0519  0.7649
11637SOL    HW135436   4.898   1.616   0.106  0.1079 -0.5005  1.2688
11637SOL    HW235437   4.878   1.763   0.136  0.2841 -0.2755  0.3191
11638SOL     OW35438   5.414   2.182   6.159  0.1958 -0.6446  0.4550
11638SOL    HW135439   5.423   2.182   6.063  0.9303 -0.2980  0.5169
11638SOL    HW235440   5.321   2.196   6.174  0.2769  0.8459 -0.2110
11639SOL     OW35441   0.460   0.817   3.824 -0.0638  0.6995 -0.4975
11639SOL    HW135442   0.541   0.827   3.773  0.2033  2.0340  0.1388
11639SOL    HW235443   0.426   0.731   3.798  1.1334  0.4561 -1.3749
11640SOL     OW35444   7.301   5.092   6.469 -0.4683 -0.4510 -0.4554
11640SOL    HW135445   7.369   5.067   6.407  0.7415 -1.1821  1.1090
11640SOL    HW235446   7.308   5.187   6.476  1.6361 -0.6446  0.9774
11641SOL     OW35447   3.877   3.073   3.360 -0.3235  0.2269 -0.1482
11641SOL    HW135448   3.888   3.117   3.444 -0.3752 -1.3554  0.7226
11641SOL    HW235449   3.805   3.120   3.317  0.0558  1.3819  0.4373
11642SOL     OW35450   1.102   0.932   2.713  0.2268 -0.3500  0.3009
11642SOL    HW135451   1.188   0.974   2.703  0.7444 -1.7680 -1.8735
11642SOL    HW235452   1.046   0.979   2.651 -0.2730 -0.2119  0.8532
11643SOL     OW35453   3.331   2.176   0.659  0.2184 -0.1438 -0.0647
11643SOL    HW135454   3.382   2.190   0.739 -0.4507 -2.3291  0.8126
11643SOL    HW235455   3.396   2.159   0.591  0.7395 -1.6133  0.7628
11644SOL     OW35456   4.736   3.337   6.381  0.0319  0.2229 -0.0372
11644SOL    HW135457   4.794   3.313   6.308  0.9802  2.1779  0.0297
11644SOL    HW235458   4.775   3.295   6.458  0.7592  0.6652 -0.1628
11645SOL     OW35459   6.128   0.923   3.830  0.3787  0.5452  0.0473
11645SOL    HW135460   6.179   0.902   3.909  0.5438  3.3341  0.7902
11645SOL    HW235461   6.042   0.884   3.847  1.2576 -1.4623  0.2088
11646SOL     OW35462   3.517   5.855   3.544  0.1641  0.1343 -0.8175
11646SOL    HW135463   3.481   5.778   3.500  1.2237 -0.1709 -1.2057
11646SOL    HW235464   3.442   5.910   3.564 -0.5316 -0.6415 -1.2557
11647SOL     OW35465   0.595   6.839   0.357  0.0880  0.2114 -0.2425
11647SOL    HW135466   0.534   6.913   0.357 -0.4113 -0.1757 -1.8140
11647SOL    HW235467   0.644   6.847   0.275  2.4040  0.6769  1.0969
11648SOL     OW35468   5.260   4.263   1.859  0.3093 -0.1982 -0.3183
11648SOL    HW135469   5.182   4.319   1.865  0.9563  0.7283 -0.3734
11648SOL    HW235470   5.302   4.271   1.944 -1.2904 -3.2339  0.9110
11649SOL     OW35471   3.365   4.245   2.660 -0.2783 -1.2286  0.0492
11649SOL    HW135472   3.446   4.209   2.623  0.7987  0.9601  0.1369
11649SOL    HW235473   3.356   4.201   2.744  2.0638 -0.0403  1.0431
11650SOL     OW35474   5.411   2.276   4.928 -0.2897 -0.3716 -0.0015
11650SOL    HW135475   5.361   2.238   4.857 -2.3919 -0.0472  1.2241
11650SOL    HW235476   5.346   2.298   4.995  1.5121 -0.1340  1.7958
11651SOL     OW35477   4.600   4.608   3.257  0.0858  0.6172 -0.4186
11651SOL    HW135478   4.506   4.592   3.245 -0.1080  0.7871  0.7203
11651SOL    HW235479   4.633   4.525   3.292 -0.0326  1.1656  1.0531
11652SOL     OW35480   3.623   4.066   0.641  0.0667  0.3123 -0.0137
11652SOL    HW135481   3.654   4.081   0.552 -1.1939  0.3035 -0.4674
11652SOL    HW235482   3.642   4.148   0.687 -0.2922  0.7162 -0.5822
11653SOL     OW35483   5.480   0.795   6.199  0.2769  0.2171 -0.5325
11653SOL    HW135484   5.559   0.745   6.180  1.1616  0.4470  2.1262
11653SOL    HW235485   5.412   0.729   6.209  0.3969 -0.0783 -1.6072
11654SOL     OW35486   0.683   3.524   2.117  0.0898  0.5249 -0.6599
11654SOL    HW135487   0.652   3.530   2.207 -0.1136 -2.0972 -0.4903
11654SOL    HW235488   0.636   3.594   2.071 -1.1925  0.7279  0.8912
11655SOL     OW35489   5.187   2.519   2.855  0.5202 -0.1442 -0.2260
11655SOL    HW135490   5.256   2.502   2.919  0.0380 -2.9092 -0.3127
11655SOL    HW235491   5.122   2.570   2.903  0.9861 -0.6216  0.9666
11656SOL     OW35492   2.881   1.210   6.072  0.3528 -0.1151  0.5869
11656SOL    HW135493   2.822   1.191   5.999  0.6579  0.8713  0.0649
11656SOL    HW235494   2.822   1.233   6.144  0.0666  1.1083  0.0010
11657SOL     OW35495   2.374   7.273   7.078 -0.1543  0.1325  0.1773
11657SOL    HW135496   2.431   7.347   7.058  0.6704  0.2429  2.5999
11657SOL    HW235497   2.421   7.197   7.044  0.4057  0.4462  0.2328
11658SOL     OW35498   3.916   4.005   3.511 -0.4819  0.0523  0.1549
11658SOL    HW135499   3.937   4.090   3.472 -1.2085 -0.5875 -1.7342
11658SOL    HW235500   3.989   3.948   3.485 -0.5026 -0.1629  0.5526
11659SOL     OW35501   3.578   6.916   2.390 -0.3281 -0.5119 -0.4991
11659SOL    HW135502   3.590   6.993   2.333 -2.4431 -0.1230 -0.4845
11659SOL    HW235503   3.666   6.879   2.397  0.9061  2.1979 -0.0747
11660SOL     OW35504   2.322   0.568   0.820 -0.6457  0.0591 -0.5279
11660SOL    HW135505   2.386   0.638   0.833 -0.1129 -0.2545 -1.4123
11660SOL    HW235506   2.374   0.490   0.803 -1.2117 -0.7590  1.2410
11661SOL     OW35507   7.533   4.170   5.194  0.3716 -0.2680  0.3672
11661SOL    HW135508   7.545   4.087   5.239 -1.0982 -0.9561 -0.4286
11661SOL    HW235509   7.586   4.233   5.243 -1.0855 -0.9649  2.9961
11662SOL     OW35510   3.776   3.214   4.834  0.0322 -0.4653 -0.4899
11662SOL    HW135511   3.736   3.234   4.749  0.0487  0.5746 -0.2680
11662SOL    HW235512   3.780   3.299   4.879  1.6914 -0.6697 -0.1730
11663SOL     OW35513   3.032   2.414   1.032 -0.3530  0.2700 -0.1638
11663SOL    HW135514   2.936   2.407   1.031 -0.3261 -0.3761  0.6878
11663SOL    HW235515   3.059   2.360   1.106  0.5452  2.1009  0.9245
11664SOL     OW35516   1.073   0.712   3.085  0.0812  0.9215 -0.0266
11664SOL    HW135517   1.065   0.725   2.990 -1.5803 -0.1438 -0.0698
11664SOL    HW235518   1.080   0.618   3.096  0.9959  1.0810  0.8946
11665SOL     OW35519   7.265   4.215   0.527 -0.0901  0.0777  0.4236
11665SOL    HW135520   7.349   4.175   0.551  1.1021  2.2490  0.0940
11665SOL    HW235521   7.247   4.277   0.598 -0.5679  0.8357 -0.3468
11666SOL     OW35522   0.694   5.076   5.666  0.2942 -0.6943 -0.6180
11666SOL    HW135523   0.720   5.156   5.621  0.7077 -0.4238  0.0876
11666SOL    HW235524   0.628   5.104   5.729  0.2156 -0.9587 -0.5805
11667SOL     OW35525   4.184   4.941   3.139 -0.4990 -0.0202 -0.2549
11667SOL    HW135526   4.254   4.899   3.188  0.4008 -0.2077 -1.6532
11667SOL    HW235527   4.154   4.875   3.077 -1.0249  0.4754 -0.5463
11668SOL     OW35528   5.394   6.684   3.090  0.3613 -0.2776 -0.1969
11668SOL    HW135529   5.371   6.723   3.175  1.1689 -1.0191  0.3801
11668SOL    HW235530   5.446   6.751   3.046  1.2808 -0.4673  0.5649
11669SOL     OW35531   2.972   5.180   5.294  0.0524  0.2653  0.0086
11669SOL    HW135532   3.013   5.108   5.341 -0.5591  0.6699  1.1926
11669SOL    HW235533   3.045   5.228   5.255  0.5253 -0.3905  0.0695
11670SOL     OW35534   6.374   2.009   0.805 -0.2883  0.9349 -0.5049
11670SOL    HW135535   6.406   1.981   0.719  0.7417  3.2727 -0.9640
11670SOL    HW235536   6.431   2.082   0.829 -1.1059  0.8923  1.8031
11671SOL     OW35537   6.065   6.867   1.416 -0.2394 -0.1415 -0.6470
11671SOL    HW135538   6.005   6.844   1.487  0.5841 -0.7346 -0.1137
11671SOL    HW235539   6.133   6.919   1.459  0.9997 -1.6473 -0.6833
11672SOL     OW35540   4.343   6.380   1.718 -0.0121 -0.6471 -0.4971
11672SOL    HW135541   4.356   6.395   1.624 -0.3507  0.3915 -0.3950
11672SOL    HW235542   4.405   6.439   1.760 -0.5031 -0.4419 -0.0608
11673SOL     OW35543   0.649   5.801   2.139  0.0921  0.0636  0.3156
11673SOL    HW135544   0.557   5.787   2.162  0.2568 -0.5048  0.6591
11673SOL    HW235545   0.693   5.816   2.222  0.2065  1.0264  0.0928
11674SOL     OW35546   4.821   1.638   7.392  0.0910 -0.0548  0.3232
11674SOL    HW135547   4.728   1.658   7.402  0.3226  0.6286  1.2356
11674SOL    HW235548   4.851   1.699   7.324  0.2719  1.0658  1.3842
11675SOL     OW35549   1.820   5.366   4.037 -0.3918  0.1978  0.5060
11675SOL    HW135550   1.815   5.424   4.113 -2.3066  0.2882  0.3800
11675SOL    HW235551   1.802   5.424   3.962  0.6729 -0.0366  0.0504
11676SOL     OW35552   4.336   4.903   6.444  0.4006  0.2374 -0.1727
11676SOL    HW135553   4.252   4.949   6.441  0.7682  0.8991 -0.3988
11676SOL    HW235554   4.394   4.954   6.388  0.4769 -1.1811 -1.4789
11677SOL     OW35555   6.106   0.229   5.054  0.2378 -0.2326 -0.3463
11677SOL    HW135556   6.099   0.137   5.031  0.7995 -0.5309  0.6213
11677SOL    HW235557   6.017   0.263   5.046  0.0377 -0.8364 -0.7580
11678SOL     OW35558   1.144   4.654   3.312 -0.2640  0.3504 -0.3618
11678SOL    HW135559   1.063   4.678   3.266 -0.9300 -0.6672  0.2435
11678SOL    HW235560   1.191   4.599   3.250 -2.5875 -3.6824  1.0741
11679SOL     OW35561   7.116   0.847   7.515 -0.5029  0.1765 -0.2700
11679SOL    HW135562   7.136   0.844   7.421 -0.7249 -0.1985 -0.3056
11679SOL    HW235563   7.199   0.872   7.556 -0.6065  1.1538 -0.6297
11680SOL     OW35564   1.630   1.618   4.135  0.2107 -0.2650 -0.1123
11680SOL    HW135565   1.604   1.644   4.047 -1.1809 -0.7006  0.1541
11680SOL    HW235566   1.550   1.586   4.176  1.1033 -1.3772  0.8501
11681SOL     OW35567   2.858   3.126   5.228 -0.2464  0.2407 -0.6800
11681SOL    HW135568   2.936   3.106   5.176  0.2960 -0.9010  0.5219
11681SOL    HW235569   2.883   3.202   5.280  0.7921 -1.2471  1.0969
11682SOL     OW35570   3.574   2.485   0.686 -0.6022  0.5234 -0.3151
11682SOL    HW135571   3.612   2.466   0.771 -1.5585 -0.7108 -0.1355
11682SOL    HW235572   3.529   2.404   0.661 -1.9727  1.4862 -1.1025
11683SOL     OW35573   4.068   5.056   4.587  0.0657 -0.0305 -0.1903
11683SOL    HW135574   3.984   5.043   4.630  0.3352 -1.4369 -0.0334
11683SOL    HW235575   4.132   5.058   4.659  0.4035 -1.3312 -0.4314
11684SOL     OW35576   6.009   3.806   0.086 -0.4462 -0.1363  0.0881
11684SOL    HW135577   6.003   3.897   0.117 -0.2712  0.0820 -0.5186
11684SOL    HW235578   6.003   3.754   0.166  0.6296  0.4419  0.5614
11685SOL     OW35579   1.038   7.092   6.883 -0.2921 -0.3644  0.4642
11685SOL    HW135580   1.080   7.060   6.803  0.3111 -1.6117  1.2634
11685SOL    HW235581   1.059   7.027   6.950  0.8908  1.6271  2.1530
11686SOL     OW35582   2.122   4.534   6.519 -0.4673  0.3717 -0.3073
11686SOL    HW135583   2.129   4.456   6.463 -2.3265 -0.5540  0.6533
11686SOL    HW235584   2.205   4.536   6.567  0.1823 -0.1987 -1.3661
11687SOL     OW35585   6.512   2.440   4.382  0.2681  0.1519 -0.2652
11687SOL    HW135586   6.499   2.405   4.470 -1.2190 -0.9458 -0.8641
11687SOL    HW235587   6.479   2.371   4.324  1.0422  0.9228 -1.6804
11688SOL     OW35588   1.410   7.012   4.844 -0.1782 -0.4794 -0.2663
11688SOL    HW135589   1.389   7.057   4.926  1.5392 -0.9674  0.4775
11688SOL    HW235590   1.390   7.077   4.776 -0.5568  0.3366  0.5938
11689SOL     OW35591   4.277   3.116   1.068  0.1634  0.1210  0.0528
11689SOL    HW135592   4.214   3.097   0.998 -0.0947 -0.8674  0.5346
11689SOL    HW235593   4.317   3.199   1.042  1.0508 -0.8634 -1.9792
11690SOL     OW35594   6.759   4.142   2.225  0.1380 -0.2372  0.3141
11690SOL    HW135595   6.839   4.162   2.175  0.3432 -0.4561  0.5529
11690SOL    HW235596   6.788   4.140   2.316 -0.2583  0.2646  0.4572
11691SOL     OW35597   7.200   3.050   1.280 -0.1317  0.6970  0.3218
11691SOL    HW135598   7.125   3.106   1.258 -0.6259  0.2349  0.7831
11691SOL    HW235599   7.164   2.961   1.278  0.5124  0.4374  0.1322
11692SOL     OW35600   7.336   2.944   3.402 -0.0148  0.1998 -0.4570
11692SOL    HW135601   7.292   3.000   3.338 -0.6149 -0.8617 -1.0072
11692SOL    HW235602   7.429   2.951   3.380  0.2219  2.8484  1.0279
11693SOL     OW35603   6.399   6.743   1.710 -0.0705  0.0693  0.1626
11693SOL    HW135604   6.395   6.796   1.790  0.2545  0.1031  0.1575
11693SOL    HW235605   6.413   6.654   1.740  1.6431  0.2870  0.0987
11694SOL     OW35606   5.943   1.647   7.342 -0.1249  0.5863  0.3986
11694SOL    HW135607   5.906   1.589   7.276 -0.4795  0.3317  0.8123
11694SOL    HW235608   6.007   1.593   7.389  0.8916  1.0649 -0.4015
11695SOL     OW35609   2.704   7.437   3.197 -1.1718  0.6833  0.4491
11695SOL    HW135610   2.701   7.353   3.151 -1.7345 -0.3175  2.2125
11695SOL    HW235611   2.613   7.461   3.210 -1.0148  1.4752  0.1712
11696SOL     OW35612   4.605   0.090   1.557 -0.2813  0.1115 -0.2735
11696SOL    HW135613   4.650   0.090   1.472 -0.0012  0.3365 -0.1275
11696SOL    HW235614   4.527   0.144   1.543  0.2261  0.8912 -0.1522
11697SOL     OW35615   0.691   0.507   5.103  0.4385 -0.2129  0.1354
11697SOL    HW135616   0.784   0.530   5.102  0.4285  0.0127  1.7001
11697SOL    HW235617   0.650   0.574   5.157 -0.4909 -0.7908  0.1791
11698SOL     OW35618   0.992   3.327   3.187 -0.0923  0.2115 -0.6909
11698SOL    HW135619   0.922   3.363   3.242  0.2033  1.0222 -0.8297
11698SOL    HW235620   1.072   3.368   3.220  0.0906  0.6734 -1.6839
11699SOL     OW35621   4.730   4.666   0.802 -0.4597  0.1364  0.4204
11699SOL    HW135622   4.668   4.684   0.872 -0.4532  0.6798  0.2922
11699SOL    HW235623   4.797   4.734   0.811  0.8593 -1.2094  1.3918
11700SOL     OW35624   3.094   6.918   2.399 -0.8148  0.0006  0.0667
11700SOL    HW135625   3.171   6.918   2.456  0.4458  1.5815 -1.5018
11700SOL    HW235626   3.026   6.961   2.451 -0.2871 -0.3080  1.0432
11701SOL     OW35627   4.437   7.474   6.524  0.1148 -0.2799  0.1722
11701SOL    HW135628   4.372   7.511   6.584  0.4678  1.2498 -0.3471
11701SOL    HW235629   4.385   7.423   6.462 -0.7612  1.6953 -0.8211
11702SOL     OW35630   2.627   4.727   4.376  0.0593  0.1378  0.4352
11702SOL    HW135631   2.590   4.649   4.416  1.5551 -0.4607  0.7499
11702SOL    HW235632   2.566   4.797   4.397 -1.6605 -1.0456 -0.4139
11703SOL     OW35633   6.333   1.271   1.225 -0.1405  0.3776 -0.0164
11703SOL    HW135634   6.302   1.249   1.137  1.4181  1.6902 -0.9651
11703SOL    HW235635   6.331   1.367   1.227  0.0353  0.3636  1.3131
11704SOL     OW35636   4.494   7.539   4.323  0.4950 -0.2977 -0.5400
11704SOL    HW135637   4.439   7.487   4.381  0.8003  0.6404  0.6321
11704SOL    HW235638   4.580   7.497   4.327  0.0616 -1.4271 -1.9340
11705SOL     OW35639   6.610   3.102   3.738 -0.4561 -0.3812 -0.1713
11705SOL    HW135640   6.572   3.017   3.761 -1.0597 -0.2039 -0.4868
11705SOL    HW235641   6.695   3.103   3.781 -0.0533 -1.5147 -0.9023
11706SOL     OW35642   0.749   2.346   6.511  0.1394 -0.6457 -0.1398
11706SOL    HW135643   0.762   2.299   6.593 -0.5996 -0.8350 -0.1227
11706SOL    HW235644   0.662   2.320   6.482  0.4028 -0.6018 -1.0023
11707SOL     OW35645   4.776   7.525   3.543 -0.6052 -0.0617  0.0396
11707SOL    HW135646   4.725   7.446   3.526 -1.2019  0.3029  0.1114
11707SOL    HW235647   4.830   7.537   3.465 -0.9349 -0.2186 -0.2116
11708SOL     OW35648   4.992   6.208   4.526  0.2144  0.3893 -0.2819
11708SOL    HW135649   5.023   6.289   4.566  0.8465 -0.7037  1.5417
11708SOL    HW235650   5.063   6.182   4.467  1.0474 -0.0093  0.8626
11709SOL     OW35651   2.921   5.340   4.386 -0.1078  0.7021  0.3186
11709SOL    HW135652   2.871   5.381   4.316 -2.7705 -2.1640  0.3532
11709SOL    HW235653   3.010   5.333   4.351 -0.8727  1.2563 -1.8958
11710SOL     OW35654   1.461   0.172   2.240  0.0612  0.1059  0.5079
11710SOL    HW135655   1.461   0.163   2.335  0.9207 -1.0707  0.4264
11710SOL    HW235656   1.553   0.186   2.217 -0.3229  2.0679 -0.0505
11711SOL     OW35657   4.315   5.076   3.569 -0.0082  0.3262  0.0068
11711SOL    HW135658   4.354   5.094   3.484  0.5855  1.8317  0.5718
11711SOL    HW235659   4.389   5.060   3.627 -0.4370 -2.2231 -0.0075
11712SOL     OW35660   2.151   3.948   7.351  0.1980 -0.2372 -0.4214
11712SOL    HW135661   2.071   3.971   7.398  0.2021 -0.4028 -0.3310
11712SOL    HW235662   2.218   4.004   7.390 -0.0504  0.5841 -1.1479
11713SOL     OW35663   4.705   3.601   2.392  0.4533 -0.6368 -0.1096
11713SOL    HW135664   4.710   3.527   2.452 -0.3374 -0.7485 -0.1596
11713SOL    HW235665   4.784   3.595   2.339  1.6012 -0.0585  1.4420
11714SOL     OW35666   3.568   1.368   4.502 -0.7209 -0.1138 -0.7468
11714SOL    HW135667   3.643   1.308   4.494 -0.8288 -0.2710 -0.5927
11714SOL    HW235668   3.569   1.418   4.421  1.3018  1.9413  0.4099
11715SOL     OW35669   4.119   2.388   1.283  0.1795  0.6008  0.1338
11715SOL    HW135670   4.033   2.392   1.243  0.1999  1.3596  0.1530
11715SOL    HW235671   4.102   2.365   1.374  0.1026 -0.6582 -0.1751
11716SOL     OW35672   3.539   5.165   2.410 -0.2056  0.0986 -0.3582
11716SOL    HW135673   3.590   5.236   2.370 -0.6097  0.9403  0.5823
11716SOL    HW235674   3.525   5.194   2.501  0.6926 -1.7460  0.4214
11717SOL     OW35675   5.671   6.046   5.025 -0.3097  0.4713  0.3049
11717SOL    HW135676   5.676   5.961   5.067 -2.5810  0.2476  0.2678
11717SOL    HW235677   5.705   6.032   4.937 -0.6896 -0.4170  0.2912
11718SOL     OW35678   2.419   1.437   2.860  0.1843 -0.2759 -0.3420
11718SOL    HW135679   2.428   1.509   2.798  1.4617  0.1356  0.2868
11718SOL    HW235680   2.498   1.443   2.915 -0.8952 -0.6179  1.3170
11719SOL     OW35681   3.992   6.903   0.978  0.4327 -0.1053 -0.4347
11719SOL    HW135682   3.948   6.832   1.025  1.0410  0.5567  1.1824
11719SOL    HW235683   4.071   6.920   1.029 -0.5702  2.9250  0.2825
11720SOL     OW35684   2.530   3.440   4.701 -0.0250 -0.3782  0.5288
11720SOL    HW135685   2.466   3.403   4.762  0.1335 -0.4364  0.6613
11720SOL    HW235686   2.495   3.526   4.678 -0.2625 -0.4999  0.4283
11721SOL     OW35687   4.015   2.945   0.092  0.0489  0.0518  0.3063
11721SOL    HW135688   4.018   2.851   0.109  1.2727  0.2487  1.3102
11721SOL    HW235689   4.102   2.977   0.117 -0.4073  1.4721  0.1592
11722SOL     OW35690   6.433   5.946   2.470  0.5919 -0.0513 -0.2228
11722SOL    HW135691   6.363   6.010   2.458  2.2088  1.6514 -1.3379
11722SOL    HW235692   6.391   5.871   2.512 -1.8128  0.9589 -0.6446
11723SOL     OW35693   6.135   3.840   0.455 -0.5155  0.2171  0.1168
11723SOL    HW135694   6.191   3.878   0.387  0.6278 -0.6551  0.5269
11723SOL    HW235695   6.099   3.761   0.415 -0.6613  0.2474  0.1864
11724SOL     OW35696   2.852   1.806   7.246  0.3747 -0.0456 -0.2416
11724SOL    HW135697   2.855   1.901   7.249  1.1347 -0.0527 -0.5104
11724SOL    HW235698   2.759   1.784   7.247  0.1792  0.6202  1.8484
11725SOL     OW35699   3.455   5.041   3.279 -0.4620  0.1313 -0.3172
11725SOL    HW135700   3.461   4.962   3.333 -2.4096  0.3472  0.2846
11725SOL    HW235701   3.395   5.017   3.208  0.0572  0.6396 -0.9361
11726SOL     OW35702   3.354   6.007   7.554 -0.0562  0.2351  0.6877
11726SOL    HW135703   3.262   6.003   7.581 -0.4984  1.2852 -0.5253
11726SOL    HW235704   3.387   5.918   7.566 -1.4068 -0.3003  0.5878
11727SOL     OW35705   6.108   2.379   4.589  0.0630 -0.3195 -0.4281
11727SOL    HW135706   6.078   2.300   4.633 -0.4465 -0.1336 -0.4324
11727SOL    HW235707   6.055   2.383   4.509 -1.6305  1.2901  0.7121
11728SOL     OW35708   4.088   4.899   1.591  0.0295  0.4625 -0.1603
11728SOL    HW135709   4.000   4.888   1.629  0.1372 -0.3729 -0.1509
11728SOL    HW235710   4.112   4.989   1.615  0.0260  0.0232  1.6224
11729SOL     OW35711   1.405   0.205   0.833  0.4040  0.1217 -0.0039
11729SOL    HW135712   1.329   0.198   0.775  0.4899  1.9742 -0.3965
11729SOL    HW235713   1.372   0.179   0.919 -0.4027 -0.0831 -0.3637
11730SOL     OW35714   1.839   0.621   3.258  0.4111 -0.2651 -0.3221
11730SOL    HW135715   1.858   0.575   3.340  0.9201 -0.3114 -0.4655
11730SOL    HW235716   1.830   0.551   3.193  0.8824 -0.1817 -0.4795
11731SOL     OW35717   3.408   4.809   2.450 -0.3761  0.4368  0.2303
11731SOL    HW135718   3.500   4.792   2.430 -0.3569 -0.6851  1.1589
11731SOL    HW235719   3.390   4.894   2.409  0.5328 -0.2033 -1.6282
11732SOL     OW35720   2.223   2.968   6.735  0.0409  0.0323  0.8568
11732SOL    HW135721   2.174   2.924   6.804 -2.8642  1.6370 -0.0035
11732SOL    HW235722   2.237   2.900   6.668  0.7966 -0.9326  1.9589
11733SOL     OW35723   6.384   6.595   7.527 -0.2542  0.0114 -0.1807
11733SOL    HW135724   6.323   6.618   7.598  0.2422 -0.7084  0.5049
11733SOL    HW235725   6.412   6.507   7.549 -0.1510 -0.2538 -1.3443
11734SOL     OW35726   7.249   6.425   0.128  0.3216  0.0974  0.1464
11734SOL    HW135727   7.256   6.519   0.149 -0.0092  0.4147 -1.1154
11734SOL    HW235728   7.156   6.405   0.142  0.5422 -0.2604  1.2178
11735SOL     OW35729   2.574   7.351   0.399 -0.3883  0.1807 -0.2078
11735SOL    HW135730   2.585   7.292   0.324  1.1786 -0.4547  0.4695
11735SOL    HW235731   2.485   7.335   0.429 -0.2659 -1.2729 -0.5329
11736SOL     OW35732   7.417   0.232   6.186 -0.2676  0.0239  0.2426
11736SOL    HW135733   7.384   0.203   6.271 -0.7323 -0.0927  0.0211
11736SOL    HW235734   7.434   0.326   6.198 -0.7952  0.1127  0.3210
11737SOL     OW35735   1.737   2.374   6.026 -0.4279 -0.7812  0.5917
11737SOL    HW135736   1.646   2.380   6.056 -0.5204  0.3600  0.1239
11737SOL    HW235737   1.767   2.465   6.023  0.7477 -1.1466  0.7667
11738SOL     OW35738   3.848   3.605   4.046 -0.6991 -0.0411 -0.7583
11738SOL    HW135739   3.814   3.562   3.969  0.9699 -2.2917 -0.3458
11738SOL    HW235740   3.943   3.590   4.042 -0.3984  1.0885  0.9372
11739SOL     OW35741   3.345   7.078   0.055 -0.3157  0.0371  0.6310
11739SOL    HW135742   3.356   7.142  -0.015 -0.9883  0.0906  0.5742
11739SOL    HW235743   3.345   7.129   0.135 -1.5966  0.2073  0.5458
11740SOL     OW35744   2.107   2.681   5.248 -0.2121 -0.2046  0.1655
11740SOL    HW135745   2.120   2.773   5.223 -0.6531 -0.1003  0.3098
11740SOL    HW235746   2.013   2.674   5.265 -0.2604 -0.8102 -0.3436
11741SOL     OW35747   3.048   5.570   5.962 -0.6657 -0.2630 -0.2845
11741SOL    HW135748   3.045   5.629   5.887  0.0555  0.5332  0.2981
11741SOL    HW235749   3.126   5.597   6.011 -2.2473  0.6199  1.8984
11742SOL     OW35750   2.648   1.549   7.118 -0.1845  0.6284 -0.4842
11742SOL    HW135751   2.583   1.519   7.055  1.8056  1.5328 -3.1516
11742SOL    HW235752   2.600   1.610   7.175 -2.2767 -0.9968 -0.3651
11743SOL     OW35753   6.199   0.259   6.164  0.6323 -0.0431 -0.6515
11743SOL    HW135754   6.196   0.247   6.259  1.9253 -0.4377 -0.6442
11743SOL    HW235755   6.120   0.216   6.132 -0.3942  1.0257  0.3214
11744SOL     OW35756   1.964   4.068   6.973  0.1352 -0.1672  0.1828
11744SOL    HW135757   1.996   4.126   6.903 -0.9057 -0.0916 -0.2493
11744SOL    HW235758   1.962   3.981   6.933  0.6700 -0.3283  0.4980
11745SOL     OW35759   1.339   0.531   3.237 -0.0307 -0.1439 -0.5613
11745SOL    HW135760   1.375   0.455   3.281 -0.4893 -0.1720 -0.2296
11745SOL    HW235761   1.364   0.520   3.145  0.1160 -0.5600 -0.4720
11746SOL     OW35762   0.123   5.847   6.559  0.6540  0.0161 -0.6489
11746SOL    HW135763   0.194   5.793   6.524  3.2221  3.0302 -0.6578
11746SOL    HW235764   0.139   5.850   6.653 -1.4821 -1.7938 -0.1703
11747SOL     OW35765   2.237   2.230   0.243  0.3355  0.3662  0.0707
11747SOL    HW135766   2.181   2.165   0.285  0.3905  0.1831 -0.1412
11747SOL    HW235767   2.215   2.226   0.150  2.2037 -1.2564 -0.3822
11748SOL     OW35768   3.382   2.625   6.802  0.4815  0.0491  0.3723
11748SOL    HW135769   3.411   2.635   6.711  1.4391 -0.3764  0.6240
11748SOL    HW235770   3.441   2.681   6.852  1.5045 -1.5250  0.9994
11749SOL     OW35771   1.534   1.381   5.989  0.1949 -0.0096  0.0807
11749SOL    HW135772   1.547   1.368   6.083 -0.4545 -1.0129  0.0350
11749SOL    HW235773   1.451   1.338   5.969 -0.0850  0.9010 -0.8094
11750SOL     OW35774   5.270   1.582   1.408 -0.0109  0.6341 -0.0455
11750SOL    HW135775   5.317   1.545   1.333  0.1220  0.7136 -0.0019
11750SOL    HW235776   5.338   1.593   1.475 -0.3794 -0.8016  0.5962
11751SOL     OW35777   1.400   1.698   1.060  0.0779 -0.3784  0.2651
11751SOL    HW135778   1.323   1.677   1.113  0.4501 -0.7009  0.6874
11751SOL    HW235779   1.406   1.628   0.996  1.2177 -1.5401  1.5610
11752SOL     OW35780   6.636   1.272   4.204  0.7365  0.6645 -0.0398
11752SOL    HW135781   6.632   1.359   4.245 -0.7709  0.6617 -0.1008
11752SOL    HW235782   6.626   1.211   4.277  0.2353  0.5936 -0.1655
11753SOL     OW35783   2.143   5.995   1.849 -1.0042 -0.9053  0.5770
11753SOL    HW135784   2.216   5.944   1.885  0.5807 -0.7511 -2.1009
11753SOL    HW235785   2.090   5.931   1.802 -1.0356 -0.6329  0.2332
11754SOL     OW35786   0.030   1.641   4.562 -0.1170  0.1473 -0.0918
11754SOL    HW135787   0.012   1.712   4.623 -0.6774 -0.2357  0.1985
11754SOL    HW235788   0.071   1.573   4.615 -2.5166 -1.0604  0.3785
11755SOL     OW35789   5.749   0.855   7.263 -0.6707  0.0718 -0.4204
11755SOL    HW135790   5.804   0.855   7.342 -1.0159  1.1032 -0.1639
11755SOL    HW235791   5.810   0.841   7.191 -0.1722  0.3796 -0.0658
11756SOL     OW35792   0.607   3.452   2.399 -0.3440 -0.5728 -0.2130
11756SOL    HW135793   0.675   3.386   2.384  1.8526  1.9845 -2.5533
11756SOL    HW235794   0.635   3.497   2.479  1.3275  0.9620 -1.5668
11757SOL     OW35795   2.996   1.592   0.912  0.1742 -0.5186  0.7507
11757SOL    HW135796   3.028   1.576   0.823 -1.9629 -2.2979  0.2112
11757SOL    HW235797   3.061   1.550   0.968  0.2355 -1.6718 -0.1354
11758SOL     OW35798   6.944   0.499   7.127  0.2160  0.2496 -0.2200
11758SOL    HW135799   6.989   0.442   7.065  0.4285 -0.3638  0.4874
11758SOL    HW235800   7.000   0.577   7.134  0.9901 -0.3380  0.3554
11759SOL     OW35801   1.289   7.268   3.959 -0.1845  0.0105 -0.6574
11759SOL    HW135802   1.377   7.267   3.920 -0.1385 -0.1615 -0.5526
11759SOL    HW235803   1.266   7.360   3.964  0.0384  0.0639 -0.5837
11760SOL     OW35804   1.788   0.992   6.322 -1.0664 -0.0361 -0.4486
11760SOL    HW135805   1.718   0.927   6.318 -0.3835 -0.7792 -0.6812
11760SOL    HW235806   1.867   0.941   6.341 -0.5055  0.7196 -0.6871
11761SOL     OW35807   3.338   7.159   2.235 -0.2181 -0.3319  0.2953
11761SOL    HW135808   3.383   7.166   2.320  0.5562  0.5954 -0.1693
11761SOL    HW235809   3.265   7.100   2.252 -0.0439 -0.2171  1.5998
11762SOL     OW35810   3.530   0.180   2.531  0.3705  0.4536  0.0397
11762SOL    HW135811   3.440   0.153   2.515 -0.1429  2.1262 -0.0410
11762SOL    HW235812   3.543   0.167   2.625 -0.2796  1.1169  0.2250
11763SOL     OW35813   4.153   0.373   7.524 -0.2339  0.3067 -0.4757
11763SOL    HW135814   4.090   0.372   7.452 -2.0273  1.2894  0.9764
11763SOL    HW235815   4.104   0.339   7.599  1.7955 -1.4124  0.1734
11764SOL     OW35816   2.942   1.387   3.424 -0.0166 -0.2449 -0.5329
11764SOL    HW135817   2.864   1.379   3.478  0.1916 -0.7768 -0.2998
11764SOL    HW235818   2.987   1.464   3.457  0.2810 -0.7559  0.2891
11765SOL     OW35819   1.956   3.330   5.615  0.4270 -0.1885 -0.3477
11765SOL    HW135820   1.878   3.347   5.562 -0.4662  1.4219  1.3512
11765SOL    HW235821   1.923   3.280   5.689  1.1810 -0.2413 -0.0451
11766SOL     OW35822   0.435   2.882   7.199  0.0380  0.2106  0.5426
11766SOL    HW135823   0.392   2.957   7.240 -0.7719 -0.0569  0.2138
11766SOL    HW235824   0.391   2.805   7.238  0.7053 -0.0907  0.7161
11767SOL     OW35825   3.215   3.348   3.889 -0.0559 -0.0515 -0.1919
11767SOL    HW135826   3.290   3.299   3.922 -0.1362 -0.2817 -0.3536
11767SOL    HW235827   3.238   3.369   3.798  0.1610  0.5721 -0.0018
11768SOL     OW35828   1.816   4.442   6.320  0.1124 -0.7500  0.1379
11768SOL    HW135829   1.794   4.413   6.409  0.6719  0.0044  0.5258
11768SOL    HW235830   1.741   4.496   6.294  0.2740 -0.3875  0.4238
11769SOL     OW35831   4.435   2.949   4.419 -0.0723 -0.4635  0.3502
11769SOL    HW135832   4.473   2.870   4.381 -2.0507 -1.4584  0.3216
11769SOL    HW235833   4.368   2.917   4.480  1.1039  1.1464  2.6298
11770SOL     OW35834   6.508   6.894   0.648  0.2557  0.2195 -0.1808
11770SOL    HW135835   6.603   6.898   0.660  0.4027 -1.6804 -0.3996
11770SOL    HW235836   6.485   6.806   0.675 -1.0074 -0.4344 -3.0247
11771SOL     OW35837   1.466   3.256   3.967  0.0015 -0.6793  0.2841
11771SOL    HW135838   1.516   3.281   3.889  0.7780  0.0497  0.9972
11771SOL    HW235839   1.408   3.186   3.937  0.8460 -0.9501 -0.7659
11772SOL     OW35840   4.047   7.327   1.323  0.1349 -0.1465 -0.4554
11772SOL    HW135841   4.002   7.339   1.239 -1.3612  2.3309  0.5651
11772SOL    HW235842   4.140   7.341   1.303 -0.0300 -0.9005 -1.8769
11773SOL     OW35843   0.798   5.564   7.405 -0.4858  0.3946 -0.1182
11773SOL    HW135844   0.742   5.641   7.399 -0.4860  0.5489  1.4537
11773SOL    HW235845   0.843   5.561   7.320 -0.0600  2.4577 -0.0346
11774SOL     OW35846   7.485   5.862   2.945  0.4839 -0.3219 -0.0090
11774SOL    HW135847   7.537   5.851   2.865  0.7718 -0.0542  0.1405
11774SOL    HW235848   7.477   5.956   2.955 -1.7515 -0.3199 -1.1374
11775SOL     OW35849   2.892   0.913   4.364 -0.2169 -0.2639 -0.0180
11775SOL    HW135850   2.881   0.891   4.272  0.0993  0.3661 -0.2115
11775SOL    HW235851   2.802   0.922   4.397 -0.3283 -0.3460 -0.2984
11776SOL     OW35852   4.080   4.581   1.909  0.0150 -0.2666 -0.5935
11776SOL    HW135853   4.151   4.603   1.849  0.7756 -0.9006  0.0505
11776SOL    HW235854   4.123   4.563   1.992 -0.5974 -3.1006 -0.7601
11777SOL     OW35855   3.106   0.260   4.130 -0.8934  0.3334  0.8307
11777SOL    HW135856   3.121   0.166   4.136 -2.1278  0.0767  0.1227
11777SOL    HW235857   3.122   0.292   4.219 -1.1683 -0.6452  1.2421
11778SOL     OW35858   6.105   1.030   1.194  0.0008  0.5227  0.4640
11778SOL    HW135859   6.195   0.999   1.204  0.0069  0.3919  0.0255
11778SOL    HW235860   6.101   1.065   1.104 -0.1449  1.3277  0.7742
11779SOL     OW35861   5.777   0.562   6.339 -0.0199 -0.0422  0.1847
11779SOL    HW135862   5.744   0.597   6.256  0.3083  0.1855  0.1490
11779SOL    HW235863   5.866   0.533   6.319 -0.2771 -0.8963  0.2155
11780SOL     OW35864   2.458   2.455   5.384 -0.1055 -0.1096 -0.0262
11780SOL    HW135865   2.551   2.443   5.403 -0.5632 -2.1109  1.3201
11780SOL    HW235866   2.437   2.541   5.421  1.1027  0.1386  0.1246
11781SOL     OW35867   2.129   0.172   3.773  0.2829 -0.6539 -0.1668
11781SOL    HW135868   2.137   0.177   3.678 -0.9021 -0.7261 -0.2849
11781SOL    HW235869   2.052   0.225   3.793 -0.6952 -2.2962  0.5485
11782SOL     OW35870   2.189   6.663   5.166  0.1959  0.7853 -0.9183
11782SOL    HW135871   2.122   6.694   5.106  0.6818  0.1696 -1.8161
11782SOL    HW235872   2.265   6.719   5.148 -0.1438  1.6680  0.2939
11783SOL     OW35873   1.212   3.904   1.368  0.4743 -0.3003  0.3922
11783SOL    HW135874   1.170   3.881   1.285  1.7939  0.9639 -0.6717
11783SOL    HW235875   1.301   3.871   1.360  0.6210 -0.1579  1.3147
11784SOL     OW35876   0.959   0.936   4.948  0.3333  0.4631 -0.1658
11784SOL    HW135877   1.009   1.016   4.938 -0.2840  0.8969  0.1305
11784SOL    HW235878   1.007   0.885   5.013  1.1718  0.2216 -0.9527
11785SOL     OW35879   6.935   6.117   0.978  0.5466  0.0412  0.2351
11785SOL    HW135880   6.957   6.154   0.893  1.9685 -0.5383  0.3233
11785SOL    HW235881   6.896   6.189   1.026  0.4915  0.5959 -0.6203
11786SOL     OW35882   5.162   7.127   6.362 -0.1035  0.2148  0.0032
11786SOL    HW135883   5.134   7.215   6.337 -0.2656 -0.2238 -1.4335
11786SOL    HW235884   5.085   7.073   6.347 -0.0069 -0.1811  0.8981
11787SOL     OW35885   6.804   5.628   5.137 -0.9917 -0.3788  0.4149
11787SOL    HW135886   6.725   5.651   5.185 -0.9643  0.3907  0.0996
11787SOL    HW235887   6.799   5.679   5.056 -0.0302 -0.1034  0.5195
11788SOL     OW35888   6.526   3.021   1.649 -0.1144  0.1574  0.1288
11788SOL    HW135889   6.446   3.073   1.646 -0.2616  0.0305  1.4186
11788SOL    HW235890   6.523   2.977   1.734 -0.1235 -2.1737 -1.0186
11789SOL     OW35891   4.209   1.945   4.155 -0.5901 -0.1396 -0.5936
11789SOL    HW135892   4.129   1.996   4.161  1.0538  2.5283  0.2950
11789SOL    HW235893   4.189   1.876   4.091 -3.1233  1.2777 -1.4645
11790SOL     OW35894   4.305   4.006   5.768  0.1916  0.1346 -0.3572
11790SOL    HW135895   4.237   4.059   5.725 -1.0165 -0.5230  0.6894
11790SOL    HW235896   4.308   3.926   5.717  1.3698  0.7973 -1.3852
11791SOL     OW35897   5.969   0.709   4.641  0.9231  0.2410  0.5299
11791SOL    HW135898   5.965   0.787   4.585 -0.2210  0.0710  0.3422
11791SOL    HW235899   6.061   0.684   4.641  1.0506  0.6438 -0.7398
11792SOL     OW35900   2.744   0.786   0.687  0.9394  0.0136 -0.1611
11792SOL    HW135901   2.836   0.761   0.697  1.6071  1.4492 -2.0310
11792SOL    HW235902   2.740   0.827   0.601 -1.3167  0.6770  0.1992
11793SOL     OW35903   5.448   3.031   1.956  0.0886 -0.2625  0.2811
11793SOL    HW135904   5.353   3.038   1.950  0.1856  0.2580 -0.8068
11793SOL    HW235905   5.463   2.939   1.978 -0.6786 -0.2214  1.0265
11794SOL     OW35906   4.832   7.016   4.169 -0.1573  0.0354 -0.6788
11794SOL    HW135907   4.911   6.986   4.123 -0.8125 -1.0707 -1.1064
11794SOL    HW235908   4.849   7.109   4.185  1.7795 -0.4368  0.3855
11795SOL     OW35909   1.705   0.867   4.215 -0.5509 -0.1094  0.0317
11795SOL    HW135910   1.701   0.940   4.276 -1.9432 -0.4425  0.3751
11795SOL    HW235911   1.637   0.886   4.150  1.1082  0.4074 -1.6651
11796SOL     OW35912   0.499   0.512   3.920  0.3504  0.1316 -0.3501
11796SOL    HW135913   0.560   0.438   3.920  1.5283  0.9746  2.1995
11796SOL    HW235914   0.415   0.475   3.894  1.1050 -1.8984 -0.0469
11797SOL     OW35915   6.848   0.883   0.246 -0.1582  0.5620 -0.1849
11797SOL    HW135916   6.821   0.792   0.250  0.0192  0.5646  1.8510
11797SOL    HW235917   6.941   0.880   0.226 -0.1826  0.2998 -0.2618
11798SOL     OW35918   2.482   4.269   0.185  0.3448  0.5454  0.8614
11798SOL    HW135919   2.453   4.182   0.159  1.1186  0.1208  1.3833
11798SOL    HW235920   2.407   4.307   0.230  0.3215 -0.2278  1.4927
11799SOL     OW35921   2.828   7.531   6.213  0.7174 -0.1103  0.2998
11799SOL    HW135922   2.816   7.619   6.249 -0.0617 -0.1102  0.0589
11799SOL    HW235923   2.906   7.539   6.157 -0.3543  0.9060 -1.1575
11800SOL     OW35924   5.333   1.436   0.330 -0.4042 -0.3925  0.0262
11800SOL    HW135925   5.377   1.464   0.249 -1.1156 -0.2337 -0.3114
11800SOL    HW235926   5.282   1.359   0.303 -0.7915 -0.2243  0.2868
11801SOL     OW35927   0.999   4.977   2.265 -0.4269  0.3508  0.8454
11801SOL    HW135928   0.981   5.071   2.269 -0.4380  0.3440  0.9456
11801SOL    HW235929   0.919   4.936   2.299 -1.2089  0.2297 -0.9902
11802SOL     OW35930   1.434   0.920   1.095  0.0330 -0.0504  0.1806
11802SOL    HW135931   1.367   0.989   1.092  0.6353  0.5917  1.0224
11802SOL    HW235932   1.517   0.968   1.092  0.4648 -0.7212  0.9815
11803SOL     OW35933   2.533   1.982   7.159  0.3392  0.0850 -1.0049
11803SOL    HW135934   2.489   2.066   7.166 -0.3723 -0.3532 -0.0072
11803SOL    HW235935   2.595   1.993   7.086 -0.3411  1.1831 -1.4352
11804SOL     OW35936   2.361   7.025   2.821  0.3893 -0.3848 -0.0573
11804SOL    HW135937   2.325   7.066   2.742  1.4916  0.1355 -0.3032
11804SOL    HW235938   2.413   6.952   2.788 -1.5273 -2.0345  0.3772
11805SOL     OW35939   3.474   3.997   6.263  0.1514 -0.6518 -0.0158
11805SOL    HW135940   3.427   4.048   6.197 -0.4012 -0.7667  0.2875
11805SOL    HW235941   3.414   3.990   6.336  1.2963  0.7534  1.1300
11806SOL     OW35942   0.087   5.401   4.000 -0.3748 -0.0876 -0.1738
11806SOL    HW135943   0.130   5.323   3.966 -0.8709 -0.2214 -0.4880
11806SOL    HW235944   0.157   5.467   4.003 -0.6636  0.4905 -3.1450
11807SOL     OW35945   4.939   4.839   2.440 -0.2889  0.3009 -0.3060
11807SOL    HW135946   4.975   4.850   2.528 -0.5009 -0.3722 -0.1353
11807SOL    HW235947   5.015   4.842   2.383  0.0905 -1.3780  0.0707
11808SOL     OW35948   4.803   0.073   4.206 -0.0628 -0.3412  0.6150
11808SOL    HW135949   4.870   0.115   4.261  0.7436 -0.6284 -0.1221
11808SOL    HW235950   4.807  -0.019   4.230  1.5075 -0.7831 -1.0669
11809SOL     OW35951   4.971   2.151   1.740 -0.4564 -0.4352 -0.1519
11809SOL    HW135952   4.995   2.243   1.734  0.2636 -0.5533  0.6584
11809SOL    HW235953   4.877   2.151   1.758 -0.3592  0.1670  0.4016
11810SOL     OW35954   0.067   1.222   2.733 -0.0293 -0.0445 -0.2921
11810SOL    HW135955   0.122   1.294   2.702 -1.0152  0.4028 -1.0201
11810SOL    HW235956  -0.001   1.213   2.667 -0.2976 -1.2216  0.1274
11811SOL     OW35957   6.656   2.521   3.386  0.5483  0.0684  0.0098
11811SOL    HW135958   6.675   2.500   3.477 -0.2566  0.4262  0.2715
11811SOL    HW235959   6.642   2.616   3.386  1.9166  0.3014 -0.7487
11812SOL     OW35960   4.790   3.506   1.620 -0.3959 -0.7916 -0.3706
11812SOL    HW135961   4.875   3.521   1.662 -0.4601  0.8946 -0.7845
11812SOL    HW235962   4.781   3.410   1.618  0.1536 -0.9903  2.3330
11813SOL     OW35963   6.562   0.786   7.501 -0.3424 -0.0839  0.2641
11813SOL    HW135964   6.503   0.773   7.575 -1.5412 -1.2434 -0.8510
11813SOL    HW235965   6.521   0.855   7.448  0.7252  1.0460  0.8575
11814SOL     OW35966   2.945   7.526   4.904 -0.0057  0.2925  0.2166
11814SOL    HW135967   2.955   7.487   4.991 -2.4576 -0.9626 -0.0064
11814SOL    HW235968   3.002   7.473   4.848  1.7170  1.2072  1.0142
11815SOL     OW35969   4.298   5.278   1.172 -0.0294 -0.2183  0.0752
11815SOL    HW135970   4.356   5.211   1.135 -0.5542 -0.0538 -1.0867
11815SOL    HW235971   4.358   5.347   1.200  0.4792 -0.9375  0.8030
11816SOL     OW35972   4.137   4.381   1.487  0.2348 -0.5502  0.0572
11816SOL    HW135973   4.093   4.459   1.520 -1.5416 -1.1280 -0.8045
11816SOL    HW235974   4.073   4.341   1.428  1.8328 -1.6245 -1.0211
11817SOL     OW35975   1.291   7.423   5.465 -0.3287  0.6466  0.1189
11817SOL    HW135976   1.253   7.423   5.552  0.8335  0.5949  0.6448
11817SOL    HW235977   1.335   7.338   5.458  0.2919  0.9852 -0.1877
11818SOL     OW35978   3.831   4.061   5.095  0.5370 -0.3138  0.0678
11818SOL    HW135979   3.807   4.153   5.082  1.3802 -0.3851 -2.5229
11818SOL    HW235980   3.922   4.064   5.123  1.4213 -0.3376 -2.5358
11819SOL     OW35981   5.026   2.525   0.016  0.0356  0.0338  0.7519
11819SOL    HW135982   4.970   2.453  -0.011  0.6888 -0.6541  1.1943
11819SOL    HW235983   5.006   2.538   0.109 -0.2151  0.5582  0.6318
11820SOL     OW35984   5.852   5.485   1.156  0.0602  0.5262 -0.4169
11820SOL    HW135985   5.926   5.428   1.136 -0.9042 -1.3207  0.9673
11820SOL    HW235986   5.791   5.429   1.205 -0.9838  2.7482  0.9799
11821SOL     OW35987   7.131   7.263   6.677  0.1534  0.0158  0.1846
11821SOL    HW135988   7.093   7.177   6.697  0.4911 -0.3727 -0.8104
11821SOL    HW235989   7.201   7.245   6.614 -0.5514  1.1515 -0.9714
11822SOL     OW35990   3.231   3.396   3.602  0.5120  0.2881 -0.7833
11822SOL    HW135991   3.213   3.478   3.555 -2.8189  0.4707  0.5219
11822SOL    HW235992   3.156   3.341   3.583  1.9990 -1.9688 -0.4494
11823SOL     OW35993   0.017   6.294   6.609  0.0067  0.0070  0.4299
11823SOL    HW135994   0.062   6.326   6.687 -0.3249  0.9379  0.2525
11823SOL    HW235995   0.048   6.204   6.598 -0.8993 -0.6009  2.3737
11824SOL     OW35996   0.940   6.547   0.547  0.3693  0.4056  0.7575
11824SOL    HW135997   1.002   6.476   0.532  0.9419  0.8001  1.2022
11824SOL    HW235998   0.924   6.585   0.460  0.4370  0.0463  0.5888
11825SOL     OW35999   2.992   3.837   6.659  0.1100  0.1313 -0.0409
11825SOL    HW136000   3.014   3.930   6.646 -0.6594  0.2888 -0.2468
11825SOL    HW236001   2.935   3.815   6.585 -2.5500  0.4420  1.7630
11826SOL     OW36002   2.794   2.780   7.112 -0.6042  0.0464  0.5264
11826SOL    HW136003   2.710   2.803   7.074 -0.3372 -0.0350 -0.1364
11826SOL    HW236004   2.815   2.852   7.171 -0.9872  0.2197  0.4518
11827SOL     OW36005   2.521   0.105   2.294  0.0927 -0.2337 -0.1924
11827SOL    HW136006   2.567   0.142   2.218 -0.9069 -0.2946 -0.8506
11827SOL    HW236007   2.590   0.061   2.344  0.7762 -0.2091 -1.0728
11828SOL     OW36008   7.489   0.516   3.614  0.4478  0.8174  0.3406
11828SOL    HW136009   7.425   0.585   3.595  0.1098  0.6588  0.9019
11828SOL    HW236010   7.494   0.512   3.709  2.1665  1.6241  0.3181
11829SOL     OW36011   3.259   5.345   0.243 -0.3901 -0.2797 -0.1024
11829SOL    HW136012   3.194   5.414   0.255 -0.2736 -0.1993  0.0648
11829SOL    HW236013   3.343   5.391   0.237 -0.4532 -0.2995 -1.4158
11830SOL     OW36014   0.656   2.853   5.579  0.0322  0.0946 -0.1915
11830SOL    HW136015   0.651   2.927   5.519 -2.2297 -0.2057 -0.4503
11830SOL    HW236016   0.578   2.861   5.633  1.8330  0.1921  2.5920
11831SOL     OW36017   7.474   5.307   4.710  0.6206 -0.0673 -0.2573
11831SOL    HW136018   7.385   5.306   4.673 -0.0842  0.1359  1.3288
11831SOL    HW236019   7.464   5.265   4.796  2.1753 -0.5049 -0.2657
11832SOL     OW36020   2.125   0.218   6.250 -0.2200 -0.4196  0.4661
11832SOL    HW136021   2.154   0.300   6.210  0.0904 -0.4483  0.6305
11832SOL    HW236022   2.068   0.179   6.184  1.5393 -1.2358 -0.6716
11833SOL     OW36023   0.746   6.689   7.037  0.3456 -0.2858  0.0156
11833SOL    HW136024   0.665   6.701   6.988  0.8029 -1.1806 -0.9920
11833SOL    HW236025   0.779   6.778   7.049  0.6491 -0.0486 -2.0956
11834SOL     OW36026   7.412   6.541   2.142 -0.0208 -0.2813  0.1157
11834SOL    HW136027   7.450   6.623   2.172  0.7455 -0.5464 -0.1044
11834SOL    HW236028   7.487   6.489   2.112 -0.5273 -0.9284 -0.0612
11835SOL     OW36029   2.170   3.935   3.864 -0.5761 -0.2318 -0.5691
11835SOL    HW136030   2.203   4.023   3.846 -1.5956  0.1492 -0.6059
11835SOL    HW236031   2.227   3.877   3.813  2.2011  0.0839  1.8670
11836SOL     OW36032   5.098   2.980   2.424  0.0334  0.3411 -0.6433
11836SOL    HW136033   5.140   3.062   2.396  0.0721  0.5532  0.0230
11836SOL    HW236034   5.171   2.926   2.454 -0.1474  0.7211  0.5439
11837SOL     OW36035   1.553   3.344   2.466 -0.1333 -0.5855 -0.0696
11837SOL    HW136036   1.538   3.436   2.490  0.8751 -0.2211 -0.7446
11837SOL    HW236037   1.466   3.309   2.447 -0.6395 -0.0531  1.1468
11838SOL     OW36038   3.537   5.855   0.476  0.4060 -0.0254 -0.1852
11838SOL    HW136039   3.564   5.816   0.559  0.0526  0.0788 -0.0193
11838SOL    HW236040   3.586   5.937   0.471 -1.4909  1.2377  1.1620
11839SOL     OW36041   6.051   6.944   2.591 -0.7533 -0.3872 -0.1171
11839SOL    HW136042   6.105   6.937   2.512 -0.8901  0.2764 -0.2720
11839SOL    HW236043   6.114   6.950   2.663 -0.6092  0.7487 -0.3275
11840SOL     OW36044   4.373   1.761   6.004 -0.4681  0.6284  0.4135
11840SOL    HW136045   4.444   1.798   5.952  0.0917  0.5522  1.1127
11840SOL    HW236046   4.294   1.777   5.952  0.1794 -0.3370 -0.9372
11841SOL     OW36047   6.644   3.167   4.383  0.4903  0.2108 -0.4958
11841SOL    HW136048   6.549   3.158   4.373  0.6382 -0.2717 -1.6711
11841SOL    HW236049   6.657   3.189   4.475 -0.8153  1.1041 -0.5007
11842SOL     OW36050   0.285   2.666   0.756  0.8845  0.1142 -0.3103
11842SOL    HW136051   0.214   2.613   0.791 -0.0271  0.4856 -1.5527
11842SOL    HW236052   0.301   2.732   0.824  0.0501  0.0269 -0.0191
11843SOL     OW36053   0.183   5.333   2.133 -0.4315 -0.1371  0.1562
11843SOL    HW136054   0.244   5.396   2.173  1.0168 -0.0150 -2.0949
11843SOL    HW236055   0.114   5.387   2.095 -0.0599 -0.0109 -0.3472
11844SOL     OW36056   3.150   5.628   1.119  0.3791 -0.0634  0.3439
11844SOL    HW136057   3.099   5.620   1.199  1.1185  0.7555  0.9205
11844SOL    HW236058   3.160   5.539   1.087  0.3420 -0.4391  1.3426
11845SOL     OW36059   3.103   4.445   0.483 -0.7512 -0.3193 -0.3024
11845SOL    HW136060   3.142   4.409   0.403  2.4826 -2.5206  2.0070
11845SOL    HW236061   3.173   4.496   0.523 -1.7601 -0.4836  1.8322
11846SOL     OW36062   6.262   5.798   1.136 -0.3417  0.6364 -0.0587
11846SOL    HW136063   6.304   5.883   1.123  0.4404  0.3306  0.4036
11846SOL    HW236064   6.274   5.779   1.229 -0.8007  0.1641 -0.0862
11847SOL     OW36065   3.291   3.894   6.459 -0.4354  0.0493  0.1331
11847SOL    HW136066   3.306   3.820   6.399 -1.0385  1.4605 -1.8804
11847SOL    HW236067   3.331   3.866   6.541  0.4025 -2.0321 -0.8844
11848SOL     OW36068   4.943   5.458   6.071 -0.4994 -0.0091 -0.1801
11848SOL    HW136069   5.031   5.473   6.106 -1.0734 -1.0944  1.9010
11848SOL    HW236070   4.940   5.364   6.053 -0.8082  0.2466 -1.5832
11849SOL     OW36071   0.720   5.981   6.550  0.4828 -0.2689  0.1423
11849SOL    HW136072   0.699   6.030   6.630  1.4913  0.2070  0.1319
11849SOL    HW236073   0.646   5.923   6.538 -0.7197  1.1839  0.2091
11850SOL     OW36074   4.121   2.570   4.791  0.1017  0.0660  0.5606
11850SOL    HW136075   4.046   2.592   4.735 -0.1191 -0.7016  0.5331
11850SOL    HW236076   4.196   2.573   4.733 -0.1404 -0.8320  0.1835
11851SOL     OW36077   1.703   4.488   7.432 -0.3972  0.1613  0.1294
11851SOL    HW136078   1.762   4.467   7.359 -1.4919 -0.4498 -0.6087
11851SOL    HW236079   1.749   4.557   7.481  0.5012  0.3625 -0.9504
11852SOL     OW36080   4.849   0.295   3.457  0.4000  0.1452  0.3876
11852SOL    HW136081   4.904   0.227   3.497  1.5402 -1.1683 -2.9921
11852SOL    HW236082   4.765   0.252   3.440  0.3310  0.2995  0.3321
11853SOL     OW36083   4.075   6.558   6.798  0.5875  0.0696 -0.5283
11853SOL    HW136084   4.048   6.581   6.710 -1.2199 -0.7585 -0.2395
11853SOL    HW236085   4.039   6.471   6.813  0.0583  0.5375  1.3160
11854SOL     OW36086   1.347   3.852   4.239 -0.4433 -0.1619 -0.7587
11854SOL    HW136087   1.270   3.795   4.242 -1.3935  1.1087  0.6126
11854SOL    HW236088   1.344   3.891   4.152 -0.8229 -0.8087 -1.0468
11855SOL     OW36089   5.851   4.972   0.977 -0.0484 -0.7372  0.1902
11855SOL    HW136090   5.900   4.988   0.896 -0.5003 -1.0285 -0.1438
11855SOL    HW236091   5.865   4.879   0.995  2.7002 -0.0822  2.2065
11856SOL     OW36092   5.323   5.339   3.764 -0.3587 -0.0734  0.3415
11856SOL    HW136093   5.402   5.369   3.808 -1.1391  1.8794  0.4929
11856SOL    HW236094   5.271   5.299   3.834  0.5154 -1.5166  0.2119
11857SOL     OW36095   0.161   4.617   0.654 -0.0138 -0.0451  0.1021
11857SOL    HW136096   0.250   4.604   0.686 -0.9436 -1.5333  2.2958
11857SOL    HW236097   0.154   4.711   0.640  2.0746  0.0386 -0.7709
11858SOL     OW36098   0.362   1.078   2.128 -0.4924  0.1281 -0.2426
11858SOL    HW136099   0.427   1.092   2.197  0.2891 -1.3753 -0.6269
11858SOL    HW236100   0.293   1.141   2.147 -0.7235 -0.8018  2.4513
11859SOL     OW36101   7.145   1.491   6.485  0.0996  0.1414 -1.0201
11859SOL    HW136102   7.209   1.563   6.483 -0.1588  0.4302  0.2866
11859SOL    HW236103   7.153   1.454   6.573 -0.6258 -0.6608 -1.2778
11860SOL     OW36104   1.654   5.184   4.150 -0.1801 -0.1931 -0.6799
11860SOL    HW136105   1.721   5.154   4.212 -0.5001  1.8154  0.7296
11860SOL    HW236106   1.697   5.251   4.098 -0.5234 -0.3783 -1.2138
11861SOL     OW36107   0.831   5.196   6.337  0.0846  0.4186 -0.3585
11861SOL    HW136108   0.919   5.233   6.333  0.3441  0.0544  1.2682
11861SOL    HW236109   0.833   5.135   6.411 -1.5538  0.4430 -0.2405
11862SOL     OW36110   6.725   5.402   3.333  0.0710 -0.0748 -0.2793
11862SOL    HW136111   6.771   5.459   3.272  0.9068 -0.1314  0.2783
11862SOL    HW236112   6.634   5.431   3.330  0.2029  0.2576 -1.1600
11863SOL     OW36113   6.803   4.036   7.500 -0.1075  0.8446 -0.5761
11863SOL    HW136114   6.844   3.998   7.422 -0.5224  0.0497 -0.4100
11863SOL    HW236115   6.873   4.089   7.539  0.0746  1.3291 -1.5347
11864SOL     OW36116   7.135   7.261   1.788  0.3639  0.1790  0.1639
11864SOL    HW136117   7.148   7.332   1.850 -0.7536  0.6301 -0.1017
11864SOL    HW236118   7.210   7.203   1.802  0.6304  0.7636  1.2485
11865SOL     OW36119   0.441   0.466   0.700  0.1991 -0.0312  0.6883
11865SOL    HW136120   0.459   0.542   0.645 -0.8135 -1.6443 -2.1501
11865SOL    HW236121   0.517   0.409   0.688 -0.9317 -1.3292 -0.9664
11866SOL     OW36122   3.904   7.329   1.056 -0.0324  0.4409  0.1628
11866SOL    HW136123   3.839   7.395   1.079 -0.9183 -0.8181  1.3861
11866SOL    HW236124   3.861   7.245   1.072  1.9959 -0.4401  1.3498
11867SOL     OW36125   1.839   2.293   0.686 -0.2323 -0.1783 -0.3740
11867SOL    HW136126   1.866   2.204   0.710  1.2485  0.3022 -0.2030
11867SOL    HW236127   1.895   2.317   0.612  0.2575  1.0843  0.3789
11868SOL     OW36128   1.209   0.652   3.650  0.6213 -0.0467  0.1128
11868SOL    HW136129   1.235   0.742   3.671  0.6473  0.1838 -0.8596
11868SOL    HW236130   1.167   0.659   3.565  0.1433 -0.8862  0.2711
11869SOL     OW36131   3.768   3.930   6.542  0.0536  0.0684 -0.0794
11869SOL    HW136132   3.784   3.954   6.450  1.1757  1.0749  0.3524
11869SOL    HW236133   3.825   3.989   6.592 -0.2078 -0.7731  1.2438
11870SOL     OW36134   2.592   2.685   5.632 -0.2928  0.0330 -0.2338
11870SOL    HW136135   2.549   2.749   5.574 -1.3184 -1.1206 -0.7901
11870SOL    HW236136   2.630   2.621   5.572 -0.0250 -0.3491  0.3435
11871SOL     OW36137   1.809   5.547   1.030  0.2286 -0.1628  0.0863
11871SOL    HW136138   1.859   5.622   1.063  0.7417 -0.9318  1.1167
11871SOL    HW236139   1.737   5.537   1.093  1.5121 -1.9660  1.3777
11872SOL     OW36140   7.428   3.327   7.256 -0.8557 -0.5113 -0.1135
11872SOL    HW136141   7.417   3.389   7.184  0.7894 -1.2894 -1.1091
11872SOL    HW236142   7.354   3.267   7.248 -1.5122  0.3074 -0.2134
11873SOL     OW36143   4.562   4.436   2.133  0.1328 -0.5025  0.3353
11873SOL    HW136144   4.569   4.346   2.100 -2.2951 -0.8339  0.5731
11873SOL    HW236145   4.559   4.490   2.054  1.1036 -0.6398  0.1850
11874SOL     OW36146   2.996   4.450   0.127  0.0437  0.2690  0.1137
11874SOL    HW136147   2.907   4.434   0.157 -0.1516  1.1625  0.0455
11874SOL    HW236148   2.988   4.462   0.033 -0.0519  2.0940  0.3128
11875SOL     OW36149   1.086   2.672   1.693 -0.5915  0.7862  0.3913
11875SOL    HW136150   1.065   2.648   1.783  0.8105  1.8522  1.0448
11875SOL    HW236151   1.012   2.726   1.664 -1.5044 -0.3591  0.5483
11876SOL     OW36152   3.820   1.539   0.708  0.3038 -0.3094  0.1266
11876SOL    HW136153   3.838   1.447   0.686 -2.7608 -1.1808  0.7553
11876SOL    HW236154   3.864   1.553   0.791  0.5844 -1.2853  0.1551
11877SOL     OW36155   3.894   3.607   6.753 -0.3129  0.8147  0.3313
11877SOL    HW136156   3.968   3.548   6.767  0.3069  1.8803  1.8291
11877SOL    HW236157   3.933   3.695   6.758 -1.7731  1.4183  2.0548
11878SOL     OW36158   6.460   6.186   6.513  0.0436 -0.0630 -0.3125
11878SOL    HW136159   6.505   6.113   6.554 -0.4219  0.0351  0.3961
11878SOL    HW236160   6.466   6.257   6.577 -0.6371  0.1139 -0.4318
11879SOL     OW36161   7.104   4.272   1.862 -0.0430 -0.0951  0.2643
11879SOL    HW136162   7.168   4.343   1.865 -0.0308 -0.0775 -0.2860
11879SOL    HW236163   7.156   4.194   1.839  0.0635 -0.4316  1.5915
11880SOL     OW36164   0.620   7.512   6.129  0.2326 -0.3657  0.5409
11880SOL    HW136165   0.644   7.594   6.085 -0.9135  0.3095  1.1116
11880SOL    HW236166   0.676   7.446   6.089 -0.0642  0.3836 -1.1922
11881SOL     OW36167   1.453   5.498   4.796 -0.4059  0.0592  0.2074
11881SOL    HW136168   1.369   5.513   4.838  0.1625 -1.1294  1.8886
11881SOL    HW236169   1.432   5.460   4.711 -1.5776  2.1784 -0.5388
11882SOL     OW36170   0.612   3.157   1.796  0.3318  0.0490 -0.2050
11882SOL    HW136171   0.562   3.152   1.715  0.4580 -0.4904 -0.2503
11882SOL    HW236172   0.560   3.108   1.860  1.1292 -1.1360 -0.4270
11883SOL     OW36173   1.627   6.668   3.208  0.0577 -0.1001 -0.3764
11883SOL    HW136174   1.646   6.757   3.235  2.3188 -0.6718  0.1402
11883SOL    HW236175   1.673   6.613   3.271  1.2780 -1.5474 -2.3927
11884SOL     OW36176   6.948   2.335   2.607 -0.2611  0.1448  0.3555
11884SOL    HW136177   6.965   2.246   2.576  0.6638  1.2555 -2.6855
11884SOL    HW236178   6.855   2.348   2.590  0.1880  0.6668 -2.0774
11885SOL     OW36179   4.250   7.178   7.014 -0.5876  0.1071  0.4506
11885SOL    HW136180   4.331   7.215   7.047 -0.8329  0.3680  0.7596
11885SOL    HW236181   4.190   7.180   7.089  0.0001 -2.7997  1.1300
11886SOL     OW36182   2.465   7.410   2.915 -0.0496  0.6480 -0.1081
11886SOL    HW136183   2.555   7.384   2.894 -0.5031  0.6898 -2.4876
11886SOL    HW236184   2.428   7.334   2.961  1.4834  1.0764  1.9482
11887SOL     OW36185   6.456   6.934   6.485  0.2807  0.0887  0.0280
11887SOL    HW136186   6.544   6.902   6.464 -0.8812 -2.6584 -1.1981
11887SOL    HW236187   6.402   6.906   6.410 -1.2744  3.8178 -0.4470
11888SOL     OW36188   6.495   6.366   1.343 -0.6301  0.0434  0.5578
11888SOL    HW136189   6.540   6.387   1.425 -0.1139  0.5315  0.1585
11888SOL    HW236190   6.565   6.339   1.283 -0.8520  0.8590 -0.0891
11889SOL     OW36191   0.343   0.981   7.101  0.2859 -0.1662 -0.3097
11889SOL    HW136192   0.362   0.932   7.181 -2.8812 -0.9120  0.1260
11889SOL    HW236193   0.305   1.063   7.131  0.8941  0.4148 -1.0774
11890SOL     OW36194   7.257   5.605   5.406  0.3958  0.1627  0.3362
11890SOL    HW136195   7.169   5.599   5.369  0.1195  0.0728  0.9975
11890SOL    HW236196   7.305   5.534   5.363 -0.0119 -0.1510  0.3810
11891SOL     OW36197   0.304   6.806   4.683  0.4584  0.3900  0.5916
11891SOL    HW136198   0.225   6.760   4.712 -0.2189  2.1483  1.7421
11891SOL    HW236199   0.374   6.742   4.691 -0.8282 -1.2287 -0.4575
11892SOL     OW36200   6.282   3.243   1.097 -0.2092  0.3310  0.0634
11892SOL    HW136201   6.213   3.221   1.034  0.5867 -1.6117 -0.2067
11892SOL    HW236202   6.363   3.241   1.046  0.2096  1.1405  0.6703
11893SOL     OW36203   6.513   3.184   4.692  0.1490 -0.0636 -0.5044
11893SOL    HW136204   6.435   3.213   4.740  0.4795  1.5114 -0.8549
11893SOL    HW236205   6.523   3.092   4.716 -0.3565  0.3569  1.5214
11894SOL     OW36206   5.308   3.381   1.672  0.6954 -0.2152 -0.3805
11894SOL    HW136207   5.385   3.327   1.692  0.9652  0.0184 -0.7780
11894SOL    HW236208   5.335   3.435   1.598  0.1958 -0.0227 -0.4258
11895SOL     OW36209   1.955   5.333   0.874  0.2174  0.3203  0.1748
11895SOL    HW136210   1.890   5.359   0.939  1.5305  0.2392  1.5771
11895SOL    HW236211   1.936   5.240   0.857 -0.4786  0.4882 -0.0065
11896SOL     OW36212   3.051   1.735   7.396  0.0388 -0.3106  0.0816
11896SOL    HW136213   3.082   1.645   7.403  1.1431 -0.0648 -1.3489
11896SOL    HW236214   2.993   1.735   7.321 -0.1950  0.1199  0.2556
11897SOL     OW36215   7.386   3.041   7.423  0.3334 -0.2290  0.0083
11897SOL    HW136216   7.312   3.031   7.363 -0.2429  0.0475  0.6595
11897SOL    HW236217   7.361   3.115   7.479  1.9893  1.2210 -1.0641
11898SOL     OW36218   1.528   5.940   5.525  0.6639 -0.2846  0.1908
11898SOL    HW136219   1.567   5.945   5.612  2.7038 -1.5587 -0.5848
11898SOL    HW236220   1.558   6.020   5.481  0.5373 -0.1773  0.2964
11899SOL     OW36221   4.496   2.102   3.156 -0.0968  0.3988 -0.1153
11899SOL    HW136222   4.501   2.145   3.242  0.7268 -0.5559  0.3337
11899SOL    HW236223   4.582   2.117   3.116 -1.2956  3.1123 -1.9534
11900SOL     OW36224   6.861   7.359   5.449 -0.1411 -0.2269 -0.5296
11900SOL    HW136225   6.887   7.340   5.359  0.0018  0.3406 -0.6084
11900SOL    HW236226   6.914   7.299   5.502 -0.4299 -0.7613 -0.8320
11901SOL     OW36227   0.994   6.692   4.709 -0.5649 -0.3440  0.3761
11901SOL    HW136228   1.051   6.624   4.744 -1.4252 -1.1057  0.3281
11901SOL    HW236229   1.044   6.773   4.719 -0.4833 -0.6124  2.7779
11902SOL     OW36230   5.303   3.707   5.204 -0.0338  0.0255 -0.0714
11902SOL    HW136231   5.210   3.691   5.216  0.3274 -1.3399  1.2385
11902SOL    HW236232   5.345   3.666   5.279  1.6847  0.0668 -0.9382
11903SOL     OW36233   4.582   7.461   6.772 -0.1764  0.5994 -0.8594
11903SOL    HW136234   4.525   7.530   6.805 -0.4616  2.0329 -3.9677
11903SOL    HW236235   4.566   7.460   6.678  0.3777 -3.2790 -1.0619
11904SOL     OW36236   1.185   6.466   2.186  0.0644 -0.7162  0.1270
11904SOL    HW136237   1.237   6.480   2.265  0.2423 -0.3147 -0.0590
11904SOL    HW236238   1.105   6.423   2.217 -0.0022 -0.2751  0.5652
11905SOL     OW36239   6.736   4.540   3.537 -0.2419  0.2882 -0.0118
11905SOL    HW136240   6.801   4.525   3.606  1.2351  1.7630 -0.9969
11905SOL    HW236241   6.757   4.626   3.503 -0.0375 -0.8805 -3.2028
11906SOL     OW36242   1.521   5.476   3.374 -0.6877  0.4725 -0.0573
11906SOL    HW136243   1.584   5.404   3.374 -0.6185  0.5325 -0.2849
11906SOL    HW236244   1.438   5.435   3.396  0.0151  0.9280  4.3945
11907SOL     OW36245   0.788   2.826   4.039 -0.2897 -0.5257 -0.3206
11907SOL    HW136246   0.781   2.735   4.066 -1.1678  0.3827  3.0503
11907SOL    HW236247   0.702   2.863   4.058  0.0901  1.0563 -1.4861
11908SOL     OW36248   4.551   4.870   0.541 -0.5236 -0.8170 -0.1272
11908SOL    HW136249   4.506   4.786   0.548 -1.8871 -0.1593 -0.6974
11908SOL    HW236250   4.644   4.847   0.540 -0.8829 -2.4996 -2.3311
11909SOL     OW36251   3.351   6.432   3.264 -0.1453  0.1095 -0.1848
11909SOL    HW136252   3.266   6.389   3.269 -0.7307  1.2689  0.1112
11909SOL    HW236253   3.404   6.387   3.330 -1.2492  0.9149  1.2948
11910SOL     OW36254   1.199   0.565   2.051 -0.3597  0.2082 -0.1964
11910SOL    HW136255   1.119   0.590   2.005 -0.1432 -0.0654 -0.7239
11910SOL    HW236256   1.176   0.485   2.098 -0.0973 -0.4821 -1.2161
11911SOL     OW36257   6.837   2.927   2.576  0.6813  0.5975  0.5751
11911SOL    HW136258   6.755   2.891   2.543  1.5005 -0.2079 -0.6895
11911SOL    HW236259   6.898   2.853   2.574  0.9569  0.6600  3.3899
11912SOL     OW36260   5.637   4.520   2.307  0.2046 -0.2881 -0.5813
11912SOL    HW136261   5.581   4.580   2.257 -0.1139 -1.2455 -1.4052
11912SOL    HW236262   5.720   4.567   2.317  0.6091 -0.4173 -2.8309
11913SOL     OW36263   3.722   1.887   5.234 -0.2104 -0.3264 -0.6729
11913SOL    HW136264   3.635   1.868   5.269 -0.1781 -1.0767 -0.9869
11913SOL    HW236265   3.773   1.915   5.311 -0.7674  0.2772 -0.5195
11914SOL     OW36266   1.001   1.118   7.415 -0.2157 -0.1442 -0.2467
11914SOL    HW136267   1.061   1.115   7.489 -0.8907 -2.0158  0.2833
11914SOL    HW236268   1.057   1.120   7.338  0.4998 -0.0285  0.2707
11915SOL     OW36269   0.173   2.939   0.549  0.4835 -0.1647 -0.0586
11915SOL    HW136270   0.126   3.000   0.492 -0.4551 -0.6079  0.2332
11915SOL    HW236271   0.114   2.865   0.560  0.7685 -0.2251  1.2448
11916SOL     OW36272   6.485   2.455   6.457 -0.0052 -0.7263 -0.3040
11916SOL    HW136273   6.569   2.439   6.416  0.7356 -2.2093  1.6213
11916SOL    HW236274   6.496   2.425   6.548 -1.9503  1.0202  0.6104
11917SOL     OW36275   0.891   2.864   7.208  0.3898  0.1104  0.0544
11917SOL    HW136276   0.961   2.879   7.273 -0.8389  3.4138  0.8295
11917SOL    HW236277   0.812   2.852   7.261  0.1583 -3.2118 -0.8234
11918SOL     OW36278   7.056   1.362   5.544  0.2516  0.2947  0.1526
11918SOL    HW136279   7.103   1.310   5.609  0.8866 -0.2033 -0.6848
11918SOL    HW236280   6.969   1.323   5.539  0.8293 -0.9276 -0.7153
11919SOL     OW36281   3.433   4.931   6.758 -0.2909 -0.3799  0.1800
11919SOL    HW136282   3.442   4.926   6.663  1.2605  0.2997  0.2534
11919SOL    HW236283   3.361   4.872   6.779 -1.9119  0.8631 -1.5771
11920SOL     OW36284   6.027   5.838   1.009  0.3560 -0.6694  0.0121
11920SOL    HW136285   5.956   5.812   1.068  0.4223  0.5849  0.6754
11920SOL    HW236286   6.107   5.809   1.053  0.3833 -0.0539  0.3775
11921SOL     OW36287   4.601   1.694   2.701 -0.1042 -0.1654  0.2173
11921SOL    HW136288   4.584   1.684   2.607 -0.2310 -0.4250  0.2678
11921SOL    HW236289   4.670   1.761   2.706  0.1910 -0.4423 -0.0815
11922SOL     OW36290   3.544   2.726   1.889  0.1535 -0.5588  0.0964
11922SOL    HW136291   3.542   2.794   1.822  0.3386 -0.6078  0.0411
11922SOL    HW236292   3.636   2.699   1.894  0.4778  0.6832  1.6344
11923SOL     OW36293   1.439   5.573   1.976 -0.1194  0.1271 -0.4600
11923SOL    HW136294   1.450   5.663   1.946 -0.0473  0.8171  1.4660
11923SOL    HW236295   1.360   5.576   2.031 -0.6852 -1.2221 -1.1516
11924SOL     OW36296   2.226   5.492   4.145  0.3393  0.0280  0.0847
11924SOL    HW136297   2.190   5.403   4.147  0.5029 -0.0483 -0.3103
11924SOL    HW236298   2.181   5.537   4.216 -0.6355 -0.0256 -0.4912
11925SOL     OW36299   0.174   1.393   5.088 -0.4510  0.1800 -0.2131
11925SOL    HW136300   0.219   1.384   5.004 -2.0320  3.4026 -1.5720
11925SOL    HW236301   0.094   1.342   5.077  0.0202 -0.6009 -0.0849
11926SOL     OW36302   2.301   7.352   0.491  0.2613  0.2873 -0.4613
11926SOL    HW136303   2.280   7.377   0.401  0.3954  1.3634 -0.2131
11926SOL    HW236304   2.242   7.406   0.544  2.0141  1.6648  0.1774
11927SOL     OW36305   1.064   6.900   0.224  0.2114  0.2449 -0.6607
11927SOL    HW136306   1.094   6.834   0.287 -0.8669 -2.1702 -2.5027
11927SOL    HW236307   1.051   6.979   0.277 -1.9299 -1.9544  2.4659
11928SOL     OW36308   2.587   6.674   4.575  0.0400  0.0682 -0.4611
11928SOL    HW136309   2.599   6.743   4.511 -0.3595  1.3141  0.7573
11928SOL    HW236310   2.625   6.596   4.535  0.9579  1.1089 -1.6540
11929SOL     OW36311   0.895   1.831   1.582 -0.0571 -0.3278 -0.7869
11929SOL    HW136312   0.838   1.906   1.566 -0.1439 -0.0448  0.7039
11929SOL    HW236313   0.839   1.755   1.567 -0.9848 -0.0500  1.0600
11930SOL     OW36314   1.033   3.391   6.735 -0.2519  0.2168 -0.0110
11930SOL    HW136315   1.071   3.417   6.651 -0.4362 -0.3932 -0.2947
11930SOL    HW236316   0.984   3.311   6.715 -0.2497  0.0296  0.6899
11931SOL     OW36317   6.107   6.837   5.271  0.3418 -0.4066 -0.3992
11931SOL    HW136318   6.074   6.749   5.250  0.6749 -0.9440  1.1966
11931SOL    HW236319   6.030   6.894   5.264 -0.3229 -1.1704  0.4855
11932SOL     OW36320   5.303   3.356   1.995  0.6191 -0.2740  0.4264
11932SOL    HW136321   5.351   3.308   1.928 -0.7807 -0.2008 -0.6875
11932SOL    HW236322   5.298   3.445   1.961 -1.6208 -0.6106 -0.3034
11933SOL     OW36323   1.150   2.266   5.489  0.1480  0.9007 -0.0349
11933SOL    HW136324   1.125   2.208   5.561  0.9298  0.4962 -0.0776
11933SOL    HW236325   1.246   2.264   5.490  0.1630  1.1759 -0.8611
11934SOL     OW36326   5.104   0.405   2.770 -0.6399  0.0520  0.0016
11934SOL    HW136327   5.039   0.345   2.734 -0.3988 -0.0271 -0.3052
11934SOL    HW236328   5.185   0.354   2.774 -0.0048  0.8244 -1.8462
11935SOL     OW36329   4.909   2.565   1.563  0.1752  0.0409  0.3114
11935SOL    HW136330   4.832   2.619   1.547 -0.8828 -1.0013  1.5827
11935SOL    HW236331   4.980   2.609   1.516 -0.9472  1.6581  0.0419
11936SOL     OW36332   5.263   0.332   1.345 -0.0707 -0.9005 -0.3822
11936SOL    HW136333   5.267   0.393   1.418 -2.3235 -1.2796  0.1252
11936SOL    HW236334   5.235   0.249   1.383  3.3256 -2.4768 -0.9907
11937SOL     OW36335   4.233   6.024   0.199  0.2128 -0.3812 -0.4140
11937SOL    HW136336   4.293   5.951   0.212 -1.1659 -1.5199 -0.2783
11937SOL    HW236337   4.269   6.095   0.253  1.6681 -0.8702 -0.6944
11938SOL     OW36338   2.936   0.618   4.535 -0.3326  0.3118  0.2202
11938SOL    HW136339   2.935   0.648   4.444 -2.6915  0.6587  0.2972
11938SOL    HW236340   3.029   0.610   4.556  0.2981 -0.3469 -2.3930
11939SOL     OW36341   6.459   2.898   4.010  0.3228 -0.5181 -0.1029
11939SOL    HW136342   6.515   2.879   4.085 -1.6304 -1.3300  1.2463
11939SOL    HW236343   6.433   2.990   4.022  1.7670  0.0437 -1.0560
11940SOL     OW36344   4.049   2.090   1.241 -0.3288  0.1234  0.2315
11940SOL    HW136345   4.099   2.171   1.243 -1.8372  1.0791  0.3218
11940SOL    HW236346   4.074   2.044   1.322  1.3463 -0.0451 -0.3479
11941SOL     OW36347   1.151   2.529   0.573 -0.1366 -0.4316  0.1204
11941SOL    HW136348   1.174   2.441   0.602 -0.2170 -0.5824 -0.2743
11941SOL    HW236349   1.154   2.525   0.477  0.1803  0.0769  0.1015
11942SOL     OW36350   2.375   2.010   1.979 -0.4277  0.1637 -0.2587
11942SOL    HW136351   2.329   1.936   1.940 -0.9903  1.2522 -1.7415
11942SOL    HW236352   2.368   1.996   2.073  0.0309 -1.9906 -0.5023
11943SOL     OW36353   1.641   1.213   1.664  0.4348 -0.5040  0.1226
11943SOL    HW136354   1.700   1.150   1.705 -0.4604 -1.7771 -0.4430
11943SOL    HW236355   1.577   1.158   1.617 -1.7363  0.7495  1.4349
11944SOL     OW36356   5.002   2.956   0.637  0.1571 -0.1500  0.0192
11944SOL    HW136357   5.075   2.910   0.596  0.5272 -0.9809  1.5468
11944SOL    HW236358   5.017   3.048   0.615  0.7563 -0.4810 -1.0408
11945SOL     OW36359   4.375   5.464   4.927 -0.0437  0.3620 -0.2389
11945SOL    HW136360   4.282   5.442   4.933 -0.1501  0.6557 -0.7994
11945SOL    HW236361   4.395   5.505   5.011 -0.4853  0.5614 -0.2288
11946SOL     OW36362   1.169   1.213   3.106 -0.0750 -0.3262  0.6299
11946SOL    HW136363   1.164   1.250   3.194 -1.1653 -1.0652  0.9028
11946SOL    HW236364   1.201   1.124   3.119 -0.7994 -0.6376  0.3555
11947SOL     OW36365   1.799   6.094   2.328  0.6121 -0.0776  0.2454
11947SOL    HW136366   1.732   6.159   2.309  2.0084  1.5743  0.7022
11947SOL    HW236367   1.806   6.043   2.247 -0.2439  0.5873 -0.2693
11948SOL     OW36368   3.171   7.388   4.702  0.2760 -0.0403  0.1639
11948SOL    HW136369   3.214   7.307   4.729  1.1290  0.9591  1.9871
11948SOL    HW236370   3.109   7.360   4.634  0.8532 -2.1412  0.4105
11949SOL     OW36371   3.094   5.919   6.420  0.5028  0.0262  0.3114
11949SOL    HW136372   3.019   5.871   6.384  0.6558 -0.0445  0.0869
11949SOL    HW236373   3.059   6.006   6.438  0.6047  0.3087 -0.7460
11950SOL     OW36374   2.762   7.191   4.396 -0.1509 -0.2049  0.1474
11950SOL    HW136375   2.668   7.181   4.385 -0.3736  0.5079  1.2075
11950SOL    HW236376   2.784   7.271   4.348 -0.1819 -0.0907  0.3204
11951SOL     OW36377   2.417   7.455   3.876  0.0781 -0.4425  0.1495
11951SOL    HW136378   2.387   7.365   3.862 -0.7142 -0.2287  0.4175
11951SOL    HW236379   2.423   7.492   3.788 -0.0955 -0.6029  0.0697
11952SOL     OW36380   3.822   7.440   5.537 -0.2923 -0.1497  0.3235
11952SOL    HW136381   3.790   7.436   5.447 -0.7734  0.7298  0.4461
11952SOL    HW236382   3.911   7.474   5.530 -0.0867 -0.7148  0.1355
11953SOL     OW36383   0.746   7.114   6.017  0.3338  0.4268  0.2804
11953SOL    HW136384   0.784   7.026   6.018  0.2166  0.3499  2.5017
11953SOL    HW236385   0.773   7.153   6.100 -1.6879  1.5607  0.4731
11954SOL     OW36386   1.613   3.908   0.530  0.3134  0.2901 -0.4666
11954SOL    HW136387   1.679   3.850   0.569  0.8311  0.6673 -0.7776
11954SOL    HW236388   1.660   3.955   0.461 -0.3263  0.4327 -0.8118
11955SOL     OW36389   3.468   7.049   7.333 -0.0554 -0.0861  0.1954
11955SOL    HW136390   3.492   6.957   7.335  0.9612  0.1764  0.7788
11955SOL    HW236391   3.535   7.093   7.386  1.0289  1.3324 -2.1695
11956SOL     OW36392   0.675   6.558   2.235 -0.2875  0.1924 -0.2132
11956SOL    HW136393   0.590   6.535   2.272  0.0590  0.0891  0.5433
11956SOL    HW236394   0.657   6.633   2.179 -1.0478 -0.4721 -0.8812
11957SOL     OW36395   2.862   0.191   4.380  0.2431  0.3112 -0.1380
11957SOL    HW136396   2.947   0.199   4.425  0.6091  0.9287 -0.9160
11957SOL    HW236397   2.799   0.176   4.451  0.9094  0.4834  0.5078
11958SOL     OW36398   1.581   6.922   6.818  0.2930 -0.0296 -0.1758
11958SOL    HW136399   1.595   6.935   6.912  1.0659  0.5970 -0.3622
11958SOL    HW236400   1.645   6.855   6.794  0.0373 -0.2515 -0.2504
11959SOL     OW36401   0.720   2.972   2.655  0.7052  0.5150  0.1094
11959SOL    HW136402   0.789   3.011   2.602  0.1798  0.6834 -0.4726
11959SOL    HW236403   0.660   3.045   2.674 -0.7194 -0.0930 -1.6763
11960SOL     OW36404   3.812   4.957   4.681 -0.7071  0.2869 -0.3020
11960SOL    HW136405   3.797   4.879   4.628 -2.2123  0.4645 -0.1671
11960SOL    HW236406   3.745   5.019   4.654 -0.6577  0.8808  0.8452
11961SOL     OW36407   0.417   2.846   4.809 -0.0141  0.3097  0.2835
11961SOL    HW136408   0.415   2.940   4.827 -1.3550 -0.1053  2.6181
11961SOL    HW236409   0.455   2.807   4.888  1.1393 -1.1040 -0.9009
11962SOL     OW36410   5.782   0.215   3.848  0.0467 -0.4642  0.0924
11962SOL    HW136411   5.869   0.256   3.850  0.4243 -1.2533  1.8227
11962SOL    HW236412   5.762   0.206   3.755  1.8594 -0.3371 -0.3538
11963SOL     OW36413   5.877   2.252   0.705  0.3950 -0.2309 -0.0844
11963SOL    HW136414   5.895   2.344   0.724  1.2961 -0.8086  2.0667
11963SOL    HW236415   5.957   2.206   0.728 -0.1722 -1.6262 -0.7519
11964SOL     OW36416   4.397   6.110   1.791 -0.2393 -0.5315  0.2485
11964SOL    HW136417   4.375   6.080   1.879 -0.1293  0.2583  0.5490
11964SOL    HW236418   4.379   6.204   1.792  0.0382 -0.4638 -0.4850
11965SOL     OW36419   0.558   1.156   0.944 -0.5410 -0.0725 -0.1843
11965SOL    HW136420   0.489   1.103   0.982 -0.3726 -0.0755  0.1221
11965SOL    HW236421   0.592   1.207   1.017 -0.9964  0.7903 -0.5505
11966SOL     OW36422   5.003   2.247   6.582 -0.3413 -0.2071 -0.6408
11966SOL    HW136423   5.053   2.317   6.624  0.3506 -1.1654  0.1750
11966SOL    HW236424   4.912   2.273   6.594 -0.2070 -0.7031  2.0094
11967SOL     OW36425   7.405   6.538   0.587  0.0169  0.4300  0.8929
11967SOL    HW136426   7.333   6.512   0.529  0.3113  1.3564  0.0772
11967SOL    HW236427   7.466   6.465   0.582  0.1329  0.5689 -0.1705
11968SOL     OW36428   6.340   0.786   6.619  0.1533 -0.0450 -0.0933
11968SOL    HW136429   6.312   0.698   6.647 -2.0470  0.8508  0.7927
11968SOL    HW236430   6.343   0.781   6.523  2.7531 -1.7653 -0.0235
11969SOL     OW36431   5.089   3.676   0.354 -0.2072 -0.3207  0.5008
11969SOL    HW136432   5.096   3.739   0.283 -0.2051 -0.6323  0.2203
11969SOL    HW236433   5.140   3.714   0.425 -0.3962  0.1009  0.4156
11970SOL     OW36434   5.551   6.100   0.451 -0.3828 -0.1919  0.1891
11970SOL    HW136435   5.575   6.167   0.388 -1.1947 -1.0490 -1.0909
11970SOL    HW236436   5.616   6.107   0.520  0.1563  1.2041 -0.4276
11971SOL     OW36437   5.448   3.768   6.769 -0.1078 -0.0262  0.3216
11971SOL    HW136438   5.483   3.788   6.682  2.9104 -1.1475  1.1353
11971SOL    HW236439   5.424   3.675   6.764 -1.3373  0.2785  0.3054
11972SOL     OW36440   2.729   6.306   6.776  0.7523  0.9054  0.0188
11972SOL    HW136441   2.748   6.244   6.706  2.0370  1.7327 -0.4040
11972SOL    HW236442   2.724   6.252   6.855  0.2652  0.0814 -0.5614
11973SOL     OW36443   0.482   3.158   6.750  0.2186 -0.1185  0.0700
11973SOL    HW136444   0.441   3.201   6.825 -0.1722 -0.7976  0.2519
11973SOL    HW236445   0.563   3.121   6.784  0.1960 -0.1584  0.0795
11974SOL     OW36446   0.507   0.673   5.271  0.3012  0.2795 -0.0806
11974SOL    HW136447   0.500   0.584   5.305 -0.9848  0.4608  0.1909
11974SOL    HW236448   0.467   0.727   5.338  0.7908  1.0368 -0.3892
11975SOL     OW36449   0.756   3.076   4.904  0.1112  0.1019 -0.0139
11975SOL    HW136450   0.689   3.131   4.945 -0.4059 -1.8763  1.9874
11975SOL    HW236451   0.819   3.138   4.869 -2.7292  2.0894 -2.0979
11976SOL     OW36452   6.061   0.220   3.567 -0.0320 -0.1004  0.1409
11976SOL    HW136453   6.039   0.270   3.646 -0.2456  1.3621 -0.8137
11976SOL    HW236454   5.978   0.180   3.540  0.6077 -3.4919  2.4798
11977SOL     OW36455   5.760   3.219   3.355 -0.6265 -0.4559 -0.0927
11977SOL    HW136456   5.742   3.313   3.353 -1.7341 -0.6410 -2.2065
11977SOL    HW236457   5.775   3.196   3.263  0.7605 -2.1666  0.5061
11978SOL     OW36458   1.562   2.218   1.871  0.4492  0.1112  0.0566
11978SOL    HW136459   1.492   2.263   1.822  1.3483  0.3321 -1.0915
11978SOL    HW236460   1.627   2.197   1.804  1.3580 -0.3334  1.0581
11979SOL     OW36461   3.847   6.195   3.670  0.0157  0.3203  0.1596
11979SOL    HW136462   3.907   6.193   3.595  1.1049  0.1881  1.0149
11979SOL    HW236463   3.869   6.117   3.720 -1.6773 -0.3532 -0.1044
11980SOL     OW36464   1.356   2.312   1.498  0.1622  0.1193 -0.4292
11980SOL    HW136465   1.344   2.306   1.593 -0.0879  0.0178 -0.4676
11980SOL    HW236466   1.325   2.400   1.475  0.2477  0.1537 -0.4145
11981SOL     OW36467   4.654   5.640   5.288  0.7663  0.2529 -0.7782
11981SOL    HW136468   4.734   5.587   5.282  0.7271  0.2613 -1.4062
11981SOL    HW236469   4.685   5.727   5.311  0.6726 -0.5388  3.0294
11982SOL     OW36470   6.823   4.816   1.106 -0.1511  0.0426 -0.1132
11982SOL    HW136471   6.909   4.793   1.069  0.4461  0.9159  0.6780
11982SOL    HW236472   6.820   4.771   1.190 -0.0739  0.7557  0.2745
11983SOL     OW36473   6.232   2.316   7.529 -0.2183 -0.0693 -0.0353
11983SOL    HW136474   6.196   2.381   7.590  1.0918  1.0308 -0.3662
11983SOL    HW236475   6.290   2.263   7.582  0.1732  0.2621 -0.1280
11984SOL     OW36476   3.781   1.124   6.136  0.2433 -0.4903  0.0379
11984SOL    HW136477   3.822   1.101   6.219 -0.2836 -0.3700  0.3374
11984SOL    HW236478   3.774   1.220   6.139 -0.9819 -0.5777  0.4418
11985SOL     OW36479   4.068   5.603   6.288 -0.6240 -0.1635  0.1678
11985SOL    HW136480   3.974   5.623   6.294 -0.3524  1.7975 -1.2971
11985SOL    HW236481   4.082   5.579   6.197  0.1557 -1.3983  0.5940
11986SOL     OW36482   3.509   2.237   0.449 -0.0503  0.1928 -0.1121
11986SOL    HW136483   3.485   2.265   0.361 -1.6222 -1.6075 -0.3247
11986SOL    HW236484   3.594   2.194   0.437 -0.5188 -0.5514 -0.8867
11987SOL     OW36485   4.876   3.586   3.090 -0.2525  0.1044  0.2325
11987SOL    HW136486   4.957   3.559   3.134 -0.1607 -0.8114 -0.4500
11987SOL    HW236487   4.898   3.584   2.997 -0.3168  2.4302  0.1225
11988SOL     OW36488   3.457   2.047   4.537 -0.6254 -0.0059  0.1648
11988SOL    HW136489   3.505   2.037   4.455  1.0131 -2.4120  1.3032
11988SOL    HW236490   3.504   2.116   4.584  1.8750 -2.2233  1.2035
11989SOL     OW36491   6.358   5.214   0.281  0.2893  0.2992 -0.3178
11989SOL    HW136492   6.437   5.262   0.309  1.8627 -1.1713 -2.0168
11989SOL    HW236493   6.319   5.183   0.363  1.4688  1.0565  0.5665
11990SOL     OW36494   0.586   4.772   7.233  0.1540  0.4295 -0.2185
11990SOL    HW136495   0.544   4.792   7.149 -0.7030 -0.3512  0.0164
11990SOL    HW236496   0.546   4.833   7.295  0.1781  0.4305 -0.2040
11991SOL     OW36497   2.623   6.518   7.223  0.1388 -0.4362 -0.3858
11991SOL    HW136498   2.646   6.444   7.279 -2.0511 -0.1172  1.0719
11991SOL    HW236499   2.681   6.510   7.148  0.8086 -2.9233  0.2900
11992SOL     OW36500   4.393   4.425   3.273 -0.2296 -0.1224 -0.3127
11992SOL    HW136501   4.306   4.388   3.284 -0.5009  1.0342  1.8933
11992SOL    HW236502   4.423   4.391   3.188 -3.0318 -0.0822 -1.4218
11993SOL     OW36503   3.835   4.588   0.754  0.0344  0.1414 -0.2250
11993SOL    HW136504   3.743   4.592   0.728  0.3888  1.6023 -1.4216
11993SOL    HW236505   3.860   4.679   0.765  1.2197 -0.2639  0.5473
11994SOL     OW36506   1.199   1.346   3.819  0.2792  0.0539 -0.1492
11994SOL    HW136507   1.168   1.256   3.811 -0.2916  0.0472  1.6759
11994SOL    HW236508   1.294   1.338   3.827  0.3242 -0.2951 -0.9654
11995SOL     OW36509   2.584   2.213   2.534  0.4869 -0.2699 -0.0069
11995SOL    HW136510   2.503   2.202   2.484 -0.1236 -0.3511  0.9846
11995SOL    HW236511   2.650   2.165   2.483  0.3893  1.4645 -1.8907
11996SOL     OW36512   4.971   0.682   7.259  0.4631 -0.1667  0.0941
11996SOL    HW136513   5.016   0.677   7.175 -0.1295  0.9331 -0.3094
11996SOL    HW236514   5.040   0.698   7.323  0.7354  0.8944 -0.4383
11997SOL     OW36515   4.374   1.461   4.910  0.1716 -0.3999 -0.2637
11997SOL    HW136516   4.405   1.395   4.848  0.1795 -1.3273  0.6883
11997SOL    HW236517   4.437   1.532   4.904 -0.6761  0.2628 -2.4486
11998SOL     OW36518   7.214   4.825   6.527  0.4764 -0.4857  0.1839
11998SOL    HW136519   7.238   4.904   6.478 -0.3264 -1.4511 -1.8904
11998SOL    HW236520   7.118   4.827   6.529  0.3736 -2.1314 -1.2618
11999SOL     OW36521   4.420   4.339   1.731  0.2865  0.0077  0.3037
11999SOL    HW136522   4.373   4.255   1.730  0.3809 -0.0529 -0.8414
11999SOL    HW236523   4.397   4.380   1.647  2.5161 -0.1727 -0.4739
12000SOL     OW36524   3.391   7.385   1.844  0.0451  0.5921 -0.1804
12000SOL    HW136525   3.361   7.476   1.832  0.1013  0.4897 -1.1908
12000SOL    HW236526   3.413   7.356   1.756  1.2006 -0.0077  0.2929
12001SOL     OW36527   1.973   6.978   1.136  0.0293  0.1526  0.4985
12001SOL    HW136528   2.018   6.900   1.103  2.6987  2.8802 -3.1767
12001SOL    HW236529   2.040   7.024   1.188 -0.4806  1.3525  0.1277
12002SOL     OW36530   6.139   0.478   1.105  0.1720  0.2701  0.2109
12002SOL    HW136531   6.110   0.392   1.074 -0.1506  0.1395  0.8666
12002SOL    HW236532   6.107   0.539   1.038 -0.0392 -0.0637  0.0040
12003SOL     OW36533   2.502   5.314   2.394  0.0339  0.2801 -0.0312
12003SOL    HW136534   2.510   5.219   2.400  0.7016  0.1938 -1.7437
12003SOL    HW236535   2.408   5.330   2.400 -0.1915 -0.6055 -0.9496
12004SOL     OW36536   7.506   2.603   3.251 -0.2512 -0.1621 -0.2365
12004SOL    HW136537   7.425   2.654   3.263 -0.3762 -0.5156  0.4888
12004SOL    HW236538   7.561   2.659   3.198 -0.7651  0.3257 -0.2709
12005SOL     OW36539   6.145   5.142   6.128 -0.0397  0.1413 -0.0056
12005SOL    HW136540   6.069   5.181   6.171 -0.6977  0.3614 -1.3166
12005SOL    HW236541   6.116   5.054   6.103 -0.4144  0.7248 -1.8106
12006SOL     OW36542   5.295   1.548   3.557  0.2518 -0.3984 -0.2813
12006SOL    HW136543   5.205   1.541   3.527  0.4409 -0.5006 -0.8303
12006SOL    HW236544   5.340   1.596   3.488  0.7117 -0.7135 -0.2079
12007SOL     OW36545   6.059   7.193   6.267  0.8091 -0.0512  0.2879
12007SOL    HW136546   5.966   7.175   6.279  1.2250 -1.3858  1.8025
12007SOL    HW236547   6.065   7.289   6.265 -0.4535  0.0961  1.6231
12008SOL     OW36548   4.789   5.556   6.840 -0.4145  0.1870 -0.1712
12008SOL    HW136549   4.739   5.475   6.828  1.9425 -1.6738  1.7079
12008SOL    HW236550   4.853   5.555   6.768 -0.3002  0.3281 -0.0709
12009SOL     OW36551   4.490   3.649   5.072 -0.0482  0.6902  0.1202
12009SOL    HW136552   4.529   3.734   5.091  1.3439  0.3913 -1.2365
12009SOL    HW236553   4.400   3.656   5.104  0.2029  2.4753  0.5125
12010SOL     OW36554   5.461   1.491   0.077 -0.1590 -0.5582  0.6817
12010SOL    HW136555   5.538   1.544   0.055  1.4157 -2.7113  0.7361
12010SOL    HW236556   5.394   1.519   0.014  0.7626  1.0854  0.3731
12011SOL     OW36557   4.971   7.261   3.486  0.2293 -0.0840  0.4118
12011SOL    HW136558   4.958   7.307   3.568 -0.5491 -0.2487  0.3896
12011SOL    HW236559   4.977   7.168   3.511 -0.8682 -0.2253  0.2231
12012SOL     OW36560   3.074   1.688   6.756  0.2146  0.2545 -0.1060
12012SOL    HW136561   3.086   1.761   6.695  1.1096 -0.8052 -1.2532
12012SOL    HW236562   3.154   1.688   6.809  0.1419  0.2056  0.0050
12013SOL     OW36563   1.468   2.095   1.437 -0.2268  0.6895 -0.3223
12013SOL    HW136564   1.442   2.086   1.345 -0.2789 -0.7705 -0.1953
12013SOL    HW236565   1.429   2.178   1.465 -0.1925  1.1704 -1.6155
12014SOL     OW36566   6.790   6.823   4.929 -0.6180  0.0947 -0.0142
12014SOL    HW136567   6.848   6.844   5.003 -1.5239  0.1012  0.7151
12014SOL    HW236568   6.779   6.728   4.934  0.7219 -0.1590 -1.2288
12015SOL     OW36569   3.681   2.334   2.829 -0.0757  0.5952 -0.1388
12015SOL    HW136570   3.756   2.274   2.827 -0.6462 -0.1139 -0.9117
12015SOL    HW236571   3.710   2.410   2.780  0.6696  0.9906  0.8798
12016SOL     OW36572   1.206   3.734   0.308  0.0047  0.0104  0.0798
12016SOL    HW136573   1.269   3.777   0.250  0.0941 -0.6499 -0.3275
12016SOL    HW236574   1.240   3.749   0.396  0.9444 -0.6327 -0.1518
12017SOL     OW36575   7.104   3.878   7.056 -0.4405 -0.5765 -0.0916
12017SOL    HW136576   7.024   3.867   7.004  1.3730 -0.7443 -3.0982
12017SOL    HW236577   7.175   3.857   6.995  2.0160  1.3011  1.9049
12018SOL     OW36578   5.585   5.181   4.038  0.1873 -0.1557  0.0501
12018SOL    HW136579   5.594   5.188   3.943 -1.2387 -0.7975 -0.1533
12018SOL    HW236580   5.525   5.252   4.062  1.3627  0.6830  0.6410
12019SOL     OW36581   1.049   6.692   4.415 -0.3979 -1.1253  0.2307
12019SOL    HW136582   1.092   6.770   4.379 -0.3594 -0.9800  0.5870
12019SOL    HW236583   1.056   6.703   4.510  0.7620 -2.2162  0.2828
12020SOL     OW36584   2.093   6.227   1.493 -0.0070  0.0144  0.3924
12020SOL    HW136585   2.108   6.274   1.574 -0.4666 -0.5733  0.8283
12020SOL    HW236586   2.064   6.295   1.431 -1.8396  0.1757  1.3390
12021SOL     OW36587   6.954   1.701   5.020 -0.1732 -0.2192 -0.1920
12021SOL    HW136588   7.033   1.670   5.065 -1.0575 -0.2304  1.4054
12021SOL    HW236589   6.975   1.791   4.995 -0.2721  0.3961  1.8216
12022SOL     OW36590   3.162   6.747   1.454 -0.5957  1.0236  0.7376
12022SOL    HW136591   3.106   6.723   1.380 -0.8333 -0.4235  1.3610
12022SOL    HW236592   3.141   6.839   1.469 -0.2067  1.5034 -1.2590
12023SOL     OW36593   2.206   0.909   4.312 -0.4282  0.3683 -0.0987
12023SOL    HW136594   2.214   0.931   4.405 -0.6348 -2.3523  0.6416
12023SOL    HW236595   2.161   0.825   4.311 -0.6231  0.4241 -2.7039
12024SOL     OW36596   0.249   2.687   0.019 -0.1688  0.2901  0.7429
12024SOL    HW136597   0.196   2.611   0.043 -1.6721  0.7809 -0.8787
12024SOL    HW236598   0.186   2.754  -0.005  1.1654  1.5668  0.6761
12025SOL     OW36599   1.949   1.453   6.305  1.1897  0.2539 -0.2704
12025SOL    HW136600   1.942   1.361   6.277 -2.9963 -0.1384  1.3497
12025SOL    HW236601   1.861   1.488   6.293  2.4488  3.8668  0.0329
12026SOL     OW36602   2.114   1.454   7.072 -0.3322 -0.4989  0.0142
12026SOL    HW136603   2.039   1.508   7.045 -0.4915 -0.5721  0.3106
12026SOL    HW236604   2.118   1.464   7.167 -0.5004 -1.1867  0.0955
12027SOL     OW36605   2.123   0.016   0.610  0.1145  0.0324  0.0192
12027SOL    HW136606   2.034   0.024   0.574  0.3174  0.9544 -0.3003
12027SOL    HW236607   2.157   0.105   0.610  0.5692 -0.1196  1.3897
12028SOL     OW36608   5.131   3.203   2.147  0.1796  0.7815 -0.3458
12028SOL    HW136609   5.108   3.262   2.218 -0.7995 -0.0581  0.0632
12028SOL    HW236610   5.196   3.251   2.095 -0.3888  2.0937  0.1207
12029SOL     OW36611   3.032   6.535   6.541 -0.0279  0.5261  0.9960
12029SOL    HW136612   3.090   6.514   6.468 -1.3180  0.1354  0.0463
12029SOL    HW236613   3.075   6.496   6.618  1.5393  1.2796  0.5479
12030SOL     OW36614   1.514   6.943   5.135  0.2655  0.0658 -0.4014
12030SOL    HW136615   1.434   6.895   5.155 -1.2375  2.6457  0.2167
12030SOL    HW236616   1.574   6.918   5.206 -1.0288  0.3266  0.8375
12031SOL     OW36617   6.357   1.269   4.238 -0.6298  0.1631  0.2649
12031SOL    HW136618   6.436   1.253   4.186 -0.6554 -0.1793  0.3315
12031SOL    HW236619   6.388   1.265   4.329 -0.5057  1.1615  0.2796
12032SOL     OW36620   4.200   5.002   4.825 -0.1872 -0.1943 -0.6123
12032SOL    HW136621   4.212   4.907   4.813  2.6105  0.2089 -1.8199
12032SOL    HW236622   4.181   5.012   4.918  0.3951 -1.8932 -0.2719
12033SOL     OW36623   5.593   3.775   4.833 -0.3473 -0.0634 -0.2537
12033SOL    HW136624   5.656   3.802   4.900  0.2482  0.6071 -1.0617
12033SOL    HW236625   5.551   3.857   4.806 -1.1429 -0.4327 -0.1452
12034SOL     OW36626   5.459   4.929   4.398 -0.5804 -0.4768 -0.3716
12034SOL    HW136627   5.425   5.013   4.368  0.3595  0.0845  0.0753
12034SOL    HW236628   5.510   4.896   4.324  0.8376  0.3955  0.1580
12035SOL     OW36629   3.747   7.024   5.107 -0.5934 -0.0425 -0.0020
12035SOL    HW136630   3.729   6.967   5.182  0.5545 -1.0588 -0.4522
12035SOL    HW236631   3.793   6.967   5.045 -1.8575  0.6689 -1.6418
12036SOL     OW36632   0.590   2.898   1.290 -0.1176  0.1271 -0.3001
12036SOL    HW136633   0.538   2.826   1.256 -0.7473  0.3026  0.2708
12036SOL    HW236634   0.604   2.876   1.382  1.3664 -0.2307 -0.5865
12037SOL     OW36635   2.229   3.133   1.912 -0.3097 -0.3140 -0.2886
12037SOL    HW136636   2.305   3.171   1.867 -0.2373 -1.3469 -1.0687
12037SOL    HW236637   2.262   3.110   1.999 -0.2074  0.8583 -0.0000
12038SOL     OW36638   2.959   0.354   6.117  0.0540 -0.2573  0.2826
12038SOL    HW136639   3.046   0.341   6.081  0.3166  1.1945  0.3229
12038SOL    HW236640   2.900   0.313   6.054  0.7093 -0.5109 -0.1704
12039SOL     OW36641   6.918   1.150   2.629 -0.4128 -0.0640  0.5413
12039SOL    HW136642   6.885   1.070   2.589 -1.3860  0.4189  0.3601
12039SOL    HW236643   6.954   1.201   2.556  0.0616 -0.2547  0.6348
12040SOL     OW36644   2.036   7.403   4.391  0.5477  0.4351 -0.0874
12040SOL    HW136645   1.977   7.332   4.415  0.6521  0.0802 -0.8584
12040SOL    HW236646   2.102   7.404   4.460  2.0991 -1.9911 -1.3969
12041SOL     OW36647   2.738   4.336   2.461 -0.2003 -0.4979  0.3451
12041SOL    HW136648   2.669   4.311   2.522 -0.3184 -0.2857  0.2972
12041SOL    HW236649   2.800   4.263   2.464 -0.7389 -0.9821 -0.0937
12042SOL     OW36650   6.260   6.964   1.544 -0.2092  0.1615  0.4006
12042SOL    HW136651   6.345   7.000   1.515  0.3678 -1.5246 -0.1060
12042SOL    HW236652   6.283   6.895   1.606 -1.2563  0.1304  0.7651
12043SOL     OW36653   0.953   0.338   4.198  0.4558  0.0529  0.2610
12043SOL    HW136654   0.925   0.249   4.178  0.5425 -0.2589  1.4966
12043SOL    HW236655   0.915   0.391   4.127 -2.4139 -0.4982  1.2491
12044SOL     OW36656   3.866   1.345   4.163 -0.3806 -0.4716  0.1502
12044SOL    HW136657   3.920   1.420   4.188  0.8892 -1.2007 -0.3056
12044SOL    HW236658   3.872   1.343   4.067 -3.8688  1.3390 -0.2725
12045SOL     OW36659   5.413   6.421   4.569 -0.3980 -0.3979 -0.0338
12045SOL    HW136660   5.469   6.496   4.551 -0.4210 -0.5699 -0.8418
12045SOL    HW236661   5.441   6.354   4.507 -0.7795 -0.8539  0.2748
12046SOL     OW36662   0.391   6.055   2.749 -0.6913  0.2527 -0.2619
12046SOL    HW136663   0.403   6.107   2.828 -0.9381 -0.6586  0.3885
12046SOL    HW236664   0.331   5.986   2.775 -3.0693  1.5435 -1.9772
12047SOL     OW36665   6.128   0.446   1.387  0.2915 -0.4109 -0.4878
12047SOL    HW136666   6.160   0.478   1.302 -2.5913 -1.2385 -2.0068
12047SOL    HW236667   6.070   0.374   1.365  1.0331 -2.0519  2.3947
12048SOL     OW36668   4.282   7.101   2.670 -0.0028 -0.0532 -0.5923
12048SOL    HW136669   4.228   7.141   2.601 -0.6823 -1.5412 -0.9519
12048SOL    HW236670   4.231   7.026   2.701  0.8066 -0.0852  0.7523
12049SOL     OW36671   4.329   2.133   0.578  0.5255 -0.3526  0.2559
12049SOL    HW136672   4.277   2.154   0.656  0.2485  1.2264 -0.3007
12049SOL    HW236673   4.394   2.204   0.574  2.9635 -2.3996  1.0698
12050SOL     OW36674   5.027   0.364   6.505  0.2637  0.0616  0.6500
12050SOL    HW136675   4.933   0.349   6.519  0.0147  1.8760  1.2153
12050SOL    HW236676   5.039   0.457   6.524  1.7513  0.4485 -1.8108
12051SOL     OW36677   5.399   6.752   4.350  0.3451 -0.2924  0.2250
12051SOL    HW136678   5.423   6.820   4.413 -0.1341 -0.0980  0.2034
12051SOL    HW236679   5.464   6.761   4.280  0.1117  0.3431  0.0810
12052SOL     OW36680   6.702   5.553   0.254  0.2562  0.0121  0.6232
12052SOL    HW136681   6.622   5.588   0.214 -0.8633 -2.6095  0.3937
12052SOL    HW236682   6.770   5.567   0.188 -0.2038  1.2938  0.3854
12053SOL     OW36683   5.360   0.424   5.761  0.4519 -0.3213  0.5334
12053SOL    HW136684   5.376   0.396   5.671  0.9774  1.0676  0.1715
12053SOL    HW236685   5.377   0.345   5.814 -0.9155 -1.4573 -0.6305
12054SOL     OW36686   3.217   6.770   1.893  0.1676 -0.0621  0.3030
12054SOL    HW136687   3.214   6.814   1.978  0.8333  0.2621  0.1640
12054SOL    HW236688   3.264   6.689   1.910 -2.3748 -1.5230  0.8907
12055SOL     OW36689   1.374   1.124   5.549  0.0492 -0.2995  0.0789
12055SOL    HW136690   1.360   1.166   5.464 -1.1788 -0.8576 -0.0151
12055SOL    HW236691   1.296   1.145   5.600  1.8917  2.3690  2.1237
12056SOL     OW36692   0.910   5.055   6.574  0.5124  0.3121 -0.0236
12056SOL    HW136693   0.997   5.066   6.613  0.4142  0.1929  0.2304
12056SOL    HW236694   0.850   5.064   6.647  0.3175  0.2432 -0.1745
12057SOL     OW36695   3.068   5.248   6.003 -0.2564 -0.1562  0.2145
12057SOL    HW136696   3.061   5.338   6.035 -0.3576 -0.2338  0.4103
12057SOL    HW236697   2.981   5.210   6.019 -0.4549 -0.0601 -0.5610
12058SOL     OW36698   2.579   2.764   2.214  0.3610 -0.7215 -0.4316
12058SOL    HW136699   2.508   2.780   2.276  1.3416 -2.0635  1.1155
12058SOL    HW236700   2.537   2.722   2.139 -0.4223 -2.0521  0.7185
12059SOL     OW36701   7.385   5.063   6.732  0.1735  0.3234 -0.5562
12059SOL    HW136702   7.317   5.116   6.691 -0.7235 -1.6227 -1.7129
12059SOL    HW236703   7.354   4.973   6.724  2.6834 -0.6159 -0.7846
12060SOL     OW36704   4.675   4.041   6.435 -0.2137  0.4051  0.9975
12060SOL    HW136705   4.759   4.057   6.392  0.5990 -0.4606  2.1862
12060SOL    HW236706   4.613   4.034   6.363  1.1005 -1.0596 -0.0727
12061SOL     OW36707   1.409   7.533   3.901  0.0856 -0.3056 -0.0247
12061SOL    HW136708   1.471   7.461   3.895  0.6090 -0.0395  1.6588
12061SOL    HW236709   1.463   7.610   3.920 -0.6672  0.1332  0.3904
12062SOL     OW36710   1.492   0.872   0.795  0.2544 -0.3252  0.0665
12062SOL    HW136711   1.577   0.900   0.826  1.0949 -1.0837 -1.4382
12062SOL    HW236712   1.480   0.784   0.831 -1.0306  0.6887  2.2906
12063SOL     OW36713   2.450   6.587   6.265 -0.0055 -0.0201  0.1845
12063SOL    HW136714   2.495   6.520   6.215 -1.3786 -2.6635  2.2060
12063SOL    HW236715   2.490   6.584   6.352 -1.0800  0.7086  0.7417
12064SOL     OW36716   3.065   6.116   3.838  0.3013 -0.3612 -0.2132
12064SOL    HW136717   2.978   6.156   3.834  0.8974  1.2232  1.5098
12064SOL    HW236718   3.122   6.178   3.793  0.9582 -0.0411  1.0167
12065SOL     OW36719   1.460   5.687   5.464  0.0017 -0.4623 -0.6848
12065SOL    HW136720   1.529   5.661   5.526 -0.1950  0.9966  0.2193
12065SOL    HW236721   1.455   5.782   5.474 -2.9308 -0.6120  0.1342
12066SOL     OW36722   7.104   5.383   3.571  0.0137 -0.3155 -0.3908
12066SOL    HW136723   7.131   5.299   3.532  1.5508  0.2527 -0.6364
12066SOL    HW236724   7.179   5.440   3.556 -0.5452  0.7653  0.8401
12067SOL     OW36725   3.454   0.956   6.862  0.3811  0.1024  0.0505
12067SOL    HW136726   3.538   0.911   6.871 -0.1350 -0.6109  1.6843
12067SOL    HW236727   3.452   1.017   6.936 -0.3965  0.3593 -0.1725
12068SOL     OW36728   6.152   3.184   6.201  0.0105  0.9686 -0.2207
12068SOL    HW136729   6.206   3.106   6.214 -1.3009  0.0929  0.1526
12068SOL    HW236730   6.171   3.212   6.111 -0.2237 -0.3588 -0.6982
12069SOL     OW36731   7.282   2.665   4.755  0.5518 -0.6486 -0.2040
12069SOL    HW136732   7.301   2.695   4.843 -0.1589 -0.0105 -0.2573
12069SOL    HW236733   7.342   2.714   4.699  0.0325 -0.0019 -0.2024
12070SOL     OW36734   2.393   4.019   2.808 -0.3372 -0.2292  0.6105
12070SOL    HW136735   2.406   3.924   2.810  0.6916 -0.2029 -1.4760
12070SOL    HW236736   2.306   4.029   2.767  0.4312 -0.3124 -1.1464
12071SOL     OW36737   3.483   6.660   5.032 -0.7657 -0.0375 -0.0610
12071SOL    HW136738   3.489   6.619   5.119  0.7258  0.1260 -0.0488
12071SOL    HW236739   3.526   6.597   4.974  0.6164  0.9976 -0.2149
12072SOL     OW36740   1.658   6.322   6.925 -0.1671  0.3057 -0.5245
12072SOL    HW136741   1.753   6.323   6.914 -0.0076 -0.6368  0.5445
12072SOL    HW236742   1.638   6.234   6.958 -1.0578  1.2907  1.8307
12073SOL     OW36743   5.994   5.070   3.111 -0.9878  0.5472 -0.2820
12073SOL    HW136744   6.044   5.079   3.030  0.6587  1.2324  0.7726
12073SOL    HW236745   5.943   4.990   3.098 -4.0093  2.7049 -3.6095
12074SOL     OW36746   0.933   1.902   5.522 -0.5989  0.0775 -0.2976
12074SOL    HW136747   0.939   1.854   5.439  1.9966 -0.0458 -0.1333
12074SOL    HW236748   0.968   1.841   5.587  0.9633  1.4483  0.2169
12075SOL     OW36749   6.471   2.782   5.572 -0.0141  0.4403  0.2960
12075SOL    HW136750   6.429   2.784   5.486 -0.0561  0.2675  0.3130
12075SOL    HW236751   6.565   2.782   5.552 -0.0178 -0.6136  0.2253
12076SOL     OW36752   6.306   5.447   5.206  0.0001  0.6583  0.3786
12076SOL    HW136753   6.306   5.525   5.152 -1.1353  1.3819  1.3790
12076SOL    HW236754   6.220   5.407   5.191  0.4799 -0.2936  0.0503
12077SOL     OW36755   1.639   6.677   3.933  0.2494  0.0142 -0.3628
12077SOL    HW136756   1.668   6.717   4.015  1.2298 -1.3932  0.0101
12077SOL    HW236757   1.555   6.719   3.914 -0.6057 -0.4934  2.0045
12078SOL     OW36758   5.011   7.012   3.609  0.0220  0.3532 -0.5043
12078SOL    HW136759   4.941   7.024   3.673  0.3401  2.1790 -0.4478
12078SOL    HW236760   5.032   6.918   3.614 -2.1096 -0.1673 -0.2423
12079SOL     OW36761   3.104   4.240   0.300  0.2009  0.3378 -0.2273
12079SOL    HW136762   3.094   4.301   0.227  0.2808  1.0055  0.3056
12079SOL    HW236763   3.018   4.199   0.310 -0.4462  1.8366  0.6702
12080SOL     OW36764   6.313   6.425   4.398 -0.1186  0.1904 -0.8865
12080SOL    HW136765   6.405   6.428   4.422 -0.9456  1.6625  2.8486
12080SOL    HW236766   6.300   6.502   4.343  1.2420 -1.3799 -3.5680
12081SOL     OW36767   2.810   1.125   6.345  0.2945 -0.0680 -0.1089
12081SOL    HW136768   2.899   1.097   6.368 -0.1365 -1.3566  0.0876
12081SOL    HW236769   2.797   1.206   6.394  0.8565 -0.6204  1.0089
12082SOL     OW36770   2.527   0.581   0.429  0.1115  0.0689  0.2364
12082SOL    HW136771   2.621   0.599   0.424  0.7714 -2.5547  1.5890
12082SOL    HW236772   2.508   0.528   0.352 -0.8352  2.3924 -1.2461
12083SOL     OW36773   7.088   1.086   6.504 -0.4890  0.1245  0.0604
12083SOL    HW136774   7.161   1.131   6.547 -2.7231  1.8871  2.3817
12083SOL    HW236775   7.062   1.018   6.567 -0.6235 -0.7439 -0.9131
12084SOL     OW36776   5.905   7.343   7.359  0.6554 -0.5429  1.0954
12084SOL    HW136777   5.956   7.400   7.417  0.5287  0.9746 -0.2489
12084SOL    HW236778   5.816   7.348   7.393  0.6151  0.1925  0.8780
12085SOL     OW36779   0.737   5.258   5.164 -0.6535 -0.1464 -0.0735
12085SOL    HW136780   0.684   5.309   5.225  0.0228 -1.4781  1.7431
12085SOL    HW236781   0.827   5.287   5.179 -0.1637 -2.2259  1.5065
12086SOL     OW36782   1.152   2.527   6.739 -0.3573  0.2182  0.2196
12086SOL    HW136783   1.105   2.608   6.717 -0.5699  0.5210  1.7108
12086SOL    HW236784   1.229   2.556   6.787 -0.0192 -0.4355  0.0847
12087SOL     OW36785   4.723   0.616   0.100  0.4810  0.2182 -0.7335
12087SOL    HW136786   4.687   0.541   0.052 -0.6951  0.3952 -0.1527
12087SOL    HW236787   4.817   0.609   0.087  0.2910 -0.5491 -1.8770
12088SOL     OW36788   7.129   1.898   2.354  0.5028 -0.6758 -0.1944
12088SOL    HW136789   7.136   1.959   2.280  0.2801 -0.9581 -0.4500
12088SOL    HW236790   7.100   1.816   2.314 -2.4668 -0.0771  0.5521
12089SOL     OW36791   0.020   2.706   6.878  0.6606  0.1881  0.2511
12089SOL    HW136792   0.013   2.800   6.894  1.5602  0.2197  0.5313
12089SOL    HW236793   0.084   2.699   6.808 -0.5678 -0.1492 -0.8814
12090SOL     OW36794   0.973   0.093   1.403 -0.0552  0.7133  0.4218
12090SOL    HW136795   0.941   0.183   1.412  2.4533  1.6551  0.6749
12090SOL    HW236796   0.976   0.079   1.308  0.1116  1.1140  0.3642
12091SOL     OW36797   5.618   1.727   6.684  0.3773  0.2729  0.2539
12091SOL    HW136798   5.555   1.656   6.697  0.0986  0.4120 -0.3047
12091SOL    HW236799   5.642   1.754   6.772 -0.3355  0.2125  0.4734
12092SOL     OW36800   0.847   1.895   1.274  0.2729 -0.0932  0.2363
12092SOL    HW136801   0.776   1.908   1.337  0.9165  0.7789  0.8124
12092SOL    HW236802   0.819   1.821   1.221 -0.4163 -0.6849  1.3839
12093SOL     OW36803   6.808   7.158   6.858  0.5598  0.5998  0.8242
12093SOL    HW136804   6.899   7.130   6.847  0.5421  1.3277 -1.9786
12093SOL    HW236805   6.758   7.105   6.795 -0.1867  3.2774 -1.0159
12094SOL     OW36806   7.151   0.861   0.503 -0.2370  0.0432  0.2697
12094SOL    HW136807   7.135   0.767   0.493 -0.7057  0.2854 -1.7769
12094SOL    HW236808   7.227   0.867   0.560  0.8781 -1.6677 -0.9640
12095SOL     OW36809   1.574   3.008   2.891  0.1528  0.6412  0.2143
12095SOL    HW136810   1.539   3.070   2.828  2.6456  2.3462  0.3659
12095SOL    HW236811   1.626   2.946   2.839 -2.2119 -1.3857  0.0774
12096SOL     OW36812   2.640   6.221   0.030  0.4094 -0.5523 -0.4770
12096SOL    HW136813   2.710   6.157   0.018  0.3685 -0.8188  0.6236
12096SOL    HW236814   2.560   6.169   0.040  0.4925 -0.4185  1.2894
12097SOL     OW36815   3.860   7.285   2.384  0.1528 -0.0122 -0.1273
12097SOL    HW136816   3.933   7.343   2.361  0.2449  0.1976  0.6432
12097SOL    HW236817   3.843   7.304   2.477 -0.0055 -1.0178  0.0626
12098SOL     OW36818   1.580   0.576   0.604 -0.0453  0.3989 -0.2131
12098SOL    HW136819   1.664   0.622   0.600  0.2251 -0.1701 -2.9193
12098SOL    HW236820   1.566   0.560   0.698  3.2617 -0.1768  0.3203
12099SOL     OW36821   3.278   2.740   3.442 -0.1225 -0.1771  0.2396
12099SOL    HW136822   3.307   2.654   3.414 -0.0842  0.2133 -0.9633
12099SOL    HW236823   3.182   2.736   3.441 -0.2028  0.5907 -2.5554
12100SOL     OW36824   1.387   6.271   6.114 -0.9187 -0.3651 -0.3024
12100SOL    HW136825   1.347   6.348   6.153 -1.4163 -0.2884 -0.9563
12100SOL    HW236826   1.332   6.198   6.141  0.3885 -0.7381  1.5892
12101SOL     OW36827   5.778   2.963   3.735 -0.3983 -0.3133  0.0842
12101SOL    HW136828   5.814   3.051   3.742 -2.4454  0.6432 -0.6254
12101SOL    HW236829   5.709   2.960   3.802 -0.3673 -1.3792  0.0915
12102SOL     OW36830   3.520   3.993   0.332 -0.0814  0.0359  0.2142
12102SOL    HW136831   3.594   3.937   0.356 -1.4492 -1.7425  0.5203
12102SOL    HW236832   3.446   3.933   0.326 -1.7063  1.8678  0.8238
12103SOL     OW36833   1.821   6.983   1.799 -0.1236  0.2644 -0.2962
12103SOL    HW136834   1.840   6.995   1.706 -1.3075  1.8506 -0.3775
12103SOL    HW236835   1.857   6.897   1.820 -1.3755 -0.9216 -2.6302
12104SOL     OW36836   1.115   0.171   5.846  0.0626 -0.5008 -0.4781
12104SOL    HW136837   1.118   0.097   5.906 -1.5333 -1.3232 -1.3366
12104SOL    HW236838   1.081   0.244   5.898  3.0540  0.1173  0.7678
12105SOL     OW36839   4.752   6.624   3.443 -0.2965 -0.2851 -0.0921
12105SOL    HW136840   4.796   6.703   3.412 -0.7056 -0.3317 -0.8066
12105SOL    HW236841   4.712   6.650   3.526 -1.8926  0.7878 -1.1310
12106SOL     OW36842   4.647   3.276   6.068 -0.0188 -0.1745  0.1505
12106SOL    HW136843   4.717   3.224   6.108  1.3206  0.6466 -1.0464
12106SOL    HW236844   4.620   3.337   6.137  1.7586  0.7435  0.0821
12107SOL     OW36845   2.021   1.703   2.287 -0.1517  0.5550 -0.1428
12107SOL    HW136846   2.056   1.657   2.364  1.9583  1.3406 -0.5805
12107SOL    HW236847   1.926   1.689   2.293  0.1749 -1.7318  1.0827
12108SOL     OW36848   7.077   4.745   0.995  0.0575  0.3772  0.0914
12108SOL    HW136849   7.137   4.695   0.939  1.1842  0.1115  1.4989
12108SOL    HW236850   7.073   4.832   0.954  0.7018  0.1368 -0.5059
12109SOL     OW36851   4.202   2.210   2.221  0.1364  0.1107 -0.4067
12109SOL    HW136852   4.217   2.268   2.147  1.3636  1.5851  0.9446
12109SOL    HW236853   4.204   2.267   2.297  0.4955 -1.5785  0.9031
12110SOL     OW36854   4.065   5.983   1.680  0.3291 -0.4410  0.0404
12110SOL    HW136855   4.095   6.026   1.759  0.3969 -1.7739  0.7754
12110SOL    HW236856   4.056   6.053   1.615  0.1116  0.6903  1.2648
12111SOL     OW36857   7.496   3.473   6.105 -1.0060 -0.0516 -0.2555
12111SOL    HW136858   7.568   3.437   6.054 -1.4290 -0.8209 -0.3336
12111SOL    HW236859   7.535   3.542   6.158  0.5103 -2.6197  2.2225
12112SOL     OW36860   2.899   2.463   4.045  0.1231 -0.6397 -0.6652
12112SOL    HW136861   2.804   2.462   4.060  0.3766  0.6803  1.3442
12112SOL    HW236862   2.910   2.513   3.964 -0.7985  1.5573  0.4900
12113SOL     OW36863   0.230   4.935   1.248 -0.1603 -0.0362  0.3028
12113SOL    HW136864   0.190   4.915   1.333  0.9467  1.0300  1.1163
12113SOL    HW236865   0.205   4.862   1.192 -0.3666 -1.1282  1.7502
12114SOL     OW36866   1.724   1.252   6.284 -0.2948 -0.0532 -0.4873
12114SOL    HW136867   1.637   1.285   6.305  0.4753  1.6086  0.2892
12114SOL    HW236868   1.730   1.169   6.332 -0.7866  0.7427  1.0224
12115SOL     OW36869   4.690   0.540   6.012  0.5211  0.2347 -0.1748
12115SOL    HW136870   4.640   0.467   6.049 -1.8228  1.4530 -0.7995
12115SOL    HW236871   4.693   0.522   5.918 -1.3273  1.5826 -0.5468
12116SOL     OW36872   5.053   1.224   4.376 -0.2075  0.3385 -0.2600
12116SOL    HW136873   4.996   1.288   4.333  0.5329  1.2710  0.1052
12116SOL    HW236874   5.133   1.225   4.324 -0.4836 -0.9186 -0.7369
12117SOL     OW36875   5.905   0.414   3.192  0.3590  0.5546  0.3491
12117SOL    HW136876   5.899   0.335   3.137  0.8830  0.4760  0.3996
12117SOL    HW236877   5.992   0.450   3.173  0.0134  1.2898  0.1020
12118SOL     OW36878   2.503   2.597   1.905 -0.1387  1.0953 -0.7093
12118SOL    HW136879   2.435   2.624   1.967 -0.1700  2.0910 -1.1663
12118SOL    HW236880   2.467   2.617   1.819 -0.0696 -0.2307 -1.0671
12119SOL     OW36881   6.414   1.228   6.802 -0.5016  0.3507  0.4038
12119SOL    HW136882   6.506   1.257   6.805  0.1632 -1.5029 -0.3910
12119SOL    HW236883   6.367   1.301   6.762  0.8311  0.8927 -0.2460
12120SOL     OW36884   5.490   7.278   3.291  0.3384  0.1428  0.2214
12120SOL    HW136885   5.516   7.365   3.322  0.2136  1.0964 -2.1829
12120SOL    HW236886   5.394   7.280   3.290  0.3469  0.2293 -0.5039
12121SOL     OW36887   4.248   0.675   5.883  0.3621 -0.0436 -0.3778
12121SOL    HW136888   4.250   0.580   5.891  0.1852 -0.0516 -0.4300
12121SOL    HW236889   4.156   0.699   5.899  0.8472  0.3456  2.3411
12122SOL     OW36890   5.167   0.007   5.238  0.7794  0.7239  0.4253
12122SOL    HW136891   5.082  -0.022   5.271  0.3239  1.1287 -0.3695
12122SOL    HW236892   5.146   0.071   5.170  1.7252  1.0375  0.4135
12123SOL     OW36893   6.167   5.546   2.328 -0.1661 -0.0877  0.0221
12123SOL    HW136894   6.236   5.531   2.393 -0.1057  0.2452  0.0345
12123SOL    HW236895   6.140   5.637   2.341 -1.2230 -0.4610  0.6095
12124SOL     OW36896   1.377   1.576   4.286  0.1027  0.3762 -0.6247
12124SOL    HW136897   1.288   1.540   4.283 -0.0251  0.7643 -3.1295
12124SOL    HW236898   1.366   1.666   4.315 -0.1867  0.1433  0.0181
12125SOL     OW36899   2.596   4.840   7.155 -0.0193 -0.5813 -0.3053
12125SOL    HW136900   2.538   4.810   7.084 -1.3390 -1.4763  1.0828
12125SOL    HW236901   2.538   4.888   7.214  0.9561 -0.2738  0.4234
12126SOL     OW36902   1.822   6.148   0.864 -0.0643  0.1932 -0.0583
12126SOL    HW136903   1.840   6.086   0.794 -0.6964 -0.8898  0.7151
12126SOL    HW236904   1.892   6.135   0.928 -0.4995 -0.1246  0.3610
12127SOL     OW36905   0.804   4.534   6.467  1.0854  0.2293  0.1322
12127SOL    HW136906   0.870   4.586   6.511  0.1312  2.3034 -0.7567
12127SOL    HW236907   0.734   4.596   6.445 -0.7947 -1.6962  0.2891
12128SOL     OW36908   5.169   2.973   6.931  0.3075  0.4293 -0.0646
12128SOL    HW136909   5.097   2.996   6.991  0.4987  0.7247  0.0543
12128SOL    HW236910   5.248   2.991   6.981  0.4954 -1.7593  0.5297
12129SOL     OW36911   1.942   0.689   4.287  0.2917  0.1765  0.0229
12129SOL    HW136912   1.926   0.675   4.194  2.1538 -1.1617 -0.1502
12129SOL    HW236913   1.884   0.762   4.310 -2.4215 -1.3707 -1.4401
12130SOL     OW36914   4.867   3.010   2.157 -0.2338  0.6221  0.0401
12130SOL    HW136915   4.865   2.930   2.209  1.4560  0.0648 -0.7050
12130SOL    HW236916   4.952   3.049   2.176 -1.0744  2.3578  0.5033
12131SOL     OW36917   4.182   7.032   2.267  0.2474  0.1172  0.0987
12131SOL    HW136918   4.117   7.023   2.197 -0.6800  0.1540  0.9239
12131SOL    HW236919   4.158   7.114   2.311  1.1214  0.3483  0.1604
12132SOL     OW36920   0.961   2.754   0.614  0.5602 -0.2636  0.1037
12132SOL    HW136921   0.965   2.660   0.595  1.3662 -0.5084  1.3266
12132SOL    HW236922   0.868   2.774   0.617  0.3922 -0.7996 -1.1737
12133SOL     OW36923   0.217   2.730   4.659  0.3831 -0.7727 -0.7790
12133SOL    HW136924   0.213   2.797   4.591 -1.4857 -0.1120 -0.0732
12133SOL    HW236925   0.295   2.753   4.710  0.8315 -0.2698 -1.6733
12134SOL     OW36926   0.477   1.342   0.378 -0.3364 -0.0518  0.9664
12134SOL    HW136927   0.552   1.355   0.435 -0.3800  0.8596  0.8397
12134SOL    HW236928   0.513   1.342   0.289 -0.7013  2.9353  0.7217
12135SOL     OW36929   0.805   0.007   2.709 -0.2457  0.6180  0.0171
12135SOL    HW136930   0.839   0.093   2.735  4.3822 -0.6290 -1.0943
12135SOL    HW236931   0.834  -0.052   2.779 -3.3727 -0.2015  0.7746
12136SOL     OW36932   1.474   0.219   0.089 -0.5771  0.5105 -0.3269
12136SOL    HW136933   1.409   0.259   0.031 -0.9086  1.8090  0.8992
12136SOL    HW236934   1.433   0.137   0.117 -0.8631  0.3919 -1.0778
12137SOL     OW36935   6.660   6.467   7.329  0.3359 -0.4139  0.4211
12137SOL    HW136936   6.595   6.515   7.277  1.7691  0.0108 -1.0778
12137SOL    HW236937   6.611   6.432   7.404 -0.8620  3.0455  1.4046
12138SOL     OW36938   0.677   6.187   5.591 -0.3285 -0.2876 -0.2043
12138SOL    HW136939   0.755   6.192   5.536  1.6066 -0.7802  2.3275
12138SOL    HW236940   0.622   6.121   5.548 -0.1007  1.1100 -2.8407
12139SOL     OW36941   5.727   3.353   5.873  0.1023  0.2303  0.0862
12139SOL    HW136942   5.773   3.285   5.922 -1.6384 -0.1288  1.3241
12139SOL    HW236943   5.721   3.426   5.935 -0.1551  0.6221 -0.3963
12140SOL     OW36944   4.266   0.160   6.427  0.0820 -0.3808  0.0607
12140SOL    HW136945   4.308   0.154   6.341 -0.4660  1.7093 -0.4318
12140SOL    HW236946   4.180   0.119   6.414 -0.5515  1.1121 -0.8565
12141SOL     OW36947   7.241   6.575   3.319  0.1314  0.7722  0.3865
12141SOL    HW136948   7.308   6.519   3.360 -0.0616 -0.4556 -0.8808
12141SOL    HW236949   7.193   6.612   3.393  0.0700 -1.0070  1.3065
12142SOL     OW36950   2.268   3.922   1.068 -0.2091  0.2443  0.0764
12142SOL    HW136951   2.358   3.892   1.062 -0.3773 -0.0474 -1.4306
12142SOL    HW236952   2.240   3.897   1.157  0.6845 -1.1267  0.0059
12143SOL     OW36953   5.031   7.098   1.610  0.0499 -1.1855 -0.1226
12143SOL    HW136954   5.062   7.154   1.682  0.3649 -0.9883 -0.4081
12143SOL    HW236955   5.104   7.038   1.593  1.4979  1.0678 -2.6627
12144SOL     OW36956   1.092   4.890   4.263 -0.6855  0.1561 -0.0493
12144SOL    HW136957   1.042   4.963   4.298 -1.4848 -0.0898 -0.6467
12144SOL    HW236958   1.138   4.853   4.339  0.6240  1.9308  0.0946
12145SOL     OW36959   2.253   5.851   0.006 -0.1721 -0.1967 -0.0455
12145SOL    HW136960   2.299   5.827   0.087 -0.7620 -1.3379 -0.0215
12145SOL    HW236961   2.162   5.861   0.033 -0.4702 -1.1469 -0.6537
12146SOL     OW36962   4.912   2.827   3.468  0.4908 -0.1003 -0.0041
12146SOL    HW136963   4.994   2.877   3.459 -0.8424  2.3540  0.6267
12146SOL    HW236964   4.880   2.849   3.555 -1.1303 -0.5294 -0.4650
12147SOL     OW36965   5.735   6.077   1.482  0.2317 -0.4255 -0.4120
12147SOL    HW136966   5.761   6.156   1.435 -1.1429 -0.4875 -1.3118
12147SOL    HW236967   5.640   6.079   1.483  0.1860 -1.7242  0.1656
12148SOL     OW36968   6.997   3.235   4.509  0.0744 -0.7581 -0.0037
12148SOL    HW136969   6.908   3.261   4.531 -0.3702 -1.7417 -0.5269
12148SOL    HW236970   7.040   3.316   4.481 -0.7182 -0.3100  0.0447
12149SOL     OW36971   5.499   4.504   4.293 -0.1168 -0.2782 -0.4294
12149SOL    HW136972   5.569   4.569   4.285  1.4195 -1.8924 -0.8486
12149SOL    HW236973   5.454   4.506   4.209  0.7768 -0.6697 -0.9282
12150SOL     OW36974   6.211   1.211   0.990 -0.3189  0.6121 -0.0828
12150SOL    HW136975   6.180   1.263   0.916 -0.4414  1.0831  0.2969
12150SOL    HW236976   6.277   1.153   0.952  0.9591  2.0972 -0.2470
12151SOL     OW36977   0.049   3.922   6.501  0.0318 -0.8300  0.4094
12151SOL    HW136978   0.093   3.871   6.569 -1.7865 -1.2767  1.3213
12151SOL    HW236979  -0.019   3.864   6.467 -0.7727  0.2842  0.0413
12152SOL     OW36980   5.811   5.167   3.699 -0.2310 -0.1001  0.5723
12152SOL    HW136981   5.817   5.075   3.673 -0.0862 -0.1594  0.8173
12152SOL    HW236982   5.877   5.211   3.646 -0.2124 -0.1564  0.5488
12153SOL     OW36983   3.326   3.007   6.576 -0.6208  0.5273  0.5026
12153SOL    HW136984   3.407   3.055   6.556  0.3976 -1.0156  0.8054
12153SOL    HW236985   3.256   3.062   6.540  0.4313  2.5462  1.3714
12154SOL     OW36986   7.291   3.670   7.494  0.1976 -0.2126 -0.5362
12154SOL    HW136987   7.296   3.666   7.589  0.9934  0.8926 -0.5182
12154SOL    HW236988   7.377   3.640   7.464 -0.0698 -0.6173 -0.9180
12155SOL     OW36989   6.010   1.240   0.471  0.7644 -0.0597 -0.2422
12155SOL    HW136990   5.984   1.280   0.554 -0.1512 -0.7387 -0.1903
12155SOL    HW236991   5.936   1.255   0.412  0.7525 -0.9622 -0.4629
12156SOL     OW36992   7.384   6.909   5.324  0.4211  0.0401  0.0369
12156SOL    HW136993   7.348   6.997   5.309  2.2254  1.0198  1.0895
12156SOL    HW236994   7.467   6.909   5.275  0.4536 -1.0858  0.0700
12157SOL     OW36995   0.027   5.298   0.585  0.6973 -0.3352 -0.4250
12157SOL    HW136996   0.038   5.257   0.671  1.5190 -0.8734 -0.7706
12157SOL    HW236997  -0.061   5.273   0.557  0.2527  0.2142  0.4462
12158SOL     OW36998   4.723   3.065   4.227  0.0971 -0.1309  0.4586
12158SOL    HW136999   4.818   3.053   4.231  0.0992 -0.4596 -0.3000
12158SOL    HW237000   4.704   3.067   4.133 -0.8158 -1.6144  0.5756
12159SOL     OW37001   2.429   2.790   2.430 -0.5651  0.4169 -0.6040
12159SOL    HW137002   2.379   2.728   2.483  0.3990 -0.5760 -0.8202
12159SOL    HW237003   2.380   2.872   2.437 -1.9267 -0.3775 -0.3918
12160SOL     OW37004   3.524   1.301   2.594  0.2066 -0.0850  0.4495
12160SOL    HW137005   3.463   1.234   2.563 -0.3737  0.9181 -0.6954
12160SOL    HW237006   3.470   1.379   2.607  1.1072  0.6328  0.0800
12161SOL     OW37007   1.921   6.389   1.212  0.0378 -0.5377  0.5485
12161SOL    HW137008   1.856   6.318   1.216  1.1439 -1.5265  1.6531
12161SOL    HW237009   1.869   6.469   1.220 -1.0233 -1.3226  2.0361
12162SOL     OW37010   3.826   6.331   3.297  0.2736  0.0407  0.3776
12162SOL    HW137011   3.730   6.336   3.304  0.4133  1.5804  1.9664
12162SOL    HW237012   3.842   6.263   3.231 -1.8944 -0.8200  0.6474
12163SOL     OW37013   3.461   2.042   4.070  0.2148  0.2525  0.2430
12163SOL    HW137014   3.403   1.967   4.083  1.9159 -1.0226  0.9249
12163SOL    HW237015   3.432   2.081   3.987 -0.4719 -1.4057 -0.3389
12164SOL     OW37016   6.087   6.683   6.128 -0.1707 -0.2714  0.5339
12164SOL    HW137017   6.127   6.767   6.153  0.5739 -0.3108 -0.4841
12164SOL    HW237018   6.107   6.625   6.201  0.3951  0.0969  0.6808
12165SOL     OW37019   0.822   6.112   6.333  0.0430  0.4205 -0.1955
12165SOL    HW137020   0.788   6.065   6.409  1.6983  1.5742  1.3394
12165SOL    HW237021   0.750   6.111   6.270 -0.9832 -1.5588  0.9215
12166SOL     OW37022   3.884   3.177   3.653 -0.1293 -0.5136  0.1849
12166SOL    HW137023   3.935   3.204   3.730 -0.5579 -1.5902  0.8667
12166SOL    HW237024   3.802   3.143   3.689 -0.1256 -1.5211 -0.7163
12167SOL     OW37025   3.469   6.956   4.003 -0.3238 -0.2234 -0.5237
12167SOL    HW137026   3.501   6.895   3.936 -1.9614  0.1650 -1.7173
12167SOL    HW237027   3.473   6.906   4.084  0.8838 -1.0071 -1.0406
12168SOL     OW37028   4.351   6.280   2.067 -0.2021 -0.0375 -0.2270
12168SOL    HW137029   4.302   6.317   2.140  0.8152 -0.0715  0.4960
12168SOL    HW237030   4.386   6.357   2.021  1.7845 -0.0137  1.1867
12169SOL     OW37031   6.949   2.336   6.792  0.2058 -0.3672 -0.1215
12169SOL    HW137032   6.904   2.399   6.848 -0.9923 -1.0373 -0.3074
12169SOL    HW237033   7.017   2.387   6.748 -0.0339  0.5533  0.5554
12170SOL     OW37034   6.343   0.811   0.687  0.0364 -0.1751  0.6004
12170SOL    HW137035   6.382   0.743   0.632  0.7544 -1.7152  2.9018
12170SOL    HW237036   6.254   0.819   0.654  0.1829 -1.6656 -0.2572
12171SOL     OW37037   6.517   0.432   7.108  0.7311  0.0502 -0.4642
12171SOL    HW137038   6.480   0.394   7.028  0.1926  0.0843 -0.2349
12171SOL    HW237039   6.487   0.523   7.107 -2.3502 -0.8047  1.5561
12172SOL     OW37040   3.296   1.631   6.032 -0.2216 -0.4481  0.6493
12172SOL    HW137041   3.250   1.554   5.998 -1.1459 -0.1400  1.1510
12172SOL    HW237042   3.240   1.705   6.007  0.9857  0.1511 -0.4174
12173SOL     OW37043   2.203   3.852   1.522 -0.0462 -0.1165  0.5284
12173SOL    HW137044   2.298   3.862   1.532  0.2842 -1.0464 -1.4009
12173SOL    HW237045   2.167   3.929   1.567  1.5961  0.3063  1.2191
12174SOL     OW37046   2.490   1.691   5.985 -0.4805  0.0368  0.0722
12174SOL    HW137047   2.523   1.696   5.895 -1.5095  0.2921 -0.3043
12174SOL    HW237048   2.548   1.748   6.035 -0.6690  0.9230 -0.6830
12175SOL     OW37049   1.121   6.952   4.377 -0.2220  0.4249 -0.2390
12175SOL    HW137050   1.188   6.965   4.310  0.3487 -0.0972  0.2249
12175SOL    HW237051   1.043   6.997   4.342  0.7640  2.3382 -0.1098
12176SOL     OW37052   4.055   1.026   5.819  0.6446 -0.1455  0.3565
12176SOL    HW137053   4.034   1.022   5.726  1.8430  0.5973  0.0283
12176SOL    HW237054   3.974   1.055   5.861 -0.1048 -1.1290 -0.3612
12177SOL     OW37055   1.245   3.623   0.904  0.0818 -0.0998  0.5691
12177SOL    HW137056   1.195   3.551   0.942 -0.1476  0.2281  0.8903
12177SOL    HW237057   1.201   3.642   0.821  0.1039 -0.2866  0.5141
12178SOL     OW37058   4.944   3.649   3.426 -0.2657 -0.2589 -0.2103
12178SOL    HW137059   4.935   3.659   3.331 -0.6308 -0.7392 -0.2308
12178SOL    HW237060   4.916   3.733   3.462  0.9605  0.3274 -0.5762
12179SOL     OW37061   7.378   6.061   4.506 -0.8998  0.1308  0.0113
12179SOL    HW137062   7.351   6.032   4.593  0.3715 -0.1475  0.3453
12179SOL    HW237063   7.363   5.985   4.449  0.7230 -0.6402  0.5326
12180SOL     OW37064   1.367   5.596   2.396  0.4324  0.2159 -0.2335
12180SOL    HW137065   1.327   5.609   2.310 -1.2009  0.9290  0.6081
12180SOL    HW237066   1.305   5.541   2.444  2.0530 -1.5174  0.0165
12181SOL     OW37067   1.404   6.983   3.198 -0.0075  0.2159 -0.2772
12181SOL    HW137068   1.467   6.972   3.270  0.5864  0.4478 -0.7480
12181SOL    HW237069   1.403   6.898   3.154  0.7269  0.4924 -0.8537
12182SOL     OW37070   3.555   2.522   3.727  0.5785 -0.2563 -0.2406
12182SOL    HW137071   3.551   2.429   3.750 -1.9121 -0.0706  0.3903
12182SOL    HW237072   3.581   2.523   3.635 -2.1503 -1.8311 -1.1338
12183SOL     OW37073   1.992   0.122   6.037 -0.4807 -0.1534 -0.0454
12183SOL    HW137074   1.906   0.119   5.995 -1.0277  1.9782  0.7580
12183SOL    HW237075   2.052   0.148   5.968 -0.8754  0.4321 -0.1784
12184SOL     OW37076   6.269   2.248   5.826  0.3348  0.3864 -0.0004
12184SOL    HW137077   6.301   2.312   5.762  2.6095 -0.2755  0.3844
12184SOL    HW237078   6.284   2.290   5.911 -0.7112  0.4199  0.1756
12185SOL     OW37079   0.256   5.864   2.527 -0.1691 -0.0153 -0.4245
12185SOL    HW137080   0.348   5.862   2.556 -0.2198 -0.6159 -0.3095
12185SOL    HW237081   0.236   5.774   2.504 -0.8708  0.0372 -0.0392
12186SOL     OW37082   7.214   3.656   6.017 -0.3049  0.2991 -0.1089
12186SOL    HW137083   7.286   3.715   5.992  0.9617 -0.9767  0.3840
12186SOL    HW237084   7.243   3.570   5.988 -1.1571 -0.4091  1.0567
12187SOL     OW37085   4.551   1.776   7.436  0.5907 -0.1074  0.0215
12187SOL    HW137086   4.497   1.831   7.379 -1.9240 -1.4048  1.0120
12187SOL    HW237087   4.510   1.689   7.432  1.6623 -0.7779  2.0415
12188SOL     OW37088   6.614   3.935   3.962 -0.3275 -0.1445  0.1378
12188SOL    HW137089   6.591   4.007   3.904 -0.7431  0.4116  0.9728
12188SOL    HW237090   6.660   3.977   4.035  0.2841 -0.8454  0.1720
12189SOL     OW37091   0.062   4.730   0.322  0.1230  0.3537 -0.2720
12189SOL    HW137092   0.020   4.679   0.253  1.5199  0.5366 -1.2872
12189SOL    HW237093   0.146   4.688   0.337  0.7107  1.5244 -0.1437
12190SOL     OW37094   3.323   1.215   2.426 -0.0747  0.1582 -0.9137
12190SOL    HW137095   3.228   1.214   2.437 -0.2421 -0.6615 -2.1781
12190SOL    HW237096   3.336   1.270   2.348  0.4930  0.3305 -0.6964
12191SOL     OW37097   3.058   7.272   2.317  0.0668 -0.1349 -0.0914
12191SOL    HW137098   3.101   7.354   2.295  1.1684 -1.0763 -1.6960
12191SOL    HW237099   2.983   7.268   2.259  0.3111 -0.4744 -0.3935
12192SOL     OW37100   6.413   7.484   0.183 -0.0627  1.2517 -0.2736
12192SOL    HW137101   6.409   7.436   0.100  1.2318 -1.2050  0.9921
12192SOL    HW237102   6.451   7.568   0.159  2.1387 -0.1017 -1.9429
12193SOL     OW37103   6.351   7.115   0.732  0.3022  0.1643  0.0255
12193SOL    HW137104   6.282   7.067   0.780  0.6955  0.5668  1.0247
12193SOL    HW237105   6.393   7.048   0.678 -0.3474 -0.2464  0.0068
12194SOL     OW37106   5.589   5.733   0.867  0.3203 -0.2768 -0.7959
12194SOL    HW137107   5.595   5.767   0.956  1.0762 -0.0022 -0.9456
12194SOL    HW237108   5.500   5.754   0.839  0.3650  0.4375 -0.4224
12195SOL     OW37109   4.830   5.441   5.297 -0.3103 -0.2547 -0.0089
12195SOL    HW137110   4.803   5.361   5.252  0.3321 -0.7067  0.3960
12195SOL    HW237111   4.871   5.411   5.378  1.3380  0.3828 -0.5606
12196SOL     OW37112   6.442   0.534   3.938 -0.3228 -0.2206 -0.6214
12196SOL    HW137113   6.415   0.513   3.849 -1.3592 -0.1478 -0.3365
12196SOL    HW237114   6.433   0.451   3.985  0.4219 -0.3082 -0.6301
12197SOL     OW37115   3.044   6.855   1.109 -0.2856 -0.3700  0.5475
12197SOL    HW137116   2.973   6.918   1.128 -1.0431 -1.1868  0.4820
12197SOL    HW237117   3.119   6.910   1.088 -1.5646  0.5859 -2.0216
12198SOL     OW37118   1.807   6.214   4.526  0.2327  0.2275  0.4480
12198SOL    HW137119   1.744   6.220   4.454  0.4888  1.3732  0.2959
12198SOL    HW237120   1.850   6.129   4.513  1.3247  1.0078 -1.6842
12199SOL     OW37121   6.398   0.799   5.409  0.1148  0.6553 -0.2021
12199SOL    HW137122   6.483   0.832   5.440  0.1582  1.0337 -0.7035
12199SOL    HW237123   6.336   0.824   5.477  0.6386 -1.0035  0.9411
12200SOL     OW37124   5.395   5.363   4.088 -0.1750  0.0334 -0.3686
12200SOL    HW137125   5.302   5.358   4.106 -0.7814  1.7234 -2.5390
12200SOL    HW237126   5.417   5.456   4.099  0.7783  0.0069 -1.7694
12201SOL     OW37127   4.231   5.007   0.997  0.0848 -0.4268 -0.0036
12201SOL    HW137128   4.263   5.011   1.087  1.3926 -1.5778 -0.3820
12201SOL    HW237129   4.289   5.065   0.948 -1.6033  1.4715  0.1015
12202SOL     OW37130   1.531   3.516   7.107  0.2894  0.3659 -0.2895
12202SOL    HW137131   1.564   3.596   7.066  1.8191 -0.9825 -1.8186
12202SOL    HW237132   1.594   3.448   7.082 -0.4674 -1.1614  1.7175
12203SOL     OW37133   0.929   3.020   2.488 -0.1122 -0.0020 -0.1228
12203SOL    HW137134   0.980   3.014   2.568 -1.1084  0.1136  0.5484
12203SOL    HW237135   0.993   3.038   2.419  0.6925  0.5504  0.7444
12204SOL     OW37136   0.394   2.656   7.322 -0.2966  0.1531  0.2299
12204SOL    HW137137   0.352   2.695   7.399  2.7159  1.6934  1.2761
12204SOL    HW237138   0.447   2.584   7.357 -1.3748 -1.2417 -0.9153
12205SOL     OW37139   4.740   4.369   3.299 -0.6369 -0.0803  0.0630
12205SOL    HW137140   4.691   4.289   3.282  0.9429 -1.3779  1.3753
12205SOL    HW237141   4.817   4.362   3.242 -0.7662  0.8057 -0.2370
12206SOL     OW37142   4.636   4.682   6.594 -0.0287 -0.4818  0.4425
12206SOL    HW137143   4.586   4.608   6.559  0.1699 -1.0083  1.2459
12206SOL    HW237144   4.681   4.646   6.671  0.5529  0.3184  0.4850
12207SOL     OW37145   5.131   4.829   6.572  0.3448 -0.4090  0.0640
12207SOL    HW137146   5.053   4.774   6.570  0.8676 -1.1788 -2.0020
12207SOL    HW237147   5.204   4.767   6.580  0.8408  0.1484 -0.0430
12208SOL     OW37148   0.001   6.565   4.021 -0.3340 -0.4832 -0.0693
12208SOL    HW137149  -0.080   6.563   3.970 -1.8346  1.3216  1.9806
12208SOL    HW237150   0.048   6.641   3.988 -2.0021  1.6092  1.9294
12209SOL     OW37151   2.543   2.568   6.607  0.3958  0.0904  0.2948
12209SOL    HW137152   2.540   2.505   6.534 -0.1059 -0.2404  0.5942
12209SOL    HW237153   2.628   2.552   6.648 -0.3784 -1.5230  1.3398
12210SOL     OW37154   0.176   5.355   4.718  0.4063 -0.0691  0.1359
12210SOL    HW137155   0.208   5.308   4.795 -0.4517  0.4006  0.7863
12210SOL    HW237156   0.082   5.340   4.718  0.0734  1.8045  0.4634
12211SOL     OW37157   2.846   6.078   3.609 -0.0185  0.3842  0.1617
12211SOL    HW137158   2.918   6.043   3.556 -0.2289  0.0483  0.0996
12211SOL    HW237159   2.795   6.132   3.547 -0.2777 -0.0269  0.0154
12212SOL     OW37160   2.020   5.934   7.073  1.0088 -0.8800 -0.5270
12212SOL    HW137161   2.050   5.855   7.118 -1.5733 -0.7719  1.6572
12212SOL    HW237162   2.022   6.002   7.141 -2.2700 -0.5046 -0.6534
12213SOL     OW37163   5.841   3.140   6.047  0.3613  0.4225  0.3811
12213SOL    HW137164   5.922   3.169   6.005 -0.1612  0.9656 -0.2770
12213SOL    HW237165   5.866   3.062   6.097  1.2681  0.5368  0.1149
12214SOL     OW37166   6.869   0.755   5.870  0.1011 -0.6457 -0.3303
12214SOL    HW137167   6.876   0.803   5.788 -1.0792 -0.8808 -0.5956
12214SOL    HW237168   6.900   0.667   5.850  0.9639 -0.3709 -0.2044
12215SOL     OW37169   6.856   3.804   2.886  0.0857  0.2482  0.7810
12215SOL    HW137170   6.888   3.778   2.800 -0.3583 -0.1857  0.7397
12215SOL    HW237171   6.761   3.808   2.876  0.0926  1.1069  1.0095
12216SOL     OW37172   2.653   4.488   6.951 -0.3502  0.0543 -0.0293
12216SOL    HW137173   2.575   4.542   6.940 -1.1168 -1.2043 -1.0221
12216SOL    HW237174   2.681   4.468   6.862  0.7361 -0.0393  0.3183
12217SOL     OW37175   5.197   4.998   4.846 -0.6085  0.1902  0.6087
12217SOL    HW137176   5.207   5.041   4.931 -1.9230 -1.2303  1.5206
12217SOL    HW237177   5.104   5.002   4.828 -0.1159  2.9170 -2.1612
12218SOL     OW37178   0.928   5.164   1.623  0.4664  0.5215  0.5465
12218SOL    HW137179   0.835   5.177   1.607  0.0178  0.2125  2.6343
12218SOL    HW237180   0.963   5.134   1.539 -1.2311  0.9752 -0.3629
12219SOL     OW37181   5.144   6.334   5.353 -0.0079  0.2135  0.1842
12219SOL    HW137182   5.107   6.255   5.390 -1.0434 -0.6428 -2.4311
12219SOL    HW237183   5.069   6.382   5.317  0.5781  2.4683  1.7419
12220SOL     OW37184   2.391   4.290   4.983  0.4399  0.0646 -0.3497
12220SOL    HW137185   2.425   4.203   5.003 -0.4522 -0.1736  0.2164
12220SOL    HW237186   2.307   4.293   5.029  0.1725  0.9934 -0.8818
12221SOL     OW37187   3.412   0.569   0.848  0.5000  0.1746  0.1319
12221SOL    HW137188   3.319   0.552   0.868  0.5895 -1.0630 -0.3940
12221SOL    HW237189   3.450   0.593   0.932 -0.3515  1.0050  0.3059
12222SOL     OW37190   4.093   5.632   3.050 -0.0299  0.4164  0.0508
12222SOL    HW137191   4.179   5.634   3.092  0.3036 -0.4513 -0.5547
12222SOL    HW237192   4.033   5.605   3.120  0.3400  0.0738  0.2417
12223SOL     OW37193   2.098   2.453   2.122 -0.1804  0.1002 -0.2091
12223SOL    HW137194   2.086   2.358   2.128  0.2367 -0.0083 -1.0799
12223SOL    HW237195   2.150   2.476   2.199  0.1382 -0.4397 -0.2660
12224SOL     OW37196   5.030   1.030   1.179  0.8384 -0.2402  0.0166
12224SOL    HW137197   4.979   1.037   1.098 -0.0466 -1.2356  0.4645
12224SOL    HW237198   4.985   1.088   1.241  0.7178 -0.5111  0.1837
12225SOL     OW37199   2.192   0.544   5.033 -0.1693 -0.3832 -0.0030
12225SOL    HW137200   2.151   0.548   4.947  0.1525  0.2636 -0.1360
12225SOL    HW237201   2.156   0.619   5.080  3.1901  2.2307 -1.2096
12226SOL     OW37202   1.948   4.723   0.485 -0.2417 -0.0146  0.2821
12226SOL    HW137203   2.013   4.673   0.533 -0.5615  0.1609  0.9231
12226SOL    HW237204   1.942   4.681   0.400 -0.5023 -1.0708  0.7994
12227SOL     OW37205   7.319   0.281   2.819  0.2400  0.6487 -0.6098
12227SOL    HW137206   7.329   0.340   2.893  1.7925  0.8533 -0.9460
12227SOL    HW237207   7.252   0.218   2.846  0.6552  0.8327  0.8900
12228SOL     OW37208   6.426   4.944   0.458  0.0023 -0.2701  0.1145
12228SOL    HW137209   6.403   4.917   0.369  0.2881 -0.8337  0.2042
12228SOL    HW237210   6.495   4.883   0.484 -0.0905 -0.1197  0.7299
12229SOL     OW37211   4.238   3.571   7.033  0.2096 -0.0174 -0.2337
12229SOL    HW137212   4.181   3.643   7.059 -1.1634 -0.6255 -1.4483
12229SOL    HW237213   4.233   3.508   7.105  0.2690  0.4585  0.1846
12230SOL     OW37214   6.369   3.901   2.581  0.1023  0.6585  0.7422
12230SOL    HW137215   6.298   3.855   2.537  0.6130  0.4038  0.1728
12230SOL    HW237216   6.446   3.845   2.569  0.2943  0.6735  1.8046
12231SOL     OW37217   0.669   0.903   4.031  0.1539  0.1907  0.0448
12231SOL    HW137218   0.597   0.863   3.982 -0.8630  3.3111 -1.2953
12231SOL    HW237219   0.627   0.974   4.080  2.1051  1.0940  0.4941
12232SOL     OW37220   5.706   2.253   4.266 -0.2705 -0.3273 -0.0367
12232SOL    HW137221   5.705   2.157   4.258 -1.3758 -0.3216 -0.2644
12232SOL    HW237222   5.643   2.271   4.336  1.2204  0.1680  1.2080
12233SOL     OW37223   7.065   1.141   1.145 -0.2251  0.0358  0.1219
12233SOL    HW137224   7.022   1.222   1.117  0.2705  0.0736 -0.5589
12233SOL    HW237225   7.134   1.127   1.081  0.8133  0.0003  1.2234
12234SOL     OW37226   7.161   2.728   0.290  0.3223 -0.1257 -0.1374
12234SOL    HW137227   7.084   2.784   0.290  0.3942 -0.0216 -0.7642
12234SOL    HW237228   7.228   2.779   0.335  0.5083  0.4677 -1.0612
12235SOL     OW37229   4.183   5.025   2.821  1.1279 -0.2017 -0.0033
12235SOL    HW137230   4.255   5.088   2.830  0.8147 -0.1213  2.3384
12235SOL    HW237231   4.126   5.042   2.896 -1.0064 -0.7304 -1.4108
12236SOL     OW37232   3.558   4.296   6.010  0.1146  0.3510 -0.0427
12236SOL    HW137233   3.528   4.225   5.954 -0.7791  1.3995 -0.9446
12236SOL    HW237234   3.654   4.294   6.002  0.0170  0.3565 -1.4846
12237SOL     OW37235   6.689   1.122   4.476  0.3414 -0.1173 -0.5064
12237SOL    HW137236   6.615   1.182   4.482  1.4728  1.2438  0.3941
12237SOL    HW237237   6.699   1.088   4.565  1.6260  0.7786 -0.2876
12238SOL     OW37238   6.039   0.489   6.240 -0.6052 -0.3806  0.0869
12238SOL    HW137239   6.056   0.569   6.289 -0.8961 -1.6732  2.4523
12238SOL    HW237240   6.125   0.453   6.220 -0.4638 -0.4622  0.8055
12239SOL     OW37241   3.499   4.184   3.724  0.4582  0.5617  0.2154
12239SOL    HW137242   3.588   4.212   3.704  0.5050 -0.3414 -0.9336
12239SOL    HW237243   3.485   4.107   3.669 -1.4783  1.4232 -0.5949
12240SOL     OW37244   3.667   3.492   3.670  0.0969  0.0330  0.4287
12240SOL    HW137245   3.609   3.416   3.666  0.0404  0.1075 -0.2886
12240SOL    HW237246   3.680   3.507   3.764 -0.7832 -0.1766  0.5908
12241SOL     OW37247   2.575   4.561   2.569 -0.1758 -0.6277  0.1521
12241SOL    HW137248   2.508   4.612   2.614  0.2938  0.4351 -0.3118
12241SOL    HW237249   2.562   4.471   2.599  0.0265  0.0120  2.2798
12242SOL     OW37250   5.350   4.738   4.564 -0.1719 -0.0903  0.0778
12242SOL    HW137251   5.385   4.651   4.545 -2.1626 -0.4718 -2.3960
12242SOL    HW237252   5.397   4.796   4.503 -0.6223  0.1412 -0.0509
12243SOL     OW37253   6.221   0.700   3.626 -0.2534 -0.5902  0.2133
12243SOL    HW137254   6.239   0.761   3.555  0.4467 -1.8100 -0.6948
12243SOL    HW237255   6.181   0.754   3.694 -0.1354  0.7719 -0.7520
12244SOL     OW37256   0.013   5.650   1.853  0.3416  0.0782 -0.4844
12244SOL    HW137257  -0.074   5.678   1.824 -0.2136 -0.3496  0.7103
12244SOL    HW237258  -0.002   5.610   1.939  1.6175 -0.6806 -0.5952
12245SOL     OW37259   6.556   3.820   7.336  0.3872  0.1994  0.0643
12245SOL    HW137260   6.633   3.868   7.367  0.3289 -0.7098  1.7630
12245SOL    HW237261   6.482   3.877   7.357  0.5477  1.0431 -1.5066
12246SOL     OW37262   5.082   2.247   0.228  0.5497  0.0101  0.3979
12246SOL    HW137263   5.023   2.209   0.293  0.2393  2.1661  1.4706
12246SOL    HW237264   5.050   2.337   0.216  1.8775  0.3245 -1.1797
12247SOL     OW37265   5.995   4.273   3.109  0.0983 -0.0609 -0.1613
12247SOL    HW137266   6.009   4.356   3.154  0.3531 -1.4140  2.4351
12247SOL    HW237267   6.069   4.265   3.048  0.8205  0.9790  0.5622
12248SOL     OW37268   0.217   4.825   7.559  0.2753 -0.2104 -0.2177
12248SOL    HW137269   0.152   4.791   7.497  0.3770  1.7869 -1.5081
12248SOL    HW237270   0.292   4.766   7.550 -0.2632 -0.8175 -0.8812
12249SOL     OW37271   2.156   0.228   2.047 -0.3016 -0.2333  0.3630
12249SOL    HW137272   2.231   0.287   2.038 -0.7183  0.2155 -0.2534
12249SOL    HW237273   2.183   0.148   2.001 -1.0830  0.7908 -2.0446
12250SOL     OW37274   4.799   4.049   6.037 -0.4343 -0.5664 -0.3285
12250SOL    HW137275   4.773   3.962   6.067 -0.8453 -0.0325  0.9267
12250SOL    HW237276   4.849   4.085   6.110  1.8440 -0.6473 -1.7420
12251SOL     OW37277   3.373   5.919   6.868  0.5038 -0.1327 -0.3779
12251SOL    HW137278   3.436   5.946   6.935 -0.2976  0.7673  0.0292
12251SOL    HW237279   3.342   6.001   6.830 -0.8771 -0.5208 -0.1459
12252SOL     OW37280   4.787   6.416   5.620 -0.3675 -0.1499 -0.2509
12252SOL    HW137281   4.746   6.367   5.548  0.6353  0.0151 -0.9687
12252SOL    HW237282   4.880   6.393   5.613 -0.2742 -0.2161  1.0836
12253SOL     OW37283   2.453   4.584   0.049 -0.1520 -0.4514  0.0446
12253SOL    HW137284   2.529   4.632   0.018  0.2760 -0.6754  0.7284
12253SOL    HW237285   2.450   4.506  -0.006 -0.6658  0.1885 -0.8585
12254SOL     OW37286   2.427   6.115   4.265  0.0851 -0.7100 -0.4161
12254SOL    HW137287   2.422   6.020   4.278  0.1247 -1.0408 -2.4675
12254SOL    HW237288   2.517   6.137   4.290 -0.1152 -1.0729  0.7039
12255SOL     OW37289   6.573   3.840   1.641  0.4232  0.1037  0.0441
12255SOL    HW137290   6.629   3.832   1.719  2.1952  0.5128 -1.1385
12255SOL    HW237291   6.558   3.934   1.631  1.9193  0.2397 -1.2359
12256SOL     OW37292   4.447   5.060   1.761  0.1936 -0.3349  0.1966
12256SOL    HW137293   4.464   5.138   1.814 -1.0331 -0.6514  1.1176
12256SOL    HW237294   4.461   4.987   1.821 -0.6504 -0.7267 -0.0633
12257SOL     OW37295   3.041   5.723   4.426 -0.0131  0.5293  0.4885
12257SOL    HW137296   2.951   5.694   4.411  0.9261 -1.2918 -3.0118
12257SOL    HW237297   3.071   5.671   4.500 -0.8118 -1.7758 -0.6877
12258SOL     OW37298   0.834   1.708   1.951  0.5253  0.1946  0.0891
12258SOL    HW137299   0.881   1.624   1.951  2.1313  1.0397  1.2056
12258SOL    HW237300   0.785   1.708   1.869  2.0384 -0.9965 -0.8746
12259SOL     OW37301   2.241   2.132   0.615  0.6100  0.2163 -0.1772
12259SOL    HW137302   2.310   2.109   0.553  0.9791 -2.6947  1.1510
12259SOL    HW237303   2.285   2.141   0.699 -0.5045 -1.0356  0.5722
12260SOL     OW37304   2.651   5.877   0.230  0.3604 -0.7413  0.3321
12260SOL    HW137305   2.632   5.858   0.138  1.5029  1.2587 -0.3814
12260SOL    HW237306   2.717   5.813   0.254 -0.6324 -1.9003  0.0918
12261SOL     OW37307   4.599   6.251   2.299 -0.3994 -0.6081  0.5018
12261SOL    HW137308   4.629   6.267   2.209  2.3755 -2.0442  1.0625
12261SOL    HW237309   4.591   6.338   2.337  0.5732 -0.0398 -0.5114
12262SOL     OW37310   5.909   2.559   0.329 -0.4590  0.1858 -0.2634
12262SOL    HW137311   5.838   2.581   0.389  0.0986  1.4384 -0.0469
12262SOL    HW237312   5.929   2.467   0.348  0.3804  0.7950  2.2067
12263SOL     OW37313   6.123   1.807   2.363 -0.6702 -0.4033  0.1409
12263SOL    HW137314   6.114   1.727   2.415  2.2500  0.8777  2.9389
12263SOL    HW237315   6.161   1.778   2.280 -1.9674 -2.1108  0.0872
12264SOL     OW37316   7.433   4.988   3.069  0.0820  0.0233 -0.3386
12264SOL    HW137317   7.501   4.993   3.002 -0.6088  2.0438 -0.9772
12264SOL    HW237318   7.462   5.050   3.137 -1.6746  1.9450 -1.2328
12265SOL     OW37319   5.262   4.493   0.210 -0.0279  0.0083  0.2491
12265SOL    HW137320   5.207   4.536   0.146  0.3724 -0.1075 -0.1759
12265SOL    HW237321   5.235   4.401   0.208  1.0260 -0.3086 -0.8843
12266SOL     OW37322   3.790   0.544   0.148  0.4508  0.0058  0.5631
12266SOL    HW137323   3.783   0.618   0.209  0.8754 -0.5758  1.3374
12266SOL    HW237324   3.743   0.473   0.191  0.4982 -0.3319  0.0680
12267SOL     OW37325   5.370   1.968   1.717  0.5119  0.1611 -0.3401
12267SOL    HW137326   5.463   1.974   1.695  0.0428  1.0146 -2.3928
12267SOL    HW237327   5.336   2.056   1.700 -0.9402 -0.5222 -1.1946
12268SOL     OW37328   6.744   7.163   0.355  0.4367  0.3989 -0.5875
12268SOL    HW137329   6.769   7.240   0.303  1.6935  1.4514  1.4527
12268SOL    HW237330   6.675   7.194   0.413  1.7346  0.3850  1.0546
12269SOL     OW37331   3.364   1.122   5.141 -0.2372 -0.1356  0.1501
12269SOL    HW137332   3.456   1.125   5.114  0.2526 -1.4633  1.4896
12269SOL    HW237333   3.341   1.029   5.136 -1.1441  0.0287  0.9653
12270SOL     OW37334   5.647   7.273   4.933 -0.0091  0.5854 -0.5158
12270SOL    HW137335   5.638   7.208   4.864  1.5098  2.0967 -2.2646
12270SOL    HW237336   5.574   7.333   4.919  0.1489  0.7482 -0.6437
12271SOL     OW37337   5.886   3.643   5.278  0.1015  0.5128  0.0754
12271SOL    HW137338   5.797   3.615   5.298 -0.2819  0.7794 -1.1189
12271SOL    HW237339   5.940   3.607   5.348 -0.8615 -0.1700  0.4836
12272SOL     OW37340   1.286   4.474   4.140  0.1801 -0.4385 -0.0429
12272SOL    HW137341   1.309   4.477   4.047 -1.5340 -2.3590 -0.6027
12272SOL    HW237342   1.294   4.565   4.170  0.5770  0.2586 -2.1073
12273SOL     OW37343   6.336   0.573   4.951 -0.3907  0.0205  0.1865
12273SOL    HW137344   6.390   0.607   5.022 -0.2477 -1.7193  0.9698
12273SOL    HW237345   6.358   0.480   4.946 -2.3894 -0.4939 -0.3036
12274SOL     OW37346   3.124   2.284   4.786 -0.3282 -0.0539 -0.4258
12274SOL    HW137347   3.052   2.272   4.725 -0.5623 -0.0305 -0.1570
12274SOL    HW237348   3.084   2.324   4.863 -0.1170 -0.4784 -0.0893
12275SOL     OW37349   2.405   0.703   1.510 -0.3661 -0.0371  0.4044
12275SOL    HW137350   2.365   0.783   1.544  0.7699  0.4280  0.7199
12275SOL    HW237351   2.448   0.664   1.586 -0.3026 -0.5582  0.1026
12276SOL     OW37352   3.468   2.880   5.121  0.0544  0.1945 -0.0246
12276SOL    HW137353   3.458   2.787   5.105 -1.4037  0.5231 -1.2951
12276SOL    HW237354   3.470   2.919   5.034  1.0024  1.3311  0.4786
12277SOL     OW37355   2.399   1.298   7.437 -0.0726  0.2188  0.0352
12277SOL    HW137356   2.415   1.212   7.476 -0.9013 -0.4984 -1.1366
12277SOL    HW237357   2.341   1.281   7.363  0.3585  1.6918 -0.6947
12278SOL     OW37358   1.966   5.054   0.816 -0.3698  0.0935 -0.0736
12278SOL    HW137359   1.880   5.014   0.826 -0.2346 -0.1862 -0.0007
12278SOL    HW237360   2.023   5.004   0.876 -0.4522  1.2006  0.9773
12279SOL     OW37361   4.832   3.625   5.362  0.3339  0.2579 -0.1876
12279SOL    HW137362   4.778   3.553   5.331 -1.0728  0.9375  0.5570
12279SOL    HW237363   4.854   3.602   5.452  0.0833  0.6319 -0.0269
12280SOL     OW37364   4.551   2.409   2.929 -0.2519  0.2040 -0.5946
12280SOL    HW137365   4.475   2.360   2.898 -2.4111  1.2195  2.6438
12280SOL    HW237366   4.520   2.499   2.939  2.0259  1.1284 -1.1201
12281SOL     OW37367   3.205   7.083   5.769  0.0180  0.2353 -0.1998
12281SOL    HW137368   3.274   7.020   5.787 -0.6075 -0.5443 -0.4612
12281SOL    HW237369   3.133   7.030   5.733 -0.0663  1.2415 -1.5949
12282SOL     OW37370   3.126   5.387   4.917  0.1854 -0.2494  0.5053
12282SOL    HW137371   3.203   5.439   4.939 -0.5915  0.8944  0.5917
12282SOL    HW237372   3.058   5.418   4.977 -0.6950 -0.3133 -0.4373
12283SOL     OW37373   2.356   1.134   6.737 -0.2054 -0.1532 -0.3050
12283SOL    HW137374   2.279   1.186   6.713 -0.2509 -0.4781 -0.8602
12283SOL    HW237375   2.324   1.044   6.739 -0.2000 -0.1517  0.9513
12284SOL     OW37376   2.995   6.624   6.134 -0.3161 -0.0507 -0.0397
12284SOL    HW137377   3.052   6.676   6.191 -0.3045 -1.1940  1.0272
12284SOL    HW237378   2.942   6.689   6.089  1.2226  0.9946 -0.4124
12285SOL     OW37379   0.954   0.962   0.949  0.7754 -0.3477  0.5682
12285SOL    HW137380   0.883   0.921   0.901  1.0361 -0.7846  0.5547
12285SOL    HW237381   1.017   0.892   0.964  2.0024  0.4052 -0.8938
12286SOL     OW37382   3.530   5.247   3.559 -0.3389  0.4566 -0.7539
12286SOL    HW137383   3.499   5.275   3.473  1.1129  3.9535 -0.2867
12286SOL    HW237384   3.462   5.274   3.620 -1.1893 -1.6733 -0.6851
12287SOL     OW37385   5.459   6.245   0.069 -0.2447  0.6691 -0.0256
12287SOL    HW137386   5.442   6.266  -0.023 -1.3820 -1.1056 -0.2777
12287SOL    HW237387   5.552   6.224   0.072 -0.8856 -3.2005 -1.7274
12288SOL     OW37388   4.163   1.941   1.462  0.4603  0.8832  0.0316
12288SOL    HW137389   4.177   1.857   1.506  0.6179  0.6497 -0.4554
12288SOL    HW237390   4.124   1.997   1.529 -1.1285 -0.0439 -0.0652
12289SOL     OW37391   5.117   2.424   4.228  0.4070  0.3437 -0.5165
12289SOL    HW137392   5.149   2.414   4.318 -0.3076 -0.3884 -0.3253
12289SOL    HW237393   5.157   2.352   4.180  0.9344  0.8436 -0.8354
12290SOL     OW37394   6.387   2.016   3.137 -0.0001 -0.4994 -0.2302
12290SOL    HW137395   6.371   2.090   3.079  0.5764  0.7514  1.1374
12290SOL    HW237396   6.475   1.986   3.115  0.3783  0.2310  0.2360
12291SOL     OW37397   6.732   6.810   1.134  0.2037 -0.0942  0.6416
12291SOL    HW137398   6.795   6.877   1.161 -0.1904 -0.3359  2.2553
12291SOL    HW237399   6.705   6.837   1.046  4.2499 -1.2227 -1.1724
12292SOL     OW37400   7.514   3.547   1.732  0.2648 -0.3479  0.0609
12292SOL    HW137401   7.447   3.512   1.790 -0.3482  0.7886  0.0667
12292SOL    HW237402   7.475   3.626   1.695  0.4997 -1.2331 -2.2142
12293SOL     OW37403   1.758   4.841   1.504  0.1363 -0.2422 -0.8181
12293SOL    HW137404   1.668   4.814   1.523  0.1337  1.3574  1.9979
12293SOL    HW237405   1.750   4.932   1.476  0.9222  0.7578  1.8540
12294SOL     OW37406   6.499   5.501   2.043  0.6084 -0.1688  0.0953
12294SOL    HW137407   6.403   5.498   2.035  0.5620 -1.8732  0.8401
12294SOL    HW237408   6.514   5.556   2.120  0.2400  0.2250 -0.1075
12295SOL     OW37409   4.282   3.591   6.511 -0.1858 -0.1524 -0.1172
12295SOL    HW137410   4.245   3.553   6.591 -0.9952  0.1961 -0.3179
12295SOL    HW237411   4.208   3.598   6.451  0.4106 -0.3915 -0.9008
12296SOL     OW37412   2.539   2.132   0.159 -0.2598 -0.5850  0.2165
12296SOL    HW137413   2.541   2.038   0.141 -1.4196 -0.6881  0.5156
12296SOL    HW237414   2.459   2.145   0.210  0.3305  0.4416  0.9285
12297SOL     OW37415   2.653   2.169   1.400  0.2854  0.2116 -0.5251
12297SOL    HW137416   2.685   2.232   1.334  0.3363 -0.1442 -0.8426
12297SOL    HW237417   2.586   2.119   1.354  0.5351 -0.2417 -0.3998
12298SOL     OW37418   2.676   1.961   5.045  0.0992 -0.3658  0.5372
12298SOL    HW137419   2.651   1.930   4.957  0.0921  1.2433 -0.0563
12298SOL    HW237420   2.682   1.881   5.097 -0.7888 -1.2860 -0.7003
12299SOL     OW37421   1.879   6.787   3.811  0.1753 -0.2226 -0.4772
12299SOL    HW137422   1.793   6.747   3.821  0.8086 -2.0565 -1.8250
12299SOL    HW237423   1.934   6.745   3.876  0.1393  0.7848  0.2298
12300SOL     OW37424   0.589   5.615   2.759  0.1751 -0.1694 -0.4833
12300SOL    HW137425   0.564   5.600   2.850 -2.4788 -0.6195 -1.2063
12300SOL    HW237426   0.607   5.528   2.725  0.1662 -0.1091 -0.6411
12301SOL     OW37427   0.026   2.702   3.918 -0.3108  0.0470 -0.0499
12301SOL    HW137428   0.105   2.703   3.863  0.6396  0.3950  1.2667
12301SOL    HW237429  -0.043   2.734   3.861 -0.0588 -2.5444 -2.0076
12302SOL     OW37430   1.033   2.959   5.000  0.0637 -0.2460  0.1475
12302SOL    HW137431   0.969   2.893   4.973 -0.4146  0.4125 -0.3584
12302SOL    HW237432   1.021   3.030   4.938  1.0020  0.0649  0.3090
12303SOL     OW37433   2.482   0.644   5.988  0.7878  0.2084  0.1305
12303SOL    HW137434   2.483   0.603   6.075 -1.5319 -1.1192 -0.3786
12303SOL    HW237435   2.570   0.680   5.977  1.7438 -1.2778  2.2300
12304SOL     OW37436   4.875   5.809   5.568 -0.1312 -0.3899 -0.2741
12304SOL    HW137437   4.882   5.733   5.511  0.0898 -0.6478  0.0966
12304SOL    HW237438   4.932   5.875   5.527 -0.4405 -0.3690 -0.6760
12305SOL     OW37439   1.333   0.552   0.492  0.3871  0.4902  0.1659
12305SOL    HW137440   1.421   0.537   0.527  0.3431 -2.3065 -0.6135
12305SOL    HW237441   1.343   0.537   0.398 -0.6239  1.9314 -0.2019
12306SOL     OW37442   6.373   6.838   1.974 -0.5222  0.0225 -0.5190
12306SOL    HW137443   6.418   6.834   2.058 -0.6634 -1.4669 -0.4917
12306SOL    HW237444   6.298   6.780   1.983 -0.2630 -0.5670 -1.8253
12307SOL     OW37445   6.904   0.309   1.936  0.2017  0.2171  0.0571
12307SOL    HW137446   6.966   0.379   1.914 -0.4980 -0.0397 -3.3084
12307SOL    HW237447   6.843   0.349   1.998  0.9523  1.9803 -0.2911
12308SOL     OW37448   0.790   1.043   5.343  0.2270 -0.0908 -0.6007
12308SOL    HW137449   0.797   0.958   5.299  1.5510 -0.3544  0.0534
12308SOL    HW237450   0.857   1.039   5.412  0.3215  1.4908 -0.5710
12309SOL     OW37451   2.530   4.199   4.367 -0.6672  0.1053  0.4293
12309SOL    HW137452   2.466   4.212   4.296 -1.3850 -2.8846  0.3985
12309SOL    HW237453   2.527   4.281   4.417 -1.7676  1.4576 -1.7077
12310SOL     OW37454   5.576   1.164   4.553  0.0605 -0.1461  0.2535
12310SOL    HW137455   5.505   1.205   4.604  0.4382  0.4293  0.3284
12310SOL    HW237456   5.577   1.214   4.470  0.5190 -0.0044  0.3417
12311SOL     OW37457   3.061   5.736   7.556  0.1258  0.4338  0.4802
12311SOL    HW137458   3.098   5.683   7.485  0.5141  3.9545 -2.2142
12311SOL    HW237459   3.133   5.747   7.618  0.8849  0.1193 -0.3205
12312SOL     OW37460   6.804   4.110   3.189  0.4091  0.2471  0.4527
12312SOL    HW137461   6.856   4.157   3.254  0.7296  0.5245 -0.0015
12312SOL    HW237462   6.849   4.026   3.178  0.5781  0.3584  0.2972
12313SOL     OW37463   4.101   1.369   3.689  0.5411 -0.1883  0.3659
12313SOL    HW137464   4.106   1.291   3.634 -0.8340  0.7719 -1.2318
12313SOL    HW237465   4.052   1.432   3.636  2.2796  2.0501  1.2597
12314SOL     OW37466   5.349   1.482   0.593 -0.1243  0.1091 -0.1062
12314SOL    HW137467   5.344   1.492   0.498 -0.4247 -0.0977 -0.1130
12314SOL    HW237468   5.418   1.417   0.607  0.4395  0.6892 -0.1478
12315SOL     OW37469   5.262   6.048   6.171 -0.0641  0.8719  0.4044
12315SOL    HW137470   5.342   6.014   6.212 -0.9227 -2.0247 -0.1436
12315SOL    HW237471   5.241   6.126   6.223  3.2254  1.9624  0.3722
12316SOL     OW37472   2.129   0.112   1.657  0.1176 -0.1107 -0.0156
12316SOL    HW137473   2.100   0.116   1.748 -2.5218  1.1823 -0.8147
12316SOL    HW237474   2.060   0.064   1.611 -0.3241  2.0660 -1.8343
12317SOL     OW37475   5.537   5.572   6.808  0.5511  0.5215 -0.3956
12317SOL    HW137476   5.465   5.582   6.746  0.3690  0.3781 -0.2090
12317SOL    HW237477   5.614   5.553   6.754  0.5864  1.3383 -0.6417
12318SOL     OW37478   5.650   4.091   0.372  0.2467 -0.0778 -0.0541
12318SOL    HW137479   5.663   4.039   0.292 -1.8122 -1.2032  0.2655
12318SOL    HW237480   5.575   4.049   0.416  1.6641  0.1120  2.7984
12319SOL     OW37481   0.599   1.075   1.922  0.9894  0.3094  0.1241
12319SOL    HW137482   0.518   1.116   1.892  1.2932  1.2180  0.5256
12319SOL    HW237483   0.607   0.995   1.869 -0.5213 -0.1561  0.5487
12320SOL     OW37484   1.208   1.646   1.974 -0.0981 -0.2906 -0.2642
12320SOL    HW137485   1.157   1.691   1.907  0.1620  0.3208 -0.0576
12320SOL    HW237486   1.298   1.648   1.940  0.3168  1.4538  0.8195
12321SOL     OW37487   5.415   5.501   3.541  0.5842  0.3382  0.3661
12321SOL    HW137488   5.330   5.504   3.586  0.5848  1.1635  0.3383
12321SOL    HW237489   5.447   5.412   3.555 -1.3366 -0.7637 -1.6099
12322SOL     OW37490   3.355   0.549   0.391  0.2513  0.2837  0.1623
12322SOL    HW137491   3.297   0.617   0.357  0.2490 -0.4104 -1.3298
12322SOL    HW237492   3.305   0.509   0.463 -1.3285 -0.5217 -1.2982
12323SOL     OW37493   2.812   6.603   5.571  0.0551  0.2717  0.1832
12323SOL    HW137494   2.853   6.622   5.656 -2.5404 -0.8715  1.8330
12323SOL    HW237495   2.733   6.657   5.571 -0.1574  0.0013 -1.4050
12324SOL     OW37496   2.404   6.826   1.129  0.1909  0.4525 -0.0856
12324SOL    HW137497   2.412   6.909   1.081  1.3720  1.0899  1.1339
12324SOL    HW237498   2.487   6.782   1.115 -1.2216 -1.7188 -2.6649
12325SOL     OW37499   0.603   1.739   6.063  0.0478 -0.1731  0.3804
12325SOL    HW137500   0.670   1.722   5.997  1.2525 -0.5988  1.6702
12325SOL    HW237501   0.647   1.723   6.146 -1.5456 -0.0309  1.2796
12326SOL     OW37502   7.029   4.951   0.507  0.0654  0.3568  0.6156
12326SOL    HW137503   7.064   5.039   0.490 -0.2731  0.2994 -0.4576
12326SOL    HW237504   6.979   4.929   0.428 -0.3142 -0.5798  1.0977
12327SOL     OW37505   4.053   3.887   6.882 -0.4227  0.0180  0.5334
12327SOL    HW137506   4.127   3.940   6.852 -0.5746  1.0288  1.8532
12327SOL    HW237507   4.070   3.873   6.975 -0.8475 -1.5304  0.4059
12328SOL     OW37508   4.177   5.503   1.634 -0.5672 -0.3332  0.3485
12328SOL    HW137509   4.249   5.523   1.694 -0.7986 -0.8728  0.8186
12328SOL    HW237510   4.139   5.588   1.612  1.0616  0.0952 -0.9926
12329SOL     OW37511   6.604   5.523   3.932  0.1995  0.0520  0.1923
12329SOL    HW137512   6.562   5.515   3.846 -0.5989  1.6048  0.4028
12329SOL    HW237513   6.549   5.470   3.990 -0.1044  0.1813  0.0266
12330SOL     OW37514   2.796   3.179   1.101  0.1524 -0.6240 -0.4896
12330SOL    HW137515   2.769   3.170   1.192 -0.6087 -3.0570 -0.8782
12330SOL    HW237516   2.734   3.241   1.063 -1.5145 -1.9403 -0.0411
12331SOL     OW37517   6.079   0.042   0.215 -0.3099 -0.1902  0.1534
12331SOL    HW137518   6.006  -0.017   0.234 -0.0325 -0.5100  0.2539
12331SOL    HW237519   6.125   0.050   0.299 -0.5168  0.4158  0.2139
12332SOL     OW37520   3.091   6.565   0.841  0.1861 -0.1887  0.1018
12332SOL    HW137521   3.113   6.648   0.799 -1.2252 -0.2281 -0.7643
12332SOL    HW237522   3.042   6.516   0.775  0.3056 -1.3976  0.8665
12333SOL     OW37523   6.228   1.266   0.071 -0.4995  0.6354  0.4207
12333SOL    HW137524   6.316   1.300   0.086 -0.2214 -0.1824  0.7334
12333SOL    HW237525   6.206   1.220   0.152 -1.0489  0.4948  0.1968
12334SOL     OW37526   0.297   0.755   6.939 -0.4352 -0.4148 -0.4140
12334SOL    HW137527   0.386   0.775   6.910 -0.2901 -0.8963 -0.2987
12334SOL    HW237528   0.293   0.789   7.028 -0.5873  0.2268 -0.6595
12335SOL     OW37529   1.340   1.836   4.337  0.0801  0.6388  0.0987
12335SOL    HW137530   1.370   1.878   4.257 -0.6122 -0.6471 -0.8655
12335SOL    HW237531   1.252   1.870   4.351  0.0048  0.4732  0.0274
12336SOL     OW37532   5.561   5.602   6.219  0.3086  0.1038  0.2716
12336SOL    HW137533   5.519   5.527   6.260 -0.1270 -0.2339 -0.7485
12336SOL    HW237534   5.654   5.580   6.218  0.3356  0.1414  1.0885
12337SOL     OW37535   5.027   5.383   3.159  0.4613 -0.3743 -0.3288
12337SOL    HW137536   4.942   5.343   3.173  0.4311 -0.0056  0.6343
12337SOL    HW237537   5.046   5.369   3.066 -0.3962 -0.9315 -0.4264
12338SOL     OW37538   3.312   5.563   5.733  0.0510 -0.5268  0.3505
12338SOL    HW137539   3.221   5.572   5.705  0.0171 -0.0668  0.5803
12338SOL    HW237540   3.325   5.638   5.792  0.3405 -1.0399  0.9470
12339SOL     OW37541   4.198   4.300   0.257 -0.2051 -0.6464 -1.0201
12339SOL    HW137542   4.219   4.288   0.165 -0.0716 -2.4609 -0.7825
12339SOL    HW237543   4.163   4.389   0.262 -0.1648 -0.4951 -2.7987
12340SOL     OW37544   7.518   3.585   3.682 -0.4342 -0.0531  0.4849
12340SOL    HW137545   7.434   3.548   3.654 -0.9017  1.2432  0.1049
12340SOL    HW237546   7.535   3.655   3.619  1.3673 -0.8291  0.0452
12341SOL     OW37547   3.642   1.551   6.904 -0.1706 -0.0444  0.1354
12341SOL    HW137548   3.562   1.581   6.859 -1.1859 -0.5146  1.5508
12341SOL    HW237549   3.610   1.485   6.966  1.2666  0.1512  1.1047
12342SOL     OW37550   3.268   3.773   4.855 -0.8750  0.0859  0.0689
12342SOL    HW137551   3.279   3.751   4.762 -1.5996 -0.8011  0.1778
12342SOL    HW237552   3.356   3.799   4.883 -0.9155  1.7404 -1.1815
12343SOL     OW37553   2.362   5.583   0.572 -0.0579  0.4297  0.3708
12343SOL    HW137554   2.375   5.552   0.661 -2.1084  0.3251  0.6778
12343SOL    HW237555   2.320   5.668   0.581 -0.4830  0.3279 -0.4814
12344SOL     OW37556   5.411   2.489   6.684  0.1928  0.6691  0.1270
12344SOL    HW137557   5.467   2.504   6.608  0.5946  1.9397  0.6518
12344SOL    HW237558   5.462   2.430   6.740  0.3464  0.5939 -0.0881
12345SOL     OW37559   4.256   7.008   0.658 -0.1748  0.4218  1.0887
12345SOL    HW137560   4.309   6.931   0.638 -1.8627 -0.9122  1.5597
12345SOL    HW237561   4.277   7.070   0.588  1.6497 -0.2065  1.0260
12346SOL     OW37562   2.708   4.118   0.497  0.2248 -0.2822 -0.1147
12346SOL    HW137563   2.659   4.049   0.543  2.2198 -1.5748  0.1902
12346SOL    HW237564   2.754   4.165   0.566  0.6934 -0.1434 -0.5171
12347SOL     OW37565   3.891   5.428   4.915 -0.0060  0.2441 -0.0578
12347SOL    HW137566   3.861   5.436   4.824 -0.3668  2.8327  0.2105
12347SOL    HW237567   3.868   5.338   4.940 -2.2729  0.2685 -1.7099
12348SOL     OW37568   1.057   4.858   0.325  0.0236 -0.0211  0.5017
12348SOL    HW137569   1.125   4.889   0.265 -0.4256 -2.6339 -1.5172
12348SOL    HW237570   0.977   4.901   0.296 -0.0145 -0.5388 -0.1739
12349SOL     OW37571   5.532   6.848   7.419 -0.7972 -0.2162 -0.6264
12349SOL    HW137572   5.486   6.768   7.444  1.5292 -1.8389 -1.2023
12349SOL    HW237573   5.485   6.879   7.341 -1.2746 -1.4805 -0.8688
12350SOL     OW37574   2.459   5.387   5.141 -0.5418  0.5436  0.1337
12350SOL    HW137575   2.372   5.411   5.109 -0.6342 -0.1008 -0.1323
12350SOL    HW237576   2.517   5.403   5.067 -0.5749  0.1503  0.0184
12351SOL     OW37577   0.107   3.807   7.386 -0.7051 -0.2011  0.0733
12351SOL    HW137578   0.113   3.779   7.295  0.5873 -1.4250  0.4906
12351SOL    HW237579   0.061   3.736   7.430  2.3155 -1.7192  1.0853
12352SOL     OW37580   1.213   2.425   7.118  0.1521  0.6768 -0.0268
12352SOL    HW137581   1.272   2.479   7.066  0.2300  1.5038  0.8797
12352SOL    HW237582   1.136   2.480   7.131 -1.1428 -0.6086 -1.7185
12353SOL     OW37583   2.699   0.029   2.510 -0.2573  0.0715 -0.3260
12353SOL    HW137584   2.728  -0.056   2.543  0.3122  0.5748  0.5073
12353SOL    HW237585   2.750   0.042   2.430  0.0793 -0.1134 -0.1442
12354SOL     OW37586   0.008   4.618   1.220  0.7196  0.8504 -0.2687
12354SOL    HW137587  -0.005   4.534   1.265 -0.1090 -0.3628 -2.6265
12354SOL    HW237588  -0.054   4.678   1.262  0.3399 -0.0756  0.5316
12355SOL     OW37589   4.453   5.590   5.528  0.4003  0.1473 -0.3908
12355SOL    HW137590   4.386   5.650   5.495 -1.7894 -1.5830  0.6235
12355SOL    HW237591   4.510   5.574   5.453 -0.8337  1.0491 -1.5619
12356SOL     OW37592   5.772   0.559   3.668 -0.7348  0.7865  0.1101
12356SOL    HW137593   5.681   0.533   3.677  0.1295 -2.0336  1.9521
12356SOL    HW237594   5.803   0.512   3.590 -0.2050 -0.5369  1.0868
12357SOL     OW37595   6.076   0.742   0.638 -0.2670 -0.6266  0.2154
12357SOL    HW137596   6.015   0.811   0.610 -1.2110 -1.2090  0.8069
12357SOL    HW237597   6.048   0.664   0.590 -1.1798 -1.3541  1.8596
12358SOL     OW37598   3.152   2.557   0.554  0.5037  0.1298 -0.1079
12358SOL    HW137599   3.095   2.551   0.477  1.1654 -0.4123 -0.5722
12358SOL    HW237600   3.136   2.476   0.602 -0.3122  0.7113  0.6321
12359SOL     OW37601   7.196   0.975   2.208  0.6332  0.2247 -0.0481
12359SOL    HW137602   7.173   0.901   2.151  0.6904  0.6765 -0.6611
12359SOL    HW237603   7.283   1.002   2.178  2.1860 -1.6005  2.3782
12360SOL     OW37604   3.826   4.583   7.148  0.3252 -0.5091  0.1030
12360SOL    HW137605   3.855   4.505   7.102 -0.4031  0.6815 -2.5265
12360SOL    HW237606   3.742   4.606   7.108  0.6500  1.7683  0.5833
12361SOL     OW37607   0.465   2.517   6.818 -0.2386 -0.0984 -0.1031
12361SOL    HW137608   0.513   2.580   6.765  2.4496 -2.0637 -0.2349
12361SOL    HW237609   0.476   2.547   6.908  1.6468 -0.6710 -0.1010
12362SOL     OW37610   3.837   5.263   1.815  0.0431  0.0588  0.3822
12362SOL    HW137611   3.930   5.255   1.834 -0.2636 -1.9563  1.2834
12362SOL    HW237612   3.822   5.201   1.743 -0.7752 -0.5378  1.0409
12363SOL     OW37613   4.747   0.165   2.916 -0.3740 -0.1957 -0.3004
12363SOL    HW137614   4.816   0.103   2.893  0.1266  0.7830 -1.5921
12363SOL    HW237615   4.739   0.221   2.839 -1.5629  0.6623  0.4130
12364SOL     OW37616   0.264   6.238   3.485  0.0963 -0.2539  0.7700
12364SOL    HW137617   0.254   6.246   3.579 -0.6976 -1.1493  0.7770
12364SOL    HW237618   0.222   6.318   3.450 -0.9828 -0.6463  1.1241
12365SOL     OW37619   1.142   4.592   5.827 -0.3593 -0.1770  0.6034
12365SOL    HW137620   1.149   4.498   5.842 -0.4803 -0.6067 -1.6307
12365SOL    HW237621   1.053   4.615   5.852 -0.7395 -0.9395 -0.0162
12366SOL     OW37622   0.384   5.417   7.249  0.1245  0.2795 -0.3156
12366SOL    HW137623   0.292   5.413   7.274  0.5091 -1.0945  1.0735
12366SOL    HW237624   0.432   5.399   7.330  1.7352  3.2785 -0.4636
12367SOL     OW37625   4.653   2.984   2.966  0.1057 -0.4218 -0.4895
12367SOL    HW137626   4.634   2.891   2.979  0.1325 -0.7927 -2.6930
12367SOL    HW237627   4.741   2.995   3.003 -0.2495 -1.0429  0.5971
12368SOL     OW37628   6.273   4.576   0.681 -0.0708 -0.6920  0.4371
12368SOL    HW137629   6.254   4.541   0.594  0.3267  0.5670 -0.1784
12368SOL    HW237630   6.368   4.564   0.692 -0.0210 -0.3094  0.4447
12369SOL     OW37631   0.012   5.695   5.764 -0.2513 -0.7530 -0.1346
12369SOL    HW137632   0.083   5.759   5.754 -0.7646 -0.3519 -1.5221
12369SOL    HW237633  -0.061   5.733   5.715 -0.9983 -1.7806  0.1571
12370SOL     OW37634   2.726   5.452   7.091 -0.0176 -0.4933 -0.1473
12370SOL    HW137635   2.672   5.394   7.145  0.3189 -2.1831 -1.5199
12370SOL    HW237636   2.800   5.397   7.064  0.6814  0.7961 -0.9709
12371SOL     OW37637   6.893   1.337   6.892 -0.4051  0.0182  0.5310
12371SOL    HW137638   6.897   1.430   6.916 -0.0653  0.0302  0.4287
12371SOL    HW237639   6.805   1.326   6.856 -0.1048  0.5342 -0.3919
12372SOL     OW37640   2.219   5.760   3.146 -0.2227  0.5154 -0.5661
12372SOL    HW137641   2.204   5.852   3.170  2.1470  0.6461  0.7173
12372SOL    HW237642   2.217   5.712   3.229 -0.3587 -0.4217 -1.0957
12373SOL     OW37643   3.195   4.311   2.987 -0.8218 -0.2673 -0.1588
12373SOL    HW137644   3.269   4.271   2.940 -1.8469 -1.0553 -1.1522
12373SOL    HW237645   3.142   4.352   2.918 -0.4634  1.7952  0.7045
12374SOL     OW37646   7.558   3.580   3.271 -0.1223 -0.0566 -0.0655
12374SOL    HW137647   7.503   3.624   3.207 -0.8141 -0.0539  0.5098
12374SOL    HW237648   7.579   3.648   3.335 -0.0347 -0.2293  0.0896
12375SOL     OW37649   5.542   3.958   6.962 -0.4020  0.4268 -0.1318
12375SOL    HW137650   5.572   3.950   6.872  4.7247  3.0053  0.9105
12375SOL    HW237651   5.545   3.869   6.997  1.6432 -0.1569 -1.5990
12376SOL     OW37652   0.627   1.389   4.763 -0.0327 -0.3744  0.9192
12376SOL    HW137653   0.690   1.461   4.762 -0.2642 -0.1111 -1.7671
12376SOL    HW237654   0.682   1.310   4.759  0.1966 -0.1732 -0.5155
12377SOL     OW37655   3.983   0.320   6.311 -0.3594 -0.7689  0.0255
12377SOL    HW137656   3.974   0.406   6.269  0.4452 -1.0523 -0.7569
12377SOL    HW237657   3.936   0.329   6.394  1.4991  1.1012  0.9652
12378SOL     OW37658   5.593   1.065   5.610  0.3085  0.2720  0.4743
12378SOL    HW137659   5.555   1.114   5.682 -1.4720 -1.2038  0.6085
12378SOL    HW237660   5.664   1.016   5.649 -0.5801 -0.4436  1.2345
12379SOL     OW37661   3.969   2.333   3.518  0.3184 -0.4555 -0.1239
12379SOL    HW137662   3.898   2.339   3.455  2.0795 -1.2613 -2.3278
12379SOL    HW237663   3.977   2.422   3.554 -1.4798 -0.2592 -0.1268
12380SOL     OW37664   0.797   4.856   2.013 -0.2834 -0.3667  0.6326
12380SOL    HW137665   0.889   4.838   1.996 -0.2914 -0.0641  0.2431
12380SOL    HW237666   0.764   4.777   2.057  0.1135 -0.5514  0.5971
12381SOL     OW37667   2.302   7.250   4.293  0.0609 -0.1743  0.2012
12381SOL    HW137668   2.289   7.330   4.243 -1.3759 -1.1603 -1.0812
12381SOL    HW237669   2.223   7.198   4.278  0.4518 -1.3736  1.9063
12382SOL     OW37670   5.817   6.959   1.782 -0.0237 -0.4812 -0.0978
12382SOL    HW137671   5.841   6.905   1.707  0.9161 -0.0545 -0.1095
12382SOL    HW237672   5.860   6.917   1.857 -0.2502 -0.4127  0.0717
12383SOL     OW37673   1.882   1.284   0.398  0.1578  0.5045  0.3438
12383SOL    HW137674   1.894   1.378   0.386 -1.7898  0.9419  1.4072
12383SOL    HW237675   1.921   1.245   0.320 -0.1102  2.2754 -0.7391
12384SOL     OW37676   2.603   5.312   6.001  0.3591 -0.0471  0.6091
12384SOL    HW137677   2.661   5.387   6.015  0.8187 -0.4021  0.6668
12384SOL    HW237678   2.561   5.329   5.917  0.3695  0.3281  0.6768
12385SOL     OW37679   2.812   1.930   6.597 -0.1004  0.0863  0.4244
12385SOL    HW137680   2.849   1.987   6.665  1.8604  1.0027 -1.3032
12385SOL    HW237681   2.743   1.983   6.556  1.5867  1.2555 -1.0461
12386SOL     OW37682   0.052   6.498   1.355 -0.1661 -0.0995 -0.7212
12386SOL    HW137683  -0.025   6.512   1.299 -0.7339 -2.1037 -0.5239
12386SOL    HW237684   0.110   6.443   1.303  0.2800 -0.1950 -0.1333
12387SOL     OW37685   5.972   5.783   3.851 -0.1689  0.0029 -0.2623
12387SOL    HW137686   5.968   5.865   3.801  0.9038  1.6707  2.2105
12387SOL    HW237687   6.066   5.766   3.862 -0.3850 -1.2327 -0.2069
12388SOL     OW37688   4.159   5.071   5.096  0.2122  0.4045  0.1372
12388SOL    HW137689   4.174   5.165   5.100 -0.6444  0.5634 -0.0688
12388SOL    HW237690   4.217   5.034   5.162 -0.6629  1.2566  1.4416
12389SOL     OW37691   4.202   3.509   3.203 -0.0233 -0.1037 -0.4221
12389SOL    HW137692   4.216   3.588   3.255  2.3221 -0.8014  0.0915
12389SOL    HW237693   4.171   3.444   3.265 -0.0867 -0.1371 -0.4878
12390SOL     OW37694   4.684   6.225   5.017  0.7070  0.2822  0.2054
12390SOL    HW137695   4.609   6.174   4.987  1.4549 -1.6217  1.3571
12390SOL    HW237696   4.759   6.169   4.998  1.4188  0.1204  3.1283
12391SOL     OW37697   6.393   3.785   3.253 -0.2571  0.4180 -0.6489
12391SOL    HW137698   6.402   3.849   3.323  0.7095  0.2235 -0.5758
12391SOL    HW237699   6.397   3.836   3.172 -2.6251  0.7957 -0.5971
12392SOL     OW37700   7.380   2.458   2.474 -0.2987  0.0554 -0.1526
12392SOL    HW137701   7.375   2.373   2.430  1.5574  0.0950 -0.5097
12392SOL    HW237702   7.340   2.443   2.560 -1.1137 -0.8473 -0.6718
12393SOL     OW37703   4.763   5.125   2.818  0.3491  1.0495 -0.4497
12393SOL    HW137704   4.792   5.095   2.732  2.7553  0.9732  0.3293
12393SOL    HW237705   4.787   5.218   2.821 -3.0243  2.1043 -1.1467
12394SOL     OW37706   3.451   3.286   2.859 -0.3639  0.0430  0.7124
12394SOL    HW137707   3.382   3.290   2.925 -0.3891 -1.3261  0.7919
12394SOL    HW237708   3.405   3.265   2.778 -0.0706 -0.6737  0.7263
12395SOL     OW37709   2.582   1.017   2.846 -0.1919  0.7637  0.1503
12395SOL    HW137710   2.604   1.026   2.753 -0.9895 -0.1839 -0.1455
12395SOL    HW237711   2.665   1.033   2.892  0.5013 -0.0086 -0.7832
12396SOL     OW37712   4.019   0.807   6.606 -0.1594  0.0051  0.1828
12396SOL    HW137713   4.078   0.741   6.568 -0.3232  0.5016 -0.9603
12396SOL    HW237714   3.937   0.760   6.622 -0.3218 -0.0377 -0.7652
12397SOL     OW37715   1.479   4.433   2.819 -0.2641 -0.1917 -0.1278
12397SOL    HW137716   1.405   4.374   2.806 -1.5303  1.1964  0.4973
12397SOL    HW237717   1.441   4.520   2.821  1.5367  0.6698 -0.8436
12398SOL     OW37718   2.586   5.789   0.674 -0.4773  0.5003  0.1818
12398SOL    HW137719   2.610   5.882   0.681 -0.8130  0.6071 -0.0708
12398SOL    HW237720   2.496   5.790   0.643 -0.4914  0.0873  0.2108
12399SOL     OW37721   4.231   7.253   1.674 -0.1537  0.4022 -0.3942
12399SOL    HW137722   4.141   7.242   1.645 -0.4467 -1.2218  0.9709
12399SOL    HW237723   4.228   7.328   1.734 -0.6554  0.1356 -0.0835
12400SOL     OW37724   5.446   2.836   0.857 -0.2384 -0.1404  0.4239
12400SOL    HW137725   5.492   2.756   0.883 -1.4150 -1.5620 -1.5772
12400SOL    HW237726   5.496   2.870   0.784  0.0270  0.7585  1.0125
12401SOL     OW37727   6.667   6.263   4.981  0.1072  0.3487  0.8196
12401SOL    HW137728   6.625   6.177   4.989 -1.4782  0.8240 -1.2808
12401SOL    HW237729   6.643   6.310   5.061 -1.7709 -0.0938  0.5555
12402SOL     OW37730   2.055   6.382   5.883  0.0730 -0.0153  0.7888
12402SOL    HW137731   2.144   6.373   5.847 -0.5022 -0.5051 -0.5709
12402SOL    HW237732   2.065   6.446   5.954  1.6407 -0.6114  1.1493
12403SOL     OW37733   4.311   1.491   0.018  0.1743 -0.1538 -0.6591
12403SOL    HW137734   4.356   1.529   0.093  0.4023  0.3951 -1.0642
12403SOL    HW237735   4.380   1.447  -0.032  0.5826  1.9361 -2.0612
12404SOL     OW37736   3.243   2.079   7.113 -0.0788  0.0924 -0.0767
12404SOL    HW137737   3.180   2.080   7.186 -0.0131 -1.0616  0.0127
12404SOL    HW237738   3.263   2.172   7.098 -2.1731  0.5405 -0.4260
12405SOL     OW37739   2.458   1.731   4.985 -0.2752  0.6450 -0.2805
12405SOL    HW137740   2.489   1.697   4.901 -1.0926 -1.1250  0.0692
12405SOL    HW237741   2.367   1.757   4.968 -0.0168  1.5751 -0.2585
12406SOL     OW37742   7.567   2.128   7.051  0.1225  0.3537 -0.2779
12406SOL    HW137743   7.532   2.091   6.970  1.8400 -0.3495 -0.7299
12406SOL    HW237744   7.495   2.181   7.086 -2.0412 -2.3429 -0.2690
12407SOL     OW37745   5.871   3.667   3.560  0.0594  0.0712 -0.8390
12407SOL    HW137746   5.891   3.735   3.495  1.3447  1.2719  0.7012
12407SOL    HW237747   5.927   3.690   3.635 -1.0084 -1.5229  0.4997
12408SOL     OW37748   4.389   2.294   4.362 -0.1802 -0.4650 -0.0351
12408SOL    HW137749   4.336   2.339   4.297 -0.0693  0.5072  0.5327
12408SOL    HW237750   4.380   2.201   4.340 -1.4791 -0.2660 -0.4154
12409SOL     OW37751   6.742   6.412   1.481 -0.1067  0.1524  0.0041
12409SOL    HW137752   6.759   6.433   1.573 -0.9320  1.2608 -0.0825
12409SOL    HW237753   6.777   6.323   1.470  1.4807  0.6142  0.9664
12410SOL     OW37754   7.261   1.813   4.964 -0.3413 -0.2854  0.1348
12410SOL    HW137755   7.220   1.855   5.039  0.5777 -0.9704  1.0462
12410SOL    HW237756   7.231   1.722   4.967 -0.8798 -0.1515 -0.7637
12411SOL     OW37757   3.782   5.339   7.132  0.2307  0.5265  0.4206
12411SOL    HW137758   3.758   5.312   7.043  1.0482 -1.7926  0.8337
12411SOL    HW237759   3.876   5.350   7.130  0.7032 -2.2730  1.5277
12412SOL     OW37760   3.076   0.528   5.269  0.1697  0.1873  0.4503
12412SOL    HW137761   3.044   0.618   5.263 -1.5676 -0.4182  0.1299
12412SOL    HW237762   3.036   0.483   5.195  2.6446 -0.4329 -0.6175
12413SOL     OW37763   6.718   2.929   4.634  0.1161  0.6227 -0.1155
12413SOL    HW137764   6.661   2.937   4.711  0.8082  0.1543  0.4584
12413SOL    HW237765   6.794   2.985   4.655 -1.0071  2.9420 -1.7529
12414SOL     OW37766   6.476   4.600   1.279 -0.5526  0.6275  0.0985
12414SOL    HW137767   6.435   4.557   1.354  1.2992  0.1231  0.8836
12414SOL    HW237768   6.419   4.581   1.205 -0.4992 -2.1112  0.6583
12415SOL     OW37769   5.378   6.342   7.400 -0.0938  0.3625  0.5037
12415SOL    HW137770   5.283   6.333   7.393  0.1445 -1.7365 -0.8343
12415SOL    HW237771   5.412   6.291   7.327  2.1150 -0.2647  1.8973
12416SOL     OW37772   6.702   4.790   4.748 -0.0818 -0.1619  0.0217
12416SOL    HW137773   6.716   4.883   4.769  1.0288 -0.1534 -0.6421
12416SOL    HW237774   6.674   4.790   4.657  0.6175 -0.5095 -0.2006
12417SOL     OW37775   7.163   3.930   1.543 -0.2528 -0.0601  0.7602
12417SOL    HW137776   7.117   3.874   1.480  0.6369 -0.2378  0.2469
12417SOL    HW237777   7.123   4.016   1.532  1.4849  0.5322 -1.8775
12418SOL     OW37778   2.560   3.470   3.748  0.5126 -0.4650  0.3143
12418SOL    HW137779   2.479   3.479   3.798  0.2149  1.6442 -0.4233
12418SOL    HW237780   2.602   3.392   3.783 -0.6719 -0.2396  2.3849
12419SOL     OW37781   6.452   0.301   4.095  0.1139  0.4782 -0.1750
12419SOL    HW137782   6.506   0.227   4.124  1.4366  1.0625 -1.0371
12419SOL    HW237783   6.378   0.302   4.154  0.5976 -0.9276  0.4809
12420SOL     OW37784   5.909   3.211   3.802 -0.0475 -0.2265  0.2725
12420SOL    HW137785   5.902   3.290   3.855  1.9778 -0.4101  0.8695
12420SOL    HW237786   5.987   3.166   3.834  0.0013 -1.4576 -1.3978
12421SOL     OW37787   3.275   0.929   1.794  0.1996 -0.8023  0.5494
12421SOL    HW137788   3.364   0.909   1.823  0.6032  0.1030  0.0045
12421SOL    HW237789   3.267   1.023   1.807 -0.7273 -0.9024  0.7106
12422SOL     OW37790   4.974   7.542   3.085  0.1547 -0.2471 -1.2864
12422SOL    HW137791   4.972   7.585   2.999  1.3576 -0.1641 -1.2939
12422SOL    HW237792   4.959   7.449   3.066 -0.3735 -0.1211 -1.4958
12423SOL     OW37793   1.489   0.563   4.439  0.0242  0.2506  0.6241
12423SOL    HW137794   1.518   0.507   4.511 -0.0887  0.5577  0.9140
12423SOL    HW237795   1.393   0.563   4.446 -0.0912 -1.1001 -0.5851
12424SOL     OW37796   6.862   5.534   7.203  0.3005 -0.6268 -0.2692
12424SOL    HW137797   6.839   5.446   7.234  1.0607 -0.8733 -0.3821
12424SOL    HW237798   6.778   5.579   7.195  0.0091 -0.8509  1.2428
12425SOL     OW37799   4.670   2.950   6.414  0.1630  0.5444  0.2225
12425SOL    HW137800   4.583   2.989   6.422  0.4661  1.8112 -1.8998
12425SOL    HW237801   4.696   2.930   6.504 -2.4712 -0.2731  0.8729
12426SOL     OW37802   1.810   0.701   0.599  0.0166 -0.0701 -0.6788
12426SOL    HW137803   1.896   0.705   0.557  0.1919  2.0224 -0.2076
12426SOL    HW237804   1.821   0.750   0.680 -0.7981 -2.5233  1.0082
12427SOL     OW37805   2.545   6.069   3.209 -0.0541  0.4148 -0.0897
12427SOL    HW137806   2.622   6.012   3.201  0.7191  1.3965  0.1025
12427SOL    HW237807   2.566   6.144   3.153 -0.4498  1.1286  0.6978
12428SOL     OW37808   1.160   2.697   2.360  0.5133 -0.3512 -0.0950
12428SOL    HW137809   1.147   2.607   2.329  2.6112 -0.4274 -0.8992
12428SOL    HW237810   1.220   2.688   2.434 -0.9332  0.2450  1.2013
12429SOL     OW37811   1.574   1.921   1.077 -0.1027  0.4832 -0.0967
12429SOL    HW137812   1.525   1.841   1.059 -0.3979  0.4555  0.7462
12429SOL    HW237813   1.508   1.981   1.112  0.2941  0.7653  0.1790
12430SOL     OW37814   3.906   0.074   3.638  0.1454  0.0449 -0.5061
12430SOL    HW137815   3.894   0.148   3.698  2.0855 -0.2930  0.3887
12430SOL    HW237816   3.838   0.012   3.662  0.4329  0.2371  0.8758
12431SOL     OW37817   6.452   3.227   0.339 -0.2182 -0.1084 -0.1001
12431SOL    HW137818   6.361   3.206   0.357 -0.3598  0.3420 -0.2920
12431SOL    HW237819   6.456   3.237   0.244 -0.5314  2.4439  0.0946
12432SOL     OW37820   2.946   1.148   3.282  0.4937 -0.1036  0.1039
12432SOL    HW137821   2.955   1.210   3.354  0.7263 -0.2802  0.2279
12432SOL    HW237822   3.035   1.128   3.255  0.3944  0.4984 -0.7039
12433SOL     OW37823   2.209   5.843   1.099 -0.4927 -0.0220 -0.1020
12433SOL    HW137824   2.139   5.783   1.073 -1.7362  1.3780 -0.1541
12433SOL    HW237825   2.172   5.893   1.172  0.5499  0.5752  0.0357
12434SOL     OW37826   4.009   2.436   5.875  0.7363 -0.0028  0.3865
12434SOL    HW137827   3.998   2.435   5.780 -0.3535 -0.3696  0.5018
12434SOL    HW237828   4.015   2.529   5.897 -0.1314  0.1434  0.0652
12435SOL     OW37829   4.396   5.829   2.932 -0.4416  0.1548  0.7023
12435SOL    HW137830   4.456   5.787   2.870 -0.5433 -0.9430  1.3175
12435SOL    HW237831   4.373   5.759   2.993 -1.3295  0.8983  1.2361
12436SOL     OW37832   2.688   2.237   7.374 -0.8362 -0.0064 -0.2743
12436SOL    HW137833   2.596   2.211   7.374 -0.7383 -0.3601 -0.4675
12436SOL    HW237834   2.689   2.320   7.326 -1.5947  2.0799  3.0046
12437SOL     OW37835   1.381   5.778   2.823  0.4188 -0.1489  0.0718
12437SOL    HW137836   1.418   5.764   2.910 -0.6519 -0.5379  0.4783
12437SOL    HW237837   1.409   5.703   2.772  0.5513 -0.2237  0.2560
12438SOL     OW37838   2.302   0.379   5.709 -0.5342 -0.2299 -0.2491
12438SOL    HW137839   2.319   0.388   5.615  1.7930  0.4434  0.1783
12438SOL    HW237840   2.292   0.468   5.741  0.5906 -0.3374  0.4409
12439SOL     OW37841   6.076   4.498   4.086 -0.1455  0.1754  0.4919
12439SOL    HW137842   6.012   4.434   4.119 -0.1822 -0.1082 -0.1236
12439SOL    HW237843   6.161   4.462   4.112 -0.1652 -0.1361  0.1400
12440SOL     OW37844   3.358   2.350   5.588  0.2302  0.2764  0.1749
12440SOL    HW137845   3.292   2.287   5.558 -0.3956 -0.1258  2.2644
12440SOL    HW237846   3.438   2.299   5.594  0.0314 -0.0005  0.5491
12441SOL     OW37847   2.186   2.788   1.526 -0.8901 -0.1773  0.0931
12441SOL    HW137848   2.189   2.879   1.553 -0.7808  0.3683 -1.6720
12441SOL    HW237849   2.243   2.783   1.449  1.0353 -2.2311  1.4756
12442SOL     OW37850   4.166   4.770   0.888  0.1262 -0.4139 -0.1326
12442SOL    HW137851   4.113   4.749   0.965  1.7550 -2.8918  0.4491
12442SOL    HW237852   4.198   4.858   0.904 -1.7964  0.1986  0.6396
12443SOL     OW37853   7.528   3.550   7.384  0.4725 -0.0407 -0.0108
12443SOL    HW137854   7.513   3.461   7.351 -0.1323  0.9738 -2.6741
12443SOL    HW237855   7.523   3.606   7.307  3.2776  2.0878  1.1725
12444SOL     OW37856   3.467   0.260   0.755 -0.2181 -0.4776  0.3460
12444SOL    HW137857   3.484   0.307   0.837 -0.2542 -1.2842  0.8260
12444SOL    HW237858   3.533   0.293   0.694  0.1052 -0.2118  0.8366
12445SOL     OW37859   0.761   1.128   4.792  0.2147 -0.1024  0.3934
12445SOL    HW137860   0.689   1.071   4.765  0.3837 -0.5596  0.8927
12445SOL    HW237861   0.812   1.075   4.853  1.4263 -0.0837 -0.5475
12446SOL     OW37862   5.144   7.028   3.196 -0.3402  0.0148 -1.1107
12446SOL    HW137863   5.176   6.989   3.114 -0.8077 -0.4545 -1.0818
12446SOL    HW237864   5.049   7.032   3.184 -0.2825  1.5776 -1.2846
12447SOL     OW37865   0.710   6.043   0.981 -0.4848 -0.3028 -0.8482
12447SOL    HW137866   0.773   6.101   1.022 -0.4584 -1.2773  0.6002
12447SOL    HW237867   0.696   6.078   0.893 -0.3440  1.7534 -0.0876
12448SOL     OW37868   0.629   4.786   6.539 -0.0948  0.5625  0.3513
12448SOL    HW137869   0.679   4.778   6.621  0.0144 -1.0488  0.1573
12448SOL    HW237870   0.541   4.756   6.562  0.2890 -1.2484 -0.4132
12449SOL     OW37871   5.400   4.831   3.910 -0.0709  0.1820  0.0899
12449SOL    HW137872   5.384   4.737   3.898 -0.5495  0.4533 -1.5378
12449SOL    HW237873   5.431   4.862   3.825 -0.0198  1.5325  0.5714
12450SOL     OW37874   2.833   0.560   6.895 -0.1633  0.0794 -0.6216
12450SOL    HW137875   2.835   0.542   6.801  2.0306  1.8845 -1.0011
12450SOL    HW237876   2.788   0.644   6.901  0.4728  0.3866 -0.1540
12451SOL     OW37877   5.928   0.151   6.798  0.0562 -0.4542 -0.1705
12451SOL    HW137878   5.947   0.125   6.888  0.8208 -2.1928 -0.7934
12451SOL    HW237879   5.944   0.072   6.746 -2.8345 -0.2674 -1.5531
12452SOL     OW37880   4.924   1.489   2.040 -0.0177 -0.0318  0.1107
12452SOL    HW137881   4.859   1.540   2.089  0.9136  1.4909 -0.1800
12452SOL    HW237882   4.969   1.437   2.106 -1.3868 -0.9945  0.3390
12453SOL     OW37883   1.256   4.266   5.443 -0.4465  0.2449  0.2670
12453SOL    HW137884   1.198   4.243   5.370  0.6922 -0.0063 -0.5901
12453SOL    HW237885   1.277   4.358   5.428  0.0202  0.1165  0.0893
12454SOL     OW37886   6.446   5.848   3.720  0.3052 -0.1195  0.4994
12454SOL    HW137887   6.497   5.927   3.701  0.4315 -0.2463  0.3075
12454SOL    HW237888   6.439   5.846   3.815 -0.8446  0.8478  0.4569
12455SOL     OW37889   4.911   5.468   0.847  0.5033 -0.4350 -0.1738
12455SOL    HW137890   4.979   5.498   0.907  0.7447  0.7109 -0.9915
12455SOL    HW237891   4.833   5.517   0.871  0.1236 -1.2512  0.3172
12456SOL     OW37892   6.460   7.421   6.598 -0.2272 -0.1384 -0.0909
12456SOL    HW137893   6.498   7.471   6.527 -1.6018  2.4286  0.8590
12456SOL    HW237894   6.400   7.359   6.555 -0.0845  0.4931 -1.2203
12457SOL     OW37895   2.033   5.528   3.096 -0.5227  0.1672 -0.1991
12457SOL    HW137896   1.961   5.591   3.100  0.0093  0.7075  1.7161
12457SOL    HW237897   2.108   5.579   3.067 -0.5559 -0.0625 -0.7015
12458SOL     OW37898   0.951   4.122   5.797  0.5075  0.3986  0.0233
12458SOL    HW137899   0.862   4.125   5.831  0.9287 -1.0736  1.3527
12458SOL    HW237900   0.943   4.150   5.706 -1.1275  1.3974  0.4449
12459SOL     OW37901   2.111   3.464   5.849  0.1034  0.3188 -0.3292
12459SOL    HW137902   2.050   3.459   5.776 -0.4921  0.3059  0.1690
12459SOL    HW237903   2.056   3.465   5.928  0.7885 -2.0014  0.2538
12460SOL     OW37904   5.498   6.187   3.963 -0.2297  0.2425  0.4740
12460SOL    HW137905   5.544   6.118   3.914 -0.7059  1.7996 -2.3503
12460SOL    HW237906   5.410   6.153   3.975 -0.4654  0.3086 -0.9160
12461SOL     OW37907   0.392   3.318   0.547  0.0991  0.0455 -0.4672
12461SOL    HW137908   0.327   3.358   0.605 -0.6187 -1.0595 -0.4826
12461SOL    HW237909   0.367   3.348   0.460 -0.5200 -0.5313 -0.4941
12462SOL     OW37910   6.683   6.116   3.995  0.6679 -0.2529 -0.2545
12462SOL    HW137911   6.703   6.027   4.026 -2.1074 -0.7698  0.2904
12462SOL    HW237912   6.654   6.104   3.904 -0.9977 -0.1299  0.2335
12463SOL     OW37913   4.631   7.204   3.094 -0.5199 -0.6173  0.1012
12463SOL    HW137914   4.582   7.122   3.102  0.0728 -0.7926  2.4508
12463SOL    HW237915   4.722   7.178   3.085 -0.5275 -0.2208 -1.4758
12464SOL     OW37916   4.049   3.027   3.858  0.0694  0.1320 -0.8871
12464SOL    HW137917   4.040   2.933   3.875  0.1763  0.0743 -1.1428
12464SOL    HW237918   4.131   3.051   3.900  0.0368  0.1129 -0.8125
12465SOL     OW37919   0.576   3.618   3.087 -0.0469 -0.2002  0.1365
12465SOL    HW137920   0.636   3.601   3.015  0.5014 -0.3913  0.6292
12465SOL    HW237921   0.633   3.642   3.160 -0.6921  1.8902 -0.0070
12466SOL     OW37922   2.559   1.695   3.891  0.2998 -0.5509 -0.1429
12466SOL    HW137923   2.574   1.603   3.912 -0.3979 -0.5388  0.4659
12466SOL    HW237924   2.464   1.703   3.888  0.3414  0.2444  0.2816
12467SOL     OW37925   2.059   1.627   6.589  0.2799  0.9567  0.0400
12467SOL    HW137926   2.102   1.550   6.554 -0.0785  1.1783 -0.8960
12467SOL    HW237927   2.120   1.659   6.657  1.1188  0.6968 -0.5696
12468SOL     OW37928   2.555   5.623   3.432 -0.2859 -0.6989 -0.0713
12468SOL    HW137929   2.550   5.716   3.455 -1.2185 -0.6475 -0.4305
12468SOL    HW237930   2.505   5.579   3.501 -0.7840 -0.8173 -0.5055
12469SOL     OW37931   1.004   0.055   5.622  0.5484 -0.2603 -0.1674
12469SOL    HW137932   1.002  -0.036   5.652 -0.4776 -0.0193  0.5487
12469SOL    HW237933   1.001   0.107   5.703  0.3153  0.4114 -0.5997
12470SOL     OW37934   1.649   1.841   7.211 -0.8237 -1.0067 -0.2142
12470SOL    HW137935   1.597   1.884   7.143  1.8648 -0.3653 -2.0387
12470SOL    HW237936   1.658   1.751   7.181  2.9294 -0.0507 -2.6202
12471SOL     OW37937   5.740   1.378   5.221 -0.1713  0.5971  0.4048
12471SOL    HW137938   5.713   1.358   5.311  0.6571 -1.1117  0.3096
12471SOL    HW237939   5.711   1.469   5.207 -0.3893  0.8724  2.3541
12472SOL     OW37940   2.283   4.425   2.661  0.0770  0.0928 -0.2166
12472SOL    HW137941   2.193   4.405   2.637 -0.1617 -0.7537  1.2709
12472SOL    HW237942   2.284   4.519   2.675 -0.3366  0.2444 -1.1354
12473SOL     OW37943   4.544   3.705   6.809  0.1642 -0.9006  0.0983
12473SOL    HW137944   4.495   3.779   6.844  0.4062 -0.9603  0.5745
12473SOL    HW237945   4.610   3.745   6.752  1.0539 -0.6540  1.2603
12474SOL     OW37946   0.050   2.676   7.376 -0.2668 -0.2375  0.4521
12474SOL    HW137947   0.031   2.767   7.354 -0.0591 -0.7688 -2.1939
12474SOL    HW237948   0.116   2.649   7.312  0.6728 -1.8871  2.0207
12475SOL     OW37949   1.181   2.783   0.400  0.4763 -0.7199  0.2110
12475SOL    HW137950   1.125   2.789   0.323 -0.1156 -2.0531  0.4991
12475SOL    HW237951   1.238   2.860   0.395  0.0702 -0.4833 -1.2391
12476SOL     OW37952   6.047   3.159   5.879 -0.0219  0.2282  0.1212
12476SOL    HW137953   6.126   3.210   5.902 -0.7644  0.4629  2.3910
12476SOL    HW237954   6.079   3.070   5.868  0.7101  0.4891  0.0242
12477SOL     OW37955   6.623   3.372   3.219 -0.0441  0.8272  0.5328
12477SOL    HW137956   6.691   3.331   3.272 -1.6398 -0.2156  1.8515
12477SOL    HW237957   6.611   3.459   3.259 -0.8397  0.2619  1.5780
12478SOL     OW37958   4.816   7.008   6.778  0.3438 -0.4016 -0.6437
12478SOL    HW137959   4.811   7.094   6.738  1.7252  0.4173  0.7771
12478SOL    HW237960   4.733   6.997   6.824  0.0019  0.0016 -1.1635
12479SOL     OW37961   6.651   5.120   5.859 -0.6522 -0.1354 -0.3702
12479SOL    HW137962   6.618   5.200   5.818  0.7009  0.8901  0.4574
12479SOL    HW237963   6.720   5.149   5.918 -1.2435 -1.7589  1.2363
12480SOL     OW37964   4.560   5.468   6.418  0.0813 -0.0344  0.6795
12480SOL    HW137965   4.546   5.550   6.369  2.1879  0.1563  0.2787
12480SOL    HW237966   4.633   5.488   6.477  0.7702 -1.6775  0.4374
12481SOL     OW37967   4.680   4.213   1.747 -0.0713 -0.1623 -0.9070
12481SOL    HW137968   4.590   4.248   1.744  0.0014  0.1306 -0.1083
12481SOL    HW237969   4.677   4.149   1.818 -0.4570 -2.6021 -3.0027
12482SOL     OW37970   0.499   6.228   2.116  0.3707  0.7432  0.3331
12482SOL    HW137971   0.482   6.302   2.058  0.7429  1.1508  0.7418
12482SOL    HW237972   0.538   6.161   2.059 -0.3886  0.6822 -0.1305
12483SOL     OW37973   5.854   2.812   0.158 -0.0977  0.2189 -0.1644
12483SOL    HW137974   5.935   2.826   0.110  0.6267 -0.6426  0.7730
12483SOL    HW237975   5.865   2.727   0.200 -1.5871 -0.0214 -0.2075
12484SOL     OW37976   4.824   2.854   7.340 -0.1418 -0.8659 -0.4418
12484SOL    HW137977   4.783   2.936   7.370  1.9302 -0.3254  1.1181
12484SOL    HW237978   4.763   2.786   7.368 -0.0540 -0.0991  1.8403
12485SOL     OW37979   1.564   4.922   7.005  0.4520  0.1839 -0.0000
12485SOL    HW137980   1.566   5.017   7.006  0.9952  0.1727  0.2912
12485SOL    HW237981   1.482   4.899   7.050 -0.5088  0.5187 -1.4868
12486SOL     OW37982   4.479   7.190   1.248 -0.6307 -0.3124 -0.5980
12486SOL    HW137983   4.558   7.185   1.194  0.2310  1.9462  0.3416
12486SOL    HW237984   4.463   7.284   1.259 -2.5808 -0.7170  0.5021
12487SOL     OW37985   3.101   1.290   0.029 -0.2525 -0.2539 -0.0517
12487SOL    HW137986   3.062   1.243  -0.044 -1.3149 -0.7114  0.7747
12487SOL    HW237987   3.042   1.364   0.044 -1.2594 -1.3329  1.6484
12488SOL     OW37988   0.284   1.876   2.407 -0.4054 -0.4405  0.7391
12488SOL    HW137989   0.308   1.945   2.470  0.3719 -0.5376  0.5492
12488SOL    HW237990   0.367   1.839   2.379 -0.5930  0.8737 -1.7947
12489SOL     OW37991   0.547   2.642   1.131 -0.1872 -0.4426  0.2481
12489SOL    HW137992   0.633   2.608   1.158  0.2901 -0.3998 -1.1650
12489SOL    HW237993   0.493   2.564   1.120 -0.5225 -0.4471  1.6562
12490SOL     OW37994   5.823   6.206   1.061  0.1472  0.3209 -0.0256
12490SOL    HW137995   5.786   6.260   0.991  1.5894  3.6461  1.5568
12490SOL    HW237996   5.892   6.156   1.018  1.5139  2.8262 -0.9893
12491SOL     OW37997   2.866   5.771   2.875 -0.1977 -0.2915  0.0451
12491SOL    HW137998   2.809   5.731   2.941  1.8082 -0.9501  1.4629
12491SOL    HW237999   2.863   5.709   2.802 -1.0722 -0.4575  0.2070
12492SOL     OW38000   3.527   0.951   1.506 -0.7010 -0.0061 -0.5364
12492SOL    HW138001   3.586   0.931   1.434  0.9705 -1.6886  1.1596
12492SOL    HW238002   3.540   1.044   1.524  1.5170 -0.3405 -0.2045
12493SOL     OW38003   2.275   2.761   2.029  0.3887 -0.3572 -0.5917
12493SOL    HW138004   2.227   2.747   1.948  1.2006 -2.1809 -0.8039
12493SOL    HW238005   2.209   2.756   2.098 -0.5513  2.6353 -1.1479
12494SOL     OW38006   6.987   3.284   6.684  0.1429  0.0689 -0.3967
12494SOL    HW138007   7.036   3.245   6.612  1.0398 -0.8739  0.6911
12494SOL    HW238008   6.978   3.377   6.659 -0.5126 -0.4226 -2.1975
12495SOL     OW38009   6.706   0.886   4.673  0.4362 -0.6150 -0.6610
12495SOL    HW138010   6.616   0.865   4.697 -0.2645  0.3526 -2.2613
12495SOL    HW238011   6.739   0.938   4.746 -0.2904 -0.9862 -0.0503
12496SOL     OW38012   2.241   0.311   0.278  0.1253 -0.1422  0.1650
12496SOL    HW138013   2.160   0.339   0.320  0.0558 -0.5128  0.2845
12496SOL    HW238014   2.260   0.226   0.318  1.0674  0.3641  0.8181
12497SOL     OW38015   0.073   4.266   6.173  0.2972  0.0063  0.0802
12497SOL    HW138016  -0.013   4.279   6.134  0.2510 -0.5527 -0.0094
12497SOL    HW238017   0.130   4.328   6.126  0.1395 -0.3006 -0.5268
12498SOL     OW38018   4.690   3.449   1.888 -0.1521  0.0186  0.1027
12498SOL    HW138019   4.753   3.521   1.892  2.9654 -2.4685 -0.5924
12498SOL    HW238020   4.663   3.445   1.796  0.3003 -0.2228 -0.0176
12499SOL     OW38021   1.903   3.483   0.506 -0.3709  0.5333 -0.2595
12499SOL    HW138022   1.913   3.403   0.455 -0.2466 -0.1530  0.7982
12499SOL    HW238023   1.991   3.500   0.541 -0.6102  0.5401  0.3554
12500SOL     OW38024   6.451   7.025   2.353 -0.0833  0.6199 -0.3615
12500SOL    HW138025   6.470   7.091   2.419  0.7086  0.8834 -0.8419
12500SOL    HW238026   6.505   7.050   2.278  1.5154 -1.4794 -0.0032
12501SOL     OW38027   4.021   0.496   1.106 -0.0696 -0.3849 -0.1889
12501SOL    HW138028   3.945   0.522   1.158 -1.2375  0.4028 -2.1886
12501SOL    HW238029   4.095   0.505   1.166 -1.3934 -0.0331  1.4757
12502SOL     OW38030   3.984   1.563   5.036 -0.0522  0.0585 -0.0514
12502SOL    HW138031   4.020   1.583   4.950  1.4222 -1.1897  0.2111
12502SOL    HW238032   4.032   1.485   5.063 -1.3816 -0.3052  1.3703
12503SOL     OW38033   5.505   1.568   6.365  0.0716 -0.3863  0.4284
12503SOL    HW138034   5.466   1.501   6.307  0.1864  0.5903 -0.8171
12503SOL    HW238035   5.460   1.555   6.449 -2.8113  0.4811 -0.8286
12504SOL     OW38036   0.157   4.252   2.944  0.0256  0.4505 -0.2029
12504SOL    HW138037   0.101   4.177   2.927  2.0937 -0.7186 -2.6204
12504SOL    HW238038   0.118   4.323   2.893 -2.4371  1.4325  2.7829
12505SOL     OW38039   7.020   6.076   1.291  0.4502 -0.0868 -0.2239
12505SOL    HW138040   6.973   6.005   1.246 -2.0060  0.0275  1.9524
12505SOL    HW238041   7.079   6.030   1.351 -1.0376 -0.3736  1.0835
12506SOL     OW38042   4.228   6.365   0.279 -0.0675 -0.1215  0.2223
12506SOL    HW138043   4.297   6.300   0.292 -0.9551 -1.1003  0.2015
12506SOL    HW238044   4.257   6.418   0.205  0.6462 -0.5289  0.2069
12507SOL     OW38045   3.745   4.989   2.702 -0.1442  0.4548  0.3852
12507SOL    HW138046   3.783   4.931   2.636 -0.1303 -0.0808  0.8568
12507SOL    HW238047   3.674   4.937   2.741 -0.7871  1.1197  0.1222
12508SOL     OW38048   6.572   2.660   6.871  0.0477  0.5436  0.1203
12508SOL    HW138049   6.501   2.723   6.865  1.2801  2.0233  0.5117
12508SOL    HW238050   6.624   2.674   6.792  0.2345 -0.1253  0.1148
12509SOL     OW38051   0.759   1.628   1.469 -0.2643  0.3736  0.3848
12509SOL    HW138052   0.664   1.642   1.470  0.0010  2.6024  1.9294
12509SOL    HW238053   0.783   1.635   1.377 -1.4999  0.8111  0.0737
12510SOL     OW38054   0.451   6.300   6.429 -0.4175 -0.1268  0.0198
12510SOL    HW138055   0.404   6.356   6.366 -1.3700 -1.2901 -0.3478
12510SOL    HW238056   0.529   6.350   6.452 -0.8695  1.0307 -0.8534
12511SOL     OW38057   6.313   1.075   7.116 -0.1351  0.4099  0.2286
12511SOL    HW138058   6.251   1.117   7.057 -0.2766  0.6900  0.5778
12511SOL    HW238059   6.343   0.998   7.068 -0.7961  0.2388  0.0826
12512SOL     OW38060   1.582   5.835   0.881 -0.1965 -0.1884  0.1599
12512SOL    HW138061   1.573   5.855   0.974 -0.0854 -1.9816  0.5997
12512SOL    HW238062   1.505   5.784   0.859 -0.1210  0.0444 -0.6990
12513SOL     OW38063   6.329   6.959   0.439 -0.1869 -0.1911 -0.1751
12513SOL    HW138064   6.395   6.915   0.493  1.2185  1.5040 -0.4606
12513SOL    HW238065   6.377   6.991   0.363 -1.4602  0.5340 -0.7042
12514SOL     OW38066   7.464   0.795   0.419 -0.5585  0.1094 -0.5348
12514SOL    HW138067   7.541   0.761   0.465 -0.4936 -1.0133 -1.4484
12514SOL    HW238068   7.395   0.731   0.435 -0.9659  0.4888 -0.7411
12515SOL     OW38069   1.809   3.837   4.121 -0.4565  0.0206  0.0692
12515SOL    HW138070   1.741   3.797   4.067 -0.6502 -0.2311  0.5033
12515SOL    HW238071   1.841   3.910   4.067  0.1020 -0.8817 -0.8398
12516SOL     OW38072   1.176   7.416   0.400 -0.1088  0.2261  0.3335
12516SOL    HW138073   1.249   7.355   0.392  1.7364  2.1543  1.5255
12516SOL    HW238074   1.189   7.479   0.328 -0.7114  0.4844  0.4403
12517SOL     OW38075   4.996   6.846   2.595 -0.4246 -0.5654 -0.1637
12517SOL    HW138076   4.933   6.917   2.585  0.7229  0.5225  0.1632
12517SOL    HW238077   5.003   6.832   2.689  0.6353  0.1070 -0.1185
12518SOL     OW38078   2.764   5.050   1.052 -0.4905  0.3129 -0.4184
12518SOL    HW138079   2.741   4.965   1.015 -0.2656 -0.2016  0.5783
12518SOL    HW238080   2.725   5.050   1.139  1.1940  0.3792  0.3923
12519SOL     OW38081   4.638   4.980   7.166  0.3676  0.2188  0.5268
12519SOL    HW138082   4.589   4.929   7.102  0.8971 -1.2112  1.2253
12519SOL    HW238083   4.699   4.918   7.206  0.1944  1.1022  2.2908
12520SOL     OW38084   5.704   3.450   5.117  1.1560 -0.4391  0.0138
12520SOL    HW138085   5.648   3.482   5.046  1.0727  0.3330  0.4190
12520SOL    HW238086   5.666   3.487   5.197  1.3561 -1.1520  0.4482
12521SOL     OW38087   2.189   5.276   3.690 -0.3978 -0.1259 -0.7133
12521SOL    HW138088   2.120   5.269   3.624 -0.0221  1.1199 -1.2571
12521SOL    HW238089   2.143   5.268   3.774 -1.3823  1.8094 -1.0309
12522SOL     OW38090   3.799   6.214   5.018 -0.0005 -0.0154 -0.1786
12522SOL    HW138091   3.849   6.272   4.961 -0.9040  0.2967 -0.6594
12522SOL    HW238092   3.861   6.145   5.041  1.2385  1.3302  0.7407
12523SOL     OW38093   4.041   1.544   4.167 -0.1303 -0.3442  0.1610
12523SOL    HW138094   4.112   1.484   4.148  1.4257  1.5567 -0.3664
12523SOL    HW238095   4.078   1.631   4.151 -2.3785  0.7539  0.5115
12524SOL     OW38096   4.657   5.862   5.997  0.7209 -0.4847 -0.4144
12524SOL    HW138097   4.725   5.910   5.949 -0.5986  2.4007  0.3660
12524SOL    HW238098   4.586   5.851   5.934  0.1878  0.5765 -0.0277
12525SOL     OW38099   4.043   3.612   1.780 -0.8859  0.1171 -0.4935
12525SOL    HW138100   3.950   3.592   1.788 -0.6700 -0.4752  0.7772
12525SOL    HW238101   4.046   3.706   1.759 -1.7440  0.4639  0.8522
12526SOL     OW38102   0.617   0.647   1.758  0.6156  0.3933 -0.6370
12526SOL    HW138103   0.628   0.620   1.666 -0.7639 -1.8085 -0.2382
12526SOL    HW238104   0.697   0.617   1.801  0.4402 -0.3103 -0.7871
12527SOL     OW38105   7.060   6.527   0.948  0.1374 -0.3735  0.2641
12527SOL    HW138106   7.110   6.449   0.922 -0.6081 -0.2412 -1.7518
12527SOL    HW238107   7.085   6.594   0.885 -1.9490 -0.0705 -0.3158
12528SOL     OW38108   1.592   0.900   0.504 -0.3634  0.5006 -0.4641
12528SOL    HW138109   1.657   0.849   0.553 -2.2393 -0.4355  1.2084
12528SOL    HW238110   1.628   0.989   0.503  0.7022  0.1287  0.8628
12529SOL     OW38111   4.594   7.506   7.486  0.5843 -0.2687  0.0334
12529SOL    HW138112   4.583   7.542   7.574 -1.0683 -1.4623  0.3644
12529SOL    HW238113   4.631   7.419   7.501  2.4076  0.3510 -0.6180
12530SOL     OW38114   7.554   0.965   3.125 -0.3693 -0.0265 -0.2450
12530SOL    HW138115   7.602   0.886   3.101  0.1864 -0.2053  1.3128
12530SOL    HW238116   7.596   1.034   3.075  0.0670 -0.5224 -0.5831
12531SOL     OW38117   0.994   6.849   0.555 -0.2969 -0.1695 -0.3066
12531SOL    HW138118   0.902   6.845   0.581 -0.1984 -1.7548 -0.0842
12531SOL    HW238119   1.014   6.942   0.551 -1.6896  0.1907  0.4412
12532SOL     OW38120   2.150   1.362   4.431 -0.0241  0.0249  0.0807
12532SOL    HW138121   2.185   1.325   4.513  0.7986 -0.3510 -0.4289
12532SOL    HW238122   2.055   1.358   4.443  0.0109 -2.2404  0.0870
12533SOL     OW38123   0.488   7.547   2.492  0.3557  0.1118  0.4287
12533SOL    HW138124   0.494   7.536   2.587  0.1896  0.3537  0.4666
12533SOL    HW238125   0.396   7.530   2.471  0.4710 -0.3158  0.2631
12534SOL     OW38126   3.193   3.178   4.471 -0.6190  0.0368 -0.0679
12534SOL    HW138127   3.137   3.239   4.519 -2.3203 -1.0887 -0.5279
12534SOL    HW238128   3.168   3.191   4.379  0.3042 -0.0917 -0.3500
12535SOL     OW38129   5.030   5.637   5.388  0.5346 -0.2917 -0.2501
12535SOL    HW138130   5.060   5.711   5.335 -0.8931  1.4647  1.2296
12535SOL    HW238131   4.971   5.588   5.330  0.8548  0.1897 -1.0006
12536SOL     OW38132   2.781   5.516   5.960 -0.9255 -0.1618 -0.8752
12536SOL    HW138133   2.877   5.509   5.960 -0.8292  0.6787  0.5047
12536SOL    HW238134   2.763   5.595   5.908 -0.9961 -1.2162 -2.5080
12537SOL     OW38135   7.142   3.543   0.366  0.2170 -0.1858 -0.0744
12537SOL    HW138136   7.152   3.553   0.461 -0.4052 -0.2504  0.0025
12537SOL    HW238137   7.049   3.525   0.353  0.1229  0.6907 -0.7688
12538SOL     OW38138   5.061   1.974   4.104 -0.0243  1.0350 -0.5788
12538SOL    HW138139   5.131   1.928   4.151 -1.1869 -0.0522  0.1582
12538SOL    HW238140   5.100   2.057   4.078  2.0253 -0.1745 -1.5843
12539SOL     OW38141   3.718   4.889   3.795 -0.1001  0.5970  0.7306
12539SOL    HW138142   3.669   4.890   3.713 -0.3398 -0.3845  0.8414
12539SOL    HW238143   3.804   4.923   3.772 -0.1721  0.3438  0.0632
12540SOL     OW38144   6.946   5.376   1.510 -0.1995  0.3316  0.1946
12540SOL    HW138145   6.977   5.321   1.583 -1.9090 -1.4544 -0.3496
12540SOL    HW238146   6.880   5.432   1.550 -0.2665  0.2125  0.2525
12541SOL     OW38147   4.869   0.247   5.856 -0.0884  0.4328 -0.0811
12541SOL    HW138148   4.851   0.285   5.942 -0.1232 -0.0711  0.1379
12541SOL    HW238149   4.963   0.260   5.843 -0.0531  0.3729  0.1056
12542SOL     OW38150   1.701   0.114   4.174  0.1998  0.7773  0.9152
12542SOL    HW138151   1.678   0.179   4.241 -0.8981  1.4895 -0.1065
12542SOL    HW238152   1.796   0.106   4.179  0.2981  2.0969  1.3881
12543SOL     OW38153   3.094   1.220   4.371 -0.4651  0.0316 -0.6461
12543SOL    HW138154   3.166   1.283   4.363 -1.7036  1.6057 -0.0398
12543SOL    HW238155   3.053   1.220   4.284  0.1742 -0.7931 -0.9632
12544SOL     OW38156   7.073   2.182   1.918 -0.3801  0.4558  0.3779
12544SOL    HW138157   7.109   2.220   1.837 -1.0074 -0.5647 -0.4104
12544SOL    HW238158   6.981   2.209   1.918 -1.8183 -3.5023 -1.9431
12545SOL     OW38159   0.568   5.716   4.238  0.2764 -0.2201  0.0537
12545SOL    HW138160   0.587   5.636   4.190 -0.4288 -0.5239  0.2785
12545SOL    HW238161   0.507   5.690   4.307  1.8439  0.0392  1.6269
12546SOL     OW38162   2.602   0.901   4.633 -0.1439  0.2227 -0.1870
12546SOL    HW138163   2.555   0.822   4.607 -0.3518  0.5772 -0.9103
12546SOL    HW238164   2.678   0.870   4.682 -0.1011 -0.4303 -0.6654
12547SOL     OW38165   1.725   4.194   6.112  0.0922  0.6422 -0.3804
12547SOL    HW138166   1.707   4.113   6.066  2.2582  0.1387 -0.4591
12547SOL    HW238167   1.719   4.262   6.045  0.9179  0.1957 -0.9176
12548SOL     OW38168   0.759   3.820   2.961  0.1601  0.1272 -0.1257
12548SOL    HW138169   0.676   3.804   2.915 -0.0260  2.7371 -0.8796
12548SOL    HW238170   0.826   3.791   2.899 -0.1369 -1.0730  0.0846
12549SOL     OW38171   6.485   2.749   1.916 -0.0529  0.4962 -0.6959
12549SOL    HW138172   6.395   2.749   1.885 -0.2765  0.9110 -0.0561
12549SOL    HW238173   6.507   2.842   1.925 -0.4981  0.4283  1.8035
12550SOL     OW38174   7.455   2.763   2.424 -0.4287  0.1620 -0.1090
12550SOL    HW138175   7.390   2.696   2.445 -0.7117  0.4204 -0.1604
12550SOL    HW238176   7.404   2.839   2.397 -0.1543 -0.8079 -3.9812
12551SOL     OW38177   5.320   0.452   4.893  0.5584  0.3473  0.2388
12551SOL    HW138178   5.386   0.480   4.829  3.3154  0.6223  2.9473
12551SOL    HW238179   5.325   0.517   4.962  0.6027 -1.9419  2.5457
12552SOL     OW38180   3.751   1.676   1.523  0.2913 -0.4384 -0.2277
12552SOL    HW138181   3.810   1.640   1.590  0.3927  2.2955  1.3113
12552SOL    HW238182   3.676   1.709   1.572 -0.9226 -0.7599 -1.7956
12553SOL     OW38183   3.650   7.043   0.778  0.4978 -0.1902  0.4113
12553SOL    HW138184   3.614   6.955   0.768  0.5463 -0.4209  2.0248
12553SOL    HW238185   3.739   7.037   0.743  0.1776 -0.5180 -0.3682
12554SOL     OW38186   6.797   5.978   5.999  0.1201  0.0517  0.1085
12554SOL    HW138187   6.788   5.985   6.094  1.1549 -1.2567  0.3444
12554SOL    HW238188   6.707   5.982   5.966 -0.4013 -1.1309  1.2882
12555SOL     OW38189   3.826   7.366   2.656 -0.4914 -0.0010  0.1864
12555SOL    HW138190   3.790   7.455   2.659  0.9181  0.5771  2.4764
12555SOL    HW238191   3.777   7.318   2.723  0.0784 -0.4006  0.3219
12556SOL     OW38192   2.529   6.320   0.542 -0.2964  0.4703  0.4813
12556SOL    HW138193   2.618   6.343   0.566  0.6331 -1.5172 -0.8314
12556SOL    HW238194   2.474   6.373   0.600  1.7115  1.3990  1.6295
12557SOL     OW38195   5.973   2.759   4.632 -0.0238  0.4003  0.0134
12557SOL    HW138196   5.918   2.778   4.556  0.2355  1.8919  0.1590
12557SOL    HW238197   5.934   2.810   4.703 -0.2039 -0.8936  0.8822
12558SOL     OW38198   3.216   3.503   4.549 -0.4651 -0.2427  0.2283
12558SOL    HW138199   3.273   3.477   4.621  0.3083  0.9811  0.0839
12558SOL    HW238200   3.227   3.598   4.542 -2.0230 -0.0636 -0.2405
12559SOL     OW38201   0.362   2.559   3.405 -0.3163  0.3676 -0.2051
12559SOL    HW138202   0.445   2.538   3.363  0.8117  0.9939  1.5793
12559SOL    HW238203   0.360   2.502   3.482 -2.1392 -0.5026 -0.8510
12560SOL     OW38204   1.134   7.155   1.870 -1.0381  0.0446 -0.0933
12560SOL    HW138205   1.171   7.079   1.825 -1.2881 -0.6395  0.8144
12560SOL    HW238206   1.187   7.165   1.948 -1.0006  0.8256 -0.2099
12561SOL     OW38207   0.489   1.518   1.765 -0.0703  1.0327 -0.7657
12561SOL    HW138208   0.436   1.482   1.694 -1.4062  1.4214  0.0035
12561SOL    HW238209   0.569   1.465   1.764 -1.2173 -0.7700 -0.8157
12562SOL     OW38210   3.429   7.206   6.080  0.6705 -0.3444 -0.0165
12562SOL    HW138211   3.512   7.211   6.129  0.5217  0.8622  0.1521
12562SOL    HW238212   3.441   7.131   6.021  0.9205 -1.7508  1.7238
12563SOL     OW38213   0.694   7.390   4.783  0.0800  0.5349  0.9529
12563SOL    HW138214   0.783   7.377   4.750 -0.1488 -0.4570  0.6745
12563SOL    HW238215   0.677   7.311   4.835 -0.8498  0.4203  0.4928
12564SOL     OW38216   4.508   4.045   1.164  0.4213  0.4685 -0.1621
12564SOL    HW138217   4.537   3.964   1.205  0.7053  0.2204 -0.8377
12564SOL    HW238218   4.419   4.058   1.196  1.2406  1.2590  1.9645
12565SOL     OW38219   6.924   0.823   3.846 -0.2631 -0.3044  0.2165
12565SOL    HW138220   6.880   0.746   3.879  1.0014 -0.5961  1.3137
12565SOL    HW238221   7.005   0.790   3.807  0.0893  0.4025  0.3207
12566SOL     OW38222   7.460   3.921   1.278 -0.7105  0.1755  0.6346
12566SOL    HW138223   7.483   3.852   1.216 -0.4396 -1.2084  2.2058
12566SOL    HW238224   7.376   3.894   1.314 -0.6341  0.6923  1.2223
12567SOL     OW38225   2.437   3.163   1.062  0.3609 -0.1971 -0.1857
12567SOL    HW138226   2.347   3.183   1.086  0.2246 -0.9222 -0.0687
12567SOL    HW238227   2.484   3.245   1.075 -0.3023  0.2214 -0.3640
12568SOL     OW38228   0.083   1.378   4.273  0.5669  0.2992 -0.0478
12568SOL    HW138229   0.109   1.323   4.347 -0.4047 -3.0229 -1.9504
12568SOL    HW238230   0.001   1.419   4.300  0.5910 -0.3118  0.9757
12569SOL     OW38231   2.956   6.235   3.380 -0.3431  0.3589  0.2436
12569SOL    HW138232   2.996   6.270   3.300  0.2379  0.3228  0.5142
12569SOL    HW238233   3.001   6.152   3.395 -0.3679  0.4191  0.6670
12570SOL     OW38234   3.291   4.708   2.688 -0.0753 -0.0391  0.1519
12570SOL    HW138235   3.322   4.757   2.612 -0.9857 -1.3505 -1.1128
12570SOL    HW238236   3.195   4.713   2.682 -0.1595  0.3167  1.5408
12571SOL     OW38237   4.705   0.763   4.038 -0.5105 -0.0940  0.4348
12571SOL    HW138238   4.797   0.752   4.012 -0.9394 -1.7673 -0.6045
12571SOL    HW238239   4.680   0.677   4.073 -2.1980 -0.3145 -1.1565
12572SOL     OW38240   4.081   0.017   4.227  0.0629 -0.2441  0.1602
12572SOL    HW138241   4.126   0.053   4.150  1.3493  1.2431  1.5429
12572SOL    HW238242   4.129  -0.064   4.247  0.5497  0.0359  0.1449
12573SOL     OW38243   2.286   4.729   0.214 -0.0702  0.4612  0.4559
12573SOL    HW138244   2.332   4.793   0.268 -1.0451  0.5690  1.2027
12573SOL    HW238245   2.355   4.680   0.170  0.7384  0.9121  1.1872
12574SOL     OW38246   2.162   4.867   5.927 -0.7326 -0.0901 -0.3730
12574SOL    HW138247   2.141   4.821   5.845  0.1425 -2.3816  0.5857
12574SOL    HW238248   2.253   4.843   5.945 -0.7121  0.8824  0.9654
12575SOL     OW38249   3.458   0.367   0.208 -0.4757 -0.2627 -0.1418
12575SOL    HW138250   3.479   0.303   0.275  0.7356  0.7096  0.4500
12575SOL    HW238251   3.417   0.439   0.255 -2.7292 -0.9468 -0.9249
12576SOL     OW38252   3.054   5.858   2.364  0.5000 -0.9304 -0.0242
12576SOL    HW138253   3.068   5.870   2.458 -1.9738 -1.2701  0.4777
12576SOL    HW238254   3.124   5.908   2.322  0.0487  1.6264  2.0022
12577SOL     OW38255   7.355   7.146   4.760 -0.4783  0.0748  0.3939
12577SOL    HW138256   7.449   7.159   4.752 -0.4581  1.2241  2.0473
12577SOL    HW238257   7.346   7.066   4.813 -0.4484 -0.1515  0.0625
12578SOL     OW38258   4.343   2.537   1.408  0.4006 -0.0578 -0.3227
12578SOL    HW138259   4.413   2.516   1.347  0.7454 -3.8481  1.1398
12578SOL    HW238260   4.271   2.479   1.384 -0.2470 -0.0529  1.4491
12579SOL     OW38261   4.250   6.014   2.112  0.7327  0.0557 -0.6845
12579SOL    HW138262   4.175   6.057   2.071  0.3664 -0.9697 -1.1394
12579SOL    HW238263   4.305   6.085   2.144  0.2132  0.8521 -1.5233
12580SOL     OW38264   2.323   0.875   5.139 -0.0200 -0.1795 -0.3221
12580SOL    HW138265   2.287   0.940   5.078 -1.2639 -0.0418  0.5110
12580SOL    HW238266   2.245   0.831   5.174  0.6444 -0.0478  1.3849
12581SOL     OW38267   0.891   0.132   6.142  0.6444  0.2948 -0.1924
12581SOL    HW138268   0.864   0.095   6.058  0.0223 -0.0579  0.1505
12581SOL    HW238269   0.920   0.056   6.193 -0.0692  0.3477  0.3087
12582SOL     OW38270   0.328   2.508   2.866  0.1768  0.9401  0.4717
12582SOL    HW138271   0.306   2.452   2.791  1.0490 -0.2991  1.1008
12582SOL    HW238272   0.271   2.478   2.936 -2.1621  3.4979 -0.1659
12583SOL     OW38273   4.729   1.933   0.524 -0.1066 -0.1040  0.3012
12583SOL    HW138274   4.785   1.857   0.540  2.4631  1.4115 -0.9087
12583SOL    HW238275   4.694   1.919   0.436  2.5370  1.2525 -1.0680
12584SOL     OW38276   6.128   5.558   6.363 -0.9076  0.3333  0.2132
12584SOL    HW138277   6.037   5.568   6.391 -0.4890 -0.2086  1.9123
12584SOL    HW238278   6.179   5.603   6.431  0.2719 -2.4237  1.3143
12585SOL     OW38279   6.119   3.252   2.562 -0.5415 -0.3561  0.1797
12585SOL    HW138280   6.083   3.198   2.491  0.2373 -0.4333 -0.1649
12585SOL    HW238281   6.087   3.210   2.642 -1.2488 -0.3961 -0.1115
12586SOL     OW38282   2.116   4.080   1.718  0.2407 -0.0775 -0.1749
12586SOL    HW138283   2.151   4.161   1.681 -0.5834 -0.1465 -1.1575
12586SOL    HW238284   2.117   4.094   1.813 -1.3710  1.7447 -0.3630
12587SOL     OW38285   2.948   4.270   4.964  0.2521  0.1058  0.6350
12587SOL    HW138286   3.008   4.267   4.889  0.5171  1.2033  0.7771
12587SOL    HW238287   2.864   4.297   4.927 -0.0973 -1.1602  0.4765
12588SOL     OW38288   7.039   6.036   6.702  0.3123  0.1308 -0.2954
12588SOL    HW138289   7.122   6.045   6.656 -0.5246 -0.5030 -2.0267
12588SOL    HW238290   7.062   6.002   6.788  2.0423  2.4071  0.2219
12589SOL     OW38291   0.257   7.279   1.880  0.2251 -0.3278 -0.1955
12589SOL    HW138292   0.185   7.218   1.863 -0.4613 -0.2035  1.9269
12589SOL    HW238293   0.254   7.292   1.975  1.6053  1.4895 -0.3648
12590SOL     OW38294   1.372   0.109   1.567 -0.0715  0.2114 -0.3618
12590SOL    HW138295   1.411   0.116   1.654 -0.7324  0.5521 -0.0794
12590SOL    HW238296   1.440   0.139   1.507  0.1715  0.5915  0.1009
12591SOL     OW38297   1.859   4.719   4.134 -0.0639  0.2275 -0.2128
12591SOL    HW138298   1.850   4.679   4.221 -1.3315 -0.3840 -0.6030
12591SOL    HW238299   1.909   4.800   4.150 -1.2380  0.7090  1.2704
12592SOL     OW38300   5.263   3.941   5.414  0.3357 -1.0010  0.2275
12592SOL    HW138301   5.245   3.904   5.327  0.1099 -1.7561  0.5871
12592SOL    HW238302   5.261   3.865   5.473 -0.8012 -0.3282  1.0906
12593SOL     OW38303   2.016   3.313   2.208 -0.5902 -0.1561 -0.9109
12593SOL    HW138304   1.944   3.347   2.261  1.1394 -1.0541  2.3111
12593SOL    HW238305   1.985   3.228   2.175 -1.4715  0.0860 -0.7081
12594SOL     OW38306   5.531   1.311   0.677  0.7836 -0.1990 -0.3334
12594SOL    HW138307   5.549   1.267   0.594 -0.1012 -0.4459 -0.4032
12594SOL    HW238308   5.569   1.254   0.743  1.6066  0.0615 -0.5628
12595SOL     OW38309   4.814   4.184   4.653 -0.7095  0.0950  0.2657
12595SOL    HW138310   4.722   4.210   4.659 -1.0993 -0.9791 -0.6678
12595SOL    HW238311   4.834   4.193   4.560 -0.3817 -1.2887  0.1855
12596SOL     OW38312   3.280   4.559   2.337 -0.6635 -0.8664  0.2243
12596SOL    HW138313   3.324   4.621   2.396 -0.9898 -2.0482  1.7880
12596SOL    HW238314   3.187   4.580   2.344 -0.7069 -1.0330  0.1590
12597SOL     OW38315   5.002   1.168   6.894  0.3847 -0.5446  0.0100
12597SOL    HW138316   4.923   1.142   6.942  0.1879  0.0603  0.0209
12597SOL    HW238317   5.008   1.263   6.907 -0.6975 -0.0167 -2.6431
12598SOL     OW38318   3.007   2.637   3.070  0.1718 -0.0260  0.1463
12598SOL    HW138319   3.037   2.705   3.129 -0.6117 -0.2631  0.8394
12598SOL    HW238320   3.055   2.652   2.989 -0.7320  2.0090 -0.0786
12599SOL     OW38321   7.368   6.406   1.854  1.2017  0.0333 -0.0515
12599SOL    HW138322   7.375   6.407   1.759  1.4594 -1.2127 -0.0613
12599SOL    HW238323   7.366   6.313   1.877  2.1467  0.3077  1.2357
12600SOL     OW38324   3.089   2.694   2.544 -0.3450  0.4665 -0.2951
12600SOL    HW138325   3.048   2.608   2.538  1.2182 -0.2822 -0.8002
12600SOL    HW238326   3.072   2.735   2.459  0.4100 -0.0608 -0.7054
12601SOL     OW38327   4.381   0.265   5.680  0.1843  0.3905 -0.2091
12601SOL    HW138328   4.462   0.239   5.637  0.2775  0.3819 -0.0298
12601SOL    HW238329   4.333   0.314   5.613  0.4213  0.5604 -0.2567
12602SOL     OW38330   6.039   4.876   5.107 -0.1181 -0.0382  0.2710
12602SOL    HW138331   5.982   4.854   5.181 -0.8170 -0.7668 -0.4597
12602SOL    HW238332   6.056   4.792   5.065 -0.6105  0.4863 -1.0131
12603SOL     OW38333   2.900   5.813   6.710  0.4035 -0.0229  0.0114
12603SOL    HW138334   2.974   5.851   6.758  0.0851 -2.0698  2.2610
12603SOL    HW238335   2.937   5.737   6.665  0.0792  0.2303 -0.7152
12604SOL     OW38336   4.885   4.039   1.039 -0.7730  0.0215  0.1545
12604SOL    HW138337   4.869   3.951   1.006  0.5767  0.4669 -1.8746
12604SOL    HW238338   4.863   4.034   1.132  0.8703 -2.9261  0.5149
12605SOL     OW38339   6.479   5.334   1.028  0.1789 -0.1407  0.5520
12605SOL    HW138340   6.570   5.336   1.057  0.2526  0.6764  0.2865
12605SOL    HW238341   6.449   5.425   1.034 -0.7295 -0.4531  0.9739
12606SOL     OW38342   5.463   3.444   2.270  0.4876 -0.1616 -0.1231
12606SOL    HW138343   5.425   3.360   2.292  1.6470 -0.4101  1.0538
12606SOL    HW238344   5.526   3.424   2.200  0.7654 -0.2908  0.1585
12607SOL     OW38345   0.312   5.277   1.662  0.0361  0.2521  0.6137
12607SOL    HW138346   0.244   5.344   1.661  1.2367  1.5362  1.4079
12607SOL    HW238347   0.382   5.315   1.715  1.5119 -0.8785 -0.4385
12608SOL     OW38348   5.419   2.581   4.140  0.9175  0.0248 -0.0015
12608SOL    HW138349   5.378   2.545   4.219 -0.8733  0.0803 -0.8559
12608SOL    HW238350   5.477   2.512   4.109 -0.4739 -1.1265 -0.1467
12609SOL     OW38351   5.220   7.419   4.199 -0.0745  0.0602  0.2497
12609SOL    HW138352   5.265   7.484   4.252  1.0274 -1.0016  0.6580
12609SOL    HW238353   5.282   7.347   4.191 -1.5469 -1.2806  0.4726
12610SOL     OW38354   6.982   1.297   6.105  0.6003  0.4385 -0.5008
12610SOL    HW138355   6.917   1.266   6.042 -0.7160  0.7428  0.6524
12610SOL    HW238356   7.027   1.217   6.134  0.1878  0.1230 -0.7235
12611SOL     OW38357   0.462   1.964   1.622  0.4993 -0.1904  0.2742
12611SOL    HW138358   0.471   1.982   1.716 -1.2828 -2.5099  1.0069
12611SOL    HW238359   0.389   2.019   1.594  0.6509  0.0819  0.4162
12612SOL     OW38360   4.087   5.409   6.075 -0.3029  0.2369 -0.1652
12612SOL    HW138361   4.057   5.376   6.160 -0.7171  0.2767 -0.2941
12612SOL    HW238362   4.129   5.334   6.034  0.6391  0.4293  0.4089
12613SOL     OW38363   1.754   5.584   4.853  0.0389 -0.2857 -0.7411
12613SOL    HW138364   1.818   5.515   4.873 -1.0535 -1.2905 -0.6166
12613SOL    HW238365   1.676   5.537   4.825 -1.4962  0.7855  1.4843
12614SOL     OW38366   1.539   7.026   2.232 -0.4737  0.1919 -0.5155
12614SOL    HW138367   1.562   7.075   2.153 -2.3491 -0.1123 -1.2860
12614SOL    HW238368   1.565   6.936   2.212  1.1543  0.4763  0.1426
12615SOL     OW38369   0.716   3.919   5.988 -0.1271 -0.2183 -0.0184
12615SOL    HW138370   0.761   3.854   5.934  0.1444  0.2336 -0.3446
12615SOL    HW238371   0.785   3.953   6.046 -0.0257  0.5378 -0.5781
12616SOL     OW38372   3.552   1.834   1.618 -0.1013 -0.1706  0.4370
12616SOL    HW138373   3.576   1.908   1.673 -2.9504  0.3437  1.1386
12616SOL    HW238374   3.509   1.873   1.542  0.7826 -1.0397 -0.5488
12617SOL     OW38375   3.426   4.022   1.352 -0.6214 -0.2602 -0.9587
12617SOL    HW138376   3.500   4.079   1.330 -1.2408  0.8697 -0.2191
12617SOL    HW238377   3.351   4.081   1.357 -0.8324 -0.6119  2.4408
12618SOL     OW38378   1.674   6.100   4.746 -0.3075  0.7967  0.3949
12618SOL    HW138379   1.694   6.149   4.666 -0.4825 -1.4440 -1.1246
12618SOL    HW238380   1.759   6.071   4.778 -0.4002 -1.1007 -0.9291
12619SOL     OW38381   0.931   0.580   0.134 -0.2282 -0.0201 -0.0491
12619SOL    HW138382   0.863   0.646   0.119 -1.3179 -0.7209  1.4712
12619SOL    HW238383   0.969   0.604   0.218  1.4292  0.3259 -0.8520
12620SOL     OW38384   1.947   7.508   3.763  0.2487 -0.0916 -0.4495
12620SOL    HW138385   2.010   7.576   3.785 -0.1980  0.4414 -0.7938
12620SOL    HW238386   1.994   7.426   3.778  0.5853  0.2772  0.5769
12621SOL     OW38387   0.780   1.254   3.842 -0.3361  0.1375  0.5203
12621SOL    HW138388   0.684   1.247   3.842 -0.2962 -0.7536 -0.4973
12621SOL    HW238389   0.797   1.348   3.836 -1.1194  0.4233  2.2669
12622SOL     OW38390   5.570   1.118   2.647 -0.4719 -0.8300  0.3429
12622SOL    HW138391   5.641   1.175   2.618 -1.6302  1.2925  1.4227
12622SOL    HW238392   5.573   1.123   2.742 -1.0130 -2.0916  0.4380
12623SOL     OW38393   3.226   2.942   1.091 -0.0815  0.0649  0.3468
12623SOL    HW138394   3.132   2.930   1.098 -0.0979 -0.2037 -0.2763
12623SOL    HW238395   3.246   3.014   1.152 -0.4313 -0.9981  1.7565
12624SOL     OW38396   2.913   4.148   2.386 -0.0219  0.1530  0.2415
12624SOL    HW138397   2.933   4.063   2.346 -0.3183 -0.0233  0.4597
12624SOL    HW238398   2.994   4.198   2.380  0.3072 -0.3353  0.5879
12625SOL     OW38399   5.811   5.308   2.029  0.3971  0.2394  0.0063
12625SOL    HW138400   5.837   5.394   1.997 -1.5273  0.8852  0.0685
12625SOL    HW238401   5.716   5.306   2.020  0.2541 -1.3517  1.3075
12626SOL     OW38402   5.311   4.433   1.015 -0.2655 -0.5151  0.2175
12626SOL    HW138403   5.263   4.436   0.932 -0.2110 -0.1872  0.1943
12626SOL    HW238404   5.299   4.520   1.052 -0.7416 -0.8319  0.8182
12627SOL     OW38405   2.301   2.917   5.296  0.3673 -0.2770  0.3627
12627SOL    HW138406   2.351   2.874   5.227  1.7541 -0.0505  1.1828
12627SOL    HW238407   2.219   2.942   5.254  0.7193 -1.1177 -0.8948
12628SOL     OW38408   5.737   1.953   4.936 -0.5873 -0.4327 -0.3592
12628SOL    HW138409   5.799   2.010   4.890 -0.4543  0.2480  0.6248
12628SOL    HW238410   5.791   1.892   4.986 -0.7308 -1.6359 -1.6298
12629SOL     OW38411   3.288   0.980   6.651 -0.0574  0.0091  0.1720
12629SOL    HW138412   3.354   0.974   6.721 -0.4616 -0.2873  0.5334
12629SOL    HW238413   3.204   0.984   6.698 -0.2071  3.7241 -0.0996
12630SOL     OW38414   0.911   3.357   7.194  0.6519 -0.1536  0.1033
12630SOL    HW138415   0.949   3.410   7.124 -0.0016 -0.9491 -0.8840
12630SOL    HW238416   0.987   3.323   7.241  1.1024  2.6012  1.5612
12631SOL     OW38417   0.061   6.271   3.226 -0.1617  0.1057 -0.1092
12631SOL    HW138418   0.052   6.199   3.164  2.0736  0.6578 -1.2035
12631SOL    HW238419  -0.006   6.334   3.200 -0.7692 -0.6693 -0.4593
12632SOL     OW38420   7.082   1.980   6.964 -0.0571  0.0815  0.0976
12632SOL    HW138421   6.988   1.976   6.948  0.1023 -0.1313 -0.8119
12632SOL    HW238422   7.101   2.073   6.975 -0.2554  0.1929 -0.4777
12633SOL     OW38423   5.346   3.457   7.222  0.6601 -0.0824 -0.0747
12633SOL    HW138424   5.296   3.409   7.155  0.5840  0.4691 -0.4269
12633SOL    HW238425   5.374   3.390   7.284 -0.0266 -0.4834 -0.1848
12634SOL     OW38426   3.133   6.492   2.574  0.7117 -0.0769 -1.3715
12634SOL    HW138427   3.118   6.527   2.662  0.7534 -1.5164 -0.7729
12634SOL    HW238428   3.045   6.476   2.540  0.6848 -1.7150 -0.6509
12635SOL     OW38429   5.990   6.573   5.283 -0.3229  0.3126 -0.3531
12635SOL    HW138430   5.991   6.553   5.190  0.9229  1.0796 -0.5211
12635SOL    HW238431   5.904   6.542   5.313 -1.1340  0.9089 -1.9322
12636SOL     OW38432   3.632   7.268   5.634  0.5937  0.2389 -0.3334
12636SOL    HW138433   3.680   7.350   5.619  1.8923 -0.4776 -0.2971
12636SOL    HW238434   3.540   7.293   5.630  0.9575  1.6957 -0.3465
12637SOL     OW38435   0.567   2.688   3.813  0.3158 -0.4222 -0.4251
12637SOL    HW138436   0.646   2.670   3.864  0.1639 -1.3860 -0.5013
12637SOL    HW238437   0.587   2.656   3.725  0.0035 -0.2455 -0.5639
12638SOL     OW38438   1.357   0.969   7.133 -0.3941 -0.5305  0.4321
12638SOL    HW138439   1.416   0.919   7.075 -0.2567  1.0584 -0.8667
12638SOL    HW238440   1.404   0.974   7.216  1.1617  0.3517 -0.4520
12639SOL     OW38441   1.581   2.669   0.015 -0.4217  0.0190 -0.1896
12639SOL    HW138442   1.640   2.682   0.089 -1.5455  0.5596  0.6506
12639SOL    HW238443   1.638   2.661  -0.061  0.8228 -1.8064  0.8833
12640SOL     OW38444   1.011   1.475   4.844  0.0724  0.0921  0.2822
12640SOL    HW138445   1.024   1.394   4.893 -0.3608 -0.2346 -0.1225
12640SOL    HW238446   0.964   1.533   4.904  1.3199  0.4401  0.9422
12641SOL     OW38447   4.534   7.389   3.564 -0.6279  0.0070 -0.1495
12641SOL    HW138448   4.464   7.451   3.542 -0.2707  0.2476 -0.6401
12641SOL    HW238449   4.521   7.316   3.504  0.7162  0.9357 -1.6668
12642SOL     OW38450   7.108   2.379   0.889  0.1520 -0.5209 -0.1245
12642SOL    HW138451   7.055   2.409   0.815  1.0429 -0.2611 -0.6870
12642SOL    HW238452   7.196   2.370   0.852  0.8410  0.6208  1.1338
12643SOL     OW38453   0.614   5.962   5.339  0.1841  0.4716 -0.2313
12643SOL    HW138454   0.638   5.887   5.285 -0.5485  1.1474 -1.5258
12643SOL    HW238455   0.683   6.027   5.323  0.6035  0.2465  0.5830
12644SOL     OW38456   4.755   6.471   6.801  0.2544  0.3018 -0.3160
12644SOL    HW138457   4.702   6.491   6.878 -0.6260 -2.1877 -0.1703
12644SOL    HW238458   4.750   6.375   6.793  1.4740  0.3578 -2.6458
12645SOL     OW38459   3.735   6.819   5.343  0.2589  0.7126 -0.1401
12645SOL    HW138460   3.816   6.802   5.389  1.5050  0.9597 -2.1258
12645SOL    HW238461   3.697   6.895   5.387  2.1253  1.8335 -0.3957
12646SOL     OW38462   1.481   6.539   1.582  0.1065 -0.5057 -0.0031
12646SOL    HW138463   1.430   6.581   1.513  0.7254 -0.1269 -0.2383
12646SOL    HW238464   1.452   6.448   1.581 -1.7723  0.0267  0.9893
12647SOL     OW38465   0.837   3.115   0.116 -0.3975  0.3099  0.0488
12647SOL    HW138466   0.768   3.049   0.113 -1.3378  1.3371 -1.8857
12647SOL    HW238467   0.802   3.191   0.070  0.7499  2.1315  1.9925
12648SOL     OW38468   7.556   2.304   7.541 -0.6495 -0.2285  0.5985
12648SOL    HW138469   7.500   2.381   7.547 -1.3849 -0.5802 -1.2064
12648SOL    HW238470   7.605   2.316   7.460 -0.9921 -1.7887  0.1354
12649SOL     OW38471   5.659   6.464   7.317  0.4022 -0.2759 -0.4661
12649SOL    HW138472   5.713   6.389   7.343 -1.2809 -1.7857 -1.1099
12649SOL    HW238473   5.696   6.538   7.365  3.4711 -1.0539 -1.4093
12650SOL     OW38474   0.058   4.415   0.874  0.0254 -0.2483 -0.0203
12650SOL    HW138475   0.135   4.447   0.922  0.6060 -1.1910 -0.2944
12650SOL    HW238476   0.067   4.453   0.786  1.0125 -1.5751 -0.5146
12651SOL     OW38477   4.209   5.594   0.798  0.0626 -0.4224  0.2126
12651SOL    HW138478   4.221   5.635   0.884  0.9022 -0.1328 -0.0317
12651SOL    HW238479   4.213   5.500   0.815 -2.1565 -0.4611  0.8221
12652SOL     OW38480   0.421   4.443   6.271  0.4269 -0.1668  0.4378
12652SOL    HW138481   0.474   4.365   6.288  0.7875  0.1746  0.8987
12652SOL    HW238482   0.395   4.473   6.358 -0.1811 -0.0923  0.2339
12653SOL     OW38483   0.689   6.340   1.401 -0.5315 -0.8030 -0.6905
12653SOL    HW138484   0.649   6.278   1.339 -2.2108  0.3892 -0.8791
12653SOL    HW238485   0.625   6.411   1.407  0.7133  0.2497  0.5838
12654SOL     OW38486   4.675   1.938   6.699  0.1108  0.3265  0.1000
12654SOL    HW138487   4.642   1.969   6.615  1.3998 -1.2034 -1.0215
12654SOL    HW238488   4.711   2.016   6.741 -1.5356  1.3261 -0.2225
12655SOL     OW38489   0.421   1.969   3.379  0.4229  0.2529  0.5621
12655SOL    HW138490   0.372   1.998   3.456 -2.7194  0.1222 -1.2287
12655SOL    HW238491   0.406   2.037   3.313  1.2323 -0.6557 -0.6108
12656SOL     OW38492   1.220   1.295   5.359 -0.5008  0.3726 -0.4162
12656SOL    HW138493   1.239   1.360   5.427  1.5177 -0.2135 -0.3517
12656SOL    HW238494   1.147   1.333   5.310  0.5036  2.6643 -0.3039
12657SOL     OW38495   1.435   2.391   7.339  0.0127  0.1565 -0.4895
12657SOL    HW138496   1.441   2.481   7.307  0.8933  0.3056  0.0692
12657SOL    HW238497   1.459   2.337   7.264  2.1039  0.5005 -0.1115
12658SOL     OW38498   4.193   5.147   1.682 -0.6043  0.5616 -0.4508
12658SOL    HW138499   4.202   5.191   1.598  0.3053 -1.7468 -1.6623
12658SOL    HW238500   4.283   5.128   1.708 -0.9648 -1.0592 -0.2940
12659SOL     OW38501   0.757   6.907   2.714  0.1344  0.2165  0.4262
12659SOL    HW138502   0.796   6.830   2.755  1.9500  0.9331  0.1473
12659SOL    HW238503   0.738   6.879   2.625  0.2749 -0.0748  0.4843
12660SOL     OW38504   6.189   0.264   3.323  0.0375  0.6667  0.4860
12660SOL    HW138505   6.105   0.258   3.369 -0.6701  1.4433 -0.6547
12660SOL    HW238506   6.219   0.353   3.342 -0.0689  0.8562 -0.2111
12661SOL     OW38507   3.022   6.221   5.045  0.0004  0.2893  0.6034
12661SOL    HW138508   3.016   6.197   4.953 -1.6470 -1.1419  1.0216
12661SOL    HW238509   3.088   6.290   5.048  0.4089  0.0607 -1.5696
12662SOL     OW38510   4.798   2.228   2.868  0.3918 -0.3150 -0.1003
12662SOL    HW138511   4.734   2.262   2.806 -1.3354  0.5565  2.0372
12662SOL    HW238512   4.854   2.303   2.889  1.0176 -0.6260 -0.6166
12663SOL     OW38513   2.223   6.705   2.772  0.3620 -0.8336  0.9829
12663SOL    HW138514   2.173   6.755   2.707  0.7936 -1.8459 -0.1691
12663SOL    HW238515   2.300   6.760   2.790  1.0160 -1.1865 -0.5377
12664SOL     OW38516   3.642   2.794   7.254  0.1081 -1.0911  0.3354
12664SOL    HW138517   3.704   2.730   7.218  0.0003 -0.9315 -0.1397
12664SOL    HW238518   3.559   2.748   7.258 -0.0787 -0.8446 -0.4589
12665SOL     OW38519   0.152   0.947   0.715  0.0018 -0.3954 -0.0673
12665SOL    HW138520   0.128   1.039   0.725 -0.9710 -0.8213  1.9406
12665SOL    HW238521   0.246   0.945   0.731  0.3524  0.4240 -1.7472
12666SOL     OW38522   6.463   6.600   1.143  0.0701 -0.0068  0.0926
12666SOL    HW138523   6.406   6.676   1.148  0.4267  0.1915  1.6750
12666SOL    HW238524   6.517   6.605   1.222 -1.0141 -2.7787  1.1613
12667SOL     OW38525   2.188   1.514   0.180  0.0920 -0.2137  0.4197
12667SOL    HW138526   2.104   1.560   0.181  0.2204  0.0308  0.2019
12667SOL    HW238527   2.172   1.434   0.130  0.7245  1.2925 -2.4043
12668SOL     OW38528   0.223   5.336   6.846 -0.0761 -0.3122  0.4163
12668SOL    HW138529   0.210   5.316   6.753 -1.6625  0.5045  0.4155
12668SOL    HW238530   0.138   5.319   6.886  0.0724  1.0277  1.3802
12669SOL     OW38531   6.412   1.487   5.877  0.0993 -0.2237  0.0720
12669SOL    HW138532   6.387   1.524   5.793 -0.8019  0.9441  0.8264
12669SOL    HW238533   6.338   1.432   5.902  0.8761 -1.5422 -0.4301
12670SOL     OW38534   4.167   1.701   0.989 -0.1185 -0.5506 -0.4587
12670SOL    HW138535   4.174   1.773   0.926 -0.3917 -0.5856 -0.5304
12670SOL    HW238536   4.171   1.743   1.074 -0.4672 -0.4263 -0.4998
12671SOL     OW38537   0.038   7.526   6.492  0.5567 -0.1485 -0.0861
12671SOL    HW138538  -0.010   7.609   6.499  0.8508  0.0051  0.1347
12671SOL    HW238539   0.025   7.498   6.402  0.3352  0.0665 -0.1221
12672SOL     OW38540   3.003   3.573   2.026 -0.0753  0.0970  0.5880
12672SOL    HW138541   3.086   3.617   2.046  0.0905 -0.4769  1.1892
12672SOL    HW238542   2.991   3.588   1.932  0.5681  0.4204  0.5476
12673SOL     OW38543   0.864   3.427   2.931  0.0082  0.1669 -0.0865
12673SOL    HW138544   0.913   3.507   2.912  0.1069 -0.0793 -0.9076
12673SOL    HW238545   0.910   3.388   3.005 -0.4996  1.2523  0.8282
12674SOL     OW38546   3.428   6.371   1.174  0.2055  0.1521  0.2750
12674SOL    HW138547   3.353   6.399   1.122 -0.6259 -1.8839  0.3125
12674SOL    HW238548   3.403   6.393   1.264  0.3652  0.9198  0.1456
12675SOL     OW38549   1.281   6.204   0.174  0.3183  0.2936 -0.5657
12675SOL    HW138550   1.291   6.249   0.258  1.3550  0.9531 -1.0286
12675SOL    HW238551   1.369   6.204   0.136  0.0954 -1.0618 -1.1233
12676SOL     OW38552   0.910   2.151   5.137  0.2065 -0.5568 -0.1513
12676SOL    HW138553   0.899   2.057   5.129 -0.5966 -0.6419  1.5210
12676SOL    HW238554   1.000   2.162   5.167  0.3783 -0.7686 -0.5807
12677SOL     OW38555   0.783   5.720   5.242  0.7117 -0.2136  0.3554
12677SOL    HW138556   0.849   5.752   5.181  1.2090 -1.4803  0.1965
12677SOL    HW238557   0.832   5.695   5.321  0.7102 -2.6222 -0.3155
12678SOL     OW38558   0.080   3.056   4.743  0.0295  0.2104 -0.2230
12678SOL    HW138559  -0.001   3.035   4.696 -0.1613  0.8804 -0.2042
12678SOL    HW238560   0.127   2.973   4.748 -0.4421 -0.0883 -0.6497
12679SOL     OW38561   2.870   4.949   4.474  0.7730  0.0683 -0.3087
12679SOL    HW138562   2.842   4.859   4.492  0.0805  0.3842  0.2702
12679SOL    HW238563   2.802   4.984   4.417 -0.3690  1.0156  1.5456
12680SOL     OW38564   2.159   4.396   3.524 -0.0020 -0.1147  1.1549
12680SOL    HW138565   2.182   4.391   3.617  0.9106 -0.3332  0.9218
12680SOL    HW238566   2.095   4.467   3.520  0.6451  0.5343  1.8253
12681SOL     OW38567   3.327   0.349   7.328 -0.2690  0.3618  0.4839
12681SOL    HW138568   3.369   0.348   7.413 -2.2717 -0.1943  1.5330
12681SOL    HW238569   3.385   0.299   7.271  0.3816 -0.5344  1.8999
12682SOL     OW38570   4.896   3.502   4.990 -0.0955 -0.9253  0.0785
12682SOL    HW138571   4.826   3.448   5.026  0.3324 -1.4101  0.1996
12682SOL    HW238572   4.896   3.482   4.896  1.0949 -2.3835  0.3409
12683SOL     OW38573   6.071   1.853   6.252  0.8634 -0.4457 -0.1449
12683SOL    HW138574   6.133   1.878   6.320 -2.4023 -0.9210  3.3054
12683SOL    HW238575   6.057   1.760   6.264 -2.1455  0.0298  0.8191
12684SOL     OW38576   5.326   2.189   3.091  0.1289 -0.1289  0.1475
12684SOL    HW138577   5.234   2.175   3.115 -0.2431  2.5188  0.5585
12684SOL    HW238578   5.364   2.101   3.090 -1.9576 -1.1476  1.7685
12685SOL     OW38579   2.462   3.191   3.668  0.3505 -0.3043  0.4221
12685SOL    HW138580   2.393   3.244   3.628  0.8349 -0.6200 -0.8953
12685SOL    HW238581   2.439   3.101   3.643 -0.2556 -0.7179  2.3053
12686SOL     OW38582   3.568   5.836   2.995 -0.2156 -0.4651  0.6634
12686SOL    HW138583   3.529   5.819   3.081 -0.3819 -0.6266  0.5580
12686SOL    HW238584   3.661   5.814   3.006  0.2468  1.6392  1.4194
12687SOL     OW38585   4.919   2.869   4.054 -0.2112  0.1502  0.4038
12687SOL    HW138586   4.955   2.905   4.134  1.0967 -1.2908  0.5102
12687SOL    HW238587   4.878   2.943   4.010  1.5012  1.5278  1.0506
12688SOL     OW38588   0.202   1.489   4.735 -0.2603  0.3078 -0.2278
12688SOL    HW138589   0.233   1.409   4.777 -0.6787 -0.0042 -0.4964
12688SOL    HW238590   0.223   1.559   4.796  0.3750  0.0235 -0.1189
12689SOL     OW38591   0.535   6.692   4.736 -0.5318 -0.3736 -0.4176
12689SOL    HW138592   0.598   6.689   4.807  1.1850  2.1596 -1.6680
12689SOL    HW238593   0.569   6.631   4.670 -0.4831 -0.5106 -0.2642
12690SOL     OW38594   2.745   0.016   0.345  0.0301 -0.3980  0.1352
12690SOL    HW138595   2.682   0.018   0.272 -0.3041  1.8427  0.4406
12690SOL    HW238596   2.698  -0.030   0.415 -0.6990 -0.0847 -0.1402
12691SOL     OW38597   6.403   2.778   7.290  0.3669  0.0687 -0.0550
12691SOL    HW138598   6.426   2.858   7.336  1.5639  0.9065 -1.9607
12691SOL    HW238599   6.337   2.805   7.226 -0.0647 -0.7053  0.0541
12692SOL     OW38600   1.669   1.042   1.375 -0.2392  0.2342  0.0984
12692SOL    HW138601   1.678   0.952   1.343 -2.7182 -0.1668  0.3082
12692SOL    HW238602   1.656   1.032   1.470  2.3895  1.0764  0.6184
12693SOL     OW38603   3.442   4.365   0.518  0.1647 -0.2464 -0.1221
12693SOL    HW138604   3.536   4.363   0.498  0.3743 -0.7016  0.8720
12693SOL    HW238605   3.414   4.274   0.506  0.2222 -0.4634  1.2187
12694SOL     OW38606   1.906   5.178   4.753  0.5428  0.4246 -0.8857
12694SOL    HW138607   1.978   5.116   4.756  0.3654  0.2609  1.3025
12694SOL    HW238608   1.832   5.128   4.719  0.6562 -0.3269 -0.0522
12695SOL     OW38609   5.831   3.365   6.228 -0.5849 -0.4163 -0.0126
12695SOL    HW138610   5.766   3.411   6.174 -0.8112 -0.0854  0.5393
12695SOL    HW238611   5.835   3.277   6.191 -0.6253 -0.1515 -0.6692
12696SOL     OW38612   4.106   5.882   3.986 -0.6765 -0.0307 -0.0194
12696SOL    HW138613   4.091   5.905   4.078  0.0040 -1.4520  0.4773
12696SOL    HW238614   4.138   5.791   3.989  1.2172  0.5252 -1.4982
12697SOL     OW38615   5.143   1.358   3.263  0.5727 -0.2823  0.0100
12697SOL    HW138616   5.220   1.342   3.209 -0.0653 -0.0727 -0.9877
12697SOL    HW238617   5.121   1.272   3.299  0.8403 -0.4804 -0.2899
12698SOL     OW38618   4.334   5.559   7.090  0.1990 -0.5644  0.7138
12698SOL    HW138619   4.253   5.607   7.107 -0.2611 -1.1173  0.1455
12698SOL    HW238620   4.307   5.467   7.088  1.2468 -0.9678  2.8265
12699SOL     OW38621   0.326   4.657   5.430  0.7680  0.5024  0.5915
12699SOL    HW138622   0.251   4.717   5.427  0.5908  0.3590  1.8396
12699SOL    HW238623   0.287   4.570   5.436  1.0221  0.1974 -1.4828
12700SOL     OW38624   4.730   3.833   6.625 -0.2459 -0.0803  0.0314
12700SOL    HW138625   4.783   3.771   6.575  0.7190  1.8575 -1.4921
12700SOL    HW238626   4.700   3.897   6.561 -1.2502  1.0147  1.5100
12701SOL     OW38627   5.878   6.390   6.528  0.6171 -0.0841 -0.3347
12701SOL    HW138628   5.832   6.443   6.593  0.0626 -1.7877  0.7433
12701SOL    HW238629   5.962   6.370   6.568  0.3289 -1.0278 -0.1716
12702SOL     OW38630   4.281   0.574   3.742 -0.5491  0.0134  0.0285
12702SOL    HW138631   4.256   0.485   3.768 -0.2036 -0.5472 -1.4704
12702SOL    HW238632   4.377   0.571   3.741 -0.5196  0.6129  0.6271
12703SOL     OW38633   3.531   3.355   1.347  0.3736  0.1444  0.3073
12703SOL    HW138634   3.547   3.274   1.395 -1.4270  1.1915  2.8734
12703SOL    HW238635   3.515   3.421   1.414 -0.6339  2.1173 -1.7158
12704SOL     OW38636   4.471   3.106   2.407 -0.4496  0.0464  0.5672
12704SOL    HW138637   4.499   3.018   2.432 -1.4943 -0.4801 -0.0402
12704SOL    HW238638   4.492   3.112   2.314 -1.0035  0.1885  0.4511
12705SOL     OW38639   0.549   0.980   5.034 -0.8583 -0.3075 -0.3467
12705SOL    HW138640   0.498   1.013   4.961 -2.1277 -0.9815  0.1972
12705SOL    HW238641   0.610   0.917   4.994  1.2520  2.1833 -1.3140
12706SOL     OW38642   5.875   7.118   2.703  0.1871 -0.1089  0.5850
12706SOL    HW138643   5.959   7.157   2.727  0.2763 -0.0671  0.2103
12706SOL    HW238644   5.898   7.034   2.662  0.0898  0.2466 -0.2145
12707SOL     OW38645   2.629   5.955   5.011 -0.3688 -0.0877  0.3836
12707SOL    HW138646   2.647   6.027   5.072  0.0406  1.1507 -1.1333
12707SOL    HW238647   2.584   5.996   4.937  0.5962 -1.2130 -0.8997
12708SOL     OW38648   6.813   3.044   0.166  0.5623 -0.1519  0.0102
12708SOL    HW138649   6.775   3.000   0.090 -0.1578  1.4925 -0.6228
12708SOL    HW238650   6.899   3.074   0.136  0.6556 -0.2998  0.1312
12709SOL     OW38651   0.645   6.543   7.314 -0.2598 -0.1247 -0.6451
12709SOL    HW138652   0.630   6.511   7.225  1.1460  1.4212 -1.4987
12709SOL    HW238653   0.693   6.625   7.302 -0.8590  0.6057  1.5230
12710SOL     OW38654   3.982   4.898   1.072 -0.1530  0.1070 -0.9207
12710SOL    HW138655   4.033   4.946   1.007  2.1412 -2.3697 -1.1553
12710SOL    HW238656   4.012   4.931   1.156 -1.6110  1.8579 -1.0323
12711SOL     OW38657   2.021   7.177   5.974  0.3186 -0.0495  0.1910
12711SOL    HW138658   2.007   7.209   6.063  0.2534  1.6421 -0.3854
12711SOL    HW238659   1.984   7.088   5.974  1.7327 -0.7017  2.2414
12712SOL     OW38660   3.426   7.562   4.334 -0.1299 -0.3306 -0.3059
12712SOL    HW138661   3.402   7.522   4.250  0.0686 -1.4842  0.1684
12712SOL    HW238662   3.342   7.575   4.379 -0.2412  0.3450 -0.6942
12713SOL     OW38663   5.140   3.769   0.607 -0.2227  0.4972  0.4308
12713SOL    HW138664   5.225   3.805   0.633  0.5333 -0.6042 -0.4067
12713SOL    HW238665   5.081   3.845   0.607  1.2924  1.7716 -1.2597
12714SOL     OW38666   3.091   2.967   5.086  0.2830  0.0646 -0.9108
12714SOL    HW138667   3.114   3.033   5.021  1.3218 -2.2763 -3.1123
12714SOL    HW238668   3.018   2.919   5.045  1.4973 -1.9752 -0.7897
12715SOL     OW38669   2.953   0.676   1.037  0.2766  0.1671  0.0034
12715SOL    HW138670   2.873   0.664   1.088  1.0090 -1.1762  0.8971
12715SOL    HW238671   2.940   0.622   0.959 -0.7605  2.0653 -1.2132
12716SOL     OW38672   5.258   5.736   5.981 -0.4210 -0.2171  0.2081
12716SOL    HW138673   5.335   5.681   5.967  0.3290  0.9578 -0.4110
12716SOL    HW238674   5.258   5.755   6.075  1.0066  1.0975 -0.0163
12717SOL     OW38675   6.293   3.616   6.614  0.3258 -0.0997  0.2123
12717SOL    HW138676   6.254   3.654   6.693 -0.4812 -1.4994  0.5019
12717SOL    HW238677   6.238   3.542   6.592  0.5210  0.2723 -1.7151
12718SOL     OW38678   5.193   4.892   2.288 -0.2270  0.2670 -1.1030
12718SOL    HW138679   5.194   4.899   2.193  1.9893  2.7333 -1.0284
12718SOL    HW238680   5.169   4.980   2.318  0.1798 -0.1578  0.5992
12719SOL     OW38681   2.597   6.595   1.780  0.3367  0.2969  0.3195
12719SOL    HW138682   2.670   6.645   1.816 -0.4281  3.0487 -1.6196
12719SOL    HW238683   2.623   6.577   1.690 -1.0576  0.7458 -0.1968
12720SOL     OW38684   5.909   3.126   4.315  0.8824  0.9727 -0.1171
12720SOL    HW138685   5.868   3.208   4.288 -1.0273  0.3174  0.6206
12720SOL    HW238686   5.876   3.111   4.404  1.6971 -0.2772 -0.0020
12721SOL     OW38687   0.921   5.604   2.286  0.1111 -0.1827  0.2201
12721SOL    HW138688   0.918   5.571   2.376 -2.4835 -0.8296 -0.0162
12721SOL    HW238689   0.881   5.534   2.234  0.9513  0.4623 -1.3769
12722SOL     OW38690   7.384   1.906   7.174 -0.2381 -0.0420 -0.3618
12722SOL    HW138691   7.408   1.855   7.097 -1.3179  0.5881 -1.1400
12722SOL    HW238692   7.424   1.992   7.160 -0.0508 -0.0628  0.0149
12723SOL     OW38693   6.050   1.532   1.978 -0.2309 -0.3693 -0.2990
12723SOL    HW138694   6.091   1.614   1.949 -2.5636  0.7406 -0.7054
12723SOL    HW238695   5.958   1.541   1.951 -0.4303 -3.4336 -0.9944
12724SOL     OW38696   4.620   5.466   3.855 -0.2025  0.3021  0.3802
12724SOL    HW138697   4.681   5.520   3.804  0.0195 -1.2007 -1.0691
12724SOL    HW238698   4.675   5.423   3.920 -0.0255  0.3374  0.2569
12725SOL     OW38699   0.705   6.813   0.917 -0.6835 -0.1544  0.5275
12725SOL    HW138700   0.734   6.754   0.848  0.8134 -1.6211  2.3119
12725SOL    HW238701   0.610   6.820   0.904 -0.7051 -1.8788 -0.5652
12726SOL     OW38702   5.591   7.070   6.600  0.0871  0.0652 -0.6119
12726SOL    HW138703   5.585   7.068   6.696  0.6412 -2.8721 -0.5303
12726SOL    HW238704   5.505   7.041   6.571  0.1861  0.1422 -0.9793
12727SOL     OW38705   5.861   5.663   4.067  0.1665 -0.2869 -0.0876
12727SOL    HW138706   5.878   5.572   4.043  0.0339 -0.2684 -0.2538
12727SOL    HW238707   5.894   5.714   3.994  0.8782 -0.1582  0.3152
12728SOL     OW38708   2.785   2.259   3.642  0.7924 -0.1870 -0.6118
12728SOL    HW138709   2.837   2.244   3.721  1.6983  0.3158 -1.0909
12728SOL    HW238710   2.731   2.181   3.633 -1.3908  0.8689  2.0260
12729SOL     OW38711   1.586   7.186   4.436  0.0150  0.3071  0.5955
12729SOL    HW138712   1.679   7.196   4.455 -0.0293 -0.5028  1.2570
12729SOL    HW238713   1.541   7.231   4.508 -0.1224  0.5999  0.3362
12730SOL     OW38714   3.759   1.699   6.319  0.1282  0.4716 -0.4453
12730SOL    HW138715   3.684   1.755   6.298 -0.1765 -0.4910 -2.1104
12730SOL    HW238716   3.794   1.674   6.234 -0.5608 -2.9309  0.1227
12731SOL     OW38717   1.419   1.454   2.242  0.8066 -0.4241  0.4664
12731SOL    HW138718   1.360   1.504   2.298  0.7472 -0.9976  0.9264
12731SOL    HW238719   1.371   1.374   2.220  1.0056 -0.4120 -0.0265
12732SOL     OW38720   5.258   1.731   5.713 -0.5307 -0.1005  0.3319
12732SOL    HW138721   5.331   1.725   5.775  0.2868 -0.3935 -0.6387
12732SOL    HW238722   5.215   1.646   5.718  0.6166 -0.7704 -0.7912
12733SOL     OW38723   5.933   3.503   4.554  0.5891  0.1264 -0.3029
12733SOL    HW138724   5.881   3.445   4.610  0.0877  2.6007  2.0291
12733SOL    HW238725   5.906   3.481   4.465 -0.6352 -2.1555  0.5414
12734SOL     OW38726   5.152   2.456   6.657  0.5977 -0.1120  0.0876
12734SOL    HW138727   5.109   2.541   6.654 -1.1438 -0.8966  0.9441
12734SOL    HW238728   5.245   2.476   6.659  0.2240  1.7827  0.4757
12735SOL     OW38729   0.603   4.181   7.295  0.9374 -0.4616 -0.6784
12735SOL    HW138730   0.681   4.235   7.305  0.7951 -0.3937  0.2181
12735SOL    HW238731   0.533   4.232   7.336  0.3053 -0.2989 -1.9104
12736SOL     OW38732   4.149   7.530   2.307 -0.0929 -0.3552 -0.6878
12736SOL    HW138733   4.235   7.572   2.312  0.4400 -1.1641 -2.4881
12736SOL    HW238734   4.167   7.440   2.283 -1.3092 -1.3627  1.8111
12737SOL     OW38735   4.570   5.361   7.145  0.0071  0.4302  0.3216
12737SOL    HW138736   4.600   5.343   7.056 -1.2173 -0.1357  0.0130
12737SOL    HW238737   4.487   5.407   7.134 -0.6014 -0.4247  1.1593
12738SOL     OW38738   3.851   0.929   2.405 -0.4548 -0.3922  0.2787
12738SOL    HW138739   3.799   0.849   2.404 -0.2277 -0.5861  1.7829
12738SOL    HW238740   3.941   0.899   2.393 -0.3239 -0.4361  1.2350
12739SOL     OW38741   5.056   5.313   1.537 -0.0042 -0.4614 -0.1468
12739SOL    HW138742   5.086   5.243   1.478 -0.6589  0.7123 -1.9599
12739SOL    HW238743   5.136   5.342   1.582  0.2100 -2.6064  0.9647
12740SOL     OW38744   4.730   2.815   0.329  0.9023 -0.1204  0.1837
12740SOL    HW138745   4.690   2.775   0.251  0.9369  0.0417  0.0821
12740SOL    HW238746   4.804   2.865   0.294  0.5771  0.4138  0.2565
12741SOL     OW38747   2.184   2.755   6.216 -0.6105 -0.1943 -0.2260
12741SOL    HW138748   2.192   2.808   6.138  1.0844  0.5280  0.3903
12741SOL    HW238749   2.253   2.689   6.208  1.6866  1.7582  2.0092
12742SOL     OW38750   0.655   2.727   2.736  0.0946  0.3234  0.1411
12742SOL    HW138751   0.664   2.652   2.676 -0.7601  0.1388  0.2356
12742SOL    HW238752   0.689   2.801   2.685  1.5029 -0.1988  0.2536
12743SOL     OW38753   5.306   1.322   6.800  0.1233 -0.7077 -0.0488
12743SOL    HW138754   5.232   1.283   6.752 -1.0352  0.8949  0.3470
12743SOL    HW238755   5.271   1.340   6.887  1.1294 -0.3339  0.2921
12744SOL     OW38756   0.225   2.154   0.989  0.6338  0.2051 -0.2562
12744SOL    HW138757   0.285   2.208   0.939  0.5861  0.1479 -0.3769
12744SOL    HW238758   0.264   2.066   0.988  1.1950  0.4280  0.7421
12745SOL     OW38759   2.017   5.265   5.155  0.1321  0.0764  0.2351
12745SOL    HW138760   2.014   5.170   5.148 -1.0200  0.0201  1.1340
12745SOL    HW238761   1.972   5.296   5.076  1.2927 -0.0741 -0.5129
12746SOL     OW38762   4.634   7.067   5.324  0.0470 -0.6308 -0.0061
12746SOL    HW138763   4.718   7.054   5.279  1.0752  1.0937  1.2525
12746SOL    HW238764   4.587   7.129   5.268 -0.8015 -2.2388 -1.1458
12747SOL     OW38765   1.920   2.285   5.131 -0.1592  0.4388  0.0643
12747SOL    HW138766   1.947   2.375   5.117  0.2622  0.4367  0.8155
12747SOL    HW238767   1.897   2.281   5.224  1.7268 -0.6955  0.5407
12748SOL     OW38768   3.192   5.090   4.877  0.2496  0.0374 -0.3997
12748SOL    HW138769   3.114   5.063   4.925  1.3446  0.1483  1.5521
12748SOL    HW238770   3.228   5.009   4.841 -0.5765 -0.0507 -1.0619
12749SOL     OW38771   4.265   2.655   3.440  0.0005 -0.3641  0.2093
12749SOL    HW138772   4.219   2.576   3.470  1.0141 -0.0191  3.0457
12749SOL    HW238773   4.203   2.726   3.454  0.2907 -0.2689  1.0804
12750SOL     OW38774   5.259   3.721   1.572  0.2585 -0.5094 -0.1702
12750SOL    HW138775   5.294   3.810   1.573  0.3946 -0.5458 -0.8807
12750SOL    HW238776   5.325   3.670   1.523  0.5548 -1.1602  0.8858
12751SOL     OW38777   3.797   0.446   1.576 -0.1428 -0.3004 -0.1358
12751SOL    HW138778   3.879   0.466   1.531  1.1109  1.2935  2.5930
12751SOL    HW238779   3.825   0.403   1.657 -2.1707 -1.6430 -0.0869
12752SOL     OW38780   0.595   6.462   0.321 -0.4027  0.2921  0.6089
12752SOL    HW138781   0.632   6.444   0.408  1.3216  0.4352 -0.0490
12752SOL    HW238782   0.668   6.446   0.261 -1.6169  0.0389 -0.8301
12753SOL     OW38783   4.893   3.755   0.837 -0.1727 -0.1932 -0.6716
12753SOL    HW138784   4.903   3.701   0.916  1.8127  3.2772  1.7893
12753SOL    HW238785   4.973   3.739   0.787 -1.3155 -2.2086 -1.9463
12754SOL     OW38786   0.648   2.075   5.763  0.0784  1.0789 -0.0696
12754SOL    HW138787   0.553   2.074   5.753  0.1490 -0.7633 -1.0221
12754SOL    HW238788   0.665   2.014   5.835  0.5990 -0.2498 -1.2598
12755SOL     OW38789   2.335   4.585   3.398 -0.2734 -0.5328 -0.1395
12755SOL    HW138790   2.296   4.543   3.475 -0.5581  1.2812  0.7525
12755SOL    HW238791   2.292   4.542   3.323 -2.0732 -0.4014  0.7712
12756SOL     OW38792   2.084   3.902   1.282  0.1192 -0.1471 -0.3577
12756SOL    HW138793   1.992   3.899   1.306  0.0700 -2.2848 -0.6296
12756SOL    HW238794   2.131   3.872   1.361  0.3604 -1.5959 -1.0190
12757SOL     OW38795   0.107   3.851   6.965  0.8231 -1.0250 -0.1814
12757SOL    HW138796   0.190   3.893   6.984 -0.2981  1.6227 -0.7385
12757SOL    HW238797   0.127   3.790   6.894  2.0104  0.8870 -1.5747
12758SOL     OW38798   4.327   2.736   0.170  0.2671  0.1042 -0.3313
12758SOL    HW138799   4.267   2.704   0.237  0.3385 -0.8158 -0.7018
12758SOL    HW238800   4.319   2.831   0.175 -0.4217  0.0206  0.3466
12759SOL     OW38801   5.059   2.151   3.277  0.2672 -0.9019  0.2355
12759SOL    HW138802   5.118   2.086   3.316  0.0107 -1.4470 -0.2663
12759SOL    HW238803   5.050   2.219   3.344 -0.8887 -2.2541  1.5320
12760SOL     OW38804   6.885   2.763   0.568 -0.2561 -0.3504 -0.0496
12760SOL    HW138805   6.836   2.682   0.555  1.2390 -1.0174 -2.1459
12760SOL    HW238806   6.960   2.738   0.622  0.9883 -0.7711 -1.8820
12761SOL     OW38807   1.130   6.089   7.553  0.2837 -0.3089  0.8882
12761SOL    HW138808   1.200   6.080   7.489 -0.6428  0.2802 -0.2567
12761SOL    HW238809   1.174   6.106   7.636  1.5582 -2.2505  0.6596
12762SOL     OW38810   3.967   2.675   0.170 -0.2878  0.2360 -0.2366
12762SOL    HW138811   4.001   2.588   0.150  3.5218  1.4046  0.3490
12762SOL    HW238812   3.872   2.666   0.162  0.0362 -3.4215 -2.1608
12763SOL     OW38813   6.190   2.926   7.158  0.0055  0.1491  0.3581
12763SOL    HW138814   6.110   2.975   7.140 -0.0115  0.3929  1.0524
12763SOL    HW238815   6.233   2.977   7.227  1.0999  0.3997 -0.4827
12764SOL     OW38816   6.754   6.834   7.195 -0.5586  0.1920  0.7979
12764SOL    HW138817   6.721   6.917   7.230 -0.9727 -0.2866  1.5790
12764SOL    HW238818   6.846   6.832   7.220 -0.4804  0.5340  0.5429
12765SOL     OW38819   0.402   0.166   3.336  0.2268  0.0079  0.5356
12765SOL    HW138820   0.419   0.077   3.367 -1.5900 -0.6241 -0.1578
12765SOL    HW238821   0.307   0.169   3.323  0.3716  1.7501 -0.3760
12766SOL     OW38822   6.954   4.476   1.067  0.5507  0.2236 -0.0613
12766SOL    HW138823   6.876   4.467   1.122  0.4924 -1.8271 -0.3779
12766SOL    HW238824   6.988   4.563   1.086 -1.9588  1.3072 -0.0986
12767SOL     OW38825   3.287   7.006   5.448 -0.5505  0.2090 -0.3191
12767SOL    HW138826   3.316   6.968   5.365 -0.8178  0.3313 -0.4728
12767SOL    HW238827   3.216   6.948   5.477 -1.2824  0.8547 -0.7953
12768SOL     OW38828   2.815   7.300   5.587 -0.2066  0.1367  0.2074
12768SOL    HW138829   2.862   7.306   5.670 -1.4825 -1.2783  1.0843
12768SOL    HW238830   2.744   7.363   5.596 -0.2725  0.0706  0.1487
12769SOL     OW38831   3.702   1.224   0.904  0.2304 -0.6447  0.0869
12769SOL    HW138832   3.674   1.309   0.871  3.3997  0.3661 -0.3209
12769SOL    HW238833   3.660   1.160   0.845  0.3283  0.8064 -1.6430
12770SOL     OW38834   0.392   2.988   4.030 -0.4068  0.2166  0.0583
12770SOL    HW138835   0.448   2.969   3.955 -0.7727  0.3417 -0.2552
12770SOL    HW238836   0.304   2.996   3.992 -0.6111  0.1773  0.5168
12771SOL     OW38837   6.064   5.926   2.761  0.1373 -0.1930  0.2301
12771SOL    HW138838   6.137   5.866   2.775 -0.4543 -1.2047 -0.8266
12771SOL    HW238839   6.006   5.911   2.835  0.8993  0.4909  0.9824
12772SOL     OW38840   7.371   1.619   5.902 -0.2423  0.6875 -0.4786
12772SOL    HW138841   7.296   1.564   5.927 -0.0662  1.2638  1.4807
12772SOL    HW238842   7.427   1.561   5.851 -1.6842  0.0494 -1.3997
12773SOL     OW38843   4.252   2.910   2.995 -0.1650 -0.1255  0.3570
12773SOL    HW138844   4.247   2.816   3.012  1.4227 -0.6875 -1.9927
12773SOL    HW238845   4.163   2.942   3.014 -0.3816 -1.7938  2.5349
12774SOL     OW38846   3.471   1.381   7.037  0.1222 -0.1841 -0.2176
12774SOL    HW138847   3.431   1.456   7.080 -0.1697 -1.3922  1.7586
12774SOL    HW238848   3.402   1.315   7.033  0.9574 -1.1220  0.1733
12775SOL     OW38849   3.505   5.981   5.129 -0.3215  0.4429  0.3438
12775SOL    HW138850   3.445   6.053   5.113 -1.4185 -0.5151  0.0762
12775SOL    HW238851   3.568   6.016   5.193 -2.4916  0.7826  2.4204
12776SOL     OW38852   4.653   0.328   4.725 -0.3762 -0.3054 -0.1338
12776SOL    HW138853   4.729   0.344   4.669 -0.1599 -0.0098  0.2413
12776SOL    HW238854   4.632   0.414   4.762 -0.6667 -0.4545  0.0508
12777SOL     OW38855   4.114   2.586   0.714 -0.1329  0.2371 -0.2601
12777SOL    HW138856   4.102   2.676   0.742  0.1746  0.4202 -0.7116
12777SOL    HW238857   4.067   2.579   0.632 -0.3756 -0.0877 -0.0991
12778SOL     OW38858   1.160   3.602   1.959 -0.1354 -0.0361 -0.0483
12778SOL    HW138859   1.190   3.683   1.920  0.4264  0.2445  0.9300
12778SOL    HW238860   1.235   3.543   1.955  0.2888  0.3410  1.4995
12779SOL     OW38861   1.504   3.668   0.409 -0.5673  0.5288  0.0910
12779SOL    HW138862   1.558   3.744   0.427 -0.3317  1.0070 -2.3185
12779SOL    HW238863   1.564   3.604   0.370 -1.2148 -0.0079 -0.0454
12780SOL     OW38864   6.493   3.633   7.140 -0.0037  0.0174 -0.6152
12780SOL    HW138865   6.578   3.596   7.165  0.5121  0.1386 -2.0773
12780SOL    HW238866   6.487   3.715   7.188  0.5394 -0.1684 -0.2195
12781SOL     OW38867   6.777   1.792   1.698  0.8643 -0.3104 -0.3611
12781SOL    HW138868   6.726   1.866   1.732  2.5409  0.2488  1.0722
12781SOL    HW238869   6.771   1.725   1.767  0.9271 -0.7831 -0.8105
12782SOL     OW38870   0.101   3.636   5.893  0.0346 -0.3105  0.0918
12782SOL    HW138871   0.104   3.543   5.915  2.6695  0.0215  1.5172
12782SOL    HW238872   0.107   3.681   5.977  0.0765  1.1468 -0.6567
12783SOL     OW38873   2.252   7.393   3.457 -0.5468  0.1238 -0.0310
12783SOL    HW138874   2.183   7.327   3.446 -1.4314  0.4742  2.5877
12783SOL    HW238875   2.331   7.343   3.474 -0.5025 -0.2602 -1.2632
12784SOL     OW38876   5.653   0.194   3.282 -0.3164 -0.4840 -0.1470
12784SOL    HW138877   5.739   0.154   3.275  1.1919  2.4057  0.5682
12784SOL    HW238878   5.603   0.157   3.209  1.5376 -2.1265 -0.6535
12785SOL     OW38879   2.866   4.709   3.199  0.3687  0.1722  0.2077
12785SOL    HW138880   2.788   4.653   3.201  0.5679 -0.3442 -2.3136
12785SOL    HW238881   2.910   4.693   3.282 -0.4214 -2.2368  0.2272
12786SOL     OW38882   4.711   6.680   0.202 -0.1304  0.1495  0.3007
12786SOL    HW138883   4.806   6.674   0.194  0.0169  0.1394  1.7994
12786SOL    HW238884   4.679   6.594   0.177  0.3585 -0.2475  1.0235
12787SOL     OW38885   1.053   4.215   4.768  0.6147 -0.1164  0.3747
12787SOL    HW138886   0.973   4.175   4.734  0.9091 -0.8613  0.5384
12787SOL    HW238887   1.032   4.309   4.774  0.6683  0.1052 -2.1459
12788SOL     OW38888   7.293   0.343   7.485  0.0459 -0.2008 -0.1221
12788SOL    HW138889   7.198   0.360   7.481  0.3397  1.8305  0.3999
12788SOL    HW238890   7.321   0.388   7.565  1.4447 -0.9188 -0.1899
12789SOL     OW38891   0.901   3.518   5.396 -0.5881 -0.4850  0.4156
12789SOL    HW138892   0.935   3.576   5.463  0.5547 -0.6328 -0.0123
12789SOL    HW238893   0.868   3.442   5.444  1.2061 -1.0841  0.7816
12790SOL     OW38894   4.611   5.486   0.192  0.2669 -0.1550 -0.0709
12790SOL    HW138895   4.592   5.484   0.099  0.2756  1.5619 -0.1449
12790SOL    HW238896   4.537   5.439   0.233 -0.9717  1.0885 -0.7928
12791SOL     OW38897   1.442   6.030   0.489  0.2583  0.1333 -0.6491
12791SOL    HW138898   1.491   5.956   0.454  1.7741  0.1184  1.3504
12791SOL    HW238899   1.487   6.107   0.453  1.4719  0.1087  0.7285
12792SOL     OW38900   2.018   6.698   4.018 -0.2301 -0.6623 -0.2459
12792SOL    HW138901   2.045   6.608   4.040 -2.1509 -1.2710 -0.1830
12792SOL    HW238902   1.939   6.712   4.070 -1.2500  0.2473 -1.9843
12793SOL     OW38903   1.531   6.852   5.684  0.4164 -0.5360  0.2258
12793SOL    HW138904   1.605   6.798   5.659  0.5766 -0.8918  1.4096
12793SOL    HW238905   1.567   6.940   5.694 -0.0488  0.1035 -2.7814
12794SOL     OW38906   4.753   3.723   0.103  0.2490 -0.6300  0.2211
12794SOL    HW138907   4.789   3.808   0.128 -0.1686 -0.4015  0.0395
12794SOL    HW238908   4.740   3.678   0.186 -2.7402  0.7652  0.6083
12795SOL     OW38909   5.829   3.808   5.069 -0.2337  0.8633 -0.0084
12795SOL    HW138910   5.855   3.735   5.126 -0.4369  0.1992 -0.7524
12795SOL    HW238911   5.902   3.817   5.008 -0.8747  0.2705 -0.8790
12796SOL     OW38912   3.139   0.265   1.618  0.0452 -0.1854 -0.1669
12796SOL    HW138913   3.189   0.328   1.671  0.3780 -0.6616  0.0914
12796SOL    HW238914   3.143   0.301   1.530  0.5120 -0.0056 -0.0781
12797SOL     OW38915   0.911   7.495   7.130 -0.1111  0.3624  0.1310
12797SOL    HW138916   0.932   7.426   7.194 -0.2305  1.1464  1.0389
12797SOL    HW238917   0.830   7.466   7.089  1.6068 -1.7835 -2.0679
12798SOL     OW38918   4.805   6.810   7.520 -0.1639 -0.1485  0.3588
12798SOL    HW138919   4.723   6.854   7.540  0.8763  2.2108 -0.1157
12798SOL    HW238920   4.786   6.756   7.443 -1.1868  0.6334  0.0401
12799SOL     OW38921   7.308   4.593   3.122  0.4652 -0.0771 -0.7821
12799SOL    HW138922   7.383   4.649   3.141  0.2110 -0.4367  1.5912
12799SOL    HW238923   7.233   4.652   3.124  0.5838  0.2834 -3.1608
12800SOL     OW38924   4.526   3.130   2.115 -0.2704 -0.1305 -0.2498
12800SOL    HW138925   4.469   3.053   2.116  0.2840 -0.6758  3.0255
12800SOL    HW238926   4.614   3.095   2.102 -0.1370  0.0579  0.1225
12801SOL     OW38927   3.727   4.005   7.188  0.0333  0.2193 -0.2687
12801SOL    HW138928   3.821   3.992   7.175 -0.0136  0.4609 -0.9178
12801SOL    HW238929   3.686   3.968   7.109 -0.2900  1.5878 -0.7845
12802SOL     OW38930   6.978   4.039   3.807  0.2893 -0.0158  0.1247
12802SOL    HW138931   6.944   3.954   3.834 -2.6165  1.1516  0.5248
12802SOL    HW238932   6.946   4.051   3.718  1.2049  0.4176 -0.1600
12803SOL     OW38933   5.820   1.171   1.475 -0.0024 -0.1221 -0.6638
12803SOL    HW138934   5.761   1.224   1.528  1.8939 -0.4830  1.9829
12803SOL    HW238935   5.879   1.235   1.435  0.0400  0.0041 -0.4012
12804SOL     OW38936   1.190   3.908   3.978 -0.2572  0.4324  0.1774
12804SOL    HW138937   1.273   3.951   3.996 -0.4599  1.5807 -1.4134
12804SOL    HW238938   1.128   3.980   3.965 -1.0925 -0.3675 -0.3939
12805SOL     OW38939   5.036   4.892   2.044 -0.5681 -0.0405  0.4121
12805SOL    HW138940   4.956   4.943   2.054 -1.1343 -0.7902 -0.2361
12805SOL    HW238941   5.093   4.947   1.990 -1.0577  0.0282 -0.0368
12806SOL     OW38942   2.533   6.252   5.840 -0.8224  0.5837  0.2817
12806SOL    HW138943   2.618   6.245   5.885 -0.1012 -0.5571 -1.1551
12806SOL    HW238944   2.554   6.238   5.747 -2.4463  1.4397 -0.2576
12807SOL     OW38945   6.380   7.499   1.287  1.1536 -0.1166  0.3235
12807SOL    HW138946   6.369   7.404   1.283 -1.9545  0.1670 -0.6471
12807SOL    HW238947   6.323   7.533   1.218  0.5844  2.5322  1.9303
12808SOL     OW38948   6.268   7.133   7.183  0.1641  0.0578 -0.8505
12808SOL    HW138949   6.348   7.152   7.232 -0.0377  0.3860 -0.6418
12808SOL    HW238950   6.289   7.055   7.132  0.4547 -0.1397 -0.4298
12809SOL     OW38951   0.016   4.129   4.611 -0.3411 -0.3413  0.4532
12809SOL    HW138952   0.094   4.090   4.570  0.7825  0.7377  1.4833
12809SOL    HW238953   0.039   4.137   4.704 -2.1561 -1.1017  1.0173
12810SOL     OW38954   6.636   2.801   0.285  0.0551 -0.0476  0.0182
12810SOL    HW138955   6.594   2.855   0.217  1.1144  3.0312  1.6358
12810SOL    HW238956   6.565   2.781   0.346 -0.2588 -0.0606 -0.3428
12811SOL     OW38957   2.326   0.127   2.518 -0.1617  0.4056  0.0796
12811SOL    HW138958   2.250   0.075   2.544  0.3558 -0.1778  0.4618
12811SOL    HW238959   2.325   0.126   2.422 -0.9016  0.8123  0.0765
12812SOL     OW38960   5.904   2.169   6.491  0.2702  0.8779 -0.3695
12812SOL    HW138961   5.835   2.235   6.479 -1.0925 -0.4900 -0.3071
12812SOL    HW238962   5.878   2.097   6.434  0.0262 -0.8834  1.8411
12813SOL     OW38963   5.798   4.214   6.463  0.1458  0.0409  0.3313
12813SOL    HW138964   5.839   4.299   6.445 -2.0827  1.1453  0.1822
12813SOL    HW238965   5.750   4.227   6.544  0.0180 -1.1961  0.4695
12814SOL     OW38966   5.221   5.449   6.901 -0.4569 -0.1663 -0.4726
12814SOL    HW138967   5.249   5.359   6.886  1.2909  0.2182  0.2186
12814SOL    HW238968   5.216   5.456   6.997 -0.8986  0.3791 -0.5337
12815SOL     OW38969   0.039   3.196   3.262 -0.1756  0.0285 -0.3861
12815SOL    HW138970   0.064   3.106   3.282  1.3104  0.5440  0.2655
12815SOL    HW238971   0.091   3.218   3.184  1.1808  0.9813  0.7276
12816SOL     OW38972   4.238   0.729   7.324  0.7590  0.0305  0.0277
12816SOL    HW138973   4.185   0.718   7.403  0.1967 -1.8260 -0.5328
12816SOL    HW238974   4.328   0.712   7.352  0.6663  0.2171  0.4339
12817SOL     OW38975   7.242   5.144   1.162 -0.3097 -0.0297 -0.1723
12817SOL    HW138976   7.260   5.181   1.248 -1.2880 -0.6395  0.3008
12817SOL    HW238977   7.193   5.213   1.116  0.9631  0.6484 -0.5873
12818SOL     OW38978   2.598   6.760   5.597 -0.1709 -0.0105  0.2134
12818SOL    HW138979   2.539   6.807   5.538  0.2453  0.5824  0.2633
12818SOL    HW238980   2.541   6.721   5.662 -0.6220 -0.5158 -0.4629
12819SOL     OW38981   3.557   7.438   5.928 -0.7771 -0.2830 -0.0023
12819SOL    HW138982   3.495   7.377   5.967 -1.8856  1.6228  1.3658
12819SOL    HW238983   3.503   7.494   5.873 -0.1152  0.7586  0.3907
12820SOL     OW38984   5.934   5.566   1.944 -0.0149 -0.3948  0.0485
12820SOL    HW138985   5.984   5.496   1.900 -1.2641 -0.0489 -2.0606
12820SOL    HW238986   5.954   5.644   1.892  1.9586  1.0937  2.8097
12821SOL     OW38987   0.988   5.738   6.566  0.0035  0.2499  0.0576
12821SOL    HW138988   1.045   5.810   6.593  0.0806  0.9899 -1.9523
12821SOL    HW238989   0.901   5.778   6.555 -0.3624 -0.3506  0.6563
12822SOL     OW38990   4.485   2.665   0.654 -0.4240  0.0841 -0.4113
12822SOL    HW138991   4.478   2.578   0.694 -3.2278 -0.1463 -1.1747
12822SOL    HW238992   4.578   2.674   0.632  0.4290 -1.5657  2.0861
12823SOL     OW38993   0.787   4.414   3.247  0.2548 -0.6130 -0.4346
12823SOL    HW138994   0.719   4.480   3.240 -0.5543 -1.1915  1.3157
12823SOL    HW238995   0.822   4.425   3.335  0.9012 -1.7642 -0.5203
12824SOL     OW38996   3.328   4.737   5.453  0.1148 -0.5995  0.2316
12824SOL    HW138997   3.296   4.819   5.491 -0.1526  0.0008 -1.2170
12824SOL    HW238998   3.255   4.704   5.402  0.2744 -1.6819  0.6882
12825SOL     OW38999   4.700   1.825   5.368 -0.0236 -0.0970  0.1632
12825SOL    HW139000   4.766   1.794   5.429 -0.4705 -0.8874  0.2451
12825SOL    HW239001   4.748   1.838   5.286  0.1503 -1.0768  0.1056
12826SOL     OW39002   4.286   3.179   3.227 -0.0911 -0.1284 -0.2006
12826SOL    HW139003   4.338   3.109   3.266  0.3889 -0.5475 -1.5451
12826SOL    HW239004   4.302   3.172   3.133 -0.8861  1.1094 -0.4582
12827SOL     OW39005   3.756   4.027   6.914 -0.3041  0.2773  0.3587
12827SOL    HW139006   3.714   4.105   6.951 -1.3532  0.3930 -1.0031
12827SOL    HW239007   3.805   4.059   6.840  1.1234 -0.0688  1.1227
12828SOL     OW39008   7.287   3.883   6.810 -0.2740  0.3663  0.0746
12828SOL    HW139009   7.325   3.970   6.795  0.3360  0.5434  2.3328
12828SOL    HW239010   7.361   3.823   6.805 -0.2768  0.2818  0.9214
12829SOL     OW39011   3.246   4.092   6.095 -0.1585  0.4651 -0.2294
12829SOL    HW139012   3.252   4.184   6.123  1.6723 -0.4261  2.7787
12829SOL    HW239013   3.153   4.072   6.098 -0.4726  1.9058  0.2572
12830SOL     OW39014   4.658   2.445   5.778 -0.0447  0.3593 -0.1552
12830SOL    HW139015   4.752   2.433   5.768  0.2211  2.2985 -0.4535
12830SOL    HW239016   4.619   2.367   5.738  1.4182 -0.3712 -0.2031
12831SOL     OW39017   6.230   2.158   0.502  0.3860 -0.0183 -0.0159
12831SOL    HW139018   6.225   2.168   0.597  0.1474  0.7987 -0.1047
12831SOL    HW239019   6.153   2.104   0.479  0.7998 -0.7668  0.3116
12832SOL     OW39020   2.872   7.251   1.259  0.1555  0.1738  0.2725
12832SOL    HW139021   2.893   7.187   1.327  1.0008  1.4465  1.2634
12832SOL    HW239022   2.855   7.332   1.307 -1.2277  0.6401 -0.9242
12833SOL     OW39023   4.711   6.500   4.951 -0.2736 -0.4499  0.4252
12833SOL    HW139024   4.771   6.434   4.917  0.4693 -1.3687  3.2446
12833SOL    HW239025   4.634   6.450   4.979 -0.0713 -0.0311  1.7773
12834SOL     OW39026   6.871   4.099   7.201  0.5261  0.2863 -0.4746
12834SOL    HW139027   6.930   4.025   7.187 -0.4330 -0.3470 -1.2598
12834SOL    HW239028   6.794   4.080   7.148 -1.8276 -0.5244  2.8981
12835SOL     OW39029   3.518   4.069   6.628  0.4704  0.1444  0.1092
12835SOL    HW139030   3.528   4.126   6.552  2.0879 -0.6791 -0.3447
12835SOL    HW239031   3.595   4.012   6.626 -0.3998 -1.1510  1.3084
12836SOL     OW39032   5.102   4.448   1.465 -0.3260 -0.2148  0.2332
12836SOL    HW139033   5.024   4.502   1.478  0.3441  0.6370  0.7686
12836SOL    HW239034   5.173   4.510   1.452  0.3359 -0.9803  0.1081
12837SOL     OW39035   0.670   2.028   2.701  0.3992 -0.8968 -0.0085
12837SOL    HW139036   0.755   2.066   2.678  2.6827 -4.4632  1.7388
12837SOL    HW239037   0.627   2.096   2.752  2.7722  0.5910  0.1674
12838SOL     OW39038   6.701   0.164   2.605  0.5268  0.0603 -0.1208
12838SOL    HW139039   6.684   0.151   2.512  1.4817  1.3858 -0.5042
12838SOL    HW239040   6.711   0.259   2.615 -0.4966  0.0320  1.5019
12839SOL     OW39041   2.967   4.211   4.546 -0.8485 -0.0263  0.0338
12839SOL    HW139042   2.914   4.285   4.516 -0.7882  0.0153  0.0275
12839SOL    HW239043   2.904   4.143   4.569 -1.0505  0.7606  2.0946
12840SOL     OW39044   6.600   7.435   1.891  0.1440 -0.0574 -0.6862
12840SOL    HW139045   6.576   7.513   1.941 -1.8877 -1.0355 -0.0131
12840SOL    HW239046   6.670   7.394   1.942 -0.3220  0.1688  0.1528
12841SOL     OW39047   1.230   1.826   6.714 -0.5941 -0.1653 -0.0090
12841SOL    HW139048   1.278   1.743   6.714 -0.5792 -0.2366  2.6100
12841SOL    HW239049   1.144   1.804   6.751 -1.0396  0.7720 -0.4512
12842SOL     OW39050   2.942   3.057   6.782  0.3085  0.5142 -0.8684
12842SOL    HW139051   2.909   2.968   6.788  2.7813 -0.3927  1.2381
12842SOL    HW239052   2.913   3.099   6.863  0.9766  0.9506 -0.8507
12843SOL     OW39053   1.195   5.571   3.141  0.2686  0.2493  0.3473
12843SOL    HW139054   1.252   5.646   3.159 -1.2123  1.2978  0.9981
12843SOL    HW239055   1.180   5.532   3.227 -2.3882  1.8819  0.7441
12844SOL     OW39056   1.498   7.284   4.675 -0.3237  0.3189 -0.2104
12844SOL    HW139057   1.417   7.309   4.719 -0.2126 -0.2743  0.3424
12844SOL    HW239058   1.555   7.252   4.745 -0.5968 -1.8303 -0.9002
12845SOL     OW39059   5.149   3.061   4.996  0.2588  0.3999 -0.2398
12845SOL    HW139060   5.173   3.154   5.001  1.5762  0.0409  0.3233
12845SOL    HW239061   5.141   3.044   4.902  1.0471  0.8359 -0.3985
12846SOL     OW39062   6.274   6.958   3.685 -0.5306 -0.0283 -0.0573
12846SOL    HW139063   6.183   6.931   3.673 -0.0622 -0.8346 -2.0372
12846SOL    HW239064   6.270   7.054   3.694 -1.5010  0.0168 -0.9008
12847SOL     OW39065   1.273   3.125   1.729 -0.2473 -0.4167  0.0808
12847SOL    HW139066   1.356   3.108   1.774  0.8159  2.6526 -0.4602
12847SOL    HW239067   1.220   3.170   1.794  0.4499  2.0260 -0.9415
12848SOL     OW39068   5.474   5.191   3.061  0.5534  0.4021 -0.3678
12848SOL    HW139069   5.465   5.096   3.065 -0.3997  0.4403 -1.2517
12848SOL    HW239070   5.561   5.209   3.097  1.2018 -0.8884 -1.2374
12849SOL     OW39071   0.024   1.893   5.230 -0.3338  0.0537 -0.2810
12849SOL    HW139072   0.095   1.830   5.217 -0.8950 -0.4169 -1.1150
12849SOL    HW239073   0.062   1.977   5.202  0.0272 -0.1185 -0.3148
12850SOL     OW39074   1.586   7.157   0.993 -0.4996 -0.5180 -0.0329
12850SOL    HW139075   1.670   7.148   0.948 -0.6156  1.2854 -0.7215
12850SOL    HW239076   1.599   7.118   1.079  0.9943 -0.4133 -0.2009
12851SOL     OW39077   5.236   4.774   2.859 -0.3845 -0.8376 -0.5255
12851SOL    HW139078   5.271   4.816   2.938 -0.2134 -1.1088 -0.4564
12851SOL    HW239079   5.300   4.795   2.791 -0.6089 -0.4766 -0.6287
12852SOL     OW39080   7.307   6.839   1.515  0.4457  0.1392 -0.1060
12852SOL    HW139081   7.366   6.770   1.544  0.2197  1.2017  3.2380
12852SOL    HW239082   7.220   6.807   1.538 -0.0720 -0.0411 -2.0997
12853SOL     OW39083   7.062   0.174   6.415 -0.0302 -0.2877  0.2590
12853SOL    HW139084   7.048   0.093   6.463  3.1229 -0.5705  0.9020
12853SOL    HW239085   7.035   0.243   6.476 -0.7036 -0.7592  0.5124
12854SOL     OW39086   1.289   2.332   6.318 -0.4087 -0.1781  0.6958
12854SOL    HW139087   1.202   2.301   6.345 -1.2742 -0.2758 -1.9667
12854SOL    HW239088   1.275   2.371   6.232  1.4618  3.7068  1.9580
12855SOL     OW39089   6.189   7.178   1.722 -0.0172 -0.0483 -0.4507
12855SOL    HW139090   6.186   7.126   1.642 -1.4080  2.5795 -2.2351
12855SOL    HW239091   6.261   7.239   1.708  0.8321 -0.6419  1.0984
12856SOL     OW39092   4.459   4.836   2.486  0.0804 -0.4276  0.0348
12856SOL    HW139093   4.543   4.791   2.478 -0.0981 -0.5746 -1.2616
12856SOL    HW239094   4.436   4.827   2.579  0.3770 -2.4277 -0.0263
12857SOL     OW39095   2.678   1.856   4.063 -0.8966 -0.3480  0.0797
12857SOL    HW139096   2.605   1.837   4.122 -1.2487 -0.4460 -0.3758
12857SOL    HW239097   2.646   1.828   3.977 -1.0129  1.2833 -0.4399
12858SOL     OW39098   3.840   7.258   6.815 -0.5696 -0.9126  0.5235
12858SOL    HW139099   3.812   7.343   6.849  0.8876 -0.0666 -0.2560
12858SOL    HW239100   3.760   7.218   6.781 -1.0322  1.0625 -0.9403
12859SOL     OW39101   4.109   4.022   3.277  0.0455  0.2745  0.1499
12859SOL    HW139102   4.092   4.065   3.193 -0.0047  0.6329  0.3407
12859SOL    HW239103   4.128   3.931   3.254  2.7967  0.9050 -0.5662
12860SOL     OW39104   6.426   6.547   4.718  0.4756  0.2648 -0.2689
12860SOL    HW139105   6.467   6.581   4.638  0.2843 -0.3964 -0.6555
12860SOL    HW239106   6.385   6.624   4.758  1.7179  0.8589 -0.0958
12861SOL     OW39107   4.354   2.398   2.377  0.9712 -0.5336 -0.2883
12861SOL    HW139108   4.356   2.347   2.458  0.9073  1.1717  0.8566
12861SOL    HW239109   4.427   2.364   2.325  0.2411 -2.5139 -0.0926
12862SOL     OW39110   6.206   5.076   0.514  0.0863  0.5414 -0.5612
12862SOL    HW139111   6.273   5.012   0.488  0.6807  0.6825  0.5585
12862SOL    HW239112   6.161   5.034   0.588  0.9936  1.7109  0.6942
12863SOL     OW39113   5.879   6.933   6.612 -0.0526 -0.3648 -0.2145
12863SOL    HW139114   5.873   7.015   6.661 -2.0929 -1.5427  1.6901
12863SOL    HW239115   5.805   6.935   6.552  0.3691 -0.4846 -0.7510
12864SOL     OW39116   6.295   7.556   4.130 -0.5802 -0.7092 -0.0319
12864SOL    HW139117   6.222   7.554   4.192 -0.5685 -0.4145 -0.0062
12864SOL    HW239118   6.370   7.526   4.180 -0.4050  0.3125  0.3228
12865SOL     OW39119   6.396   2.282   0.285  0.4143  0.0121 -0.2317
12865SOL    HW139120   6.331   2.235   0.337 -0.6386  0.2913 -1.2446
12865SOL    HW239121   6.407   2.227   0.207  2.0574 -0.4669  0.3005
12866SOL     OW39122   0.456   2.741   2.918  0.2552 -0.2856  0.2404
12866SOL    HW139123   0.532   2.726   2.863  0.5292  0.2141  0.4772
12866SOL    HW239124   0.401   2.664   2.905  0.0438  0.0788 -1.1622
12867SOL     OW39125   6.104   1.613   6.751  0.1052 -0.0047  0.4843
12867SOL    HW139126   6.027   1.563   6.779  0.1753 -0.5981 -0.3341
12867SOL    HW239127   6.068   1.691   6.708 -0.0053  0.7130  1.8225
12868SOL     OW39128   6.421   3.587   6.873 -0.1644  0.4877  0.4029
12868SOL    HW139129   6.461   3.628   6.950  0.2903  2.9870 -1.0478
12868SOL    HW239130   6.338   3.632   6.863 -0.1816  0.2357 -0.6034
12869SOL     OW39131   4.751   6.771   5.109  0.1616  0.4146  1.1530
12869SOL    HW139132   4.751   6.682   5.074 -0.2281  0.7247  0.3142
12869SOL    HW239133   4.796   6.765   5.193 -0.2498 -0.6456  1.3054
12870SOL     OW39134   0.975   6.841   4.077  0.4726  0.0906  0.0303
12870SOL    HW139135   0.890   6.822   4.040  0.9441 -1.6377 -0.2371
12870SOL    HW239136   0.962   6.923   4.126 -1.3144 -0.1376  0.0018
12871SOL     OW39137   5.803   4.067   1.582 -0.1736 -0.0006  0.6472
12871SOL    HW139138   5.834   3.998   1.523 -1.3863 -0.5345  0.5886
12871SOL    HW239139   5.732   4.109   1.533  0.8028  1.5607  0.5359
12872SOL     OW39140   5.770   1.785   6.921 -0.5763 -0.3467  0.5721
12872SOL    HW139141   5.842   1.846   6.934 -2.3826  2.0312  0.1523
12872SOL    HW239142   5.692   1.833   6.949 -2.2248 -2.1019 -0.6954
12873SOL     OW39143   5.246   6.858   0.145  0.0700 -0.7042  0.2973
12873SOL    HW139144   5.208   6.808   0.072  0.5483 -1.2706  0.4229
12873SOL    HW239145   5.224   6.949   0.127 -0.3339 -0.9062 -0.2402
12874SOL     OW39146   4.486   5.655   0.440  0.2628  0.1779 -0.4193
12874SOL    HW139147   4.416   5.683   0.499 -1.2625 -0.3883 -1.8704
12874SOL    HW239148   4.520   5.575   0.480 -0.9771 -0.3891 -0.4628
12875SOL     OW39149   5.034   1.659   1.075  0.7137  0.4226 -0.5518
12875SOL    HW139150   4.990   1.687   1.155  0.5317  1.6525 -1.0545
12875SOL    HW239151   5.005   1.569   1.061  1.2561 -0.0342  1.1001
12876SOL     OW39152   3.437   1.890   5.369 -0.3070  0.1011 -0.0724
12876SOL    HW139153   3.403   1.963   5.316 -2.4370  0.1038  1.1645
12876SOL    HW239154   3.480   1.932   5.443 -0.1400  0.1098 -0.1750
12877SOL     OW39155   4.403   5.907   6.131  0.1292  0.0562 -0.2963
12877SOL    HW139156   4.433   5.988   6.172 -2.5176  1.3642 -0.7076
12877SOL    HW239157   4.471   5.886   6.068  1.6401  1.0599  0.9163
12878SOL     OW39158   5.356   4.910   5.194 -0.3300 -0.0341  0.5527
12878SOL    HW139159   5.420   4.954   5.138 -1.2612  0.8241  0.1429
12878SOL    HW239160   5.396   4.824   5.212  0.4791  0.0954 -0.5158
12879SOL     OW39161   2.420   4.033   3.977  0.4008 -0.4374 -1.0258
12879SOL    HW139162   2.477   4.107   3.997  0.1143 -0.6938  0.8923
12879SOL    HW239163   2.352   4.070   3.920  0.6554  0.6004 -0.6791
12880SOL     OW39164   2.670   4.639   7.355 -0.8709 -0.0967 -0.4943
12880SOL    HW139165   2.716   4.680   7.429  0.2205 -0.0244 -1.1839
12880SOL    HW239166   2.643   4.713   7.301  0.1823 -0.2210 -1.2139
12881SOL     OW39167   2.342   1.155   2.263 -0.2465 -0.7793 -0.0421
12881SOL    HW139168   2.296   1.210   2.199  0.5343 -0.8754 -0.7064
12881SOL    HW239169   2.329   1.199   2.346 -0.8149 -0.3446 -0.3561
12882SOL     OW39170   2.952   3.016   2.056  0.1586 -0.0017  0.1429
12882SOL    HW139171   3.030   3.017   2.000  0.3429  0.6225  0.3947
12882SOL    HW239172   2.960   3.096   2.108 -1.3586  0.7819 -0.7842
12883SOL     OW39173   7.040   3.867   0.729  0.4964 -0.0527 -0.0388
12883SOL    HW139174   7.042   3.776   0.757  4.1531  0.0757  0.7075
12883SOL    HW239175   7.032   3.918   0.810 -3.1580  0.4556 -0.5431
12884SOL     OW39176   6.371   4.861   0.197 -0.5859  0.5814  0.2463
12884SOL    HW139177   6.303   4.904   0.144 -1.5976 -0.1169  0.9317
12884SOL    HW239178   6.395   4.783   0.146 -0.2943  0.8269  0.0047
12885SOL     OW39179   3.501   6.418   6.175 -0.1228  1.1190 -0.1225
12885SOL    HW139180   3.465   6.387   6.092 -2.1298  2.5525  0.1585
12885SOL    HW239181   3.496   6.342   6.233  0.4113  0.3774 -1.0056
12886SOL     OW39182   2.467   1.422   1.901 -0.3422 -0.1774  0.7041
12886SOL    HW139183   2.419   1.423   1.818 -1.5065 -1.7559  1.2910
12886SOL    HW239184   2.532   1.352   1.890  0.3930  0.4958  0.6814
12887SOL     OW39185   6.663   1.792   3.917  0.0212 -0.1966  0.1653
12887SOL    HW139186   6.592   1.831   3.969 -0.1075  0.4180 -0.4625
12887SOL    HW239187   6.649   1.698   3.926  0.7961 -0.1635  2.3399
12888SOL     OW39188   4.983   2.729   6.259 -0.5980 -0.5556  0.0830
12888SOL    HW139189   4.917   2.660   6.251 -1.2083 -0.1437  1.2813
12888SOL    HW239190   5.052   2.704   6.197 -1.1437 -1.8343 -0.0399
12889SOL     OW39191   5.190   4.289   7.107 -0.1223 -0.3155  0.1200
12889SOL    HW139192   5.167   4.379   7.085 -1.1006 -0.8206 -1.0518
12889SOL    HW239193   5.133   4.235   7.052  1.1798 -1.6503  0.0022
12890SOL     OW39194   5.391   5.620   1.248  0.5159  0.0990  0.0967
12890SOL    HW139195   5.313   5.589   1.293  0.7563  1.6313  1.6530
12890SOL    HW239196   5.441   5.540   1.230 -2.2182 -1.1822 -2.8063
12891SOL     OW39197   5.209   5.967   5.547  0.7667  0.3576  0.2868
12891SOL    HW139198   5.136   6.029   5.542 -0.7522 -1.4152 -2.9377
12891SOL    HW239199   5.175   5.896   5.603  0.9840  0.6053  0.7411
12892SOL     OW39200   2.238   3.640   6.758  0.4987 -0.4794  0.0166
12892SOL    HW139201   2.217   3.567   6.700 -2.4439  0.5959 -0.4431
12892SOL    HW239202   2.277   3.599   6.835  0.8729 -2.3125 -1.0860
12893SOL     OW39203   4.786   3.136   1.929  0.3042 -0.3321  0.2047
12893SOL    HW139204   4.819   3.120   2.017  1.4340  0.0950 -0.1226
12893SOL    HW239205   4.798   3.230   1.915  0.2286 -0.4093 -0.4242
12894SOL     OW39206   5.727   5.615   3.771  0.2159  0.3863  1.1539
12894SOL    HW139207   5.780   5.681   3.818 -0.2769 -0.0884  2.4232
12894SOL    HW239208   5.732   5.642   3.680 -0.3037  2.4406  1.6734
12895SOL     OW39209   5.567   3.194   1.746  0.1074  0.2679  0.0318
12895SOL    HW139210   5.652   3.160   1.719  0.2977  0.1227  0.7810
12895SOL    HW239211   5.544   3.141   1.823 -0.5261  0.4981  0.0078
12896SOL     OW39212   3.760   3.569   1.789  0.2158  0.1869 -0.1329
12896SOL    HW139213   3.764   3.597   1.881 -0.0146  0.8159 -0.3058
12896SOL    HW239214   3.755   3.474   1.793 -0.3190  0.2360  0.5216
12897SOL     OW39215   5.983   6.243   6.880  0.1864  0.2374  0.2184
12897SOL    HW139216   6.044   6.195   6.935 -1.2032 -1.6236  0.2248
12897SOL    HW239217   6.031   6.258   6.798  0.7492 -0.9841  0.3056
12898SOL     OW39218   2.139   7.116   1.554  0.2325  0.6159  0.9086
12898SOL    HW139219   2.098   7.032   1.532  1.5119  0.1791  0.0627
12898SOL    HW239220   2.150   7.160   1.470 -0.1527  1.5276  1.3167
12899SOL     OW39221   2.646   4.523   3.914 -0.6911  0.1794 -0.5855
12899SOL    HW139222   2.688   4.602   3.948 -0.9643  0.2246 -0.3512
12899SOL    HW239223   2.653   4.532   3.818  0.5070 -0.1808 -0.5467
12900SOL     OW39224   0.204   7.518   2.420 -0.3555 -0.0395 -0.1036
12900SOL    HW139225   0.155   7.538   2.341  0.7128 -0.1525 -0.8179
12900SOL    HW239226   0.155   7.561   2.490 -0.9052  0.7116 -0.9226
12901SOL     OW39227   1.265   5.131   0.743  0.4679  0.1406 -0.5107
12901SOL    HW139228   1.247   5.040   0.768 -0.1263  0.2434 -0.5397
12901SOL    HW239229   1.180   5.165   0.716  0.5095  0.9863  0.3803
12902SOL     OW39230   5.279   4.859   0.812  0.3903  0.4107 -0.2276
12902SOL    HW139231   5.241   4.791   0.756  0.5228  1.0213 -1.0713
12902SOL    HW239232   5.365   4.876   0.774  0.4133  0.9513  0.0595
12903SOL     OW39233   4.815   1.277   7.341  0.4676 -0.7284  0.1014
12903SOL    HW139234   4.778   1.309   7.423  0.6234  0.5858 -0.3083
12903SOL    HW239235   4.861   1.353   7.305  1.4239 -1.6292 -0.6122
12904SOL     OW39236   2.847   1.481   3.890 -0.0628  0.1873 -0.3852
12904SOL    HW139237   2.898   1.547   3.842 -1.4531 -0.1910 -2.5003
12904SOL    HW239238   2.815   1.421   3.822 -0.0868 -1.8427  1.3163
12905SOL     OW39239   0.528   2.797   4.180  0.4673  0.0515 -0.8640
12905SOL    HW139240   0.510   2.703   4.173  0.6745 -0.0176 -0.4599
12905SOL    HW239241   0.470   2.837   4.115 -0.6294 -0.2349 -0.0821
12906SOL     OW39242   7.085   4.003   4.394  0.4987 -0.1570 -0.3820
12906SOL    HW139243   7.162   4.037   4.439 -0.0234  2.2085 -1.1784
12906SOL    HW239244   7.116   3.977   4.308  0.1219  2.8380 -1.5229
12907SOL     OW39245   0.461   0.845   7.310  0.1118 -0.4562 -0.2582
12907SOL    HW139246   0.542   0.795   7.298 -0.6598 -1.5851 -1.0468
12907SOL    HW239247   0.421   0.807   7.389 -0.9893 -1.8940 -1.4437
12908SOL     OW39248   2.121   5.379   6.126 -0.2144 -0.2970  0.1671
12908SOL    HW139249   2.085   5.391   6.213  1.6459  0.3190  0.9112
12908SOL    HW239250   2.055   5.328   6.079 -1.1870 -0.7824  1.9689
12909SOL     OW39251   5.774   1.246   4.868 -0.1502  0.1650  0.0258
12909SOL    HW139252   5.840   1.305   4.904  1.3537 -1.1394 -0.4506
12909SOL    HW239253   5.766   1.270   4.776 -0.0042  0.0338 -0.0215
12910SOL     OW39254   0.783   3.571   7.320  0.4912  0.2666 -0.3116
12910SOL    HW139255   0.868   3.617   7.314  1.5143 -1.7133 -2.4571
12910SOL    HW239256   0.800   3.485   7.282 -1.7443 -1.3878  2.1542
12911SOL     OW39257   4.185   1.932   1.943  1.0659 -0.3563 -0.0335
12911SOL    HW139258   4.146   1.849   1.920 -1.5047  0.8218 -0.2464
12911SOL    HW239259   4.181   1.935   2.039 -0.2217  0.1039 -0.0862
12912SOL     OW39260   6.668   5.204   2.318 -0.1483 -0.2846  0.5843
12912SOL    HW139261   6.718   5.204   2.236  0.0223 -0.3632  0.6859
12912SOL    HW239262   6.581   5.235   2.294  0.7223  2.7064  0.8818
12913SOL     OW39263   5.417   0.276   5.984 -0.3435 -0.3618 -0.0797
12913SOL    HW139264   5.512   0.273   5.986 -0.3217  0.3585  1.7225
12913SOL    HW239265   5.389   0.200   6.035 -0.7054 -0.1001  0.1191
12914SOL     OW39266   4.922   3.643   1.927 -0.2157  0.3282  0.0753
12914SOL    HW139267   5.016   3.658   1.921 -0.2269  1.0476  1.2517
12914SOL    HW239268   4.909   3.607   2.015 -0.8732 -1.3074 -0.6513
12915SOL     OW39269   2.760   2.320   1.025 -0.3293 -0.3439 -0.4561
12915SOL    HW139270   2.808   2.237   1.027 -0.4791 -0.4292 -0.2576
12915SOL    HW239271   2.679   2.301   1.074  1.1796  0.8841  2.7586
12916SOL     OW39272   0.921   6.207   1.213  0.4320 -0.0064 -0.4409
12916SOL    HW139273   0.948   6.299   1.219 -0.5220  0.2050  1.5033
12916SOL    HW239274   0.902   6.182   1.303 -0.6387 -1.7195 -1.0952
12917SOL     OW39275   6.128   0.447   0.787 -0.2089  0.1998 -0.3883
12917SOL    HW139276   6.053   0.443   0.728 -1.0441 -1.6365  0.6901
12917SOL    HW239277   6.118   0.531   0.832 -1.4907  0.1044 -0.4413
12918SOL     OW39278   5.344   0.711   3.717 -0.0097 -0.5824  0.0586
12918SOL    HW139279   5.277   0.644   3.729  0.6446 -1.4565 -1.0362
12918SOL    HW239280   5.295   0.789   3.692 -0.7344 -0.7655  0.8520
12919SOL     OW39281   5.257   4.441   2.847 -0.8078  1.1631  0.4565
12919SOL    HW139282   5.187   4.495   2.811 -0.8405  2.2201  1.9806
12919SOL    HW239283   5.333   4.500   2.852 -0.1260  0.3535 -0.1311
12920SOL     OW39284   0.626   1.752   1.727 -0.7025 -0.5320  0.0148
12920SOL    HW139285   0.576   1.672   1.743  0.0277 -1.5888 -2.4665
12920SOL    HW239286   0.567   1.808   1.676 -1.2297  0.6087  1.7857
12921SOL     OW39287   5.298   0.318   2.517  0.0575 -0.8595 -0.1930
12921SOL    HW139288   5.312   0.224   2.527  1.2801 -0.5156  1.9594
12921SOL    HW239289   5.331   0.356   2.598 -0.3741  1.4513 -1.0198
12922SOL     OW39290   5.303   6.781   0.400 -0.4590 -0.1392 -0.1193
12922SOL    HW139291   5.247   6.726   0.456 -1.9915  0.1502 -1.3083
12922SOL    HW239292   5.248   6.802   0.325  0.5467  1.9463 -0.3235
12923SOL     OW39293   4.061   0.964   1.202 -0.6914 -0.3638  0.3455
12923SOL    HW139294   3.967   0.945   1.212 -0.3925 -2.3147 -0.1372
12923SOL    HW239295   4.064   1.047   1.154 -2.1475  0.5058  1.6668
12924SOL     OW39296   0.584   5.116   3.793  0.0444  0.1321 -0.8619
12924SOL    HW139297   0.625   5.048   3.847 -0.0496  0.0579 -0.8840
12924SOL    HW239298   0.619   5.100   3.705  0.9426  0.8349 -0.6609
12925SOL     OW39299   3.516   1.148   6.171  0.2840 -0.0211 -0.0677
12925SOL    HW139300   3.508   1.152   6.266 -1.1847 -0.1589 -0.1655
12925SOL    HW239301   3.610   1.158   6.154  0.7685 -1.5688  1.4567
12926SOL     OW39302   0.597   5.441   2.422  0.7058  0.4642  0.1411
12926SOL    HW139303   0.608   5.418   2.330  0.1205 -0.2733  0.2442
12926SOL    HW239304   0.682   5.476   2.448  0.7080  1.2004 -0.8203
12927SOL     OW39305   7.279   0.744   0.987 -0.5025 -0.2667  0.2845
12927SOL    HW139306   7.252   0.828   0.950 -0.1605 -0.7698 -1.1846
12927SOL    HW239307   7.373   0.740   0.971 -0.6852 -1.3976 -0.7110
12928SOL     OW39308   4.003   3.275   6.289  0.2317 -0.2396 -0.8426
12928SOL    HW139309   3.980   3.255   6.198  1.5323 -0.4480 -1.1356
12928SOL    HW239310   4.098   3.276   6.291  0.2799 -1.9188  0.8789
12929SOL     OW39311   0.975   5.237   5.575  0.9081  0.2586 -0.4797
12929SOL    HW139312   0.955   5.158   5.525 -0.1948  0.7478 -0.8360
12929SOL    HW239313   0.932   5.224   5.659 -1.4243  1.4865 -1.3912
12930SOL     OW39314   7.045   1.386   1.387  0.4504 -0.5853 -0.0652
12930SOL    HW139315   6.963   1.428   1.362  1.2411  1.9695  1.2510
12930SOL    HW239316   7.019   1.303   1.425 -1.5291  0.1457  0.2830
12931SOL     OW39317   3.576   6.191   4.826  0.2832 -0.2415 -0.0080
12931SOL    HW139318   3.656   6.184   4.878  0.4495 -0.8291 -0.3385
12931SOL    HW239319   3.551   6.100   4.808 -1.4223 -0.1328  1.5575
12932SOL     OW39320   2.702   3.053   4.409  0.4303 -0.2106 -0.4232
12932SOL    HW139321   2.706   3.114   4.482  0.5575 -0.6901 -0.0263
12932SOL    HW239322   2.678   3.107   4.333 -0.8415  0.1115  0.1784
12933SOL     OW39323   3.358   0.290   4.738  0.2678 -0.5719  0.1328
12933SOL    HW139324   3.394   0.322   4.821  1.6358 -0.1914 -0.5747
12933SOL    HW239325   3.331   0.200   4.757 -0.2475 -0.2111  1.2047
12934SOL     OW39326   2.886   5.409   0.806 -0.2173 -0.3446  0.3103
12934SOL    HW139327   2.832   5.334   0.831 -0.0506 -0.0481  1.6463
12934SOL    HW239328   2.845   5.483   0.851 -0.3307  0.3573 -0.9284
12935SOL     OW39329   1.875   7.192   2.761  0.0463 -0.8752 -0.4556
12935SOL    HW139330   1.827   7.114   2.734 -0.6940 -0.7170  0.3391
12935SOL    HW239331   1.879   7.185   2.857  1.2709 -0.6799 -0.4752
12936SOL     OW39332   1.511   1.366   6.829 -0.0072 -0.8162  0.1161
12936SOL    HW139333   1.477   1.363   6.918  0.7918 -1.4390  0.4152
12936SOL    HW239334   1.603   1.339   6.837 -0.4360 -2.8862 -1.1166
12937SOL     OW39335   5.031   0.510   5.515 -0.0092 -0.1373 -0.5143
12937SOL    HW139336   5.036   0.520   5.420 -0.7886 -2.0891 -0.8080
12937SOL    HW239337   4.940   0.488   5.533  0.0124  0.6871  0.7590
12938SOL     OW39338   1.617   2.325   1.608 -0.1811 -0.4959 -0.7079
12938SOL    HW139339   1.541   2.345   1.553  0.9723 -0.3433 -2.2917
12938SOL    HW239340   1.693   2.353   1.557  0.9027  2.8514  2.2496
12939SOL     OW39341   2.289   4.413   6.160  0.1614 -0.1682 -0.1139
12939SOL    HW139342   2.373   4.436   6.121  0.0581 -0.8371 -0.7621
12939SOL    HW239343   2.233   4.489   6.143 -0.0607 -0.6745 -1.8555
12940SOL     OW39344   6.641   0.707   3.892 -0.0089  0.2380 -0.6315
12940SOL    HW139345   6.568   0.651   3.918 -0.2547  0.8556  0.0952
12940SOL    HW239346   6.600   0.778   3.842  0.2313  0.0389 -1.1134
12941SOL     OW39347   4.729   5.395   4.136  0.3058  0.6723 -0.6290
12941SOL    HW139348   4.751   5.379   4.228  1.4897  0.2731 -0.9570
12941SOL    HW239349   4.718   5.490   4.130 -0.5518  0.6291  0.0719
12942SOL     OW39350   0.933   4.482   4.683 -0.2096 -0.3269  0.0891
12942SOL    HW139351   1.015   4.522   4.655 -0.5017  0.6392  0.5900
12942SOL    HW239352   0.902   4.433   4.607  0.5030 -0.1750 -0.2997
12943SOL     OW39353   5.350   4.170   5.322 -0.0195 -0.8220 -0.5211
12943SOL    HW139354   5.316   4.089   5.359 -1.4745 -0.6143 -1.3241
12943SOL    HW239355   5.290   4.238   5.352 -0.1216 -0.3827 -1.6532
12944SOL     OW39356   7.240   7.158   6.278 -0.2219 -0.1406 -0.0643
12944SOL    HW139357   7.155   7.153   6.235 -0.1080 -0.2164 -0.2803
12944SOL    HW239358   7.300   7.113   6.219 -0.1280 -0.5562  0.3433
12945SOL     OW39359   2.970   0.570   3.732  0.2333 -0.0827  0.0580
12945SOL    HW139360   2.979   0.529   3.646 -0.3737  0.2120 -0.1527
12945SOL    HW239361   3.035   0.639   3.734  0.1167  0.0349 -0.2409
12946SOL     OW39362   2.629   7.386   7.026 -0.2359 -0.1216 -0.5434
12946SOL    HW139363   2.661   7.321   7.087  2.3586 -0.2226 -1.8730
12946SOL    HW239364   2.694   7.456   7.028 -1.8609  1.4874 -0.7057
12947SOL     OW39365   3.609   7.505   4.587  0.4517  0.1488 -0.3572
12947SOL    HW139366   3.562   7.431   4.624  0.4927  0.4462  0.2993
12947SOL    HW239367   3.660   7.541   4.660  2.3556 -0.6557 -1.2176
12948SOL     OW39368   5.099   4.773   1.530 -0.0594  0.1412 -0.3978
12948SOL    HW139369   5.048   4.760   1.610 -1.2551  0.3915 -1.0969
12948SOL    HW239370   5.058   4.848   1.487 -0.2587 -0.7767 -1.8742
12949SOL     OW39371   1.571   4.066   1.923 -0.1128 -0.2429 -0.1313
12949SOL    HW139372   1.631   4.003   1.883  0.8723  0.5570  0.0528
12949SOL    HW239373   1.557   4.132   1.855  1.3844  1.0004  0.7137
12950SOL     OW39374   3.605   2.704   3.935  0.1036 -0.4362 -0.1305
12950SOL    HW139375   3.607   2.613   3.907 -0.6921 -0.4147 -0.2626
12950SOL    HW239376   3.588   2.753   3.854  0.2972 -0.1853 -0.0207
12951SOL     OW39377   0.712   3.734   1.266  0.2265 -0.0977 -0.3480
12951SOL    HW139378   0.753   3.745   1.180  0.6293  0.1564 -0.1253
12951SOL    HW239379   0.623   3.704   1.246  0.6030 -0.9209 -0.8302
12952SOL     OW39380   5.610   1.317   1.593 -0.1250  0.4001 -0.1857
12952SOL    HW139381   5.611   1.412   1.609 -1.6768  0.4162 -0.0147
12952SOL    HW239382   5.530   1.287   1.637  0.2089 -0.9505 -0.4727
12953SOL     OW39383   1.895   2.259   1.126 -0.6345  0.7138 -0.0417
12953SOL    HW139384   1.893   2.166   1.147  0.8197  1.0557  1.9025
12953SOL    HW239385   1.809   2.292   1.153 -1.0547  0.0006 -0.4860
12954SOL     OW39386   1.783   2.076   3.701 -0.1220 -0.0422 -0.0944
12954SOL    HW139387   1.771   2.170   3.694 -1.2221 -0.1434  0.3593
12954SOL    HW239388   1.791   2.046   3.610  0.1072  0.4621 -0.2436
12955SOL     OW39389   5.570   6.123   1.167 -0.1294 -0.0708  0.0518
12955SOL    HW139390   5.538   6.209   1.195 -1.5210 -0.9577  1.3770
12955SOL    HW239391   5.657   6.140   1.132 -0.3610  1.8693  0.2889
12956SOL     OW39392   4.951   3.259   0.353 -0.1752  0.2256  0.1841
12956SOL    HW139393   4.964   3.351   0.327 -1.3371  1.1997  2.7302
12956SOL    HW239394   4.869   3.260   0.402  1.3672 -1.5151  3.0519
12957SOL     OW39395   2.201   3.014   3.997  0.0546  0.2081  0.5320
12957SOL    HW139396   2.115   3.016   3.954 -0.1699  0.4567  0.9732
12957SOL    HW239397   2.181   3.036   4.088  0.3738 -1.3368  1.0037
12958SOL     OW39398   4.337   3.547   4.247  0.2049 -0.2767  0.2317
12958SOL    HW139399   4.418   3.521   4.203  0.5464  0.9953  0.0789
12958SOL    HW239400   4.293   3.464   4.266  0.9661 -0.9331 -0.7629
12959SOL     OW39401   4.758   6.865   1.050 -0.2337  0.1942  0.6401
12959SOL    HW139402   4.720   6.828   0.971  1.0161 -0.3701  0.2687
12959SOL    HW239403   4.852   6.850   1.040 -0.1431 -1.2187  2.9048
12960SOL     OW39404   4.145   0.336   3.888 -0.0402 -0.0408 -0.3820
12960SOL    HW139405   4.122   0.415   3.937 -1.0001 -1.5616  1.7681
12960SOL    HW239406   4.232   0.311   3.919  0.6281  0.5867 -1.6761
12961SOL     OW39407   2.702   5.395   3.634 -0.1882 -0.4662  0.3144
12961SOL    HW139408   2.628   5.450   3.659 -1.2047 -0.9688 -1.4207
12961SOL    HW239409   2.762   5.455   3.590  0.8641  0.1002  2.4118
12962SOL     OW39410   3.837   2.173   5.835 -0.1528  0.3318  0.1720
12962SOL    HW139411   3.917   2.126   5.813 -0.8583 -2.3762  2.7528
12962SOL    HW239412   3.866   2.262   5.854  2.3504 -0.6199  1.2806
12963SOL     OW39413   0.376   3.420   3.319 -0.3116  0.4284 -0.5576
12963SOL    HW139414   0.308   3.364   3.356  0.4579 -0.0849  0.1259
12963SOL    HW239415   0.398   3.378   3.236 -0.6913  0.4906 -0.6915
12964SOL     OW39416   4.395   3.844   7.530  0.1654 -0.3395  0.1963
12964SOL    HW139417   4.396   3.899   7.608  0.4036  0.0439 -0.0713
12964SOL    HW239418   4.325   3.781   7.545 -1.6824  1.4515 -0.4633
12965SOL     OW39419   1.353   3.811   1.860  0.4868  0.3105  0.0253
12965SOL    HW139420   1.415   3.883   1.868 -0.6594  1.3787 -0.2428
12965SOL    HW239421   1.305   3.830   1.779 -0.3672 -0.3150  0.3605
12966SOL     OW39422   0.052   1.294   3.676  0.1352  0.4302  0.3065
12966SOL    HW139423   0.005   1.348   3.612 -0.4473 -0.0333  0.3332
12966SOL    HW239424   0.023   1.328   3.761 -1.9115 -1.2804  0.3593
12967SOL     OW39425   4.465   5.857   2.494  0.2305 -0.1159 -0.0298
12967SOL    HW139426   4.512   5.780   2.526  0.9867 -1.0801 -3.1233
12967SOL    HW239427   4.526   5.897   2.431 -1.4962  1.0077 -1.0567
12968SOL     OW39428   6.400   5.329   6.805 -0.2500 -0.3530 -0.3856
12968SOL    HW139429   6.330   5.394   6.798  0.2681  0.2115 -0.3984
12968SOL    HW239430   6.472   5.366   6.754 -0.7367 -2.0446 -2.4015
12969SOL     OW39431   1.921   6.340   2.426  0.4507 -0.1638 -0.6812
12969SOL    HW139432   1.942   6.363   2.335  2.9093 -1.2345 -0.4685
12969SOL    HW239433   1.952   6.250   2.435  0.8184  0.1305  1.3875
12970SOL     OW39434   1.197   2.264   6.723 -0.0734  0.1944 -0.6456
12970SOL    HW139435   1.262   2.248   6.790 -1.9175 -0.5088  1.0840
12970SOL    HW239436   1.197   2.359   6.711  0.0833  0.3603  0.5766
12971SOL     OW39437   1.951   4.563   0.275  0.3324  0.3221 -0.4846
12971SOL    HW139438   2.002   4.505   0.217 -0.3317  1.1992 -2.0181
12971SOL    HW239439   1.862   4.527   0.273  0.1146  0.8689 -0.7243
12972SOL     OW39440   5.256   1.017   1.662 -0.1295  0.1167 -0.5801
12972SOL    HW139441   5.282   1.061   1.581  0.9262  1.8302  0.6168
12972SOL    HW239442   5.324   0.952   1.678  0.7627  1.1267 -0.0950
12973SOL     OW39443   6.863   5.005   7.240  0.6392  0.2737  0.1379
12973SOL    HW139444   6.873   4.974   7.330  0.7761  1.6128  0.6068
12973SOL    HW239445   6.898   4.933   7.186  0.2779 -0.6682  1.1213
12974SOL     OW39446   5.699   1.736   6.433 -0.0661  0.2911 -0.4444
12974SOL    HW139447   5.685   1.723   6.527  0.1919  1.9864 -0.1317
12974SOL    HW239448   5.634   1.680   6.392 -0.6733  0.0586  0.7691
12975SOL     OW39449   7.137   1.778   2.057 -0.6336 -0.1810 -0.5284
12975SOL    HW139450   7.068   1.805   1.997 -1.0730  0.3370  0.1873
12975SOL    HW239451   7.217   1.784   2.006 -1.0350 -0.0375 -1.1491
12976SOL     OW39452   7.212   5.186   3.373  0.3545  0.1527 -0.0482
12976SOL    HW139453   7.249   5.260   3.325  0.2681 -0.3313 -0.8911
12976SOL    HW239454   7.280   5.162   3.436  0.5020  0.7528  0.0286
12977SOL     OW39455   5.422   5.853   4.848  0.1156 -0.0885 -0.3654
12977SOL    HW139456   5.379   5.919   4.902  1.0443  0.5626 -0.4025
12977SOL    HW239457   5.378   5.861   4.763 -0.6274 -0.3937 -0.0237
12978SOL     OW39458   2.182   4.183   3.102  0.9753  0.2611 -0.1872
12978SOL    HW139459   2.144   4.173   3.015  1.9000 -0.6463 -0.5093
12978SOL    HW239460   2.271   4.215   3.086  0.6481  1.6003  0.5160
12979SOL     OW39461   6.256   3.618   3.970  0.1833 -0.0918  0.4057
12979SOL    HW139462   6.265   3.680   4.042  1.2831  0.6876 -0.3651
12979SOL    HW239463   6.341   3.575   3.964  0.4636  0.6123 -1.0832
12980SOL     OW39464   0.242   2.379   3.591 -0.3626 -0.0318 -0.1322
12980SOL    HW139465   0.241   2.376   3.687  0.5460 -1.8303 -0.1245
12980SOL    HW239466   0.153   2.404   3.567 -0.6663  0.2276  1.1865
12981SOL     OW39467   2.741   7.394   1.011 -0.1606 -0.3350  0.0463
12981SOL    HW139468   2.674   7.343   0.964  1.0456 -0.7845 -1.2432
12981SOL    HW239469   2.743   7.355   1.098 -1.9432  0.0457  0.3146
12982SOL     OW39470   2.177   5.653   1.571 -0.1696  0.2078  0.1532
12982SOL    HW139471   2.252   5.709   1.589  0.8188 -1.3070  1.0197
12982SOL    HW239472   2.183   5.633   1.477  2.2968 -2.1982  0.6842
12983SOL     OW39473   7.332   2.293   0.441 -0.5484 -0.5308 -0.4360
12983SOL    HW139474   7.303   2.338   0.362  1.8895  2.0691 -0.0099
12983SOL    HW239475   7.365   2.209   0.410  0.7629  0.6048 -2.2758
12984SOL     OW39476   2.359   2.725   0.225 -0.6854 -0.1272  0.4508
12984SOL    HW139477   2.390   2.635   0.227  1.4674  0.4926 -1.2114
12984SOL    HW239478   2.437   2.778   0.238 -1.1454  1.5236 -2.5878
12985SOL     OW39479   6.707   2.522   3.669  0.1573 -0.6077 -0.1278
12985SOL    HW139480   6.654   2.457   3.714 -1.0024 -0.5610 -1.3687
12985SOL    HW239481   6.676   2.606   3.703 -0.7795 -0.5685 -1.0240
12986SOL     OW39482   1.741   1.710   2.292 -0.0401  0.5373  0.0779
12986SOL    HW139483   1.647   1.713   2.274 -0.2150  0.0030  0.8376
12986SOL    HW239484   1.758   1.787   2.345 -0.3860 -0.2626  1.3801
12987SOL     OW39485   1.389   0.223   6.297 -0.5989  0.6234  0.5717
12987SOL    HW139486   1.436   0.173   6.364  0.5022 -0.2928 -0.8175
12987SOL    HW239487   1.300   0.233   6.332 -0.1616 -0.1370  1.9835
12988SOL     OW39488   3.269   6.013   3.281 -0.2855  0.3948  0.1830
12988SOL    HW139489   3.259   5.937   3.223  0.1837 -0.4642  1.1975
12988SOL    HW239490   3.303   6.082   3.224 -0.9979 -0.0465 -0.8253
12989SOL     OW39491   0.532   6.693   2.056 -0.0409 -0.0927  0.4015
12989SOL    HW139492   0.454   6.642   2.033  0.1772 -0.6564  0.8657
12989SOL    HW239493   0.574   6.712   1.973 -0.2802 -0.4344  0.2018
12990SOL     OW39494   7.244   1.890   0.606  0.7664  0.1819  0.1332
12990SOL    HW139495   7.333   1.859   0.588  1.2258  0.9587  0.9874
12990SOL    HW239496   7.256   1.971   0.654 -0.4157  0.2973  0.2654
12991SOL     OW39497   1.753   5.530   3.831  0.2735  0.4132  0.1888
12991SOL    HW139498   1.706   5.475   3.768  1.4689 -0.5418  0.0923
12991SOL    HW239499   1.716   5.617   3.819 -0.7604 -0.1078 -0.5784
12992SOL     OW39500   5.379   1.900   2.265 -0.1580 -0.1605  0.0749
12992SOL    HW139501   5.469   1.910   2.237 -0.4349 -0.5895 -1.0157
12992SOL    HW239502   5.336   1.983   2.240 -0.2966 -0.3558 -0.3368
12993SOL     OW39503   4.618   4.298   1.280 -0.1096 -0.2506 -0.0705
12993SOL    HW139504   4.611   4.234   1.350 -0.0424  0.0388  0.2056
12993SOL    HW239505   4.614   4.247   1.199 -0.7482 -0.5302  0.1349
12994SOL     OW39506   1.126   4.659   3.926 -0.1040  0.4848  0.1886
12994SOL    HW139507   1.168   4.622   3.849  2.2764  2.1206  0.5691
12994SOL    HW239508   1.114   4.585   3.985 -2.1657 -0.8373 -1.7463
12995SOL     OW39509   4.805   6.271   2.618  0.3888 -0.0628  0.0636
12995SOL    HW139510   4.776   6.184   2.592  2.5169 -0.9285  0.3965
12995SOL    HW239511   4.900   6.264   2.624  0.4355  1.5606  2.7007
12996SOL     OW39512   4.455   1.592   0.234 -0.5905 -0.2406  0.4184
12996SOL    HW139513   4.385   1.631   0.287  0.2319 -0.0597  1.4087
12996SOL    HW239514   4.536   1.626   0.273  0.0713 -1.0891 -0.1889
12997SOL     OW39515   3.635   5.520   2.579  0.1174 -0.1199  0.1557
12997SOL    HW139516   3.555   5.544   2.627 -1.1645 -2.6371 -0.5366
12997SOL    HW239517   3.664   5.439   2.622  0.8859 -0.5661 -1.1634
12998SOL     OW39518   6.717   6.699   6.754  0.5040  0.0270 -0.3567
12998SOL    HW139519   6.636   6.662   6.791 -0.0020  2.4620  1.1857
12998SOL    HW239520   6.766   6.623   6.724 -0.8115 -1.8310  1.8582
12999SOL     OW39521   1.846   4.166   3.490  0.2158  0.3643 -0.3128
12999SOL    HW139522   1.795   4.192   3.413  1.0523 -0.5420 -1.2067
12999SOL    HW239523   1.933   4.147   3.456  0.8935  0.9275  1.0314
13000SOL     OW39524   7.332   7.529   2.765 -0.8967 -0.3421 -0.8456
13000SOL    HW139525   7.324   7.527   2.669 -2.6292  1.8982 -0.8240
13000SOL    HW239526   7.290   7.611   2.791 -0.9842 -1.1651  1.8994
13001SOL     OW39527   5.750   7.187   0.887 -0.0621 -0.5983  0.2995
13001SOL    HW139528   5.762   7.111   0.831  1.9012  0.2061 -0.4415
13001SOL    HW239529   5.674   7.164   0.942  0.3913 -3.0185  0.0403
13002SOL     OW39530   0.343   3.652   6.860 -0.2635  0.4059  0.3714
13002SOL    HW139531   0.382   3.579   6.811 -0.2020  0.4948  0.2871
13002SOL    HW239532   0.359   3.630   6.952 -0.2953  0.2852  0.3484
13003SOL     OW39533   1.749   7.420   2.614 -0.3255  0.6514 -0.1724
13003SOL    HW139534   1.817   7.361   2.648 -0.1290  0.7661 -0.3619
13003SOL    HW239535   1.768   7.426   2.520  0.0312  1.4933 -0.0563
13004SOL     OW39536   5.020   7.188   2.346 -0.0431  0.1867  0.8038
13004SOL    HW139537   4.950   7.128   2.322 -0.4167  0.9096  0.0559
13004SOL    HW239538   5.092   7.131   2.374  0.4247 -0.7689 -1.9842
13005SOL     OW39539   0.255   6.070   3.275 -0.3161  0.4419  0.2284
13005SOL    HW139540   0.269   6.129   3.350 -0.1619  0.7473 -0.0401
13005SOL    HW239541   0.161   6.071   3.261 -0.2444  1.2230 -0.2552
13006SOL     OW39542   3.917   2.746   2.015 -0.0848  0.1065 -0.2293
13006SOL    HW139543   3.854   2.790   2.072  0.7467  1.4540 -0.3295
13006SOL    HW239544   3.951   2.814   1.958  0.8840 -0.7551 -0.7203
13007SOL     OW39545   0.174   2.305   2.299 -0.2237  0.4932  0.0582
13007SOL    HW139546   0.156   2.211   2.302 -0.9657  0.6254  2.6404
13007SOL    HW239547   0.247   2.314   2.238 -0.7763 -1.6190 -1.0115
13008SOL     OW39548   0.086   4.788   6.627 -0.3774  0.1511  0.1015
13008SOL    HW139549   0.121   4.747   6.706  0.9993  0.8547 -0.1170
13008SOL    HW239550   0.013   4.731   6.601  0.2143 -1.0230  0.9219
13009SOL     OW39551   2.567   5.520   6.843  0.0774  0.3388 -0.6685
13009SOL    HW139552   2.518   5.596   6.874 -0.4099  0.3127 -1.3657
13009SOL    HW239553   2.611   5.486   6.921 -1.2230  0.1928  0.0109
13010SOL     OW39554   1.507   7.513   5.289  0.2422 -0.3946 -0.4118
13010SOL    HW139555   1.436   7.469   5.336  0.6823 -0.6030  0.0629
13010SOL    HW239556   1.478   7.515   5.198 -1.3957  1.5281  0.0782
13011SOL     OW39557   5.093   2.191   4.962 -0.5502  0.3205  0.1356
13011SOL    HW139558   5.007   2.172   4.999 -1.6808 -0.9338 -2.8756
13011SOL    HW239559   5.088   2.162   4.871  2.9531  0.5591 -0.2864
13012SOL     OW39560   5.103   5.032   2.989 -0.5236  0.5082  0.4035
13012SOL    HW139561   5.151   4.959   3.028 -1.3336 -0.4103 -0.2880
13012SOL    HW239562   5.170   5.084   2.945  0.0270  0.0599  0.6960
13013SOL     OW39563   0.306   3.514   1.477 -0.2673 -0.2017  0.2517
13013SOL    HW139564   0.298   3.435   1.424  0.0007 -0.4380  0.5552
13013SOL    HW239565   0.313   3.481   1.567 -0.6822  0.1897  0.4257
13014SOL     OW39566   2.512   5.763   3.789  0.0111  0.4108 -0.0687
13014SOL    HW139567   2.500   5.857   3.774  0.9132  0.3660 -1.2351
13014SOL    HW239568   2.598   5.757   3.830  1.1033 -0.0337 -2.2557
13015SOL     OW39569   2.454   0.816   6.269  0.0702 -0.6145  0.3567
13015SOL    HW139570   2.435   0.852   6.356  0.8040 -1.0800  0.7273
13015SOL    HW239571   2.516   0.878   6.230 -0.2833 -0.3893  0.1492
13016SOL     OW39572   2.106   7.382   3.009  0.3840  0.4838  0.0426
13016SOL    HW139573   2.191   7.352   2.976 -0.1595  0.3738 -1.3322
13016SOL    HW239574   2.120   7.474   3.031  0.8695  0.4626 -0.1534
13017SOL     OW39575   4.154   4.577   3.795 -0.3018 -0.4531 -0.4621
13017SOL    HW139576   4.161   4.560   3.701  0.2474 -1.6735 -0.2247
13017SOL    HW239577   4.224   4.640   3.813  0.0820 -0.7894 -0.7549
13018SOL     OW39578   5.088   2.403   2.108  0.1502  0.2139  0.1385
13018SOL    HW139579   5.140   2.387   2.187  0.2531  0.4005  0.1088
13018SOL    HW239580   5.147   2.453   2.051 -0.3660  1.1857  0.4492
13019SOL     OW39581   5.364   7.403   1.701  0.0808 -0.2917  0.3520
13019SOL    HW139582   5.290   7.358   1.742  0.5597  0.9039  2.6669
13019SOL    HW239583   5.417   7.332   1.663 -1.3650 -1.2854  0.1246
13020SOL     OW39584   6.775   5.370   5.566 -0.2645 -0.7043 -0.1265
13020SOL    HW139585   6.709   5.333   5.624 -1.3968  0.7529 -0.4184
13020SOL    HW239586   6.837   5.414   5.625  0.9208 -2.6825  0.1988
13021SOL     OW39587   3.447   5.781   6.210  0.6938 -0.0080 -0.0738
13021SOL    HW139588   3.517   5.806   6.149  0.0192 -0.1008 -0.8994
13021SOL    HW239589   3.485   5.710   6.262  0.5227 -1.5516 -1.9627
13022SOL     OW39590   1.312   7.076   5.692 -0.5250 -0.3185 -0.0847
13022SOL    HW139591   1.389   7.102   5.641 -0.3861  0.4680  0.5136
13022SOL    HW239592   1.334   7.100   5.782 -0.9282 -1.3392  0.2941
13023SOL     OW39593   3.129   2.899   0.462  0.1234  0.2958  0.2059
13023SOL    HW139594   3.097   2.814   0.431 -0.2063  0.9969 -1.4883
13023SOL    HW239595   3.055   2.958   0.450 -0.0889  0.6186  2.5908
13024SOL     OW39596   0.660   0.097   0.883 -0.3474  0.5088  0.3271
13024SOL    HW139597   0.642   0.088   0.977 -0.7980  0.1293  0.2111
13024SOL    HW239598   0.678   0.007   0.854 -0.7080  0.5572 -0.0468
13025SOL     OW39599   3.542   5.161   0.460  0.1010 -0.4378  0.1968
13025SOL    HW139600   3.497   5.145   0.543  0.5724 -2.1425  0.1495
13025SOL    HW239601   3.509   5.094   0.401  0.0759  0.5008 -0.9026
13026SOL     OW39602   0.316   0.959   3.135 -0.5761  0.3021 -0.5222
13026SOL    HW139603   0.324   0.953   3.040 -2.4329 -0.7869 -0.6700
13026SOL    HW239604   0.251   1.028   3.149 -0.2244  0.5384 -0.0282
13027SOL     OW39605   7.414   0.547   7.276 -0.1610 -0.3894  0.9276
13027SOL    HW139606   7.372   0.581   7.355 -0.0906 -1.0660  1.2578
13027SOL    HW239607   7.395   0.613   7.209 -0.6576 -0.0623  1.3821
13028SOL     OW39608   5.950   0.945   2.390 -0.5894 -0.2527 -0.7776
13028SOL    HW139609   5.981   0.863   2.429 -0.7932  0.2985  0.5991
13028SOL    HW239610   6.003   1.013   2.431 -0.9588  0.3773 -1.3173
13029SOL     OW39611   4.596   4.457   4.759  0.0351  0.0707 -0.1481
13029SOL    HW139612   4.681   4.474   4.799 -0.0468 -0.5872  0.3190
13029SOL    HW239613   4.606   4.486   4.669 -0.1875  2.8472  0.6270
13030SOL     OW39614   0.949   1.611   0.137  0.1447  0.0950 -0.1221
13030SOL    HW139615   1.007   1.686   0.127  0.0346  0.4068  1.3385
13030SOL    HW239616   0.923   1.613   0.229 -2.2393 -0.0108 -0.7438
13031SOL     OW39617   1.304   0.647   1.792  0.2636 -0.3396 -0.4693
13031SOL    HW139618   1.337   0.558   1.802  0.2621 -0.3839 -0.8242
13031SOL    HW239619   1.229   0.652   1.851  0.5413 -0.4260 -0.1068
13032SOL     OW39620   7.299   3.513   1.935  0.1856  0.5552  0.2678
13032SOL    HW139621   7.336   3.452   1.998  1.5465 -0.6547 -1.5802
13032SOL    HW239622   7.207   3.487   1.927  0.0705  0.5551  1.5122
13033SOL     OW39623   3.160   6.214   4.253  0.1787  0.1235  0.1064
13033SOL    HW139624   3.152   6.122   4.230  0.5991  0.3291 -0.8986
13033SOL    HW239625   3.177   6.214   4.347  2.7388 -0.9581 -0.2946
13034SOL     OW39626   4.359   4.621   5.078 -0.4447  0.4533 -0.3656
13034SOL    HW139627   4.340   4.532   5.049 -1.6051  0.4788  0.2748
13034SOL    HW239628   4.431   4.650   5.021  0.9965 -1.4108  0.3992
13035SOL     OW39629   4.315   6.796   2.264 -0.8502  0.2958  0.0652
13035SOL    HW139630   4.246   6.862   2.260  0.0513  1.2274 -0.7022
13035SOL    HW239631   4.382   6.827   2.202  1.0046  0.3026  1.9378
13036SOL     OW39632   5.983   7.548   6.113  0.1764 -0.1817 -0.1973
13036SOL    HW139633   6.014   7.520   6.027 -3.1031 -0.2702 -1.5043
13036SOL    HW239634   5.901   7.499   6.126 -1.0386  2.1064  1.5486
13037SOL     OW39635   2.393   3.808   6.967  0.4167 -0.2046 -0.6497
13037SOL    HW139636   2.305   3.830   6.998  0.7384  1.5756 -0.8479
13037SOL    HW239637   2.423   3.740   7.026 -0.8936 -0.4789 -0.2582
13038SOL     OW39638   2.676   1.984   0.833  0.0322 -0.9084 -0.1385
13038SOL    HW139639   2.765   1.995   0.867  0.4743 -2.4976 -0.7282
13038SOL    HW239640   2.639   1.911   0.883 -0.8069 -0.5457 -0.1968
13039SOL     OW39641   2.408   5.299   6.198 -0.6348  0.2150  0.0439
13039SOL    HW139642   2.460   5.321   6.121  0.2897 -3.0571 -0.4375
13039SOL    HW239643   2.317   5.313   6.172 -0.3449 -0.9329 -1.7216
13040SOL     OW39644   2.710   6.642   3.666 -0.3843  0.0284  0.2863
13040SOL    HW139645   2.778   6.681   3.611 -1.2234 -1.0183 -1.5846
13040SOL    HW239646   2.737   6.551   3.676  0.7174  0.5583  3.2611
13041SOL     OW39647   6.120   1.414   2.458 -0.3760  0.1175  0.4010
13041SOL    HW139648   6.069   1.369   2.525  0.0657 -0.1953  0.5322
13041SOL    HW239649   6.097   1.370   2.376 -0.4479  0.0923  0.4357
13042SOL     OW39650   7.408   1.490   2.872  0.1408  0.1925  0.8026
13042SOL    HW139651   7.370   1.569   2.835 -0.0828  0.5818  1.8189
13042SOL    HW239652   7.440   1.517   2.958 -0.0662 -0.8449  1.2265
13043SOL     OW39653   3.120   7.133   5.023  0.0955 -0.5767  0.0534
13043SOL    HW139654   3.068   7.085   4.958 -0.0528 -1.8948  1.1007
13043SOL    HW239655   3.208   7.136   4.986 -0.7150  2.1769 -2.0179
13044SOL     OW39656   5.293   2.664   6.429  0.0874  0.1909 -0.4281
13044SOL    HW139657   5.305   2.732   6.495  0.8103 -0.0623 -0.2873
13044SOL    HW239658   5.201   2.670   6.405 -0.1818  0.3144  0.5745
13045SOL     OW39659   1.414   4.047   6.133  0.4405  0.3261 -0.6479
13045SOL    HW139660   1.456   4.032   6.048  0.5163  0.1224 -0.5761
13045SOL    HW239661   1.326   4.011   6.122  0.5895 -0.0959 -0.5074
13046SOL     OW39662   2.990   4.957   1.998 -0.3729 -0.2073 -0.4575
13046SOL    HW139663   3.056   4.916   2.055  0.9445  0.3844 -1.4821
13046SOL    HW239664   2.948   5.022   2.054  2.7728  2.3047 -0.7142
13047SOL     OW39665   4.345   4.853   4.312  0.5195 -0.4296 -0.2941
13047SOL    HW139666   4.256   4.860   4.347  0.5167 -0.6624 -0.2523
13047SOL    HW239667   4.334   4.816   4.225  0.5062  0.3877 -0.6519
13048SOL     OW39668   3.742   5.329   4.680  0.0042  0.1806 -0.2266
13048SOL    HW139669   3.688   5.259   4.645 -0.6823  0.6567 -0.1523
13048SOL    HW239670   3.738   5.398   4.614  0.1423  0.3919 -0.0169
13049SOL     OW39671   2.828   3.628   2.247 -0.0510  0.0636 -0.2131
13049SOL    HW139672   2.886   3.637   2.171  0.3781 -1.1281 -0.0372
13049SOL    HW239673   2.770   3.556   2.224  0.9856 -1.2538  1.1531
13050SOL     OW39674   7.168   6.232   4.374  0.1084  0.5206 -0.1216
13050SOL    HW139675   7.129   6.176   4.307 -0.3939 -1.0148  1.3798
13050SOL    HW239676   7.261   6.208   4.374 -0.2017 -0.8178  0.9099
13051SOL     OW39677   4.980   0.756   2.374  0.1952 -0.5030 -0.6712
13051SOL    HW139678   5.006   0.710   2.295  0.8723  1.3494 -1.5799
13051SOL    HW239679   5.025   0.709   2.445 -0.0061 -1.8566 -1.4145
13052SOL     OW39680   7.166   1.456   1.754 -0.1629  0.4943 -0.1322
13052SOL    HW139681   7.098   1.390   1.767 -1.4862  2.1004  1.7220
13052SOL    HW239682   7.119   1.534   1.725  1.4612  0.5109 -3.0560
13053SOL     OW39683   6.569   1.859   1.934 -0.0213 -0.0581  0.3592
13053SOL    HW139684   6.575   1.775   1.979 -1.1741 -0.4607 -0.2073
13053SOL    HW239685   6.535   1.838   1.847  2.0805  0.7112 -0.7210
13054SOL     OW39686   0.361   6.337   4.092  0.3954 -0.0933  0.4660
13054SOL    HW139687   0.367   6.424   4.053 -1.4546  0.4254  1.2341
13054SOL    HW239688   0.413   6.343   4.172  2.6179 -0.6034 -0.8249
13055SOL     OW39689   3.077   3.617   0.913  0.0270  0.2248 -0.4420
13055SOL    HW139690   3.048   3.699   0.953 -2.1614 -0.8257  0.3281
13055SOL    HW239691   3.152   3.590   0.965 -0.5615  0.6981  0.6882
13056SOL     OW39692   0.045   4.598   5.749  0.2004  0.1004 -0.0639
13056SOL    HW139693   0.002   4.669   5.702  1.0645  0.4490 -0.3533
13056SOL    HW239694   0.076   4.539   5.680  1.4559  0.6005  0.0402
13057SOL     OW39695   1.227   6.376   4.106  0.4850 -0.2089  0.6307
13057SOL    HW139696   1.290   6.315   4.069  2.6100  1.6665  0.9768
13057SOL    HW239697   1.158   6.381   4.040  0.8202 -2.0419  0.0772
13058SOL     OW39698   0.467   0.376   1.837  0.0193  0.2888  0.2863
13058SOL    HW139699   0.496   0.322   1.763 -0.7411  0.4058 -0.1023
13058SOL    HW239700   0.392   0.329   1.873  0.7796 -0.1035  1.3955
13059SOL     OW39701   7.238   0.924   1.829  0.5887 -0.5639 -0.1133
13059SOL    HW139702   7.158   0.897   1.874  0.5501 -1.5834 -0.7688
13059SOL    HW239703   7.231   1.020   1.823 -0.2884 -0.5863  0.3729
13060SOL     OW39704   4.815   7.376   1.006 -1.0198  0.1884  0.0650
13060SOL    HW139705   4.907   7.369   1.032 -0.6166 -1.6398 -1.6198
13060SOL    HW239706   4.772   7.301   1.046 -1.8092  1.0660  0.8888
13061SOL     OW39707   6.857   3.556   0.239  0.2503 -0.0531  0.7570
13061SOL    HW139708   6.765   3.531   0.246  0.2446 -0.1408  0.4060
13061SOL    HW239709   6.856   3.651   0.230  0.2550  0.0532  1.7893
13062SOL     OW39710   6.336   5.235   6.548  0.0040 -0.3302 -0.2665
13062SOL    HW139711   6.252   5.198   6.575 -0.2462  0.0106 -0.5747
13062SOL    HW239712   6.378   5.260   6.630  0.0973 -1.1138 -0.0647
13063SOL     OW39713   7.266   2.993   2.384 -0.4258 -0.7603 -0.1627
13063SOL    HW139714   7.330   3.052   2.343  0.2192 -2.4148 -1.7064
13063SOL    HW239715   7.182   3.037   2.373  0.2114  0.6202  0.2600
13064SOL     OW39716   3.022   3.173   0.687 -0.0752 -0.4225 -0.4050
13064SOL    HW139717   2.990   3.251   0.733 -2.5730 -1.2850 -0.5459
13064SOL    HW239718   3.016   3.103   0.752  1.0260 -0.7691 -0.6464
13065SOL     OW39719   2.429   2.141   0.813 -0.1432  0.2329 -0.4345
13065SOL    HW139720   2.497   2.078   0.790 -0.4958  0.1121 -1.1962
13065SOL    HW239721   2.424   2.138   0.908 -0.4564 -1.2295 -0.4673
13066SOL     OW39722   6.839   7.519   7.349  0.2294  0.2992 -0.0171
13066SOL    HW139723   6.786   7.520   7.428 -0.2227  0.3750 -0.3194
13066SOL    HW239724   6.929   7.516   7.381  0.0342 -0.6210  0.4957
13067SOL     OW39725   1.853   4.466   7.210  0.1104  0.6605 -0.0794
13067SOL    HW139726   1.835   4.559   7.193 -1.1941  0.4371 -0.0683
13067SOL    HW239727   1.867   4.428   7.123  0.9274  0.9056 -0.0652
13068SOL     OW39728   7.454   6.475   3.095  0.0797 -0.1192  0.1145
13068SOL    HW139729   7.416   6.491   3.181 -0.3642  1.0288 -0.2651
13068SOL    HW239730   7.413   6.541   3.039  1.1785 -0.1384 -0.7426
13069SOL     OW39731   7.491   2.549   6.462  0.0281  0.2298  0.4530
13069SOL    HW139732   7.432   2.482   6.426 -0.8440  0.8616  0.6516
13069SOL    HW239733   7.476   2.626   6.407  2.2884 -0.1909 -0.8722
13070SOL     OW39734   5.995   1.589   6.227  0.1304 -0.0882  0.1435
13070SOL    HW139735   5.920   1.529   6.233  0.8755 -0.9218  2.0545
13070SOL    HW239736   5.993   1.621   6.137 -1.8343 -0.9698 -0.1930
13071SOL     OW39737   5.693   0.050   2.959  0.1347  0.4579  0.2275
13071SOL    HW139738   5.601   0.041   2.984  0.3759  0.3120  1.0960
13071SOL    HW239739   5.692   0.049   2.864 -0.5511 -2.0707  0.1691
13072SOL     OW39740   5.185   7.403   2.333 -0.6207  0.5355 -0.1383
13072SOL    HW139741   5.253   7.352   2.288 -0.9412 -0.2178  0.2228
13072SOL    HW239742   5.125   7.338   2.368 -0.9952  1.1607  0.4045
13073SOL     OW39743   5.618   5.604   5.735 -0.1007 -0.1577 -0.3534
13073SOL    HW139744   5.636   5.512   5.719 -0.3019 -0.1049 -0.9055
13073SOL    HW239745   5.551   5.605   5.803  1.8827 -0.3597  1.6909
13074SOL     OW39746   4.673   3.789   0.573 -0.0823  0.1612  0.4665
13074SOL    HW139747   4.612   3.861   0.590  0.4611  0.4426  1.2264
13074SOL    HW239748   4.684   3.746   0.657 -1.7233 -1.8960 -0.2709
13075SOL     OW39749   0.862   2.281   6.172 -0.0737  0.2651 -0.0002
13075SOL    HW139750   0.864   2.266   6.267 -4.4835  2.8477  0.8099
13075SOL    HW239751   0.909   2.364   6.161  0.5522 -0.1008 -0.1462
13076SOL     OW39752   0.520   4.220   1.045 -0.0003  0.2822  0.0827
13076SOL    HW139753   0.481   4.299   1.008 -1.4823 -0.3548  0.2471
13076SOL    HW239754   0.613   4.242   1.054 -0.3107  1.8572 -0.2460
13077SOL     OW39755   7.070   1.616   4.723 -0.2115 -0.5546  0.1804
13077SOL    HW139756   7.165   1.621   4.710 -0.1345  0.2135  0.9023
13077SOL    HW239757   7.033   1.660   4.646  0.0769  0.2449  0.4809
13078SOL     OW39758   5.004   2.454   4.681 -0.5497 -0.3241  0.0047
13078SOL    HW139759   5.024   2.504   4.760  1.3591 -0.8971 -0.0702
13078SOL    HW239760   4.915   2.423   4.694 -0.5461  0.2462  1.5717
13079SOL     OW39761   4.672   4.660   7.342 -0.3075  0.3625  0.5705
13079SOL    HW139762   4.701   4.592   7.402 -0.3023 -1.0915 -1.0001
13079SOL    HW239763   4.734   4.732   7.355  0.8412 -0.6587  0.9424
13080SOL     OW39764   6.802   2.544   4.722 -0.0994 -0.3719  0.2950
13080SOL    HW139765   6.878   2.578   4.769  0.6309 -1.1170 -0.3065
13080SOL    HW239766   6.818   2.450   4.715 -0.8293 -0.4642 -0.2804
13081SOL     OW39767   7.045   0.699   1.162  0.1065 -0.3693  0.3196
13081SOL    HW139768   6.994   0.758   1.106  1.7998  0.8338 -0.0399
13081SOL    HW239769   7.135   0.705   1.127  0.8790 -0.8927  2.1224
13082SOL     OW39770   4.946   5.484   0.576  0.6396 -0.0438  0.1680
13082SOL    HW139771   4.910   5.474   0.664  1.1727  0.6779  0.4750
13082SOL    HW239772   5.039   5.503   0.590  0.8440 -0.4469 -0.5704
13083SOL     OW39773   6.720   4.856   6.272  0.3507  0.0318  0.4037
13083SOL    HW139774   6.645   4.911   6.294  0.0545 -1.5920  4.2599
13083SOL    HW239775   6.681   4.776   6.236  0.2279 -0.3888  1.4233
13084SOL     OW39776   7.059   7.033   6.475  0.0223  0.0976  0.0656
13084SOL    HW139777   7.151   7.058   6.464  0.0658  0.6403  1.4717
13084SOL    HW239778   7.062   6.938   6.487  0.3490  0.0483 -0.3751
13085SOL     OW39779   4.717   3.859   5.405  0.1147 -0.8411  0.0420
13085SOL    HW139780   4.754   3.771   5.413 -1.7026 -1.6050  0.5268
13085SOL    HW239781   4.676   3.875   5.490  0.6487  0.6093  0.0554
13086SOL     OW39782   5.938   5.129   2.171  0.0155  0.1164 -0.6611
13086SOL    HW139783   5.880   5.061   2.203 -0.3808  0.2626 -1.0510
13086SOL    HW239784   5.881   5.189   2.124  0.5144  0.1272 -1.2713
13087SOL     OW39785   5.474   3.184   3.744  0.5966  0.3400 -0.4586
13087SOL    HW139786   5.412   3.249   3.775  0.6233  0.7694 -1.2648
13087SOL    HW239787   5.538   3.175   3.814  0.2817  0.7731 -0.1140
13088SOL     OW39788   4.826   4.931   5.019  0.0036 -0.3197  0.5679
13088SOL    HW139789   4.881   5.003   5.050  0.7253 -0.5956 -0.0562
13088SOL    HW239790   4.814   4.875   5.096 -0.7630  0.5637  1.1262
13089SOL     OW39791   6.899   2.433   1.253  0.6567  0.1162  0.1194
13089SOL    HW139792   6.902   2.337   1.255 -2.3510 -0.2006 -2.3742
13089SOL    HW239793   6.984   2.459   1.219  1.5071 -1.6596  0.7536
13090SOL     OW39794   5.369   3.535   0.602 -0.3705  0.2630  0.1389
13090SOL    HW139795   5.440   3.598   0.611 -0.5199  0.5133 -0.4082
13090SOL    HW239796   5.339   3.545   0.511 -0.7963 -0.1642  0.2286
13091SOL     OW39797   6.865   2.352   0.713  0.9923 -0.0069  0.5409
13091SOL    HW139798   6.904   2.271   0.680 -0.7738  0.1156 -2.0432
13091SOL    HW239799   6.828   2.395   0.636  2.1947  3.5194  1.7304
13092SOL     OW39800   6.027   7.221   1.918  0.0565 -0.0976 -0.4683
13092SOL    HW139801   5.942   7.239   1.878  0.0196  1.1876  0.1422
13092SOL    HW239802   6.083   7.196   1.845 -0.3433  0.9564 -1.1623
13093SOL     OW39803   3.942   2.513   2.181  0.0729  0.3364  0.0521
13093SOL    HW139804   3.975   2.589   2.133  1.2428  0.1807  0.5653
13093SOL    HW239805   3.899   2.550   2.258 -0.8132  0.5339 -0.5221
13094SOL     OW39806   7.008   6.563   5.318  0.3917  0.1557 -0.1330
13094SOL    HW139807   7.037   6.541   5.229  0.3739  0.3790 -0.1940
13094SOL    HW239808   6.918   6.531   5.322  0.9983 -1.6491  0.4516
13095SOL     OW39809   2.995   5.513   6.705 -0.0032 -0.4920 -0.2810
13095SOL    HW139810   3.002   5.476   6.793  0.3489 -0.2736 -0.2173
13095SOL    HW239811   2.943   5.449   6.656 -0.7151 -0.3288  0.2449
13096SOL     OW39812   4.974   3.324   0.050  0.2838 -0.1073  0.2378
13096SOL    HW139813   4.898   3.280   0.088  0.8309 -3.0137 -1.6897
13096SOL    HW239814   4.960   3.316  -0.045  2.0967  0.9564 -0.1470
13097SOL     OW39815   2.182   2.447   1.277  0.6143 -0.1450  0.0193
13097SOL    HW139816   2.266   2.492   1.279  0.8923 -0.6643  1.3135
13097SOL    HW239817   2.117   2.515   1.297  1.0256 -0.2432  1.9488
13098SOL     OW39818   3.911   6.305   6.890 -0.1586 -0.5307  1.2680
13098SOL    HW139819   4.005   6.293   6.887 -0.0451  0.4359 -0.8153
13098SOL    HW239820   3.891   6.319   6.983  2.0710  1.4079  1.5430
13099SOL     OW39821   3.795   0.553   5.386 -0.2686 -0.1635  0.1547
13099SOL    HW139822   3.872   0.560   5.442  1.8481 -3.0910 -2.0242
13099SOL    HW239823   3.753   0.471   5.412 -0.2372 -0.6769 -1.3200
13100SOL     OW39824   4.741   1.284   0.752 -0.1586  0.0008 -0.4204
13100SOL    HW139825   4.726   1.340   0.828 -1.9255  0.0003 -0.7142
13100SOL    HW239826   4.830   1.304   0.724  0.2845  0.5036  1.2173
13101SOL     OW39827   0.544   0.538   0.973 -0.4068  0.6033  0.5819
13101SOL    HW139828   0.553   0.633   0.979 -2.7971  0.8486  1.0948
13101SOL    HW239829   0.501   0.523   0.889  1.1979 -0.1853 -0.1472
13102SOL     OW39830   0.117   4.888   1.486 -0.3117  0.2591  0.1707
13102SOL    HW139831   0.171   4.891   1.565  2.7009 -0.9365 -1.6684
13102SOL    HW239832   0.105   4.795   1.468 -0.3522  0.4876 -1.1133
13103SOL     OW39833   0.486   3.447   6.691 -0.0859  0.0647 -0.0273
13103SOL    HW139834   0.570   3.424   6.731  1.1313  0.2434 -2.3367
13103SOL    HW239835   0.440   3.364   6.682  0.0955 -0.1171  0.6462
13104SOL     OW39836   1.416   5.309   0.895 -0.0143 -0.6378  0.1740
13104SOL    HW139837   1.338   5.363   0.903  0.3914  0.1058 -0.7089
13104SOL    HW239838   1.388   5.233   0.844 -0.8051 -1.7681  2.1586
13105SOL     OW39839   0.159   6.766   3.940 -0.5556 -0.2508  0.7437
13105SOL    HW139840   0.130   6.830   4.005 -0.5890  0.8592 -0.3477
13105SOL    HW239841   0.228   6.810   3.891  0.0678 -1.3824  0.5701
13106SOL     OW39842   2.840   6.400   0.349  0.0553  0.3101 -0.2840
13106SOL    HW139843   2.817   6.312   0.380 -3.6028  2.1283  3.1134
13106SOL    HW239844   2.790   6.410   0.268 -0.5542 -0.3458 -0.0036
13107SOL     OW39845   3.462   3.424   4.055  0.9293 -0.6835  0.3935
13107SOL    HW139846   3.463   3.514   4.023  2.0777 -0.4721  0.9875
13107SOL    HW239847   3.407   3.427   4.133 -0.8549 -0.9611 -0.7737
13108SOL     OW39848   2.981   3.809   7.496 -0.2831 -0.5163 -0.1947
13108SOL    HW139849   3.044   3.798   7.566  0.6715  0.4437 -0.8783
13108SOL    HW239850   2.942   3.895   7.511  1.8888  0.9663 -2.2843
13109SOL     OW39851   2.305   3.222   4.686  0.2311 -0.1540 -0.0739
13109SOL    HW139852   2.285   3.232   4.779  0.6665  1.0545 -0.0892
13109SOL    HW239853   2.237   3.272   4.642  0.3307 -0.2894 -0.3823
13110SOL     OW39854   5.779   6.710   2.590 -0.0901 -0.0904 -0.2491
13110SOL    HW139855   5.822   6.714   2.505 -2.1700 -1.2411 -1.4356
13110SOL    HW239856   5.735   6.794   2.600  0.6491  0.2768 -0.0002
13111SOL     OW39857   7.298   1.705   6.569  0.5726 -0.0728 -0.2188
13111SOL    HW139858   7.390   1.728   6.581  0.5383 -1.2529  4.2029
13111SOL    HW239859   7.251   1.765   6.627 -1.2586 -0.7033 -0.9927
13112SOL     OW39860   2.313   3.909   4.408  0.4469 -0.2197 -0.5738
13112SOL    HW139861   2.284   3.961   4.483  2.9517  2.0793 -1.0455
13112SOL    HW239862   2.250   3.930   4.339  0.2330  0.5781 -0.1548
13113SOL     OW39863   2.359   1.111   7.082 -0.3679  0.4890  0.6136
13113SOL    HW139864   2.433   1.169   7.101 -0.2314  0.1944  1.0138
13113SOL    HW239865   2.400   1.027   7.062 -0.4419  0.9783 -1.9705
13114SOL     OW39866   4.595   6.729   2.512 -1.0752  0.0558 -0.0175
13114SOL    HW139867   4.605   6.771   2.597 -2.1403  0.4764 -0.0863
13114SOL    HW239868   4.608   6.636   2.529 -0.1392  0.2567  0.3922
13115SOL     OW39869   4.901   0.433   1.553 -0.1055  0.4800 -0.6046
13115SOL    HW139870   4.948   0.480   1.484 -0.5963  1.5122 -0.2527
13115SOL    HW239871   4.809   0.453   1.538 -0.1607  1.4846  0.8813
13116SOL     OW39872   6.677   3.100   0.401  0.1899  0.9884  0.2431
13116SOL    HW139873   6.701   3.072   0.313 -0.4218  0.2722  0.2926
13116SOL    HW239874   6.583   3.115   0.397 -0.0280 -0.0133  1.0038
13117SOL     OW39875   2.113   4.242   5.685  0.0854  0.2625  0.2125
13117SOL    HW139876   2.158   4.160   5.701 -0.8002 -0.1161  0.8165
13117SOL    HW239877   2.124   4.258   5.591  0.9554 -0.1139  0.2422
13118SOL     OW39878   1.956   3.244   6.939  0.2138 -0.3115 -0.6713
13118SOL    HW139879   2.043   3.249   6.900  0.0289 -2.4730 -1.4802
13118SOL    HW239880   1.967   3.189   7.017 -0.2661  0.2058 -0.2262
13119SOL     OW39881   4.563   6.642   3.796  0.0186 -0.5075  0.2492
13119SOL    HW139882   4.488   6.691   3.830  0.8125  1.4293 -0.5983
13119SOL    HW239883   4.636   6.704   3.802  1.7597 -2.5605  1.7197
13120SOL     OW39884   1.074   5.285   0.449  0.5190  0.1748  0.2999
13120SOL    HW139885   1.010   5.219   0.475  0.0559  0.2957 -0.4720
13120SOL    HW239886   1.032   5.369   0.470 -0.7418  0.3645 -2.5245
13121SOL     OW39887   4.846   6.105   3.301 -0.2653  0.3773 -0.6271
13121SOL    HW139888   4.785   6.158   3.353 -0.5199 -0.7763  0.3179
13121SOL    HW239889   4.832   6.016   3.333  2.4965  0.1530  0.2144
13122SOL     OW39890   5.828   4.925   3.569  0.6213 -0.1410  0.5125
13122SOL    HW139891   5.901   4.880   3.527 -0.3465 -1.4511  0.1351
13122SOL    HW239892   5.783   4.856   3.618 -2.0299 -0.1043 -1.6103
13123SOL     OW39893   3.199   0.986   7.464  0.2045  0.4036  0.9882
13123SOL    HW139894   3.234   0.999   7.376  2.4877 -0.3392  1.7125
13123SOL    HW239895   3.232   1.060   7.514  2.1651 -1.0757  2.0344
13124SOL     OW39896   6.042   5.927   4.779  0.5029  0.0841  0.1643
13124SOL    HW139897   6.018   6.019   4.786  0.6671  0.0300  2.1545
13124SOL    HW239898   6.110   5.915   4.846 -0.2307 -1.6750  0.6461
13125SOL     OW39899   6.553   7.521   4.424 -0.4409 -0.8893 -0.1760
13125SOL    HW139900   6.557   7.598   4.480  0.1986 -0.9858 -0.0831
13125SOL    HW239901   6.459   7.507   4.410 -0.5513  0.2610 -0.6958
13126SOL     OW39902   2.304   6.731   2.419  0.6556  0.2213  0.1321
13126SOL    HW139903   2.243   6.765   2.485 -0.6908  0.7543 -1.3338
13126SOL    HW239904   2.316   6.639   2.443 -0.3785  0.2230  0.7165
13127SOL     OW39905   0.514   2.380   6.012 -0.0423  0.0240  0.3776
13127SOL    HW139906   0.561   2.314   6.063 -0.1220  0.1350  0.6016
13127SOL    HW239907   0.497   2.450   6.075 -1.2724 -0.3906  0.5409
13128SOL     OW39908   7.082   6.804   6.026  0.1278  0.1871  0.1536
13128SOL    HW139909   6.991   6.832   6.028 -0.4157 -1.4383 -0.0959
13128SOL    HW239910   7.096   6.777   5.935  0.6655 -0.1721  0.3397
13129SOL     OW39911   2.418   6.091   0.430  0.6440  0.1609 -0.4769
13129SOL    HW139912   2.362   6.096   0.352 -0.2057  0.1054  0.1197
13129SOL    HW239913   2.450   6.180   0.442 -0.8805  0.6344  0.2951
13130SOL     OW39914   4.834   0.063   0.750 -0.4113  0.1335 -0.1063
13130SOL    HW139915   4.921   0.103   0.754 -0.9793  1.7883 -2.3603
13130SOL    HW239916   4.823   0.021   0.836  2.4071  0.2292  0.4034
13131SOL     OW39917   0.042   1.145   6.288 -0.0572  0.8455 -0.8270
13131SOL    HW139918   0.013   1.064   6.245 -0.8398 -0.0780  1.3270
13131SOL    HW239919   0.006   1.215   6.234 -0.7860 -0.2478 -1.8083
13132SOL     OW39920   2.189   6.698   5.645  0.2194  0.2844 -0.0610
13132SOL    HW139921   2.255   6.636   5.675  0.6653 -0.0345 -1.5939
13132SOL    HW239922   2.145   6.653   5.573 -0.8248  0.9863  0.1132
13133SOL     OW39923   6.533   6.175   4.647 -0.1356 -0.4257  0.5199
13133SOL    HW139924   6.611   6.224   4.621  0.2839 -1.0024  0.6937
13133SOL    HW239925   6.493   6.230   4.715 -1.0586  0.9185 -1.0508
13134SOL     OW39926   4.543   0.235   0.780 -0.3739 -0.4559 -0.1304
13134SOL    HW139927   4.540   0.151   0.826  0.5758 -0.7181 -0.5247
13134SOL    HW239928   4.597   0.218   0.703 -1.0586  0.2520 -0.7835
13135SOL     OW39929   7.189   2.098   2.989 -1.0060  0.7611 -0.1344
13135SOL    HW139930   7.275   2.140   3.001  0.1404 -1.3777 -0.3926
13135SOL    HW239931   7.142   2.117   3.069  0.1364  1.0397  0.4960
13136SOL     OW39932   5.181   5.909   3.515 -0.0583  0.1375 -0.4263
13136SOL    HW139933   5.174   5.950   3.429 -2.2931 -0.0005 -0.3855
13136SOL    HW239934   5.098   5.862   3.525  0.1372  0.1858  1.8124
13137SOL     OW39935   2.488   7.094   4.419  0.4694 -0.4439 -0.0352
13137SOL    HW139936   2.425   7.051   4.477  1.5796 -0.7699  0.9746
13137SOL    HW239937   2.435   7.130   4.348 -0.7622 -1.3674  0.3805
13138SOL     OW39938   0.075   3.525   6.560 -0.0220 -0.1132 -0.0391
13138SOL    HW139939   0.096   3.454   6.620 -0.0335 -2.2228 -2.3946
13138SOL    HW239940  -0.020   3.522   6.550  0.1080 -0.8730 -1.3360
13139SOL     OW39941   2.604   6.559   2.370 -0.0485 -0.2242 -0.4140
13139SOL    HW139942   2.537   6.491   2.370 -0.5963  0.3109 -0.1134
13139SOL    HW239943   2.615   6.583   2.278 -2.5404  1.8771 -0.2669
13140SOL     OW39944   7.105   6.066   0.184 -0.3813 -1.2838 -0.0902
13140SOL    HW139945   7.109   6.148   0.134  1.3031 -1.8477 -0.9927
13140SOL    HW239946   7.189   6.062   0.230 -0.1892 -2.7482 -0.5019
13141SOL     OW39947   4.774   3.089   3.961  0.5582  1.0606 -0.0125
13141SOL    HW139948   4.790   3.171   3.915  2.7761 -0.3177 -1.8879
13141SOL    HW239949   4.705   3.046   3.910 -0.4382  1.6074  0.8353
13142SOL     OW39950   3.194   3.473   4.984 -0.0314 -0.0345 -0.1985
13142SOL    HW139951   3.151   3.436   4.907  0.6000  0.0652 -0.6041
13142SOL    HW239952   3.192   3.567   4.970  0.5258 -0.0416 -0.3282
13143SOL     OW39953   1.600   0.232   1.771 -0.0924 -0.0711  0.4304
13143SOL    HW139954   1.666   0.237   1.702 -0.6983 -0.1093 -0.1656
13143SOL    HW239955   1.622   0.153   1.821  2.4457  1.7644  2.4996
13144SOL     OW39956   0.097   5.812   0.828 -0.3352  0.4611 -0.1620
13144SOL    HW139957   0.185   5.839   0.802 -0.3101 -0.1082 -0.7052
13144SOL    HW239958   0.080   5.733   0.776 -1.2335  0.6623 -0.1946
13145SOL     OW39959   5.875   1.464   4.036  0.4523 -0.4067  0.0844
13145SOL    HW139960   5.873   1.547   4.083  1.3641 -1.0275  1.3007
13145SOL    HW239961   5.957   1.423   4.064  1.1710 -0.7106 -2.3060
13146SOL     OW39962   1.674   3.249   7.329 -0.6032 -0.5864  0.6237
13146SOL    HW139963   1.692   3.282   7.241 -0.2069  0.5383  1.0983
13146SOL    HW239964   1.641   3.325   7.377  0.2400 -0.8952  1.7410
13147SOL     OW39965   0.655   3.992   1.927 -0.6075 -0.2989  0.0161
13147SOL    HW139966   0.579   4.049   1.937 -2.2964 -2.2598 -0.9355
13147SOL    HW239967   0.662   3.947   2.011  0.6409  1.1111  0.7182
13148SOL     OW39968   2.314   1.727   6.221  0.6432 -0.3748 -0.0590
13148SOL    HW139969   2.338   1.642   6.257  1.4275 -0.1324  0.0085
13148SOL    HW239970   2.396   1.765   6.191 -0.0051 -0.7723 -2.6136
13149SOL     OW39971   4.685   1.176   6.740  0.2283  0.2378  0.2481
13149SOL    HW139972   4.709   1.179   6.833 -0.0158 -0.6535  0.3469
13149SOL    HW239973   4.690   1.267   6.711  2.8525  0.2591  0.4792
13150SOL     OW39974   5.335   5.179   4.334 -0.2264 -0.2525 -0.0756
13150SOL    HW139975   5.392   5.237   4.282 -0.5526  1.6905  1.6034
13150SOL    HW239976   5.285   5.130   4.269 -0.7101  2.1459 -1.6456
13151SOL     OW39977   3.299   1.395   4.383 -0.0779 -0.1012 -0.0595
13151SOL    HW139978   3.308   1.455   4.309 -0.5796 -0.6047 -0.5434
13151SOL    HW239979   3.384   1.398   4.426 -0.3310  1.5236  0.3819
13152SOL     OW39980   2.974   0.909   7.058  0.3035 -0.3159 -0.7272
13152SOL    HW139981   2.910   0.978   7.074  0.1525 -0.4734 -0.6542
13152SOL    HW239982   2.988   0.869   7.143 -0.9463 -1.5480 -1.0599
13153SOL     OW39983   5.576   6.066   2.509  0.3696  0.1688 -0.2266
13153SOL    HW139984   5.656   6.103   2.472  0.2411  1.3238  0.5859
13153SOL    HW239985   5.532   6.141   2.550 -0.9353 -0.5173 -0.3191
13154SOL     OW39986   1.781   1.485   0.758 -0.3326 -0.2674 -0.1131
13154SOL    HW139987   1.810   1.572   0.733  0.5456 -0.5092  0.0269
13154SOL    HW239988   1.690   1.496   0.785  0.1340  0.8489  1.1250
13155SOL     OW39989   4.948   1.316   3.550  0.5056  0.1325  0.5536
13155SOL    HW139990   4.943   1.286   3.641 -1.0702  0.7248  0.6962
13155SOL    HW239991   4.866   1.285   3.510 -0.0435  2.1092  0.0485
13156SOL     OW39992   4.457   3.332   1.581 -0.5072 -0.2351 -0.6032
13156SOL    HW139993   4.443   3.402   1.645  0.7610  1.3733 -1.9985
13156SOL    HW239994   4.528   3.279   1.618  0.5705  0.9828 -0.8572
13157SOL     OW39995   1.589   6.009   4.085 -0.8228  0.0693  0.0402
13157SOL    HW139996   1.663   6.064   4.113 -0.7658 -0.0274  0.0803
13157SOL    HW239997   1.589   6.015   3.990 -0.1123 -0.7720 -0.0228
13158SOL     OW39998   3.509   2.092   3.452  0.7154 -0.2808  0.4533
13158SOL    HW139999   3.585   2.034   3.444 -0.4584 -1.6890 -1.7497
13158SOL    HW240000   3.456   2.053   3.521  0.3445 -1.4293 -0.4383
13159SOL     OW40001   6.960   6.247   4.978  0.3825 -0.6181  0.4955
13159SOL    HW140002   6.866   6.264   4.972  0.7873  1.3629 -1.6343
13159SOL    HW240003   6.968   6.180   5.046 -2.3856  0.5397  2.1210
13160SOL     OW40004   3.933   5.775   5.735  0.1194  0.3871 -0.3272
13160SOL    HW140005   3.885   5.768   5.652  0.4893  0.3039 -0.5348
13160SOL    HW240006   3.865   5.793   5.800 -0.1751  0.4427 -0.6461
13161SOL     OW40007   0.591   5.713   4.747 -0.8234  0.0641 -0.0845
13161SOL    HW140008   0.525   5.775   4.715  0.0540  1.3411  0.5040
13161SOL    HW240009   0.674   5.761   4.741 -0.0380 -1.2518 -0.1042
13162SOL     OW40010   5.595   5.980   5.888 -0.1004  0.1774 -0.7042
13162SOL    HW140011   5.516   6.017   5.849 -0.2070  0.7950  0.0784
13162SOL    HW240012   5.620   5.909   5.828 -0.3906  0.9383 -1.7687
13163SOL     OW40013   4.497   1.214   6.406 -0.1457 -0.3814  0.4150
13163SOL    HW140014   4.513   1.207   6.312  0.5650  1.1316  0.3888
13163SOL    HW240015   4.543   1.139   6.444 -1.2544 -1.5542 -0.4990
13164SOL     OW40016   3.594   2.798   1.291  0.1989 -0.2037  0.1645
13164SOL    HW140017   3.682   2.765   1.311  0.0503 -0.8983 -0.2952
13164SOL    HW240018   3.589   2.881   1.338  0.7237 -0.6466  1.0444
13165SOL     OW40019   7.412   2.520   0.098  0.0725 -0.5224 -0.0913
13165SOL    HW140020   7.451   2.574   0.166  1.4850 -0.4143 -0.9380
13165SOL    HW240021   7.355   2.579   0.050 -1.7353 -0.8420  1.5790
13166SOL     OW40022   6.077   6.140   0.004 -0.3457 -0.2076  0.0768
13166SOL    HW140023   6.082   6.184   0.089 -2.4746 -1.5280  0.9619
13166SOL    HW240024   6.166   6.108  -0.011 -0.1159 -0.8346  2.3411
13167SOL     OW40025   1.668   2.810   4.161 -0.1416 -0.4446  0.2153
13167SOL    HW140026   1.653   2.891   4.209  0.0591  0.0502 -0.5337
13167SOL    HW240027   1.763   2.801   4.159 -0.1480 -0.4465 -0.1061
13168SOL     OW40028   0.876   5.048   5.926  0.2281 -0.0650 -0.3859
13168SOL    HW140029   0.858   5.135   5.891  2.9023  0.5855 -0.3017
13168SOL    HW240030   0.878   4.991   5.849  3.3392  0.8779 -1.1162
13169SOL     OW40031   2.801   0.992   1.223 -0.1785 -0.3866  0.3636
13169SOL    HW140032   2.789   0.973   1.130 -0.7073  1.4263  0.0066
13169SOL    HW240033   2.850   0.918   1.258 -0.3028 -1.2744 -1.2804
13170SOL     OW40034   5.638   1.788   4.516  0.3217  0.3637 -0.1843
13170SOL    HW140035   5.632   1.695   4.535 -3.2176 -0.0471 -2.4378
13170SOL    HW240036   5.622   1.831   4.600  0.7922 -1.0195  0.6515
13171SOL     OW40037   1.702   5.941   2.809 -0.3903 -0.0380  0.0783
13171SOL    HW140038   1.746   6.024   2.791  1.0067 -0.5241  1.0880
13171SOL    HW240039   1.655   5.920   2.728  0.0462  1.2403 -0.5183
13172SOL     OW40040   4.576   6.890   7.239  0.1633 -0.1893  0.7276
13172SOL    HW140041   4.619   6.969   7.272  0.6559 -0.1897  0.1175
13172SOL    HW240042   4.525   6.920   7.164  1.5216 -0.6578 -0.4313
13173SOL     OW40043   3.727   4.991   2.055  0.1279 -0.0976 -0.4397
13173SOL    HW140044   3.661   4.955   1.996  0.6878 -1.3753 -0.3161
13173SOL    HW240045   3.803   5.005   1.999 -0.1766  1.2145 -0.5471
13174SOL     OW40046   1.311   5.651   4.331  0.0797  0.8409  0.6861
13174SOL    HW140047   1.344   5.574   4.286  0.0012  1.7177 -0.9685
13174SOL    HW240048   1.371   5.664   4.404  0.1458 -0.7092  0.9344
13175SOL     OW40049   1.012   2.993   5.419  0.2294 -0.2945  0.3457
13175SOL    HW140050   0.988   3.056   5.487 -1.9723 -1.1581  0.4255
13175SOL    HW240051   0.960   3.019   5.343  1.4942 -0.2949 -0.5560
13176SOL     OW40052   0.163   2.747   1.311 -0.0508 -0.3664  0.1659
13176SOL    HW140053   0.238   2.726   1.367 -1.2943 -0.2444  1.9818
13176SOL    HW240054   0.128   2.662   1.284 -1.3773 -0.6096  2.3724
13177SOL     OW40055   0.098   7.403   1.048  0.4876 -0.2610  0.5896
13177SOL    HW140056   0.085   7.308   1.058 -0.0332 -0.3809 -0.9094
13177SOL    HW240057   0.036   7.428   0.980 -1.4980  1.7460  2.9831
13178SOL     OW40058   0.933   2.702   2.595 -0.0313  0.3202 -0.1170
13178SOL    HW140059   0.886   2.718   2.513 -0.9896  0.1579  0.3908
13178SOL    HW240060   0.975   2.786   2.616  0.4517  0.2876 -0.9057
13179SOL     OW40061   4.484   6.247   1.015  0.3199  0.2997  0.1460
13179SOL    HW140062   4.506   6.154   1.024  1.2186  0.4644 -0.1971
13179SOL    HW240063   4.426   6.266   1.088  0.4495 -0.4397  0.4429
13180SOL     OW40064   0.052   5.087   7.402  0.0932  0.3887 -0.3692
13180SOL    HW140065  -0.035   5.092   7.442  0.1876 -1.6657  0.2305
13180SOL    HW240066   0.086   5.001   7.429  2.4815  1.2934 -0.2442
13181SOL     OW40067   5.311   6.387   0.274 -0.5452 -0.5200  0.0565
13181SOL    HW140068   5.365   6.313   0.244  0.1059 -0.4751  1.0667
13181SOL    HW240069   5.371   6.461   0.274 -1.2007  0.0262 -0.9558
13182SOL     OW40070   1.067   6.592   5.847 -0.0209 -0.3276 -0.1324
13182SOL    HW140071   1.022   6.602   5.763 -1.1628 -0.7908  0.4063
13182SOL    HW240072   1.160   6.594   5.825 -0.2964 -1.8165 -1.5769
13183SOL     OW40073   6.140   5.018   0.004 -0.3861  0.0814 -0.5066
13183SOL    HW140074   6.146   4.927  -0.024 -1.5186  0.1009 -0.8493
13183SOL    HW240075   6.056   5.024   0.051  0.1357  0.7174  0.3794
13184SOL     OW40076   3.326   4.377   4.119 -0.0917  0.5443  0.1768
13184SOL    HW140077   3.304   4.311   4.054  0.7269 -1.5506  1.8923
13184SOL    HW240078   3.267   4.359   4.192 -0.6752  2.5247  0.2408
13185SOL     OW40079   7.474   7.269   5.944 -0.3077  0.1534  0.2685
13185SOL    HW140080   7.463   7.286   5.850  0.0123  1.0034  0.3751
13185SOL    HW240081   7.552   7.214   5.950 -1.0726 -1.0013 -0.0499
13186SOL     OW40082   3.001   6.068   4.800 -0.8086 -0.1977  0.2318
13186SOL    HW140083   2.910   6.096   4.800 -1.4370 -2.0648 -0.6417
13186SOL    HW240084   2.997   5.973   4.810  0.9596 -0.5136 -1.4691
13187SOL     OW40085   6.549   4.807   1.413 -0.1623  0.3571 -0.3690
13187SOL    HW140086   6.462   4.831   1.445 -0.9901  0.2783 -2.4369
13187SOL    HW240087   6.533   4.733   1.354  1.2429  0.6546 -1.1600
13188SOL     OW40088   7.316   0.695   2.648  0.1936  0.4499 -0.4503
13188SOL    HW140089   7.332   0.610   2.608  2.6873  0.3238  0.6441
13188SOL    HW240090   7.275   0.748   2.579 -0.4160 -1.2854 -1.4655
13189SOL     OW40091   5.742   6.544   6.721 -0.0449 -0.3020 -0.0462
13189SOL    HW140092   5.659   6.591   6.714 -1.2436 -2.4696 -2.0373
13189SOL    HW240093   5.726   6.477   6.787 -0.0391 -0.9986 -0.7439
13190SOL     OW40094   1.883   7.089   7.321 -0.1583  0.5228  0.4481
13190SOL    HW140095   1.824   7.110   7.249 -0.0199  1.3301  0.5599
13190SOL    HW240096   1.958   7.147   7.308 -0.4730  1.2467  1.6699
13191SOL     OW40097   0.029   0.682   5.987 -0.6400  0.4490 -0.5393
13191SOL    HW140098   0.115   0.642   5.997 -1.6375 -1.5215  0.8536
13191SOL    HW240099   0.028   0.715   5.897  1.4739  0.3698 -0.6492
13192SOL     OW40100   3.598   2.563   3.470 -1.0180  0.2556  0.1451
13192SOL    HW140101   3.541   2.499   3.428 -0.4929 -0.0079 -0.1815
13192SOL    HW240102   3.678   2.561   3.417  0.0098 -0.7374  1.6621
13193SOL     OW40103   2.919   0.357   1.965  0.3773  0.6825 -0.1905
13193SOL    HW140104   2.894   0.449   1.961  2.0707  1.1664 -0.7485
13193SOL    HW240105   3.001   0.357   2.015  0.8406 -0.4169 -0.9039
13194SOL     OW40106   0.926   6.822   3.441 -0.6561 -0.0953 -0.4153
13194SOL    HW140107   0.888   6.831   3.354 -0.9688 -1.7065 -0.4678
13194SOL    HW240108   0.993   6.754   3.432  2.5043  2.7576 -0.3648
13195SOL     OW40109   3.115   4.316   4.738 -0.3724 -0.5223 -0.4251
13195SOL    HW140110   3.065   4.258   4.681  1.0670 -2.7890  0.4977
13195SOL    HW240111   3.206   4.299   4.715  0.1613 -0.1903  1.3362
13196SOL     OW40112   7.049   7.307   1.150  0.0425  0.4703 -0.1291
13196SOL    HW140113   7.062   7.262   1.234  0.4501  2.2415  0.8132
13196SOL    HW240114   7.104   7.385   1.157 -0.7299  1.1807 -1.6384
13197SOL     OW40115   6.873   4.914   3.754 -0.6156 -0.8185  0.5978
13197SOL    HW140116   6.834   4.968   3.686 -0.4288 -0.5579  0.6983
13197SOL    HW240117   6.826   4.938   3.834  0.7763  0.6262  1.0269
13198SOL     OW40118   5.679   3.039   1.187 -0.2566 -0.1664  0.4646
13198SOL    HW140119   5.731   3.106   1.231  0.8369 -0.8226  0.1851
13198SOL    HW240120   5.588   3.060   1.212  0.1394  0.8714  1.1052
13199SOL     OW40121   1.810   5.675   2.646  0.0090  0.5174 -0.3002
13199SOL    HW140122   1.827   5.585   2.672 -0.5339  0.1750 -1.0627
13199SOL    HW240123   1.718   5.690   2.669  0.6003  1.5373  1.5858
13200SOL     OW40124   6.964   0.279   0.596 -0.6094  0.7945  0.1340
13200SOL    HW140125   7.026   0.317   0.533  1.2735  0.3520  1.6335
13200SOL    HW240126   7.007   0.199   0.627 -1.9179  0.5005  1.2791
13201SOL     OW40127   5.235   0.912   3.333 -0.3305 -0.6263 -0.5045
13201SOL    HW140128   5.296   0.843   3.306 -2.1354 -2.3140 -0.5265
13201SOL    HW240129   5.282   0.993   3.316  2.7671 -1.8045  1.5309
13202SOL     OW40130   7.261   2.117   4.099  0.1998 -0.2952 -0.1611
13202SOL    HW140131   7.201   2.191   4.116  0.5389  0.1107 -0.6948
13202SOL    HW240132   7.211   2.059   4.041 -0.0735 -0.4947  0.2702
13203SOL     OW40133   0.505   6.758   2.884  0.1206  0.1087  0.2896
13203SOL    HW140134   0.548   6.842   2.895 -0.3336  0.3367  0.3384
13203SOL    HW240135   0.504   6.744   2.789 -0.8213  0.7015  0.1975
13204SOL     OW40136   0.822   6.830   6.019 -0.5311  0.2534 -0.7832
13204SOL    HW140137   0.748   6.770   6.027 -1.7252  1.7393 -0.0218
13204SOL    HW240138   0.889   6.794   6.076 -2.2895  1.0779  2.0120
13205SOL     OW40139   4.794   5.631   6.437 -0.2470  0.1880  0.8321
13205SOL    HW140140   4.836   5.593   6.361  1.2184 -0.3943  1.8861
13205SOL    HW240141   4.755   5.713   6.405 -0.2213 -0.3590 -0.6467
13206SOL     OW40142   3.253   2.079   1.765  0.2766 -0.0402  0.5074
13206SOL    HW140143   3.347   2.065   1.769  0.5240  1.6379  2.0370
13206SOL    HW240144   3.218   2.037   1.843 -0.0134  0.6879  0.7849
13207SOL     OW40145   6.650   3.255   6.958  0.1298 -0.0633  0.1203
13207SOL    HW140146   6.602   3.248   7.041  1.1143 -0.5749  0.6727
13207SOL    HW240147   6.708   3.180   6.958 -0.4438 -0.5426 -1.4588
13208SOL     OW40148   7.310   3.424   2.817  0.7630 -0.3444 -0.4075
13208SOL    HW140149   7.237   3.474   2.854  1.3603  1.0644 -1.0389
13208SOL    HW240150   7.297   3.335   2.848 -0.0438  0.3064  1.2424
13209SOL     OW40151   4.480   5.072   2.874  0.3587 -0.6562 -0.4464
13209SOL    HW140152   4.561   5.069   2.822  0.8117  2.3528 -0.0890
13209SOL    HW240153   4.473   4.984   2.911  4.7512 -0.5823  1.2991
13210SOL     OW40154   1.291   0.534   5.022 -0.7693  1.0161 -0.2727
13210SOL    HW140155   1.227   0.469   5.050  1.6453 -1.8142 -0.9039
13210SOL    HW240156   1.272   0.548   4.929 -2.1797  2.4433  0.1684
13211SOL     OW40157   4.100   0.722   1.357 -0.4130 -0.4496  0.0899
13211SOL    HW140158   4.075   0.761   1.441 -1.4356 -0.1971 -0.3152
13211SOL    HW240159   4.018   0.690   1.321  0.2912 -2.2444  0.0202
13212SOL     OW40160   6.168   0.380   2.329 -0.2162  0.6855  0.0206
13212SOL    HW140161   6.257   0.359   2.358 -0.6038 -0.0043  0.7686
13212SOL    HW240162   6.112   0.340   2.396 -1.1293 -0.2048 -1.2305
13213SOL     OW40163   3.342   1.508   2.601  0.2707  0.2224 -0.2707
13213SOL    HW140164   3.326   1.519   2.507  1.4461  0.9491 -0.4129
13213SOL    HW240165   3.255   1.503   2.640 -0.2823  1.8224 -1.2053
13214SOL     OW40166   5.192   3.767   7.546  0.1441  0.0504  0.2073
13214SOL    HW140167   5.117   3.707   7.549 -0.7163  0.9195 -1.9805
13214SOL    HW240168   5.238   3.751   7.629 -2.6862 -0.1807  1.8865
13215SOL     OW40169   0.163   5.114   4.882 -0.0055  0.2486 -0.2765
13215SOL    HW140170   0.128   5.054   4.815 -1.9818  1.2340 -0.1977
13215SOL    HW240171   0.256   5.091   4.888 -0.3954 -1.8864 -1.2090
13216SOL     OW40172   4.561   1.679   4.841 -0.2206 -0.0465  0.0656
13216SOL    HW140173   4.489   1.742   4.838 -0.8283 -0.7074  0.5274
13216SOL    HW240174   4.601   1.685   4.754 -1.6015 -0.5521 -0.6211
13217SOL     OW40175   5.777   6.401   4.570 -0.2108 -0.0423 -0.5065
13217SOL    HW140176   5.725   6.337   4.618 -0.5662  0.2060 -0.5587
13217SOL    HW240177   5.746   6.486   4.600 -1.0871  0.1360 -1.8443
13218SOL     OW40178   3.181   3.387   2.451 -0.6119  0.8604 -0.1888
13218SOL    HW140179   3.221   3.377   2.365  1.4302 -1.7278  0.9070
13218SOL    HW240180   3.101   3.438   2.435 -0.7451 -0.1908 -3.7128
13219SOL     OW40181   1.256   3.946   3.343  0.0330  0.0567  0.1060
13219SOL    HW140182   1.213   4.021   3.301  0.4199 -0.5076 -1.3695
13219SOL    HW240183   1.298   3.983   3.420 -2.7616  0.6821  1.4382
13220SOL     OW40184   7.017   7.513   6.601 -0.5178  0.2354  0.5532
13220SOL    HW140185   6.929   7.480   6.583 -0.4981 -0.1202  1.0915
13220SOL    HW240186   7.063   7.439   6.641  0.2529  0.1771 -0.3803
13221SOL     OW40187   6.402   6.971   7.024 -0.0777  0.0995 -0.4316
13221SOL    HW140188   6.477   6.937   6.976  0.3896 -0.0058  0.3547
13221SOL    HW240189   6.328   6.964   6.963 -0.5101 -4.2221  0.2878
13222SOL     OW40190   3.685   1.902   3.404  0.1439  0.0589 -0.1267
13222SOL    HW140191   3.723   1.922   3.319  0.8065 -0.0943  0.1335
13222SOL    HW240192   3.714   1.813   3.424  0.6681  0.3937  0.6300
13223SOL     OW40193   6.798   3.448   0.609 -0.1760 -0.5330 -0.0002
13223SOL    HW140194   6.824   3.356   0.613 -0.7313 -0.6543  1.5504
13223SOL    HW240195   6.702   3.445   0.611 -0.2617  0.0339 -1.8555
13224SOL     OW40196   6.330   6.914   7.357  0.1081 -0.3848  0.5287
13224SOL    HW140197   6.398   6.854   7.386  0.7203 -0.7009 -1.4099
13224SOL    HW240198   6.372   7.000   7.357 -0.3397 -0.1438  1.9288
13225SOL     OW40199   2.633   3.028   0.858  0.4692 -0.2599 -0.6218
13225SOL    HW140200   2.606   3.065   0.773  0.9167  2.4439  0.3270
13225SOL    HW240201   2.574   3.069   0.921  0.4709 -1.8722  0.4676
13226SOL     OW40202   5.747   1.204   1.877  0.5425  0.1825 -0.0913
13226SOL    HW140203   5.777   1.174   1.963  0.1440 -0.4459 -0.1690
13226SOL    HW240204   5.682   1.139   1.850  2.0501 -0.7170 -1.7288
13227SOL     OW40205   1.466   1.831   3.921 -0.5191 -0.0802  0.3644
13227SOL    HW140206   1.428   1.774   3.854 -1.0065 -1.1496  1.5105
13227SOL    HW240207   1.395   1.892   3.942  0.2745  1.5791 -1.4726
13228SOL     OW40208   4.185   6.396   3.181  1.0911 -0.0018 -0.2278
13228SOL    HW140209   4.271   6.378   3.219  0.4533  0.9956  1.8289
13228SOL    HW240210   4.202   6.461   3.112  2.0116 -0.1202 -0.1241
13229SOL     OW40211   7.054   4.570   0.684  0.1419 -0.0160  0.0363
13229SOL    HW140212   7.117   4.507   0.720  0.3145 -0.0307 -0.2895
13229SOL    HW240213   6.969   4.541   0.716  0.3587  0.3392  0.9761
13230SOL     OW40214   3.598   0.830   5.894 -0.0495  0.4965  0.0126
13230SOL    HW140215   3.566   0.861   5.810 -2.1039 -0.3912  0.4141
13230SOL    HW240216   3.579   0.736   5.894  0.3272  0.3981  1.2811
13231SOL     OW40217   5.217   4.352   7.410  0.2986 -0.2302 -0.1858
13231SOL    HW140218   5.245   4.273   7.364 -1.2930 -0.9931  0.0951
13231SOL    HW240219   5.126   4.334   7.435 -0.1626  1.7717 -0.3004
13232SOL     OW40220   6.421   0.953   6.844  0.4070 -0.5461  0.4692
13232SOL    HW140221   6.406   1.047   6.849 -0.1830 -0.6801  1.4529
13232SOL    HW240222   6.377   0.925   6.764  1.3286  0.1386 -0.2965
13233SOL     OW40223   4.983   4.599   4.595  0.0637  0.1364  0.6403
13233SOL    HW140224   4.942   4.686   4.585  0.2719  0.1558 -0.1745
13233SOL    HW240225   5.015   4.597   4.685  1.0909  1.3696  0.3286
13234SOL     OW40226   0.022   0.314   5.936  0.0319  0.3109 -0.4242
13234SOL    HW140227  -0.051   0.363   5.898  0.0896  1.1179  0.4797
13234SOL    HW240228  -0.016   0.229   5.959 -0.6636  0.7729  0.1679
13235SOL     OW40229   1.799   0.958   3.858  0.3124 -0.2015  0.2029
13235SOL    HW140230   1.719   0.988   3.815 -1.3742 -2.3271  1.6359
13235SOL    HW240231   1.786   0.979   3.951  1.3449 -0.6860  0.4761
13236SOL     OW40232   1.122   6.907   7.054 -0.0567 -0.4087  0.2613
13236SOL    HW140233   1.171   6.832   7.019  0.1210  0.2363 -0.9033
13236SOL    HW240234   1.052   6.867   7.107 -0.8863 -1.4564 -1.5443
13237SOL     OW40235   4.846   3.785   5.015 -0.3802 -0.7089  0.3657
13237SOL    HW140236   4.758   3.762   4.984 -0.2020 -3.6494  1.7520
13237SOL    HW240237   4.895   3.703   5.012  2.1720  0.7184  0.2729
13238SOL     OW40238   6.521   5.294   7.104 -0.0474 -0.5962 -0.0043
13238SOL    HW140239   6.602   5.326   7.145  0.3911 -1.3143 -0.2901
13238SOL    HW240240   6.549   5.263   7.018 -0.6456 -0.7958 -0.1295
13239SOL     OW40241   6.006   0.528   3.980 -0.1785 -0.7156  0.2149
13239SOL    HW140242   5.978   0.612   3.944 -0.7466 -0.8848  0.2524
13239SOL    HW240243   5.995   0.537   4.075 -0.9197 -1.0654  0.1726
13240SOL     OW40244   6.517   7.511   2.259 -0.0293 -0.3842  0.3611
13240SOL    HW140245   6.545   7.602   2.247 -0.4526 -0.3464 -0.3965
13240SOL    HW240246   6.595   7.467   2.294  0.2510  0.2160  0.5099
13241SOL     OW40247   5.986   0.323   2.802 -0.0040 -0.8652  0.0709
13241SOL    HW140248   6.043   0.254   2.837 -0.7533 -0.4491  2.2610
13241SOL    HW240249   5.900   0.305   2.840 -1.2136 -0.9568 -2.4680
13242SOL     OW40250   2.451   0.386   3.352  0.1742 -0.4183  0.2925
13242SOL    HW140251   2.424   0.434   3.431  0.8775 -0.5167  0.5954
13242SOL    HW240252   2.382   0.320   3.340 -0.2640  0.0077  0.4614
13243SOL     OW40253   6.003   3.627   0.302  0.3924 -0.5521 -0.3500
13243SOL    HW140254   6.062   3.552   0.304  1.1574  0.0543  1.6931
13243SOL    HW240255   5.917   3.591   0.322  0.7194 -0.9065  0.4280
13244SOL     OW40256   4.183   1.195   0.832  0.1886  0.7459  0.3685
13244SOL    HW140257   4.098   1.162   0.803  0.4600 -0.4479  0.8527
13244SOL    HW240258   4.214   1.251   0.761  0.5166 -1.5041 -1.3548
13245SOL     OW40259   5.654   1.411   6.678 -0.2924 -0.4497  0.0485
13245SOL    HW140260   5.626   1.337   6.731  0.8850 -0.8585  0.1247
13245SOL    HW240261   5.577   1.467   6.671 -1.0582 -1.4575  0.3705
13246SOL     OW40262   5.163   2.832   5.715 -0.0911 -0.5045 -0.2386
13246SOL    HW140263   5.230   2.834   5.783  0.2550 -1.8033 -0.5220
13246SOL    HW240264   5.165   2.919   5.677  2.1590 -0.8061 -0.9243
13247SOL     OW40265   3.849   6.376   5.496  0.0137  0.7732 -0.2387
13247SOL    HW140266   3.793   6.347   5.424 -0.1145  1.1168 -0.2789
13247SOL    HW240267   3.787   6.402   5.565  0.1128 -1.3473  0.7561
13248SOL     OW40268   2.659   6.758   1.141  0.6629  0.5209 -0.0739
13248SOL    HW140269   2.700   6.769   1.056 -0.4037 -0.2433 -0.7130
13248SOL    HW240270   2.731   6.764   1.204  2.1348 -2.6990 -1.2183
13249SOL     OW40271   0.080   5.219   6.202  0.2376  0.6984 -0.4744
13249SOL    HW140272   0.091   5.230   6.108 -2.1011  1.5829 -0.7046
13249SOL    HW240273   0.106   5.303   6.240  1.8226  0.1289 -0.2149
13250SOL     OW40274   3.281   0.057   2.441  0.2506 -0.7355  0.3801
13250SOL    HW140275   3.217   0.062   2.371 -0.1769  1.1980  0.8521
13250SOL    HW240276   3.229   0.049   2.521  0.7299 -2.7904  0.5540
13251SOL     OW40277   6.188   1.933   6.997  0.1705 -0.3477 -0.4513
13251SOL    HW140278   6.180   1.857   7.055  0.6749  0.6015  0.8902
13251SOL    HW240279   6.239   1.997   7.047  1.6603  0.0805 -2.3654
13252SOL     OW40280   4.616   6.825   2.775 -0.7395  0.0531 -0.1831
13252SOL    HW140281   4.595   6.750   2.831 -1.1289 -0.2627 -0.7465
13252SOL    HW240282   4.649   6.891   2.836  0.1094 -0.7572  0.2539
13253SOL     OW40283   2.962   4.863   5.715 -0.0580 -0.0223 -0.2024
13253SOL    HW140284   2.898   4.857   5.786  0.8814 -0.1717  0.6399
13253SOL    HW240285   3.002   4.777   5.711  0.5208  0.2505 -0.3220
13254SOL     OW40286   5.817   6.566   4.103 -0.3910 -0.2670 -0.3936
13254SOL    HW140287   5.846   6.501   4.167 -0.6568 -0.1171 -0.1221
13254SOL    HW240288   5.898   6.592   4.059 -0.1597 -0.1401  0.0950
13255SOL     OW40289   6.748   4.988   3.387 -0.3186 -0.0339  0.5917
13255SOL    HW140290   6.772   5.047   3.459 -0.5547  0.1309  0.5379
13255SOL    HW240291   6.652   4.994   3.383 -0.3941 -0.9275  1.0121
13256SOL     OW40292   7.380   0.621   6.985  0.2284 -0.2914 -0.4639
13256SOL    HW140293   7.365   0.571   6.905  1.9260 -0.9569 -0.3912
13256SOL    HW240294   7.461   0.586   7.021 -1.1571 -0.9437  2.2928
13257SOL     OW40295   1.089   5.278   1.991  0.2452  0.6007  0.2327
13257SOL    HW140296   1.140   5.224   1.930  1.7566  1.2687  0.8513
13257SOL    HW240297   1.137   5.273   2.073 -1.3092  0.4075  1.1607
13258SOL     OW40298   2.601   4.988   0.461  0.0205 -0.1605 -0.7136
13258SOL    HW140299   2.643   5.074   0.454  1.0303 -0.6200 -0.5063
13258SOL    HW240300   2.583   4.963   0.370 -0.1463  0.1981 -0.7823
13259SOL     OW40301   0.303   6.563   4.390  0.1009  0.2809 -0.6203
13259SOL    HW140302   0.350   6.644   4.372 -1.5111  1.2883 -0.5314
13259SOL    HW240303   0.217   6.576   4.352  0.0206 -1.7109 -1.2529
13260SOL     OW40304   7.407   0.320   4.680 -0.3606  0.1521  0.2821
13260SOL    HW140305   7.311   0.328   4.681 -0.4290 -0.6213  0.8045
13260SOL    HW240306   7.438   0.410   4.689 -0.9887  0.8111 -3.0030
13261SOL     OW40307   6.614   4.273   1.938  0.1196  0.6675 -0.5384
13261SOL    HW140308   6.553   4.199   1.935 -0.1715  0.8822  0.0956
13261SOL    HW240309   6.569   4.340   1.989  1.5653  0.1867  1.5096
13262SOL     OW40310   6.759   0.254   5.666 -0.1310 -0.9870 -0.7439
13262SOL    HW140311   6.667   0.257   5.641  0.3721 -1.2460 -2.8301
13262SOL    HW240312   6.803   0.210   5.592  2.1512  2.0631 -1.3957
13263SOL     OW40313   7.073   4.807   0.128 -0.2786 -0.0080 -0.7628
13263SOL    HW140314   7.000   4.754   0.096  1.5810 -0.7816 -4.1466
13263SOL    HW240315   7.107   4.757   0.203 -0.5690 -1.9623 -1.8741
13264SOL     OW40316   6.640   0.580   4.825 -0.0203  0.3707  0.5772
13264SOL    HW140317   6.615   0.593   4.734 -0.0506 -1.6907  0.2284
13264SOL    HW240318   6.560   0.548   4.868  0.3011  0.1554  1.0286
13265SOL     OW40319   5.929   2.938   3.193 -0.3881 -0.2575  0.1567
13265SOL    HW140320   5.918   2.859   3.138 -0.0356  0.4268 -0.9292
13265SOL    HW240321   5.956   2.904   3.278  1.6689 -1.2609 -0.8125
13266SOL     OW40322   3.203   5.061   1.186 -0.4935  0.7822  0.0194
13266SOL    HW140323   3.273   5.054   1.251 -0.2196  1.8248 -0.1361
13266SOL    HW240324   3.191   4.972   1.153  0.6697  0.5630  0.1428
13267SOL     OW40325   5.045   6.281   1.549 -0.1365  0.4658  0.1307
13267SOL    HW140326   5.114   6.329   1.502  0.0734  1.2136  1.1617
13267SOL    HW240327   4.964   6.305   1.504  0.0764  1.0374  0.0400
13268SOL     OW40328   2.035   4.717   3.706 -0.5484  0.0937 -0.4028
13268SOL    HW140329   2.050   4.800   3.661 -2.0803 -1.1565 -3.4967
13268SOL    HW240330   1.975   4.669   3.649  0.3209 -3.1910  1.2097
13269SOL     OW40331   3.471   0.176   2.796  0.3575  0.3814 -0.4101
13269SOL    HW140332   3.470   0.242   2.866 -0.5547  0.3351 -0.3631
13269SOL    HW240333   3.407   0.111   2.825 -1.0222  1.0101 -1.8916
13270SOL     OW40334   3.450   5.430   2.100  0.2695  0.4682 -0.2259
13270SOL    HW140335   3.478   5.436   2.191 -1.8338 -0.4503  0.5616
13270SOL    HW240336   3.413   5.342   2.092 -1.1263  1.1098 -1.4618
13271SOL     OW40337   5.463   1.228   7.271  0.0423  0.2759 -0.0699
13271SOL    HW140338   5.527   1.185   7.214  0.9495 -0.1065  1.2012
13271SOL    HW240339   5.381   1.226   7.221  0.4479 -1.4303 -0.7423
13272SOL     OW40340   6.984   2.081   2.510  0.1767 -0.0233 -0.0183
13272SOL    HW140341   7.020   2.029   2.439  1.0973  1.2275 -0.4997
13272SOL    HW240342   7.010   2.034   2.590  2.2146  0.4121 -0.3802
13273SOL     OW40343   4.874   1.814   2.478 -0.0407 -0.2549  0.4670
13273SOL    HW140344   4.958   1.778   2.451 -0.2483  0.1685 -0.7823
13273SOL    HW240345   4.809   1.749   2.452 -0.1982 -0.0895  0.4366
13274SOL     OW40346   7.493   6.581   5.545  0.0240 -0.0755 -0.3603
13274SOL    HW140347   7.450   6.510   5.497  2.0502 -0.6842 -1.3892
13274SOL    HW240348   7.543   6.537   5.613 -1.5573  0.6887  1.3880
13275SOL     OW40349   4.460   1.916   5.151 -0.6395  0.1850  0.1369
13275SOL    HW140350   4.461   1.954   5.239  2.3015 -0.0613  0.3182
13275SOL    HW240351   4.514   1.837   5.158  1.2001  1.1099 -2.2217
13276SOL     OW40352   3.158   2.559   1.290 -0.6092 -0.0598  0.0242
13276SOL    HW140353   3.126   2.479   1.248 -0.6414 -0.7701  1.3576
13276SOL    HW240354   3.248   2.538   1.315 -1.2208 -0.4127  2.1115
13277SOL     OW40355   0.363   0.370   2.303 -0.2300  0.7416 -0.4936
13277SOL    HW140356   0.343   0.440   2.241 -1.4225  1.8371  1.0400
13277SOL    HW240357   0.278   0.333   2.326 -0.1302  1.8255  2.0513
13278SOL     OW40358   5.556   3.512   4.896 -0.1070  0.4870 -0.3370
13278SOL    HW140359   5.465   3.514   4.926 -0.2100 -1.4923 -0.3984
13278SOL    HW240360   5.571   3.598   4.858 -1.7401  1.0758  0.2905
13279SOL     OW40361   3.265   2.388   7.436  0.7082  0.3051  0.7087
13279SOL    HW140362   3.330   2.368   7.368  1.8003 -0.2818  1.8875
13279SOL    HW240363   3.315   2.387   7.518 -0.7590  0.0066  1.6352
13280SOL     OW40364   2.413   1.902   5.299  0.1054 -0.0484  0.0908
13280SOL    HW140365   2.472   1.830   5.279 -0.6353 -0.7473  0.3755
13280SOL    HW240366   2.365   1.873   5.377 -1.2326  0.1187 -0.6329
13281SOL     OW40367   4.697   2.644   3.339 -0.0595  0.1033 -0.0870
13281SOL    HW140368   4.756   2.705   3.385  0.6805  0.4418 -1.4500
13281SOL    HW240369   4.712   2.662   3.246 -0.8025 -1.2567 -0.4820
13282SOL     OW40370   6.561   7.352   6.831  0.1315  0.1075  0.3037
13282SOL    HW140371   6.515   7.356   6.748 -0.7018  0.9570  0.7780
13282SOL    HW240372   6.645   7.395   6.815  0.2816 -0.4074 -0.2819
13283SOL     OW40373   1.522   5.919   4.346  0.0691 -0.0286  0.6005
13283SOL    HW140374   1.552   5.976   4.276  1.0617 -0.7450  0.4208
13283SOL    HW240375   1.559   5.833   4.325 -1.9148 -0.9286  0.5075
13284SOL     OW40376   1.372   0.391   1.793  0.0501  0.1238 -0.0762
13284SOL    HW140377   1.336   0.311   1.832  1.0918  0.0572  0.7913
13284SOL    HW240378   1.454   0.363   1.752  0.2046  0.6629 -0.1419
13285SOL     OW40379   3.544   1.218   2.094 -0.4796  0.3837  0.6963
13285SOL    HW140380   3.589   1.187   2.172 -0.0649  1.5521  0.9421
13285SOL    HW240381   3.591   1.179   2.021  0.9758  1.6028  0.9483
13286SOL     OW40382   2.560   1.302   7.184  0.6763  0.0903  0.1020
13286SOL    HW140383   2.620   1.377   7.184  0.0789  0.5963  1.1274
13286SOL    HW240384   2.546   1.283   7.277 -0.2883 -0.3911 -0.1264
13287SOL     OW40385   7.154   7.193   1.372 -0.1152 -0.1466 -0.0739
13287SOL    HW140386   7.092   7.128   1.403 -0.8564  0.4064 -0.3496
13287SOL    HW240387   7.179   7.242   1.450 -1.2463  0.6315 -0.1639
13288SOL     OW40388   2.994   6.369   5.637  0.6238 -0.0335 -0.1675
13288SOL    HW140389   3.010   6.384   5.730 -2.5916 -0.9511  0.6446
13288SOL    HW240390   2.989   6.457   5.599 -1.3357  0.5225  1.2428
13289SOL     OW40391   3.378   2.939   6.986 -0.0715 -0.4252 -0.2876
13289SOL    HW140392   3.452   2.900   6.941 -1.1586 -1.3170 -1.3589
13289SOL    HW240393   3.309   2.945   6.920 -0.5626  1.5699  0.3484
13290SOL     OW40394   7.319   4.253   2.348  0.5169  0.3192 -0.4539
13290SOL    HW140395   7.325   4.334   2.399 -1.9477 -0.3319  1.0278
13290SOL    HW240396   7.371   4.190   2.398  1.5564  0.6673 -1.0483
13291SOL     OW40397   2.685   3.717   1.457  0.4400  0.4265  0.3387
13291SOL    HW140398   2.722   3.786   1.512  3.2561  0.0588 -0.8673
13291SOL    HW240399   2.725   3.731   1.371 -1.9476 -0.4337 -1.0127
13292SOL     OW40400   1.803   7.281   0.546  0.0493  0.3241 -0.0571
13292SOL    HW140401   1.861   7.317   0.479  1.6470  0.3724  1.2707
13292SOL    HW240402   1.783   7.356   0.603  1.6230 -0.3567  1.4885
13293SOL     OW40403   6.389   1.401   1.703  0.6809 -1.1748 -0.1463
13293SOL    HW140404   6.415   1.460   1.633 -4.1993  0.2888 -1.1021
13293SOL    HW240405   6.366   1.319   1.658 -1.4793 -0.5730 -0.2191
13294SOL     OW40406   6.546   1.093   2.107  0.2737  0.0456 -0.3394
13294SOL    HW140407   6.622   1.139   2.071  1.5271 -0.6719  1.2896
13294SOL    HW240408   6.472   1.127   2.056  1.7111  0.3382 -2.3830
13295SOL     OW40409   5.538   6.499   2.608  0.2914  0.0338 -0.0520
13295SOL    HW140410   5.474   6.560   2.571  0.1146  0.6499  1.2169
13295SOL    HW240411   5.615   6.508   2.552  0.1685  1.2229 -0.0492
13296SOL     OW40412   6.068   1.330   4.741  0.1392 -0.1624 -0.0282
13296SOL    HW140413   6.139   1.293   4.793 -0.9360 -0.6419  1.1688
13296SOL    HW240414   6.077   1.425   4.752  0.7821 -0.2096 -0.1526
13297SOL     OW40415   1.347   0.726   5.871  0.2420 -0.3958 -0.2421
13297SOL    HW140416   1.258   0.748   5.845  0.4334  0.6295 -0.0423
13297SOL    HW240417   1.400   0.738   5.792  0.4988  0.8070  0.0960
13298SOL     OW40418   3.674   0.340   5.495 -0.5108  0.2832  0.4547
13298SOL    HW140419   3.697   0.295   5.577 -0.8729  1.8222  1.4293
13298SOL    HW240420   3.629   0.273   5.443  2.5961 -1.7208  0.0751
13299SOL     OW40421   4.018   5.447   2.165 -0.2134  0.0561  0.2091
13299SOL    HW140422   3.937   5.475   2.122 -0.8776  0.6828  1.7741
13299SOL    HW240423   4.072   5.412   2.095 -0.8517  1.8815 -1.2805
13300SOL     OW40424   4.684   6.742   2.258  0.5122  0.5015 -0.4640
13300SOL    HW140425   4.656   6.723   2.348  1.1395  2.5587  0.2213
13300SOL    HW240426   4.603   6.764   2.212  0.2366 -0.1418 -0.2932
13301SOL     OW40427   0.879   2.530   0.433 -0.0403  0.5456 -0.5235
13301SOL    HW140428   0.881   2.540   0.338  1.2828 -1.6461 -0.8028
13301SOL    HW240429   0.923   2.446   0.449 -1.4151  0.2074  1.9410
13302SOL     OW40430   5.123   4.433   6.493  0.2850 -0.4463  0.5435
13302SOL    HW140431   5.194   4.484   6.452 -0.2865 -1.4456 -1.8654
13302SOL    HW240432   5.163   4.348   6.511  0.2343 -0.3556  1.0862
13303SOL     OW40433   5.870   6.121   3.107 -0.4246 -1.2920 -0.0475
13303SOL    HW140434   5.822   6.173   3.043  1.1925  0.0321 -0.2573
13303SOL    HW240435   5.905   6.047   3.056 -1.6342 -1.9138 -0.0195
13304SOL     OW40436   5.125   5.814   5.760 -0.1184 -0.7199 -0.0549
13304SOL    HW140437   5.178   5.781   5.832  0.3308  0.1022  0.0037
13304SOL    HW240438   5.039   5.773   5.772  0.1393 -1.0842  0.5746
13305SOL     OW40439   0.913   3.225   6.280 -0.3528  0.1093  0.3158
13305SOL    HW140440   0.885   3.150   6.227 -0.8574  0.7094 -0.2751
13305SOL    HW240441   0.994   3.254   6.238  0.4501 -0.7829  1.2116
13306SOL     OW40442   2.527   5.490   3.961 -0.1701 -0.1861  0.0003
13306SOL    HW140443   2.578   5.481   3.881 -0.6399 -3.1212 -0.0569
13306SOL    HW240444   2.493   5.403   3.978  0.4580  0.1491  3.8035
13307SOL     OW40445   7.103   1.694   2.709 -0.0683 -0.2310  0.5208
13307SOL    HW140446   7.142   1.616   2.670 -2.8549 -1.6551  0.3714
13307SOL    HW240447   7.136   1.767   2.656  0.3631 -1.5799 -1.1359
13308SOL     OW40448   7.017   6.811   7.230 -0.5156 -0.4694 -0.0168
13308SOL    HW140449   7.042   6.721   7.208 -2.2879 -0.9044 -0.3880
13308SOL    HW240450   7.080   6.866   7.182  1.1257 -1.4723  0.8731
13309SOL     OW40451   6.558   6.873   4.179 -0.0439 -0.2342  0.2969
13309SOL    HW140452   6.636   6.890   4.126 -0.4450 -0.3288 -0.3315
13309SOL    HW240453   6.522   6.960   4.197  0.7447 -0.1180  1.4377
13310SOL     OW40454   4.847   5.395   2.835 -0.5343  0.3931 -0.7059
13310SOL    HW140455   4.882   5.406   2.747 -0.8286 -0.7852 -0.9922
13310SOL    HW240456   4.856   5.481   2.876 -0.3565  0.9461 -1.8697
13311SOL     OW40457   2.640   3.139   0.425  0.3680  0.3249  0.4170
13311SOL    HW140458   2.604   3.112   0.340  2.4186  1.6690 -0.9759
13311SOL    HW240459   2.568   3.125   0.487 -2.1812  1.8195 -1.9526
13312SOL     OW40460   1.928   2.021   5.744 -0.5016  0.4236  0.1623
13312SOL    HW140461   1.908   2.008   5.836  0.1002 -0.3444  0.1923
13312SOL    HW240462   1.977   1.943   5.718 -1.0481  0.4235 -0.9209
13313SOL     OW40463   5.875   7.197   7.116  0.4161 -0.5472 -0.1997
13313SOL    HW140464   5.852   7.233   7.201 -0.2231  1.1077 -1.0268
13313SOL    HW240465   5.926   7.266   7.073 -1.2731 -0.3396 -2.0368
13314SOL     OW40466   2.138   2.694   7.190  0.5571  0.0609  0.0682
13314SOL    HW140467   2.184   2.653   7.263  0.9888  0.3534 -0.0368
13314SOL    HW240468   2.089   2.623   7.149  0.3477 -0.1111  0.6179
13315SOL     OW40469   0.609   5.776   1.639  0.0275  0.2641 -0.3212
13315SOL    HW140470   0.699   5.745   1.642 -0.2219 -0.6118 -1.3782
13315SOL    HW240471   0.568   5.738   1.717 -0.1241 -1.6648 -1.2887
13316SOL     OW40472   0.216   4.034   0.850 -0.2832  0.0124 -0.3791
13316SOL    HW140473   0.228   4.081   0.767  0.9897  0.6827  0.1486
13316SOL    HW240474   0.135   4.069   0.887 -0.1839  0.6377 -0.7426
13317SOL     OW40475   2.595   1.294   6.050 -0.1425 -0.2038 -0.2651
13317SOL    HW140476   2.500   1.310   6.049 -0.2950 -0.7592  1.8992
13317SOL    HW240477   2.623   1.315   5.961 -1.7865  3.0127 -0.1696
13318SOL     OW40478   0.510   1.701   2.062  0.0771 -0.7102 -0.1774
13318SOL    HW140479   0.583   1.652   2.025  0.1273 -0.7033 -0.0874
13318SOL    HW240480   0.473   1.642   2.128  0.7320 -0.2534  0.6140
13319SOL     OW40481   1.693   0.687   1.050  0.1537 -0.2326  0.1798
13319SOL    HW140482   1.680   0.750   1.120 -1.0257  0.9444 -1.0242
13319SOL    HW240483   1.753   0.622   1.086  1.0800  1.3503  1.6085
13320SOL     OW40484   6.776   1.648   4.603 -0.2498  0.1654  0.1112
13320SOL    HW140485   6.850   1.692   4.561  0.0357  0.0565  0.4998
13320SOL    HW240486   6.729   1.717   4.649  0.6099 -0.0359  1.3298
13321SOL     OW40487   6.368   5.279   3.529 -0.4702 -0.1351  0.3423
13321SOL    HW140488   6.358   5.294   3.435  0.5365  0.1379  0.2601
13321SOL    HW240489   6.340   5.189   3.543  1.3577 -0.9054 -0.6020
13322SOL     OW40490   6.238   7.561   3.364 -0.0465 -0.3786  0.7529
13322SOL    HW140491   6.223   7.534   3.455 -2.4759  1.1642  0.8952
13322SOL    HW240492   6.226   7.656   3.365  2.0775 -0.0345 -0.8319
13323SOL     OW40493   6.962   4.138   2.464  0.0222 -0.0818  0.5376
13323SOL    HW140494   6.979   4.223   2.424 -0.6318  0.6674  1.7562
13323SOL    HW240495   7.023   4.078   2.422 -0.0133  0.8346 -0.8720
13324SOL     OW40496   1.846   6.554   0.265 -0.1088  0.0434  0.1215
13324SOL    HW140497   1.844   6.647   0.242 -0.4798  0.0084  0.0043
13324SOL    HW240498   1.853   6.509   0.181 -0.2135 -0.0437  0.1595
13325SOL     OW40499   5.811   6.601   7.555 -0.6411  0.2490  0.1502
13325SOL    HW140500   5.904   6.605   7.531  0.1588  1.5046  3.0114
13325SOL    HW240501   5.799   6.511   7.586 -0.9522 -0.4945 -1.9306
13326SOL     OW40502   6.228   3.568   3.323 -0.5305  0.1903 -0.3388
13326SOL    HW140503   6.290   3.523   3.381 -0.7917  2.3113  1.7276
13326SOL    HW240504   6.277   3.643   3.290 -1.3973  0.7985 -0.2613
13327SOL     OW40505   0.700   7.294   3.704 -0.0240 -0.4524  0.3470
13327SOL    HW140506   0.768   7.256   3.761  0.8242  0.7616  0.1656
13327SOL    HW240507   0.747   7.320   3.625 -0.5564  1.0539  0.5020
13328SOL     OW40508   1.466   3.639   0.108 -0.0519 -0.7795  0.1058
13328SOL    HW140509   1.538   3.671   0.053  0.4243  0.1823  1.2408
13328SOL    HW240510   1.482   3.679   0.194 -0.1886 -3.0566  1.2669
13329SOL     OW40511   4.146   2.446   2.942 -0.0133  0.2883 -0.2448
13329SOL    HW140512   4.194   2.371   2.906  0.5402  0.6644 -0.3027
13329SOL    HW240513   4.183   2.459   3.029 -0.9169 -0.2270  0.2268
13330SOL     OW40514   5.197   3.844   7.187  0.3811  0.4452  0.0021
13330SOL    HW140515   5.181   3.909   7.257 -0.9541  0.6085 -0.4128
13330SOL    HW240516   5.269   3.791   7.220  0.4229  1.1280  1.0832
13331SOL     OW40517   1.152   7.300   4.472 -0.5064 -0.3271 -0.7776
13331SOL    HW140518   1.201   7.259   4.401  0.0009 -0.8809 -0.1204
13331SOL    HW240519   1.147   7.393   4.448  0.9826 -0.2359 -0.7985
13332SOL     OW40520   2.998   7.083   3.112 -0.6071 -0.0881  0.5363
13332SOL    HW140521   3.070   7.142   3.134  0.4786 -2.0376  2.6236
13332SOL    HW240522   2.982   7.099   3.019  3.1959 -0.2360 -0.3223
13333SOL     OW40523   0.123   5.614   2.389  0.6948 -0.1232 -0.1395
13333SOL    HW140524   0.157   5.537   2.435  0.1791 -0.0336  0.4014
13333SOL    HW240525   0.036   5.628   2.426  0.7740  0.7127 -0.2401
13334SOL     OW40526   6.643   0.218   2.333  0.4349 -0.3256  0.4840
13334SOL    HW140527   6.571   0.270   2.299 -0.5878 -1.2413  1.2039
13334SOL    HW240528   6.720   0.249   2.284 -0.4835  0.4328 -0.5257
13335SOL     OW40529   6.623   4.857   3.901 -0.8103  0.1361  0.1237
13335SOL    HW140530   6.572   4.857   3.820  0.1269  0.4047 -0.4762
13335SOL    HW240531   6.651   4.766   3.912 -3.0668 -0.4753  1.5510
13336SOL     OW40532   3.414   1.658   1.769 -0.3009 -0.2566 -0.3613
13336SOL    HW140533   3.458   1.736   1.736 -1.8237  1.2151  0.9003
13336SOL    HW240534   3.365   1.624   1.694  0.2273  0.0999 -0.8725
13337SOL     OW40535   0.541   5.080   2.623  0.7041 -0.7639  0.2384
13337SOL    HW140536   0.561   5.011   2.687 -0.8059 -0.4304  1.1154
13337SOL    HW240537   0.462   5.050   2.578 -0.4995  0.7292  1.2392
13338SOL     OW40538   5.478   1.809   0.025 -0.6825  0.9272 -0.2156
13338SOL    HW140539   5.509   1.896   0.052  0.9317  1.4806 -3.3307
13338SOL    HW240540   5.431   1.826  -0.057  1.7614 -1.2982 -2.2265
13339SOL     OW40541   3.031   3.948   0.729 -0.4520  0.0406 -0.9551
13339SOL    HW140542   3.076   4.032   0.729  0.0124 -0.1848  0.4732
13339SOL    HW240543   3.101   3.882   0.725 -0.4368 -0.3428  2.5331
13340SOL     OW40544   7.321   3.936   5.138  0.2905 -0.3532 -0.0805
13340SOL    HW140545   7.409   3.953   5.171  0.0526 -0.5774  0.7119
13340SOL    HW240546   7.282   3.880   5.205 -1.7156  2.6403  1.4699
13341SOL     OW40547   1.371   2.556   6.939  0.0850  0.5388  0.1800
13341SOL    HW140548   1.410   2.620   6.999 -1.9596  2.7574 -0.7014
13341SOL    HW240549   1.427   2.558   6.862 -1.0196  2.9521 -0.6784
13342SOL     OW40550   0.256   5.606   4.661  0.1106 -0.1364  0.4039
13342SOL    HW140551   0.218   5.519   4.675  0.3712 -0.4088 -0.5400
13342SOL    HW240552   0.233   5.654   4.740 -0.1577 -1.0188  0.8807
13343SOL     OW40553   6.169   6.478   5.474  0.1626  0.0213  0.1162
13343SOL    HW140554   6.129   6.534   5.408 -1.2872 -3.4929 -2.2508
13343SOL    HW240555   6.171   6.532   5.553 -2.2046  2.9395 -1.6289
13344SOL     OW40556   5.043   0.954   5.028  0.4200 -0.2855  0.4245
13344SOL    HW140557   5.073   1.036   5.067 -0.1245 -0.2744  0.8293
13344SOL    HW240558   5.005   0.981   4.944 -0.7999  0.0507  1.0503
13345SOL     OW40559   5.376   4.791   4.854  0.0676 -0.2781 -0.1054
13345SOL    HW140560   5.368   4.779   4.760  1.2858  0.2507 -0.2941
13345SOL    HW240561   5.344   4.880   4.870  1.4416  0.2734 -0.2807
13346SOL     OW40562   6.711   1.312   0.948 -0.3721  0.7639  0.0649
13346SOL    HW140563   6.771   1.387   0.945 -0.8118  1.1384  0.6390
13346SOL    HW240564   6.624   1.350   0.946 -0.6289  0.3668  1.8910
13347SOL     OW40565   1.983   3.520   0.188  0.0410 -0.0084 -0.2221
13347SOL    HW140566   1.935   3.563   0.117  2.6206  0.7576 -1.6112
13347SOL    HW240567   2.028   3.591   0.233  1.2954 -0.8538 -0.1040
13348SOL     OW40568   0.911   1.594   5.549 -0.6005 -0.1308  0.3564
13348SOL    HW140569   0.842   1.655   5.575 -0.6053 -0.2391  0.6018
13348SOL    HW240570   0.864   1.514   5.525 -0.6988  0.4179 -1.3414
13349SOL     OW40571   5.827   2.376   5.777  0.3491  0.0769 -0.2936
13349SOL    HW140572   5.802   2.314   5.846 -1.0799 -0.4357 -1.2257
13349SOL    HW240573   5.812   2.462   5.815  0.6910 -0.1805  0.4339
13350SOL     OW40574   1.011   3.867   6.867  0.1216  0.1089 -0.0851
13350SOL    HW140575   0.992   3.934   6.932  1.0097  1.0407 -0.7730
13350SOL    HW240576   0.925   3.829   6.847 -0.4736  1.3977 -0.0751
13351SOL     OW40577   6.929   2.088   1.173 -0.2532  0.1493 -0.4693
13351SOL    HW140578   6.931   2.078   1.268 -1.5062  1.2506 -0.2963
13351SOL    HW240579   7.012   2.052   1.143 -0.1292 -0.8548  0.9768
13352SOL     OW40580   3.903   6.524   0.028 -0.0780  0.4955  0.2930
13352SOL    HW140581   3.878   6.527  -0.064 -1.1314  1.6792  0.5779
13352SOL    HW240582   3.823   6.550   0.075  1.0640  2.2042  1.4073
13353SOL     OW40583   4.516   2.266   6.186  0.1835 -0.4590 -0.5230
13353SOL    HW140584   4.607   2.264   6.216 -0.1459 -1.4271  0.4938
13353SOL    HW240585   4.511   2.341   6.127  1.2339  0.6182  0.7025
13354SOL     OW40586   2.798   2.078   2.398 -0.0791  0.0222  0.0636
13354SOL    HW140587   2.816   1.994   2.440  1.6138  0.1197 -0.4116
13354SOL    HW240588   2.746   2.056   2.321  0.8579 -0.6768 -0.3824
13355SOL     OW40589   6.818   5.269   5.034 -0.0155 -0.1658 -0.1898
13355SOL    HW140590   6.730   5.306   5.043 -0.1702 -0.0307 -1.9182
13355SOL    HW240591   6.877   5.344   5.040 -0.1947  0.1024 -1.4567
13356SOL     OW40592   0.643   2.133   3.595 -1.1764 -0.1257 -0.3213
13356SOL    HW140593   0.576   2.070   3.569  0.3325 -1.6053 -0.8216
13356SOL    HW240594   0.679   2.098   3.676  0.3091 -0.4537 -1.0840
13357SOL     OW40595   7.560   6.184   1.613 -0.1865  0.0136  0.4122
13357SOL    HW140596   7.481   6.232   1.589  0.6180  0.0097 -2.5638
13357SOL    HW240597   7.527   6.099   1.645 -1.4104 -0.0893 -1.0019
13358SOL     OW40598   0.544   7.178   1.124  0.0644 -0.0710  0.5099
13358SOL    HW140599   0.582   7.095   1.098  0.9969  0.7434 -0.8687
13358SOL    HW240600   0.612   7.243   1.103 -1.3415  1.2300 -0.2353
13359SOL     OW40601   7.067   3.610   6.885  0.4691  0.3336  0.9885
13359SOL    HW140602   6.986   3.561   6.871  1.0050 -1.3424  3.2070
13359SOL    HW240603   7.105   3.620   6.797 -0.4946 -1.7780  0.2746
13360SOL     OW40604   2.273   2.787   6.502  0.2913  0.2899  0.3854
13360SOL    HW140605   2.332   2.712   6.494  0.0365 -0.0104  1.1878
13360SOL    HW240606   2.230   2.794   6.417  2.7084  1.5860 -0.8377
13361SOL     OW40607   4.414   0.225   6.195 -0.0965 -0.1850  0.6567
13361SOL    HW140608   4.441   0.297   6.252 -0.9337 -0.1074  0.9725
13361SOL    HW240609   4.445   0.250   6.108 -0.8732  0.8363  0.6574
13362SOL     OW40610   3.272   2.392   5.160  0.3964  0.6852 -0.1856
13362SOL    HW140611   3.306   2.309   5.194 -1.9563 -0.4567 -0.4473
13362SOL    HW240612   3.293   2.389   5.067 -0.1377  0.1433 -0.2902
13363SOL     OW40613   0.794   0.773   1.963  0.2398  0.3144 -1.0212
13363SOL    HW140614   0.728   0.787   1.896 -1.3822 -1.8968 -0.0215
13363SOL    HW240615   0.747   0.777   2.046  1.3409 -1.1241 -0.2578
13364SOL     OW40616   1.224   5.140   2.437  0.0690 -0.4233  0.0974
13364SOL    HW140617   1.196   5.050   2.423 -1.3745 -0.7700  4.0361
13364SOL    HW240618   1.282   5.136   2.513 -1.8529  2.0972  1.8848
13365SOL     OW40619   1.388   3.977   0.664 -0.1932  0.4306  0.3635
13365SOL    HW140620   1.339   4.048   0.622  1.5061  2.1693  1.1682
13365SOL    HW240621   1.470   3.972   0.616 -0.0513 -0.6265  0.6800
13366SOL     OW40622   1.536   6.980   6.520 -0.2688  0.4340  0.0697
13366SOL    HW140623   1.466   7.027   6.474  0.2961  1.3700  0.1342
13366SOL    HW240624   1.521   6.999   6.613  0.5244  1.3090  0.0318
13367SOL     OW40625   3.069   4.469   2.827  0.2835  0.5062 -0.1334
13367SOL    HW140626   3.011   4.463   2.903  1.2319 -2.6399  0.4646
13367SOL    HW240627   3.011   4.492   2.754 -1.1118  0.8398  1.0342
13368SOL     OW40628   5.248   6.891   7.305  0.1137  0.1461  0.5717
13368SOL    HW140629   5.153   6.888   7.317  0.0642 -0.7020  0.0510
13368SOL    HW240630   5.271   6.983   7.317 -0.5522  0.1340  2.2752
13369SOL     OW40631   5.134   3.204   3.297 -0.4779 -0.0710 -0.3495
13369SOL    HW140632   5.202   3.165   3.242  1.4632  0.2179  1.6733
13369SOL    HW240633   5.083   3.130   3.329  1.2428 -0.7378  1.0038
13370SOL     OW40634   1.450   7.375   2.111 -0.2758 -0.3627 -0.4128
13370SOL    HW140635   1.503   7.296   2.100  2.7327  1.1001  1.9672
13370SOL    HW240636   1.370   7.345   2.153  0.7643 -2.1690  0.3949
13371SOL     OW40637   1.113   5.400   4.149 -0.6726 -0.4059  0.3090
13371SOL    HW140638   1.161   5.318   4.158  0.6152  0.3274  0.4759
13371SOL    HW240639   1.117   5.440   4.236  0.1444  0.5541 -0.1450
13372SOL     OW40640   6.788   6.769   2.628 -0.0219  0.2360 -0.1499
13372SOL    HW140641   6.782   6.839   2.562 -0.0060 -0.6765 -1.1378
13372SOL    HW240642   6.825   6.813   2.705 -1.1029  1.5722 -0.3579
13373SOL     OW40643   1.023   2.943   4.086 -0.1111  0.3611 -0.6863
13373SOL    HW140644   0.942   2.901   4.057 -1.0542 -0.0481  2.2394
13373SOL    HW240645   1.090   2.875   4.074 -0.9165 -0.6510  0.3862
13374SOL     OW40646   1.610   6.376   6.039  0.4498 -0.3244  0.1065
13374SOL    HW140647   1.544   6.348   6.102 -0.3923 -1.9937 -1.4231
13374SOL    HW240648   1.675   6.305   6.039 -0.1299 -0.8931 -1.6517
13375SOL     OW40649   2.603   6.891   6.113 -0.0126  0.1659 -0.0509
13375SOL    HW140650   2.554   6.971   6.093 -1.7138 -0.9988 -0.7848
13375SOL    HW240651   2.562   6.857   6.193 -1.8572 -1.8303 -1.7019
13376SOL     OW40652   3.982   0.367   4.571  0.2340  0.0911  0.4708
13376SOL    HW140653   3.970   0.316   4.651  1.6621 -0.1363  0.5772
13376SOL    HW240654   3.894   0.385   4.540 -0.3146 -1.3544  1.1223
13377SOL     OW40655   0.976   5.478   0.010 -0.1869 -0.2716  0.0597
13377SOL    HW140656   0.915   5.500  -0.059 -0.2269  1.1310  0.5276
13377SOL    HW240657   1.062   5.477  -0.033 -0.3141 -0.3357 -0.1930
13378SOL     OW40658   0.475   7.527   6.691 -0.4738  0.2762  0.1645
13378SOL    HW140659   0.389   7.520   6.649  0.6659  0.6178 -2.4628
13378SOL    HW240660   0.498   7.437   6.713 -1.5607  0.2025  1.0754
13379SOL     OW40661   1.162   2.478   5.050  0.1730  0.5343  0.1180
13379SOL    HW140662   1.232   2.477   5.115 -0.2421  0.2527  0.5687
13379SOL    HW240663   1.082   2.490   5.102  0.0409  3.1290 -0.5280
13380SOL     OW40664   3.535   7.114   1.105  0.4811 -0.2001 -0.0179
13380SOL    HW140665   3.627   7.093   1.088  0.2966 -0.1501 -1.1154
13380SOL    HW240666   3.521   7.198   1.063  0.4759  0.8653  1.9768
13381SOL     OW40667   0.624   4.067   4.277  0.6378  0.0405 -0.3728
13381SOL    HW140668   0.608   4.100   4.366  1.7797  0.0435 -0.1601
13381SOL    HW240669   0.617   4.144   4.221  2.4311  0.5355  0.0255
13382SOL     OW40670   4.510   6.184   2.862 -0.1064 -0.1057 -0.3904
13382SOL    HW140671   4.553   6.119   2.807  0.2820  0.3451 -0.6316
13382SOL    HW240672   4.417   6.163   2.856  0.0006 -0.5241 -0.6143
13383SOL     OW40673   4.490   7.309   7.136  0.2943 -0.1874 -0.7574
13383SOL    HW140674   4.512   7.394   7.173  3.7316 -1.1390 -0.3159
13383SOL    HW240675   4.563   7.288   7.077  0.2366 -3.3674  0.1318
13384SOL     OW40676   5.060   1.882   0.841  0.2793  0.1574 -0.1542
13384SOL    HW140677   5.113   1.878   0.921  0.3720  1.2609 -0.1453
13384SOL    HW240678   5.005   1.804   0.845  0.3328  0.1581  0.9625
13385SOL     OW40679   5.554   2.402   4.648 -0.0099  0.1222  0.3194
13385SOL    HW140680   5.494   2.464   4.691 -0.2863 -0.4314  0.7332
13385SOL    HW240681   5.498   2.350   4.590  0.2266  0.2572 -0.0401
13386SOL     OW40682   6.858   1.974   5.236 -0.2797 -0.1863 -0.1372
13386SOL    HW140683   6.915   2.047   5.259 -1.0101  0.1382  0.6637
13386SOL    HW240684   6.890   1.946   5.150 -0.8155  1.8940 -1.0634
13387SOL     OW40685   6.932   4.541   1.643 -0.4441 -0.2734  0.2757
13387SOL    HW140686   7.018   4.555   1.604 -1.3092 -0.1695 -1.7477
13387SOL    HW240687   6.920   4.614   1.703  0.2966  0.5551 -0.5583
13388SOL     OW40688   4.748   7.452   2.018  0.0532 -0.0651 -0.1396
13388SOL    HW140689   4.803   7.421   1.947  0.3910 -2.2288  0.9618
13388SOL    HW240690   4.679   7.386   2.026 -0.2746  0.3952  1.1865
13389SOL     OW40691   3.353   1.986   3.625  0.0153 -0.3181 -0.5883
13389SOL    HW140692   3.404   1.953   3.699 -0.8395  0.8203  0.5617
13389SOL    HW240693   3.264   1.957   3.643 -0.5331  1.4950 -0.1654
13390SOL     OW40694   5.536   6.944   1.676  0.7322  0.8867 -0.1965
13390SOL    HW140695   5.565   6.853   1.668 -0.9231  0.3772 -0.8916
13390SOL    HW240696   5.584   6.978   1.752  0.3088 -1.0078  0.9852
13391SOL     OW40697   0.290   1.004   1.055 -0.1507  0.3494  0.0386
13391SOL    HW140698   0.200   0.999   1.022 -0.5001 -1.0117  1.1142
13391SOL    HW240699   0.282   1.047   1.140  0.5474  2.3723 -0.8646
13392SOL     OW40700   3.860   2.491   4.587  0.3350 -0.2682 -0.1619
13392SOL    HW140701   3.814   2.492   4.503 -0.6847 -1.6975  0.3552
13392SOL    HW240702   3.884   2.583   4.601 -0.7406  0.2273 -1.3229
13393SOL     OW40703   4.691   6.854   4.352  0.2390  0.7010 -0.1230
13393SOL    HW140704   4.712   6.893   4.267 -0.3637 -1.5985 -1.4131
13393SOL    HW240705   4.596   6.860   4.358  0.3381  1.5916  0.8109
13394SOL     OW40706   4.278   5.235   0.547 -0.7107 -0.3341 -0.2927
13394SOL    HW140707   4.282   5.145   0.515  0.8978 -0.6147  0.6050
13394SOL    HW240708   4.217   5.279   0.487 -0.9954 -1.8442 -1.1552
13395SOL     OW40709   5.828   5.582   6.208 -0.1949  0.1553  0.0757
13395SOL    HW140710   5.899   5.637   6.175 -0.1088  0.6904  1.1121
13395SOL    HW240711   5.843   5.577   6.302 -1.8077  0.7219  0.3928
13396SOL     OW40712   5.091   5.445   3.500  0.0202  0.2356  0.6160
13396SOL    HW140713   5.081   5.394   3.581 -0.2830 -0.9809 -0.1618
13396SOL    HW240714   5.024   5.410   3.441  0.4247  0.9056 -0.2618
13397SOL     OW40715   5.273   5.119   6.351 -0.2525  0.3844 -0.5248
13397SOL    HW140716   5.354   5.087   6.310 -0.4446  0.3598 -0.8876
13397SOL    HW240717   5.303   5.186   6.412 -0.0809  1.6277 -1.9105
13398SOL     OW40718   7.000   7.138   1.980  0.1938  0.2178 -0.1510
13398SOL    HW140719   7.057   7.069   2.013 -1.2292 -1.5553 -1.2482
13398SOL    HW240720   7.051   7.181   1.912  2.0872  2.0746  2.2481
13399SOL     OW40721   1.068   2.228   2.352  0.1612 -0.4496 -0.2409
13399SOL    HW140722   1.064   2.293   2.282  1.5177 -0.3002 -0.2049
13399SOL    HW240723   1.160   2.224   2.377 -0.2404 -0.7027  1.3576
13400SOL     OW40724   5.783   5.375   5.199 -0.0480 -0.0880  0.3866
13400SOL    HW140725   5.737   5.433   5.260 -0.4319 -0.4757  0.4728
13400SOL    HW240726   5.759   5.287   5.228 -0.5286 -0.2755 -0.5482
13401SOL     OW40727   5.404   4.528   3.815 -0.0678  0.4328  0.0191
13401SOL    HW140728   5.496   4.507   3.804 -0.1368 -0.5373  1.0429
13401SOL    HW240729   5.361   4.491   3.738  0.3447  0.5572 -0.2739
13402SOL     OW40730   0.713   0.995   0.289  0.6732  0.1317 -1.2682
13402SOL    HW140731   0.623   1.010   0.320  0.5140  1.0878 -2.1233
13402SOL    HW240732   0.768   1.017   0.364  0.2897  2.3003 -1.5491
13403SOL     OW40733   4.396   0.836   1.449  0.1493 -0.4782  0.3777
13403SOL    HW140734   4.402   0.754   1.497  0.4573 -1.0446 -0.5928
13403SOL    HW240735   4.483   0.876   1.458  1.1670 -1.9492 -2.0082
13404SOL     OW40736   3.063   2.679   7.218  0.2647  0.4596 -0.3765
13404SOL    HW140737   3.078   2.600   7.167 -0.3627  0.6049 -0.7908
13404SOL    HW240738   2.971   2.699   7.204  0.3653  1.1334 -0.0826
13405SOL     OW40739   7.143   5.652   1.462  0.2148  0.3445 -0.0416
13405SOL    HW140740   7.074   5.589   1.483  1.2067 -0.1049  2.1837
13405SOL    HW240741   7.184   5.617   1.383 -0.3256 -0.9051  0.2028
13406SOL     OW40742   1.195   7.328   6.349 -0.0470 -0.3745 -0.1211
13406SOL    HW140743   1.236   7.243   6.335  1.4989  0.4277 -0.7414
13406SOL    HW240744   1.263   7.380   6.392 -0.3232  1.0617 -1.3296
13407SOL     OW40745   5.697   7.509   1.585  0.2966  0.3392 -0.4797
13407SOL    HW140746   5.749   7.474   1.512  1.8512  0.5205  0.4768
13407SOL    HW240747   5.627   7.445   1.598  0.7985 -0.3929 -1.2704
13408SOL     OW40748   2.473   4.921   4.874 -0.6935 -0.4720  0.4243
13408SOL    HW140749   2.497   4.989   4.811 -0.4923  0.3935  1.4036
13408SOL    HW240750   2.513   4.949   4.956 -1.0303 -1.5219  0.9670
13409SOL     OW40751   7.329   5.864   4.172 -0.2808 -0.0366  0.1973
13409SOL    HW140752   7.375   5.874   4.089 -0.2248  0.1314  0.2479
13409SOL    HW240753   7.366   5.785   4.210  0.5625  0.5355  0.6158
13410SOL     OW40754   7.028   1.013   0.805 -0.3381 -0.5563  0.1077
13410SOL    HW140755   6.975   1.090   0.820 -1.2803 -1.2285  0.3094
13410SOL    HW240756   6.990   0.972   0.727  0.3648 -0.6475 -0.2027
13411SOL     OW40757   5.886   1.025   6.798 -0.0402  0.6519 -0.8164
13411SOL    HW140758   5.860   1.117   6.799  1.2735  1.0554 -1.4090
13411SOL    HW240759   5.976   1.026   6.765  0.8643 -0.6442  1.4354
13412SOL     OW40760   7.093   0.338   3.631 -0.4658 -0.1403 -0.4747
13412SOL    HW140761   7.099   0.370   3.541 -0.1840  0.6107 -0.1999
13412SOL    HW240762   7.001   0.315   3.643 -0.9728  1.7981 -0.2931
13413SOL     OW40763   6.886   6.999   2.860 -0.0334  0.6353  0.1219
13413SOL    HW140764   6.799   7.026   2.831  0.3002  0.2150 -1.3401
13413SOL    HW240765   6.893   7.035   2.949 -1.0827  2.0128 -0.3053
13414SOL     OW40766   3.304   6.854   2.691 -0.1595  0.4333  0.1735
13414SOL    HW140767   3.282   6.943   2.719  1.0183  0.9120 -0.3526
13414SOL    HW240768   3.375   6.866   2.628  1.0070 -0.9672  1.1535
13415SOL     OW40769   1.992   5.795   1.710  0.8227  0.0483  0.3049
13415SOL    HW140770   2.003   5.752   1.794 -0.6931 -0.6129  0.2016
13415SOL    HW240771   2.050   5.747   1.651  1.8624  0.4943  0.9535
13416SOL     OW40772   2.219   1.852   6.456  0.6260 -0.3663  0.2521
13416SOL    HW140773   2.143   1.796   6.471  0.0801  0.5538  0.9970
13416SOL    HW240774   2.267   1.808   6.386 -2.0621  0.5103 -2.3407
13417SOL     OW40775   6.932   6.248   5.507 -0.4816 -0.7308 -0.1194
13417SOL    HW140776   6.933   6.153   5.515 -0.2365 -0.9352 -2.1672
13417SOL    HW240777   6.840   6.272   5.518 -0.4334 -1.0902  1.2488
13418SOL     OW40778   3.220   4.757   3.807 -0.3630 -0.6077 -0.1474
13418SOL    HW140779   3.252   4.726   3.891  1.0095  0.7066 -0.1556
13418SOL    HW240780   3.165   4.832   3.828 -2.7998 -2.2369 -0.2173
13419SOL     OW40781   0.785   7.167   6.314 -0.1764 -0.2863 -0.1530
13419SOL    HW140782   0.845   7.139   6.383 -0.4820 -0.5597  0.0077
13419SOL    HW240783   0.698   7.144   6.347 -0.4089  0.5211 -0.1790
13420SOL     OW40784   5.158   5.498   5.569 -0.0254  0.6605 -0.2934
13420SOL    HW140785   5.112   5.497   5.653 -1.4971 -1.0761 -1.0339
13420SOL    HW240786   5.104   5.553   5.513  0.5914  1.2731 -0.2944
13421SOL     OW40787   3.765   1.391   6.185  0.1973 -0.3358  0.1966
13421SOL    HW140788   3.837   1.454   6.185 -0.1510  0.0775  0.9037
13421SOL    HW240789   3.692   1.438   6.227 -0.5174 -0.7108 -0.6012
13422SOL     OW40790   6.649   6.180   5.525 -0.5468 -1.0682 -0.0461
13422SOL    HW140791   6.627   6.114   5.590  1.3235  0.4803  2.3472
13422SOL    HW240792   6.612   6.261   5.561  2.0983  0.1462  0.1059
13423SOL     OW40793   2.137   0.893   7.147 -0.1278  0.1473  0.2407
13423SOL    HW140794   2.204   0.839   7.189  0.6176 -1.6574 -2.9523
13423SOL    HW240795   2.175   0.980   7.143  1.3514 -0.4841 -0.0280
13424SOL     OW40796   3.939   1.870   3.876  0.5548  0.2576 -0.3771
13424SOL    HW140797   3.853   1.828   3.880  0.2814  0.6443 -1.5883
13424SOL    HW240798   3.920   1.961   3.852  1.2385  0.6535  0.5272
13425SOL     OW40799   7.386   5.743   2.114 -0.1356 -0.3147  0.3536
13425SOL    HW140800   7.300   5.704   2.129  0.0952 -1.6069 -1.3852
13425SOL    HW240801   7.378   5.833   2.148 -1.0974 -1.3710  3.2745
13426SOL     OW40802   4.037   6.825   0.372  0.1483 -0.0295  0.2839
13426SOL    HW140803   3.941   6.830   0.375  0.0656 -1.1678 -0.0944
13426SOL    HW240804   4.066   6.884   0.442 -0.7852  1.3068 -0.3894
13427SOL     OW40805   5.277   6.490   1.985  0.2708  0.0768 -0.2338
13427SOL    HW140806   5.341   6.507   2.054  3.4275  1.0563 -3.1281
13427SOL    HW240807   5.194   6.521   2.021  1.2992 -1.2367  3.7460
13428SOL     OW40808   6.345   3.012   2.537  0.1780 -0.2177 -0.1405
13428SOL    HW140809   6.326   2.938   2.594 -0.2656  0.1824  0.2369
13428SOL    HW240810   6.390   3.075   2.593  0.2578 -0.0666 -0.3740
13429SOL     OW40811   6.868   1.937   0.732  0.3459 -0.0338 -0.0891
13429SOL    HW140812   6.810   1.914   0.659  0.1533 -1.0326  0.3636
13429SOL    HW240813   6.916   2.014   0.701 -0.2197 -0.0340 -1.0042
13430SOL     OW40814   1.430   3.145   7.312  0.1392 -0.0311 -0.2292
13430SOL    HW140815   1.514   3.188   7.330 -0.3262 -0.1637  2.8466
13430SOL    HW240816   1.452   3.053   7.299  0.4988 -0.0539  0.4849
13431SOL     OW40817   0.476   1.281   6.087  0.5612 -0.0739  0.0328
13431SOL    HW140818   0.488   1.365   6.042 -1.2149  0.1216 -0.1727
13431SOL    HW240819   0.563   1.257   6.118  0.9159  2.5206  1.2821
13432SOL     OW40820   4.091   2.694   5.945 -0.0052 -0.3268  0.4660
13432SOL    HW140821   3.999   2.719   5.954  0.4242  1.1204  0.9700
13432SOL    HW240822   4.128   2.704   6.033  1.6350  3.3731 -0.4508
13433SOL     OW40823   4.749   1.464   7.106  1.1196  0.1415 -0.0519
13433SOL    HW140824   4.780   1.554   7.095 -1.1129  0.9843  0.0131
13433SOL    HW240825   4.695   1.466   7.185  1.0786 -1.2708 -0.0194
13434SOL     OW40826   0.512   7.135   4.300  0.2456 -0.4067  0.0844
13434SOL    HW140827   0.477   7.181   4.376  1.5817 -0.3849  0.7174
13434SOL    HW240828   0.523   7.203   4.234  0.1293 -0.2159  0.2602
13435SOL     OW40829   2.301   0.884   3.606  0.0258  0.1090 -0.0979
13435SOL    HW140830   2.252   0.962   3.583 -0.6589  0.0525  1.1229
13435SOL    HW240831   2.373   0.916   3.660  1.3809  0.1896 -1.8465
13436SOL     OW40832   0.344   3.739   5.994 -0.0998 -0.1903  0.4542
13436SOL    HW140833   0.424   3.768   6.038 -1.4883  1.1717  2.2762
13436SOL    HW240834   0.365   3.744   5.900  2.4564 -1.5779  0.8707
13437SOL     OW40835   7.375   7.198   2.062 -0.4937 -0.2616 -0.1281
13437SOL    HW140836   7.338   7.112   2.085 -0.2016 -0.3346  0.0841
13437SOL    HW240837   7.463   7.178   2.030  1.0125  0.1890  3.2768
13438SOL     OW40838   6.621   1.930   6.610  0.0869 -0.1360  0.1366
13438SOL    HW140839   6.544   1.985   6.629  0.4077  1.2927 -2.3146
13438SOL    HW240840   6.612   1.856   6.670 -4.3255 -1.1040 -1.3172
13439SOL     OW40841   7.037   4.214   2.136 -0.9492  0.1493  0.1971
13439SOL    HW140842   7.130   4.195   2.142 -1.2386 -2.8550 -2.1012
13439SOL    HW240843   7.027   4.256   2.050 -1.6121  1.6001  0.9511
13440SOL     OW40844   2.916   2.460   2.156  0.3155 -0.2106 -0.1364
13440SOL    HW140845   2.855   2.497   2.219  2.1168  1.5758  0.6641
13440SOL    HW240846   2.950   2.536   2.108  2.8928 -0.9484  0.3846
13441SOL     OW40847   5.802   7.538   5.772  0.2861  0.1913 -0.6715
13441SOL    HW140848   5.734   7.602   5.753  1.3245  0.8937 -2.2735
13441SOL    HW240849   5.778   7.501   5.857 -2.5959 -0.3021 -1.5988
13442SOL     OW40850   2.895   0.980   5.405  0.5837  0.0035  0.3738
13442SOL    HW140851   2.903   1.054   5.346 -0.6782 -0.5694 -0.5588
13442SOL    HW240852   2.897   1.019   5.493  0.6127  1.0630 -0.0830
13443SOL     OW40853   0.037   6.916   4.188 -0.1449 -0.4794  0.1016
13443SOL    HW140854   0.029   6.999   4.235 -1.1145 -0.5634  0.0966
13443SOL    HW240855   0.019   6.849   4.254 -2.1297 -0.5796 -0.4821
13444SOL     OW40856   5.331   6.681   4.774 -0.2831  0.8910 -0.2722
13444SOL    HW140857   5.325   6.632   4.692 -0.3830 -0.2122  0.3756
13444SOL    HW240858   5.421   6.667   4.803 -0.9054 -0.7811  1.0155
13445SOL     OW40859   4.471   7.278   0.821 -0.2047  0.0708  0.0222
13445SOL    HW140860   4.524   7.255   0.744 -0.1346  0.1566  0.0436
13445SOL    HW240861   4.443   7.194   0.856 -0.9286  0.0551 -0.5709
13446SOL     OW40862   6.560   7.265   4.130  0.0344 -0.1890 -0.5398
13446SOL    HW140863   6.641   7.275   4.180 -0.1830 -1.4537  0.1041
13446SOL    HW240864   6.515   7.192   4.172 -0.3976 -0.9688 -2.2884
13447SOL     OW40865   4.790   5.980   5.097 -0.0458  0.0859  0.4862
13447SOL    HW140866   4.736   5.918   5.047 -0.7567 -0.6899  2.1553
13447SOL    HW240867   4.786   5.949   5.187  2.6725  0.3879  0.7996
13448SOL     OW40868   3.086   0.777   6.335  0.0224 -0.6597  0.1221
13448SOL    HW140869   3.126   0.719   6.270 -0.8646 -0.2650 -0.8052
13448SOL    HW240870   3.130   0.755   6.417  1.1036 -1.2439 -0.5861
13449SOL     OW40871   1.167   3.187   4.091  0.0133 -0.5184  0.0991
13449SOL    HW140872   1.201   3.210   4.004 -0.8509 -1.0107 -0.3895
13449SOL    HW240873   1.142   3.095   4.083 -1.5330 -0.1524  0.3709
13450SOL     OW40874   0.400   2.065   7.249  0.0985  0.0741  0.0396
13450SOL    HW140875   0.344   2.114   7.189 -2.5953  0.6683  2.7710
13450SOL    HW240876   0.402   1.976   7.213 -0.0412  0.7504 -1.7313
13451SOL     OW40877   2.595   5.751   4.112 -0.5210 -0.2875  0.0153
13451SOL    HW140878   2.561   5.694   4.043 -0.8692  1.1060 -1.0196
13451SOL    HW240879   2.677   5.785   4.076 -0.5564  0.2153  0.4066
13452SOL     OW40880   2.805   4.402   5.888 -0.1772 -0.3259 -0.3167
13452SOL    HW140881   2.781   4.481   5.936 -2.5125 -0.0541 -1.7615
13452SOL    HW240882   2.759   4.332   5.934 -0.3383 -0.4343 -0.6414
13453SOL     OW40883   6.874   4.190   4.317 -0.2920 -0.1719  0.0393
13453SOL    HW140884   6.937   4.233   4.259  0.9705 -1.3070  0.5113
13453SOL    HW240885   6.927   4.128   4.368 -1.5827 -0.1630  1.4520
13454SOL     OW40886   5.088   5.856   2.219  0.0119  0.3819  0.7492
13454SOL    HW140887   5.162   5.913   2.241  0.7445  0.4169 -1.5388
13454SOL    HW240888   5.016   5.917   2.200  0.3087  0.4955 -0.0457
13455SOL     OW40889   6.380   7.121   3.940 -0.4522 -0.1574 -0.5189
13455SOL    HW140890   6.428   7.173   4.004  0.5710 -0.0862 -1.3154
13455SOL    HW240891   6.389   7.169   3.857 -0.9161 -0.7369 -0.9162
13456SOL     OW40892   5.519   2.741   1.984  0.3334 -0.0016 -0.4593
13456SOL    HW140893   5.479   2.718   2.068 -1.0386  0.1031 -1.0652
13456SOL    HW240894   5.603   2.695   1.984  1.3736  1.6716  1.8911
13457SOL     OW40895   7.146   3.672   2.484  0.3543 -1.0297 -0.3395
13457SOL    HW140896   7.133   3.713   2.569 -0.6844  0.2924 -1.0955
13457SOL    HW240897   7.065   3.625   2.467  0.9028 -2.0666 -0.2356
13458SOL     OW40898   3.808   2.352   4.809 -0.3053  0.0647  0.3080
13458SOL    HW140899   3.840   2.398   4.732 -1.1302 -0.2369 -0.2268
13458SOL    HW240900   3.750   2.415   4.852 -1.0138 -0.2760 -0.1342
13459SOL     OW40901   3.154   7.540   4.157  0.0222  0.4459  0.7050
13459SOL    HW140902   3.074   7.520   4.108 -0.5656 -2.0138  2.4565
13459SOL    HW240903   3.222   7.544   4.091 -0.9890 -1.1418 -0.5329
13460SOL     OW40904   0.705   6.856   0.635  0.5390 -0.7078  0.0850
13460SOL    HW140905   0.687   6.847   0.541 -0.7644 -0.0738  0.2456
13460SOL    HW240906   0.625   6.896   0.670  2.1938  2.1240  0.9401
13461SOL     OW40907   0.154   6.958   2.619 -0.3885  0.2202 -0.0546
13461SOL    HW140908   0.246   6.976   2.599 -0.0517 -1.5898 -0.3020
13461SOL    HW240909   0.149   6.961   2.714 -0.0631  0.2620 -0.0379
13462SOL     OW40910   5.866   6.017   3.743 -0.7859  0.1078 -0.1817
13462SOL    HW140911   5.838   6.095   3.694 -0.5413  0.1332 -0.2825
13462SOL    HW240912   5.926   6.051   3.809 -0.1017 -0.0723 -0.6905
13463SOL     OW40913   0.498   2.261   2.753  0.1156 -0.5892 -0.6718
13463SOL    HW140914   0.533   2.294   2.836  0.2153  2.7479 -1.8869
13463SOL    HW240915   0.416   2.308   2.741 -0.7397 -2.2582 -1.7201
13464SOL     OW40916   6.452   4.618   0.076  0.6959 -0.9979 -0.4384
13464SOL    HW140917   6.523   4.606   0.139 -0.4070 -0.5057  0.9440
13464SOL    HW240918   6.495   4.614  -0.009  2.6041  0.6718  0.3657
13465SOL     OW40919   7.074   3.103   6.481 -0.3452  0.1619 -0.1960
13465SOL    HW140920   7.084   3.011   6.503 -0.1948  0.5808  1.5840
13465SOL    HW240921   6.984   3.110   6.447  0.0775 -0.8390 -1.6332
13466SOL     OW40922   3.171   6.144   0.872 -0.0888 -0.1421  0.3387
13466SOL    HW140923   3.176   6.054   0.902 -0.5855 -0.1341  0.4632
13466SOL    HW240924   3.260   6.178   0.880  0.1422 -0.6890  0.0735
13467SOL     OW40925   6.434   6.252   5.903 -0.5563 -0.1769 -0.1164
13467SOL    HW140926   6.342   6.228   5.915 -0.6452 -0.7300 -1.6568
13467SOL    HW240927   6.470   6.180   5.851  0.6329  0.2780  0.0595
13468SOL     OW40928   6.561   7.139   6.118  0.0506 -0.4160  0.2321
13468SOL    HW140929   6.630   7.173   6.176  1.6478 -0.8089 -1.3295
13468SOL    HW240930   6.591   7.051   6.094 -0.2232 -0.0533 -1.6137
13469SOL     OW40931   6.361   7.034   5.430  0.2950 -0.3655 -0.1482
13469SOL    HW140932   6.330   7.124   5.424  2.2928  0.2529 -2.4746
13469SOL    HW240933   6.347   7.011   5.522 -1.5017  1.8103  0.2170
13470SOL     OW40934   4.692   7.336   4.137 -0.1066  0.1470 -0.3138
13470SOL    HW140935   4.780   7.340   4.098 -0.3614  1.5498 -0.8034
13470SOL    HW240936   4.707   7.347   4.231  0.2860 -0.1606 -0.3385
13471SOL     OW40937   5.809   4.907   0.546  0.6819 -0.6146 -0.4707
13471SOL    HW140938   5.736   4.864   0.503 -1.4526  0.4676  1.8035
13471SOL    HW240939   5.884   4.848   0.533 -1.2316 -3.1668 -0.5158
13472SOL     OW40940   2.481   0.327   3.017  0.0714  1.0133 -0.4241
13472SOL    HW140941   2.463   0.385   2.943 -1.5074 -1.4468 -2.1013
13472SOL    HW240942   2.509   0.245   2.977  1.9705  0.4522  1.8533
13473SOL     OW40943   0.282   5.980   6.808  0.3516 -0.4236  0.0634
13473SOL    HW140944   0.305   5.999   6.717  0.8282 -2.4549 -0.2917
13473SOL    HW240945   0.221   6.049   6.833 -2.0273 -1.2966 -2.7410
13474SOL     OW40946   1.138   4.783   5.358  0.3625  0.0354 -0.2313
13474SOL    HW140947   1.204   4.754   5.295  1.0869  0.5331  0.2784
13474SOL    HW240948   1.187   4.833   5.422 -0.1766 -1.3200  1.3130
13475SOL     OW40949   4.580   1.333   5.753  0.6360  0.4440  0.3684
13475SOL    HW140950   4.656   1.339   5.696  0.6198 -1.6730  0.0716
13475SOL    HW240951   4.531   1.414   5.736  0.8910  0.1306 -2.2497
13476SOL     OW40952   6.348   1.851   1.455  0.3064 -0.2119 -0.2381
13476SOL    HW140953   6.283   1.922   1.454  1.2758  0.7626  1.5848
13476SOL    HW240954   6.354   1.824   1.364 -2.1602  0.1160 -0.5740
13477SOL     OW40955   0.666   6.874   1.415  0.8700 -0.4379 -0.0383
13477SOL    HW140956   0.634   6.850   1.327  1.6301  1.3577 -0.8398
13477SOL    HW240957   0.630   6.961   1.430  2.3569  0.0775  0.6014
13478SOL     OW40958   0.899   1.987   6.015 -0.1352 -0.8818  0.1744
13478SOL    HW140959   0.933   2.013   6.100 -0.4724 -0.8294  0.2926
13478SOL    HW240960   0.835   1.919   6.034 -2.2587  1.0275  0.2185
13479SOL     OW40961   0.353   4.380   4.614 -0.2442  0.6129  0.3183
13479SOL    HW140962   0.298   4.358   4.689 -0.4921  0.2905  0.0425
13479SOL    HW240963   0.396   4.462   4.640  0.7863 -0.2254  1.4037
13480SOL     OW40964   2.467   5.468   6.431 -0.7542 -0.1963  0.6315
13480SOL    HW140965   2.539   5.526   6.405 -1.0926  0.7576  1.7032
13480SOL    HW240966   2.460   5.405   6.360  1.3778 -0.5452  0.6501
13481SOL     OW40967   3.574   7.479   3.140 -0.4435  0.3734 -0.5419
13481SOL    HW140968   3.481   7.457   3.138 -0.6352  1.1307 -2.5726
13481SOL    HW240969   3.619   7.395   3.141 -1.1594 -0.0447 -1.6752
13482SOL     OW40970   0.179   0.725   2.211 -0.2613 -0.0593  0.7617
13482SOL    HW140971   0.258   0.752   2.258  0.1889  0.8423 -0.4672
13482SOL    HW240972   0.107   0.761   2.263  0.2404  1.1740  0.6286
13483SOL     OW40973   2.462   2.348   4.664 -0.3396 -0.2606 -0.0319
13483SOL    HW140974   2.515   2.383   4.593  0.0114  0.2181  0.4537
13483SOL    HW240975   2.524   2.331   4.735 -0.5646 -1.5034 -0.1141
13484SOL     OW40976   6.048   7.449   3.911  0.2048 -0.2437 -0.2927
13484SOL    HW140977   6.123   7.495   3.950 -0.0341 -0.0140 -0.0998
13484SOL    HW240978   6.069   7.356   3.920  0.6873 -0.1749 -0.6750
13485SOL     OW40979   0.179   0.141   1.603 -0.4635 -0.4587 -0.1134
13485SOL    HW140980   0.273   0.136   1.622 -0.5836 -0.2615  0.5870
13485SOL    HW240981   0.167   0.088   1.525 -0.0242 -1.9044  0.7503
13486SOL     OW40982   1.668   6.546   3.718  0.0451  0.5351 -0.1850
13486SOL    HW140983   1.654   6.581   3.805 -1.3296  0.4452 -0.3401
13486SOL    HW240984   1.585   6.502   3.696  0.3573  0.5609 -1.5264
13487SOL     OW40985   6.966   7.527   3.080  0.6647  0.1225 -0.3552
13487SOL    HW140986   6.999   7.483   3.001 -0.1539  1.2726 -1.3703
13487SOL    HW240987   6.878   7.493   3.092  0.2151  1.0638 -0.8514
13488SOL     OW40988   2.024   4.273   3.320  0.4871  0.5401 -0.4199
13488SOL    HW140989   2.072   4.233   3.247  1.0539 -1.6062  1.0241
13488SOL    HW240990   2.093   4.309   3.376  0.1241  1.1029 -0.3257
13489SOL     OW40991   0.500   6.387   7.074  0.4755 -0.1924 -0.3793
13489SOL    HW140992   0.438   6.453   7.105 -0.3922 -0.6474 -1.0933
13489SOL    HW240993   0.523   6.415   6.986  0.0797 -0.8492 -0.6980
13490SOL     OW40994   0.133   1.896   1.742 -0.6624  0.2228  0.4336
13490SOL    HW140995   0.175   1.939   1.667 -1.8989 -0.5685 -0.7492
13490SOL    HW240996   0.206   1.871   1.799  0.2913  1.0230 -0.3968
13491SOL     OW40997   2.564   4.996   5.129 -0.4606 -0.2926  0.1580
13491SOL    HW140998   2.480   5.041   5.138 -0.5934 -0.7697  1.5476
13491SOL    HW240999   2.573   4.945   5.210  2.5124  2.0711  1.5230
13492SOL     OW41000   6.452   2.507   1.558  0.0607 -0.7360  0.3539
13492SOL    HW141001   6.531   2.495   1.611  1.0007 -1.0243 -1.0527
13492SOL    HW241002   6.470   2.585   1.506  0.8580 -2.5976 -2.3521
13493SOL     OW41003   5.360   5.206   6.868 -0.3887 -0.1365  0.4330
13493SOL    HW141004   5.399   5.196   6.781  0.2706  0.6038  0.6385
13493SOL    HW241005   5.431   5.239   6.922 -1.0987  0.4664  0.9997
13494SOL     OW41006   4.918   3.254   2.387 -0.5118  0.3405  0.0513
13494SOL    HW141007   4.829   3.283   2.407 -0.4914 -0.2705  1.1663
13494SOL    HW241008   4.927   3.171   2.434  0.4801  0.1354 -0.4620
13495SOL     OW41009   1.042   2.445   1.915 -0.0356  0.1177  0.1738
13495SOL    HW141010   0.948   2.464   1.912 -0.1958 -0.2232  1.8433
13495SOL    HW241011   1.049   2.350   1.903 -0.1558 -0.2356  2.4235
13496SOL     OW41012   7.565   6.726   3.286  0.7829 -0.6115  0.2694
13496SOL    HW141013   7.495   6.665   3.309  0.2966 -0.1102  0.1230
13496SOL    HW241014   7.537   6.810   3.322  0.7958 -0.1767 -0.7173
13497SOL     OW41015   3.301   0.236   5.743 -0.4049  0.1645 -0.2649
13497SOL    HW141016   3.277   0.271   5.829  1.0955  0.9849 -0.1354
13497SOL    HW241017   3.345   0.309   5.699  0.6432 -0.8344 -0.9383
13498SOL     OW41018   6.119   0.460   4.515 -0.3088  0.3760 -0.2862
13498SOL    HW141019   6.079   0.406   4.584 -0.2808 -0.9212 -1.2347
13498SOL    HW241020   6.178   0.519   4.561  0.0035 -0.7337  0.7892
13499SOL     OW41021   3.791   2.410   6.941 -0.4355  0.7624  0.0207
13499SOL    HW141022   3.839   2.354   7.001  0.6046  0.6044 -0.9164
13499SOL    HW241023   3.801   2.498   6.976  1.3666  0.8572 -0.6424
13500SOL     OW41024   1.925   5.422   4.535  0.2348 -0.6127 -0.3114
13500SOL    HW141025   1.861   5.491   4.552 -0.1484 -0.9353 -0.4234
13500SOL    HW241026   1.898   5.350   4.591 -0.1747 -1.1556 -1.1781
13501SOL     OW41027   1.695   6.683   1.475  0.6816  0.4312  0.2923
13501SOL    HW141028   1.640   6.633   1.537 -1.7780  0.1604 -1.9032
13501SOL    HW241029   1.711   6.622   1.403  1.9135  1.2956 -0.2014
13502SOL     OW41030   6.066   5.555   2.848 -0.1078 -0.3430  0.8669
13502SOL    HW141031   6.124   5.629   2.867 -0.5804  0.2813 -0.0425
13502SOL    HW241032   6.119   5.478   2.865  0.8890  0.2120  0.3462
13503SOL     OW41033   6.929   0.670   6.874  0.2467 -0.5887  0.1165
13503SOL    HW141034   6.889   0.707   6.795  0.2122  1.7798  1.1588
13503SOL    HW241035   6.861   0.677   6.941  2.0840  3.6678  1.9704
13504SOL     OW41036   3.042   2.449   5.290 -0.1196 -0.1553 -0.0774
13504SOL    HW141037   3.007   2.524   5.242  0.7782 -0.8206 -1.8630
13504SOL    HW241038   3.125   2.430   5.247  0.8029 -0.7479  1.8469
13505SOL     OW41039   5.622   6.540   3.917 -0.5423  0.0646  0.4536
13505SOL    HW141040   5.684   6.541   3.989 -2.0557 -0.8001  1.8490
13505SOL    HW241041   5.639   6.458   3.871 -0.1656  0.1829  0.3843
13506SOL     OW41042   5.569   3.891   3.148  0.4518 -0.1890 -0.0346
13506SOL    HW141043   5.517   3.885   3.228 -2.3469  1.4711 -1.6011
13506SOL    HW241044   5.605   3.980   3.150  2.4340 -0.9366  0.4553
13507SOL     OW41045   2.459   0.223   6.478 -0.5820 -0.3242  0.5758
13507SOL    HW141046   2.441   0.317   6.486 -0.7854 -0.3941  0.9263
13507SOL    HW241047   2.528   0.206   6.542  0.4018 -0.1591 -0.4027
13508SOL     OW41048   4.373   6.952   6.078  0.2422 -0.6893 -0.1485
13508SOL    HW141049   4.400   6.939   6.169  2.1852 -0.6412 -0.6802
13508SOL    HW241050   4.355   7.045   6.071 -2.6476 -1.0734  0.8267
13509SOL     OW41051   5.718   0.087   0.155  0.3091  0.0100  0.2608
13509SOL    HW141052   5.732   0.166   0.208  1.8326  0.4657 -0.7564
13509SOL    HW241053   5.686   0.120   0.071 -1.0897 -0.6302  0.5287
13510SOL     OW41054   1.214   0.352   4.210  0.0721  0.1807  0.0304
13510SOL    HW141055   1.128   0.309   4.206  0.2632 -0.1756 -0.2162
13510SOL    HW241056   1.260   0.308   4.281  0.0506  0.3841  0.1743
13511SOL     OW41057   0.289   2.019   6.252 -0.5207  0.1389 -0.3800
13511SOL    HW141058   0.258   1.935   6.219 -2.2235  1.8154 -3.4919
13511SOL    HW241059   0.210   2.064   6.282  0.3135  0.8003  0.9593
13512SOL     OW41060   0.104   0.083   7.442 -0.0917 -0.5972 -0.1895
13512SOL    HW141061   0.092   0.177   7.427  0.9688 -0.5181 -0.5712
13512SOL    HW241062   0.195   0.075   7.470 -0.6019 -1.3389  1.3414
13513SOL     OW41063   1.385   4.734   6.573 -0.2688 -0.0110 -0.2789
13513SOL    HW141064   1.405   4.704   6.484  0.2766  1.2268 -0.5852
13513SOL    HW241065   1.408   4.659   6.629  3.2150  0.4774 -0.8148
13514SOL     OW41066   7.067   3.744   3.680 -0.4961  0.2886  0.3054
13514SOL    HW141067   7.076   3.692   3.760  0.0116  1.8110  1.2933
13514SOL    HW241068   6.976   3.771   3.678 -0.3640  0.7912  0.7488
13515SOL     OW41069   6.494   4.413   3.799 -0.0269 -0.0730  0.4123
13515SOL    HW141070   6.565   4.470   3.827  0.5447 -0.7095  0.3076
13515SOL    HW241071   6.516   4.390   3.708 -1.3566  1.2147 -0.2775
13516SOL     OW41072   6.424   4.500   1.525  0.4344  0.0287 -0.5620
13516SOL    HW141073   6.400   4.410   1.505  2.4887 -0.7516  0.2382
13516SOL    HW241074   6.518   4.497   1.541  0.4897  2.2610 -0.1339
13517SOL     OW41075   0.759   5.128   2.475  0.0443  0.0065  0.4248
13517SOL    HW141076   0.763   5.041   2.436  1.4189 -0.0846  0.7007
13517SOL    HW241077   0.675   5.131   2.519 -0.8494 -0.4849 -1.1459
13518SOL     OW41078   6.318   6.437   5.238  0.4888 -0.2618 -0.2304
13518SOL    HW141079   6.255   6.437   5.310 -0.0911 -1.4644 -0.7051
13518SOL    HW241080   6.356   6.525   5.240 -0.2909  0.0818  0.8581
13519SOL     OW41081   2.844   7.050   6.526  0.2665 -0.4510 -0.3145
13519SOL    HW141082   2.902   7.090   6.591  0.4414  0.0632 -0.7777
13519SOL    HW241083   2.895   6.978   6.490  0.4286 -0.3056 -0.3741
13520SOL     OW41084   3.411   5.477   6.291 -0.0600  0.3993 -0.1498
13520SOL    HW141085   3.442   5.404   6.344 -1.9811 -1.4343 -1.3678
13520SOL    HW241086   3.350   5.524   6.348 -1.0558 -0.7281 -0.2532
13521SOL     OW41087   7.492   0.944   5.123  0.2432 -0.4326 -0.4184
13521SOL    HW141088   7.475   0.858   5.083  0.1570 -1.5813  1.9217
13521SOL    HW241089   7.412   0.964   5.171  0.5301  0.6204 -0.3661
13522SOL     OW41090   4.975   3.920   3.963  0.6545  0.3251 -0.1779
13522SOL    HW141091   4.916   3.995   3.965 -1.1826 -1.0599  1.4656
13522SOL    HW241092   4.921   3.847   3.933  1.7630 -0.8121  0.4635
13523SOL     OW41093   6.550   4.342   3.513 -0.4542  0.1949  0.3173
13523SOL    HW141094   6.588   4.428   3.528 -1.3338  0.3582  1.8892
13523SOL    HW241095   6.614   4.281   3.547 -0.0643  0.2547 -0.3022
13524SOL     OW41096   4.707   1.573   1.200  0.7381 -0.9937  0.0910
13524SOL    HW141097   4.755   1.511   1.145  0.6820 -0.4187 -0.6222
13524SOL    HW241098   4.667   1.633   1.138  0.0678 -0.7646  0.7379
13525SOL     OW41099   4.308   3.205   4.535  0.3727  0.2938 -0.3315
13525SOL    HW141100   4.377   3.142   4.557 -0.7358 -0.6251  0.6778
13525SOL    HW241101   4.303   3.263   4.611 -1.4511 -1.0529  0.6758
13526SOL     OW41102   1.799   5.449   6.611 -0.2931 -0.2914  0.3954
13526SOL    HW141103   1.757   5.389   6.674 -0.1675 -0.8334 -0.0250
13526SOL    HW241104   1.767   5.419   6.526 -0.1850  0.2148  0.1788
13527SOL     OW41105   7.297   4.966   0.942  0.1036 -0.5208 -0.1026
13527SOL    HW141106   7.223   4.977   0.882 -1.0906 -2.0089  1.0173
13527SOL    HW241107   7.281   5.030   1.012 -0.2391 -0.9897  0.2478
13528SOL     OW41108   2.116   7.339   7.543 -0.0994  0.5794  0.6131
13528SOL    HW141109   2.063   7.401   7.493 -1.6378 -1.5254 -0.5277
13528SOL    HW241110   2.054   7.273   7.573  1.7710 -1.8022 -0.4252
13529SOL     OW41111   5.123   5.406   4.186 -0.7090  0.4579 -0.0064
13529SOL    HW141112   5.109   5.500   4.173  0.2006  0.7105  0.6434
13529SOL    HW241113   5.136   5.397   4.281 -0.4043 -0.2648 -0.1084
13530SOL     OW41114   6.158   0.970   2.727 -0.2268 -0.2638 -0.4392
13530SOL    HW141115   6.212   0.980   2.649 -0.6090  2.7811 -0.4273
13530SOL    HW241116   6.221   0.963   2.799  0.3608  3.5646 -0.3881
13531SOL     OW41117   2.812   3.741   6.871  0.7292  0.5084  0.3411
13531SOL    HW141118   2.810   3.649   6.895  1.2280  0.9365  2.2184
13531SOL    HW241119   2.889   3.750   6.814 -0.1581 -0.4529 -1.0676
13532SOL     OW41120   5.773   1.785   1.087 -0.0723 -0.1017 -0.3823
13532SOL    HW141121   5.772   1.804   0.993 -0.5726  1.3993 -0.0883
13532SOL    HW241122   5.843   1.720   1.097  0.2329 -0.0082 -1.7425
13533SOL     OW41123   1.765   4.354   2.228 -0.1439 -0.5521 -0.5810
13533SOL    HW141124   1.687   4.297   2.224 -1.7772  1.1802  2.5711
13533SOL    HW241125   1.756   4.412   2.152 -1.6387 -0.7564 -0.5933
13534SOL     OW41126   2.273   4.743   3.831  0.3736 -0.2019  0.0781
13534SOL    HW141127   2.326   4.748   3.751  0.5493  0.2098  0.2184
13534SOL    HW241128   2.183   4.739   3.799  0.5246 -3.4948 -0.2726
13535SOL     OW41129   5.573   1.011   5.277 -0.9273  0.0733  0.0451
13535SOL    HW141130   5.545   1.086   5.330 -2.3945 -0.0990 -0.4430
13535SOL    HW241131   5.572   1.044   5.187  1.6751  0.4033  0.0593
13536SOL     OW41132   6.943   5.939   2.646  1.0621  0.4479 -0.3718
13536SOL    HW141133   6.888   5.897   2.581 -0.6352  0.9112  0.6997
13536SOL    HW241134   6.882   5.987   2.702  2.3922 -0.2092  1.7649
13537SOL     OW41135   1.224   2.153   0.008 -0.3961 -0.1475 -0.2353
13537SOL    HW141136   1.219   2.072  -0.044 -4.3273  0.2157 -0.7598
13537SOL    HW241137   1.256   2.125   0.093 -2.3142 -2.5065 -0.1698
13538SOL     OW41138   0.043   6.788   5.044 -0.1762  0.4476  0.3281
13538SOL    HW141139  -0.016   6.714   5.030  0.0585 -0.1573  2.2908
13538SOL    HW241140   0.129   6.748   5.054 -0.0337  0.9799  1.3046
13539SOL     OW41141   0.812   4.931   0.856  0.1504  0.2133 -0.5514
13539SOL    HW141142   0.807   4.984   0.936 -0.2352  0.2349 -0.5878
13539SOL    HW241143   0.889   4.875   0.868 -0.4781 -0.4972  0.2773
13540SOL     OW41144   4.654   5.009   2.594 -0.1225  0.4030 -0.3114
13540SOL    HW141145   4.610   5.093   2.587  0.9912  1.0797  0.3778
13540SOL    HW241146   4.690   4.993   2.507  0.1181  0.9196 -0.3127
13541SOL     OW41147   2.698   4.133   2.014  0.3864 -0.0078  0.1434
13541SOL    HW141148   2.619   4.173   2.049  0.2688 -0.1048 -0.0056
13541SOL    HW241149   2.719   4.062   2.074  0.2904 -0.0583  0.1172
13542SOL     OW41150   2.814   0.366   3.135  0.4678  0.7626  0.1580
13542SOL    HW141151   2.877   0.368   3.063  0.2921  1.5423  0.0086
13542SOL    HW241152   2.855   0.312   3.202  0.2147 -0.8123 -0.8973
13543SOL     OW41153   4.117   0.800   4.767  0.0071  0.0925 -0.2078
13543SOL    HW141154   4.155   0.714   4.747 -1.4019 -0.5297 -0.2943
13543SOL    HW241155   4.025   0.792   4.744 -0.7492  0.7926  2.2579
13544SOL     OW41156   2.162   1.090   3.520  0.0416  0.3795 -0.2074
13544SOL    HW141157   2.107   1.032   3.467  0.9949  0.2269 -1.0508
13544SOL    HW241158   2.229   1.121   3.460  1.5294 -0.2769  1.0313
13545SOL     OW41159   1.068   6.027   4.864 -0.0183 -0.1150  0.0260
13545SOL    HW141160   1.144   6.012   4.921 -1.2364 -0.3140  1.6888
13545SOL    HW241161   1.100   6.085   4.795  1.1756  1.5343  1.8598
13546SOL     OW41162   4.107   4.078   4.824 -0.0402  0.1600 -0.3102
13546SOL    HW141163   4.056   3.999   4.805  0.6421 -0.0340 -1.4862
13546SOL    HW241164   4.144   4.103   4.739  1.2114  0.7149  0.3662
13547SOL     OW41165   6.062   4.469   7.555 -0.0394  0.2048  0.1747
13547SOL    HW141166   6.094   4.408   7.488 -0.2492  0.9586 -0.6205
13547SOL    HW241167   6.124   4.459   7.627  1.2857  0.7207 -0.8468
13548SOL     OW41168   4.014   4.604   1.624  0.5867  0.5388  0.8188
13548SOL    HW141169   3.959   4.545   1.676  0.8529  0.7991  1.3985
13548SOL    HW241170   3.991   4.692   1.653  1.9678  0.6259  1.7611
13549SOL     OW41171   5.148   1.749   6.451 -0.2958 -0.4860 -0.2774
13549SOL    HW141172   5.178   1.824   6.399 -1.0564 -0.9589 -1.4303
13549SOL    HW241173   5.136   1.679   6.387 -0.0124 -1.4716  0.7328
13550SOL     OW41174   2.595   5.753   1.825  0.0468  0.1429  0.1536
13550SOL    HW141175   2.666   5.810   1.854  0.5667 -0.1060 -0.6044
13550SOL    HW241176   2.561   5.715   1.905  1.4027 -0.4717  0.4614
13551SOL     OW41177   2.462   1.648   2.681 -0.1249 -0.2747 -0.4376
13551SOL    HW141178   2.451   1.648   2.586  1.0537 -0.7344 -0.6018
13551SOL    HW241179   2.472   1.740   2.704 -0.5294 -0.1515 -0.7424
13552SOL     OW41180   2.923   6.294   0.860  0.4431  0.0976 -0.8433
13552SOL    HW141181   2.899   6.254   0.944 -0.8160 -1.2421 -1.7991
13552SOL    HW241182   3.004   6.249   0.835  1.6265  1.5032  0.2819
13553SOL     OW41183   0.019   2.629   4.845  0.4621 -0.8006 -0.2617
13553SOL    HW141184  -0.005   2.544   4.807 -1.1824 -0.6912  0.4543
13553SOL    HW241185   0.084   2.664   4.785 -0.5080 -1.5748 -1.8466
13554SOL     OW41186   4.313   2.568   1.941  0.3700  0.2389  0.1827
13554SOL    HW141187   4.370   2.631   1.897  0.5934 -0.8860 -1.2054
13554SOL    HW241188   4.349   2.483   1.918 -1.3873 -0.4758 -0.0583
13555SOL     OW41189   2.698   1.216   4.876  0.4126 -0.1173 -0.2918
13555SOL    HW141190   2.729   1.194   4.788 -0.1187 -1.9204 -0.0839
13555SOL    HW241191   2.722   1.140   4.929 -1.7488 -0.3211  0.4895
13556SOL     OW41192   7.381   4.131   2.592 -0.2551  0.1185 -0.6338
13556SOL    HW141193   7.296   4.109   2.631 -0.5259 -1.1589 -1.8493
13556SOL    HW241194   7.442   4.133   2.665 -1.4464  1.8841  0.3895
13557SOL     OW41195   0.209   0.701   3.475 -0.4691 -0.3793  0.0307
13557SOL    HW141196   0.173   0.622   3.433 -0.9730 -0.5845  0.8169
13557SOL    HW241197   0.137   0.732   3.530  0.4114 -0.5298  1.2900
13558SOL     OW41198   6.007   0.641   1.518 -0.0388  0.2347  0.0290
13558SOL    HW141199   6.052   0.570   1.473  0.3859  0.4615  0.0908
13558SOL    HW241200   5.949   0.597   1.581 -0.6775 -0.0858 -0.7571
13559SOL     OW41201   0.994   5.161   4.927  0.5225  0.0080 -0.4761
13559SOL    HW141202   0.988   5.126   5.017  1.3572  0.9384 -0.0402
13559SOL    HW241203   0.904   5.180   4.903  0.1444 -1.4885 -0.3488
13560SOL     OW41204   0.802   2.502   2.965  0.0517  0.0761  0.3320
13560SOL    HW141205   0.750   2.579   2.988 -0.5428  0.4976 -2.1379
13560SOL    HW241206   0.892   2.530   2.976 -0.1667  1.0275 -0.2015
13561SOL     OW41207   2.706   4.738   4.120 -0.3633  0.1041 -0.0572
13561SOL    HW141208   2.702   4.699   4.207  0.7206  1.5397  0.6807
13561SOL    HW241209   2.799   4.756   4.107 -0.6836  1.2592 -0.8887
13562SOL     OW41210   3.947   7.544   3.387  0.0870  0.1430 -0.4039
13562SOL    HW141211   3.857   7.553   3.358  0.6985  2.6781 -1.7362
13562SOL    HW241212   3.946   7.571   3.479 -1.1635 -4.1930  1.1158
13563SOL     OW41213   2.537   6.663   0.609  0.1416  0.3834 -0.4277
13563SOL    HW141214   2.505   6.575   0.629 -0.8871  0.1097 -2.9971
13563SOL    HW241215   2.555   6.662   0.515 -0.2306  3.0170 -0.6057
13564SOL     OW41216   1.152   5.934   0.221 -0.0479 -0.2580 -0.0776
13564SOL    HW141217   1.164   5.925   0.126 -1.0982 -1.8627 -0.0929
13564SOL    HW241218   1.191   6.020   0.242  1.7271 -0.6062 -1.6638
13565SOL     OW41219   3.783   1.030   7.501 -0.6976  0.3583 -0.2116
13565SOL    HW141220   3.833   1.003   7.424 -0.3474  0.2084  0.0665
13565SOL    HW241221   3.849   1.058   7.564 -1.0187  1.1472 -0.2163
13566SOL     OW41222   5.803   2.364   6.181 -0.6125  0.5801 -0.1408
13566SOL    HW141223   5.717   2.364   6.223 -0.6523  1.9768 -0.1513
13566SOL    HW241224   5.793   2.426   6.108 -0.6627 -2.0029 -2.4989
13567SOL     OW41225   5.298   1.403   1.674 -0.0336 -0.3080 -0.8328
13567SOL    HW141226   5.299   1.323   1.622  0.1582 -1.0478  0.2751
13567SOL    HW241227   5.228   1.390   1.737  0.0580  0.3582 -0.5808
13568SOL     OW41228   5.801   5.046   4.227 -0.0342 -0.2481  0.2645
13568SOL    HW141229   5.726   5.094   4.190  0.4966  1.5689  1.3944
13568SOL    HW241230   5.844   5.006   4.151 -0.6265  0.9093 -0.7201
13569SOL     OW41231   4.576   1.533   2.906 -0.7362 -0.3069 -0.5256
13569SOL    HW141232   4.579   1.577   2.821  0.1392 -0.4816 -0.5947
13569SOL    HW241233   4.631   1.456   2.894 -2.0563 -1.3006 -0.3314
13570SOL     OW41234   1.529   1.383   1.288 -0.0453 -0.1476  0.9038
13570SOL    HW141235   1.530   1.383   1.192  0.1468 -1.0685  0.8995
13570SOL    HW241236   1.610   1.426   1.313 -0.3336  0.5581  0.6632
13571SOL     OW41237   7.304   6.375   4.584 -0.6112  0.2566 -0.3157
13571SOL    HW141238   7.273   6.464   4.567 -0.8366  0.5335  1.3888
13571SOL    HW241239   7.258   6.321   4.520 -1.2603  1.2365 -0.6935
13572SOL     OW41240   4.600   1.102   2.956  0.1839 -0.0453 -0.3321
13572SOL    HW141241   4.520   1.064   2.920 -0.0879  0.9891 -0.8519
13572SOL    HW241242   4.579   1.117   3.049 -0.5917  1.0919 -0.6619
13573SOL     OW41243   7.396   6.276   0.943  0.1742 -0.1465 -0.0026
13573SOL    HW141244   7.356   6.280   0.856 -1.5281 -1.4396  0.6615
13573SOL    HW241245   7.484   6.242   0.927  1.0311  2.4372 -1.4788
13574SOL     OW41246   2.755   3.906   2.154 -0.5638  0.1114 -0.1426
13574SOL    HW141247   2.716   3.822   2.177 -1.2715  0.7277  1.0463
13574SOL    HW241248   2.844   3.902   2.189  0.6776 -1.4068 -3.1012
13575SOL     OW41249   3.650   5.200   5.632  0.3554 -0.4050  0.2060
13575SOL    HW141250   3.585   5.131   5.649 -0.2623 -0.3135 -1.5104
13575SOL    HW241251   3.606   5.281   5.654 -0.0010 -0.3719 -0.5857
13576SOL     OW41252   0.154   4.438   2.214  0.6148  0.5284 -0.1429
13576SOL    HW141253   0.155   4.534   2.211  0.9222  0.5616  0.8935
13576SOL    HW241254   0.112   4.413   2.131 -0.7626  1.5801  0.1910
13577SOL     OW41255   1.226   5.948   6.831  0.4977  0.1710  0.0957
13577SOL    HW141256   1.297   5.905   6.784  0.0020 -0.1705 -0.3504
13577SOL    HW241257   1.179   5.876   6.874  0.2665  0.3655  0.1720
13578SOL     OW41258   3.491   1.759   2.020 -0.1725  0.2640 -0.0522
13578SOL    HW141259   3.430   1.763   2.092 -1.1045  0.3743 -0.8302
13578SOL    HW241260   3.441   1.724   1.947  0.8050 -0.0679 -0.5900
13579SOL     OW41261   7.076   6.414   2.376 -0.1499 -0.8614 -0.1793
13579SOL    HW141262   7.010   6.432   2.443  1.9815  0.8259  1.6117
13579SOL    HW241263   7.088   6.497   2.331  0.6151 -1.2068 -0.6294
13580SOL     OW41264   4.359   7.421   4.512  0.4059 -0.2983 -0.2967
13580SOL    HW141265   4.353   7.326   4.513  1.0692 -0.3944 -2.2228
13580SOL    HW241266   4.269   7.450   4.528 -0.7121 -1.3633 -3.7586
13581SOL     OW41267   5.196   6.428   3.980 -0.2764 -0.0991 -0.0516
13581SOL    HW141268   5.238   6.487   4.042  2.2866 -2.4753  0.7102
13581SOL    HW241269   5.148   6.366   4.035 -2.3174  0.7423 -0.7894
13582SOL     OW41270   4.176   7.200   7.566  0.2126 -0.2498 -0.4504
13582SOL    HW141271   4.170   7.127   7.504  1.8121  0.6497 -1.7289
13582SOL    HW241272   4.202   7.158   7.648  2.4488 -1.0354 -1.4861
13583SOL     OW41273   7.281   3.126   3.200  0.1413 -0.0950  0.0138
13583SOL    HW141274   7.190   3.145   3.178 -0.1462 -0.8051  0.5258
13583SOL    HW241275   7.328   3.208   3.184 -1.0209  1.0644  2.1792
13584SOL     OW41276   4.010   3.902   7.370 -0.4671 -0.3990 -0.3040
13584SOL    HW141277   3.955   3.832   7.405  0.5826 -0.6836  0.8480
13584SOL    HW241278   4.049   3.865   7.291  0.3858 -1.2898  0.5049
13585SOL     OW41279   0.054   4.432   2.511  0.2724  0.7777  0.1706
13585SOL    HW141280   0.111   4.419   2.435  1.7472  0.8266  1.2238
13585SOL    HW241281   0.001   4.508   2.488 -1.5934 -1.0338 -2.0703
13586SOL     OW41282   3.936   1.872   1.078 -0.4027  0.2417 -0.4630
13586SOL    HW141283   3.899   1.792   1.117 -1.7479  0.6737 -0.7982
13586SOL    HW241284   3.995   1.906   1.145 -0.1550 -0.7891 -0.1365
13587SOL     OW41285   5.173   5.882   6.439  0.2809  0.3111 -0.5260
13587SOL    HW141286   5.125   5.954   6.398  0.4099  0.5407 -0.2820
13587SOL    HW241287   5.164   5.898   6.533  0.6363  0.2277 -0.4757
13588SOL     OW41288   3.053   3.315   6.943  0.4064  0.6010 -0.4393
13588SOL    HW141289   3.078   3.271   7.025  1.0919  1.0565 -0.3957
13588SOL    HW241290   3.105   3.271   6.876 -1.2524 -0.7903 -0.8777
13589SOL     OW41291   1.244   6.862   1.235 -0.2366  0.1956  0.4256
13589SOL    HW141292   1.292   6.897   1.159 -0.7695 -1.0682 -0.5353
13589SOL    HW241293   1.152   6.866   1.208 -0.4058 -0.5746  0.8730
13590SOL     OW41294   4.347   1.013   0.269 -0.4818 -0.0669  0.4471
13590SOL    HW141295   4.284   0.992   0.200 -0.5084  0.6078  0.2544
13590SOL    HW241296   4.380   0.928   0.298 -1.1286 -0.4037  0.2229
13591SOL     OW41297   3.584   2.858   5.624 -0.3281  0.1691 -0.0648
13591SOL    HW141298   3.596   2.874   5.531  1.3892 -0.3986  0.0176
13591SOL    HW241299   3.651   2.792   5.646 -1.6941 -0.8671  1.2532
13592SOL     OW41300   6.090   4.888   3.413  0.2021  0.0666  0.1794
13592SOL    HW141301   6.064   4.920   3.327  0.6863  1.2017  0.4291
13592SOL    HW241302   6.118   4.798   3.398  2.5917  0.9594 -1.3301
13593SOL     OW41303   3.206   7.115   3.737 -0.3859 -0.7198 -0.0396
13593SOL    HW141304   3.153   7.171   3.793  0.1508  2.0201 -2.0764
13593SOL    HW241305   3.198   7.154   3.650  2.6764 -1.8752 -0.9518
13594SOL     OW41306   1.233   2.373   3.334  0.0202 -0.0127  0.1841
13594SOL    HW141307   1.312   2.426   3.322 -0.0927  0.2695  0.6956
13594SOL    HW241308   1.176   2.398   3.261 -0.2219  0.9197  0.6768
13595SOL     OW41309   2.740   2.369   5.984  0.0670 -0.0420  0.4145
13595SOL    HW141310   2.798   2.301   6.019  0.4928 -0.2175 -0.6153
13595SOL    HW241311   2.664   2.368   6.042  0.2094 -1.1683  0.5949
13596SOL     OW41312   6.887   4.770   3.525  0.2610  0.4353 -0.2625
13596SOL    HW141313   6.898   4.807   3.613 -0.5786  0.3172 -0.0994
13596SOL    HW241314   6.905   4.844   3.467  1.3854  0.3732 -0.0202
13597SOL     OW41315   2.439   2.947   3.589  0.1691  0.1636  0.3008
13597SOL    HW141316   2.360   2.907   3.553  1.4285 -0.8768 -1.5138
13597SOL    HW241317   2.489   2.872   3.623  0.1116  0.8798  2.0917
13598SOL     OW41318   3.684   5.487   3.387  0.3994  0.2589 -0.2598
13598SOL    HW141319   3.602   5.458   3.348  1.1296 -1.6064 -0.5293
13598SOL    HW241320   3.744   5.495   3.312  0.8749  0.0756  0.0950
13599SOL     OW41321   5.403   3.084   3.380 -0.1431 -0.0024 -0.0492
13599SOL    HW141322   5.434   3.171   3.406 -0.7765  0.4497 -0.7795
13599SOL    HW241323   5.472   3.050   3.324  0.1683 -0.0365  0.3459
13600SOL     OW41324   2.771   7.502   6.502  0.1477 -0.3980 -0.2891
13600SOL    HW141325   2.839   7.510   6.434  1.3228 -3.7795  0.2871
13600SOL    HW241326   2.695   7.468   6.455  0.4444 -1.2042 -0.2022
13601SOL     OW41327   1.201   3.412   3.334 -0.1823 -0.1147  0.0444
13601SOL    HW141328   1.284   3.365   3.333 -1.1053 -1.8849  1.0879
13601SOL    HW241329   1.224   3.503   3.316  2.1445 -0.2862  1.7055
13602SOL     OW41330   3.796   4.570   1.336 -0.3485 -0.6040  0.5566
13602SOL    HW141331   3.707   4.604   1.351 -0.1852  0.3953 -0.5359
13602SOL    HW241332   3.845   4.598   1.414 -0.7607 -0.2840  0.7120
13603SOL     OW41333   3.842   1.958   2.827  0.1594 -0.3338  0.2865
13603SOL    HW141334   3.817   1.890   2.765  1.1200  0.3785 -0.9238
13603SOL    HW241335   3.911   1.918   2.880  1.0547 -0.1784 -0.7297
13604SOL     OW41336   2.364   3.813   5.839  0.4999 -0.0498  0.2635
13604SOL    HW141337   2.348   3.738   5.897 -1.0673  0.9124  1.1602
13604SOL    HW241338   2.453   3.841   5.861  1.3675 -1.9718 -0.5264
13605SOL     OW41339   3.175   5.838   2.654  0.0658 -0.3929 -0.3506
13605SOL    HW141340   3.172   5.834   2.750  0.9310 -2.5803 -0.3437
13605SOL    HW241341   3.238   5.907   2.635  0.3160 -0.3197  0.6753
13606SOL     OW41342   2.165   5.008   0.468 -0.5646 -0.5238 -0.5260
13606SOL    HW141343   2.146   5.018   0.375  0.1517  0.5824 -0.5804
13606SOL    HW241344   2.079   5.009   0.510 -0.8371  1.8475 -0.9717
13607SOL     OW41345   2.025   2.303   4.579  0.2325  0.2942 -0.2818
13607SOL    HW141346   1.939   2.337   4.603  0.0463  0.5682 -1.2550
13607SOL    HW241347   2.087   2.369   4.610 -0.0127  0.7301 -0.7025
13608SOL     OW41348   6.281   0.829   3.377 -0.5919 -0.0308 -0.3195
13608SOL    HW141349   6.374   0.851   3.369 -0.0977 -2.0961 -1.1115
13608SOL    HW241350   6.235   0.912   3.367  1.1675  0.9959 -0.1744
13609SOL     OW41351   0.960   4.797   6.458  0.2978 -0.4756 -0.1648
13609SOL    HW141352   0.948   4.872   6.517  0.1202  0.1778 -1.0120
13609SOL    HW241353   0.950   4.833   6.370 -1.7776 -1.8463 -0.5534
13610SOL     OW41354   4.096   4.994   1.298  0.2953  0.0891  0.6121
13610SOL    HW141355   4.077   4.952   1.382 -0.1393  1.1692  1.0842
13610SOL    HW241356   4.187   4.973   1.280  1.2302  1.9678  2.6775
13611SOL     OW41357   3.260   4.014   5.633  0.5298 -0.0577  0.3785
13611SOL    HW141358   3.312   4.070   5.576 -2.1075  2.0640 -0.1334
13611SOL    HW241359   3.183   3.991   5.580 -0.0673 -1.4109  1.7567
13612SOL     OW41360   6.954   4.983   6.205  0.2479 -0.3553 -0.3715
13612SOL    HW141361   7.022   4.917   6.191  0.5939 -0.0843  0.0011
13612SOL    HW241362   6.873   4.933   6.212  0.5171 -0.7507 -0.0173
13613SOL     OW41363   0.207   2.644   5.735 -0.0934  0.1858 -0.2981
13613SOL    HW141364   0.182   2.636   5.643  2.6335  1.0841 -1.2114
13613SOL    HW241365   0.265   2.569   5.751 -0.3521  0.1676  0.6385
13614SOL     OW41366   7.251   5.523   1.227  0.0013 -0.0946  0.2336
13614SOL    HW141367   7.329   5.472   1.248 -0.9846 -0.4873  3.5492
13614SOL    HW241368   7.180   5.459   1.227 -0.6363  0.5793 -0.5912
13615SOL     OW41369   5.500   1.181   1.194 -0.1343  0.4827 -0.1877
13615SOL    HW141370   5.530   1.162   1.106 -1.0453  0.4341 -0.4982
13615SOL    HW241371   5.532   1.108   1.247  1.4981  1.1390 -0.2127
13616SOL     OW41372   0.598   0.895   5.581 -0.2109 -0.2299 -0.3789
13616SOL    HW141373   0.606   0.959   5.510 -0.6601  0.1146 -0.1198
13616SOL    HW241374   0.667   0.919   5.642  0.1840 -0.5333 -0.7008
13617SOL     OW41375   4.174   4.200   3.689 -0.2889  0.2918 -0.1410
13617SOL    HW141376   4.121   4.264   3.642  2.4983  2.2422 -0.9247
13617SOL    HW241377   4.194   4.243   3.773  1.0021  0.1552 -0.3605
13618SOL     OW41378   5.532   0.529   0.881 -0.7345 -0.1473 -0.3812
13618SOL    HW141379   5.623   0.501   0.884 -0.2494  1.3468  0.3442
13618SOL    HW241380   5.499   0.514   0.970 -0.8602  0.2768 -0.3487
13619SOL     OW41381   7.339   4.674   6.013  0.4892 -0.2366  0.3559
13619SOL    HW141382   7.434   4.665   6.026  0.6348 -0.4939 -0.7712
13619SOL    HW241383   7.321   4.623   5.934 -0.5546  0.0233  0.4148
13620SOL     OW41384   2.591   6.290   3.058  0.2240  0.3102 -0.1651
13620SOL    HW141385   2.594   6.277   2.963 -0.6256  0.2067 -0.1916
13620SOL    HW241386   2.556   6.378   3.069 -1.1568 -0.2288  0.0389
13621SOL     OW41387   0.381   2.058   5.264 -0.2116  0.0822  0.0392
13621SOL    HW141388   0.409   2.029   5.177 -1.6481  2.2256 -1.2330
13621SOL    HW241389   0.462   2.086   5.306  0.5755 -1.4484 -0.3750
13622SOL     OW41390   2.132   5.728   0.334  0.2775  0.5875 -0.1356
13622SOL    HW141391   2.167   5.669   0.266  0.4407  1.1848 -0.5798
13622SOL    HW241392   2.075   5.672   0.387  0.4285  0.0282 -0.5491
13623SOL     OW41393   6.039   7.549   5.024  0.5976  0.6451 -0.0448
13623SOL    HW141394   6.071   7.492   5.094  0.6352  2.5740  1.5969
13623SOL    HW241395   5.944   7.536   5.024  0.8315 -1.9591 -2.1044
13624SOL     OW41396   4.344   4.568   1.489 -0.0169  0.2052  0.1370
13624SOL    HW141397   4.329   4.616   1.570 -1.7434 -0.8645  0.4989
13624SOL    HW241398   4.283   4.494   1.493  0.1067 -0.0732 -1.9716
13625SOL     OW41399   5.552   1.250   0.158  0.2793 -0.3804 -0.3697
13625SOL    HW141400   5.507   1.329   0.127 -1.5314 -0.2362  2.2326
13625SOL    HW241401   5.525   1.181   0.098 -0.8639  0.3554 -0.7261
13626SOL     OW41402   5.238   1.635   2.619  0.3541 -0.1258  0.5269
13626SOL    HW141403   5.156   1.647   2.666  0.0307 -0.2449 -0.0080
13626SOL    HW241404   5.221   1.667   2.530  0.2894 -1.9564 -0.1654
13627SOL     OW41405   0.372   2.904   5.680 -0.6460  0.4999 -0.4368
13627SOL    HW141406   0.304   2.838   5.693 -1.0081  0.3317 -2.6918
13627SOL    HW241407   0.324   2.987   5.679 -0.5117  0.5841  0.1377
13628SOL     OW41408   0.066   3.837   1.883  0.5505  0.0198  0.5586
13628SOL    HW141409   0.042   3.921   1.844 -0.7039 -0.6208 -0.1429
13628SOL    HW241410   0.073   3.778   1.808  3.6798 -0.0671  0.7831
13629SOL     OW41411   1.995   5.853   6.805 -0.4247 -0.1810  0.4113
13629SOL    HW141412   1.994   5.876   6.898  1.4274  0.5867  0.2794
13629SOL    HW241413   1.999   5.937   6.760 -2.2461 -0.5046 -0.4340
13630SOL     OW41414   3.703   6.606   3.222  0.0910 -0.1361  0.7399
13630SOL    HW141415   3.653   6.612   3.303 -0.5258  0.1367  0.3456
13630SOL    HW241416   3.644   6.564   3.160 -0.7005  2.5928 -0.5238
13631SOL     OW41417   4.090   0.169   2.553  0.7334  0.0992  0.3373
13631SOL    HW141418   4.067   0.128   2.469  0.8179  2.0205 -0.6638
13631SOL    HW241419   4.018   0.229   2.571 -0.0246 -1.3006  2.4376
13632SOL     OW41420   6.401   6.830   5.266  0.5785 -0.3170 -0.1597
13632SOL    HW141421   6.312   6.803   5.245  0.4459 -0.3869  0.4742
13632SOL    HW241422   6.391   6.908   5.319  0.8683 -0.7455  0.5370
13633SOL     OW41423   4.169   3.690   4.088  0.3101  0.0416 -0.0454
13633SOL    HW141424   4.113   3.727   4.155 -1.3412 -2.0296 -0.1986
13633SOL    HW241425   4.230   3.633   4.135 -1.5068 -2.2198 -0.2772
13634SOL     OW41426   2.811   6.376   3.692  0.6071  0.2222  0.1189
13634SOL    HW141427   2.839   6.296   3.647 -1.0219 -0.7017  0.6527
13634SOL    HW241428   2.834   6.361   3.784 -2.7908 -1.2618  0.8753
13635SOL     OW41429   6.982   0.423   0.889  0.7734  0.8499 -0.1257
13635SOL    HW141430   6.968   0.333   0.860  1.8031  1.2274 -2.0017
13635SOL    HW241431   7.066   0.422   0.934  0.7437  0.8550 -0.0698
13636SOL     OW41432   5.651   0.098   2.688  0.9377 -0.4013  0.5920
13636SOL    HW141433   5.604   0.066   2.611 -1.4078 -0.6159  2.0136
13636SOL    HW241434   5.692   0.180   2.660 -0.9228  0.1860 -0.5625
13637SOL     OW41435   5.212   6.145   7.060  0.1867 -0.1943 -0.4332
13637SOL    HW141436   5.291   6.149   7.114  0.1538 -2.0406 -0.1873
13637SOL    HW241437   5.154   6.213   7.096  0.0115 -1.6088  2.1502
13638SOL     OW41438   3.908   5.167   5.679 -0.0088 -0.2741 -0.0509
13638SOL    HW141439   3.943   5.256   5.682 -0.0456 -0.2777  2.0403
13638SOL    HW241440   3.821   5.176   5.641 -0.7953  0.9237  1.8779
13639SOL     OW41441   4.872   6.260   4.119 -0.1073  0.0704 -0.5766
13639SOL    HW141442   4.896   6.286   4.030  1.3639  0.6673 -0.0559
13639SOL    HW241443   4.898   6.168   4.126 -0.5934 -0.0892 -0.8854
13640SOL     OW41444   5.138   1.013   4.587 -0.4216  0.1103  0.0719
13640SOL    HW141445   5.112   0.941   4.529  0.4253  1.0736 -1.5873
13640SOL    HW241446   5.145   1.089   4.529  2.1963  0.7586  1.1099
13641SOL     OW41447   3.699   1.009   4.823  0.5092 -0.0232  0.2866
13641SOL    HW141448   3.794   0.998   4.820  0.3102 -1.9227 -0.3100
13641SOL    HW241449   3.686   1.104   4.816  2.3572  0.3436  1.0430
13642SOL     OW41450   1.789   1.559   6.727 -0.5161  0.6164  0.0679
13642SOL    HW141451   1.866   1.520   6.685 -0.4321 -0.2178  0.9706
13642SOL    HW241452   1.765   1.498   6.796 -0.9329  1.7323  0.9465
13643SOL     OW41453   4.610   4.122   1.476  0.4749  0.3412  0.6047
13643SOL    HW141454   4.653   4.139   1.560 -0.1694  0.5750  0.8937
13643SOL    HW241455   4.567   4.037   1.488 -0.3625  0.7860  0.8242
13644SOL     OW41456   6.818   1.836   2.558  0.2356  0.1321 -0.3879
13644SOL    HW141457   6.804   1.905   2.622 -0.2033  1.0393 -1.4196
13644SOL    HW241458   6.887   1.781   2.596  0.5863  1.1246  0.4615
13645SOL     OW41459   3.003   2.918   5.960  0.2317  0.2354  0.4437
13645SOL    HW141460   2.998   2.917   5.864  0.2361 -1.3018  0.4371
13645SOL    HW241461   3.074   2.980   5.979  1.8341 -1.1567 -0.6592
13646SOL     OW41462   4.687   6.563   4.363  0.0780  0.4722 -0.0423
13646SOL    HW141463   4.676   6.535   4.454  0.3175 -1.2441 -0.5021
13646SOL    HW241464   4.674   6.658   4.365  1.9542  0.7636  2.0851
13647SOL     OW41465   5.698   5.783   2.509 -0.1925  0.4238  0.2160
13647SOL    HW141466   5.774   5.836   2.485 -0.3988  0.3514 -0.6405
13647SOL    HW241467   5.639   5.845   2.553  0.5040  0.3977  1.2204
13648SOL     OW41468   0.725   6.901   3.934  0.5074 -0.0906 -0.6183
13648SOL    HW141469   0.716   6.996   3.942  1.4454  0.0117 -0.7265
13648SOL    HW241470   0.756   6.887   3.845 -1.5307 -0.6483 -1.2828
13649SOL     OW41471   2.668   4.642   0.764 -0.2112  0.2048  0.4243
13649SOL    HW141472   2.748   4.660   0.715 -0.8499  0.3445 -0.5853
13649SOL    HW241473   2.598   4.643   0.699 -0.8669 -1.3342  1.0521
13650SOL     OW41474   1.584   1.766   5.145  0.2894  0.1844 -0.5222
13650SOL    HW141475   1.677   1.789   5.135  0.6560 -0.8902  0.2783
13650SOL    HW241476   1.583   1.699   5.213 -1.1324  0.4856 -0.2232
13651SOL     OW41477   7.074   3.034   0.712  0.1125 -0.2667 -0.5610
13651SOL    HW141478   7.076   2.979   0.790 -1.5098 -0.0187 -0.3062
13651SOL    HW241479   7.082   3.124   0.745  2.3479 -0.2544 -0.9441
13652SOL     OW41480   1.132   0.797   1.577  0.4945  0.4764  0.3234
13652SOL    HW141481   1.060   0.762   1.630  0.0403 -3.4166 -2.4661
13652SOL    HW241482   1.201   0.731   1.584  1.8588  1.6834 -1.0196
13653SOL     OW41483   1.874   0.182   0.788  0.0024 -0.1911 -0.1445
13653SOL    HW141484   1.949   0.193   0.846 -1.3237 -0.1542  1.6397
13653SOL    HW241485   1.842   0.271   0.771  0.4609 -0.1910 -1.0705
13654SOL     OW41486   6.596   2.206   3.259 -0.0874  0.5509 -0.3925
13654SOL    HW141487   6.663   2.157   3.307 -1.5981 -2.4697 -1.1015
13654SOL    HW241488   6.529   2.226   3.325 -0.7551 -0.9226 -0.5779
13655SOL     OW41489   5.476   3.098   2.270 -0.1269 -0.1828  0.7411
13655SOL    HW141490   5.406   3.132   2.325 -0.2083  0.5062  0.2200
13655SOL    HW241491   5.432   3.071   2.189  0.1252 -0.2753  0.6346
13656SOL     OW41492   5.627   0.659   0.273  0.0519  0.2790  0.2947
13656SOL    HW141493   5.640   0.573   0.232 -1.3293 -0.0369  0.4664
13656SOL    HW241494   5.627   0.720   0.200 -1.4245 -0.1728 -0.1191
13657SOL     OW41495   2.289   1.594   4.560 -0.2712 -0.5444 -0.2257
13657SOL    HW141496   2.237   1.668   4.590 -0.9483 -1.5583  1.2492
13657SOL    HW241497   2.247   1.566   4.479 -0.3817  0.2831 -0.4640
13658SOL     OW41498   6.760   2.064   1.856 -0.0066 -0.5155 -0.1138
13658SOL    HW141499   6.687   2.029   1.907  0.2532 -1.8333 -0.5991
13658SOL    HW241500   6.769   2.155   1.885 -1.4899 -0.4922  0.3304
13659SOL     OW41501   4.126   2.094   6.974 -0.0254  0.5167  0.3502
13659SOL    HW141502   4.088   2.108   6.887  0.7638  2.2130  0.2299
13659SOL    HW241503   4.147   2.001   6.977 -2.5007 -0.1223 -0.2350
13660SOL     OW41504   2.148   4.062   2.220 -0.2189 -0.0684 -0.1768
13660SOL    HW141505   2.183   3.973   2.232  0.2728  0.1541  0.0784
13660SOL    HW241506   2.188   4.113   2.291  0.7129  0.6986 -1.2345
13661SOL     OW41507   6.494   6.644   1.479 -0.4797  0.0669  0.4483
13661SOL    HW141508   6.589   6.645   1.485 -0.3333 -0.9864 -1.1388
13661SOL    HW241509   6.464   6.686   1.559  1.3524  2.8966 -0.2230
13662SOL     OW41510   0.558   3.591   4.800 -0.8179 -0.3761  0.1446
13662SOL    HW141511   0.593   3.507   4.770 -2.6888 -1.1897  0.0567
13662SOL    HW241512   0.616   3.657   4.761  1.4036 -1.6107  1.1757
13663SOL     OW41513   2.179   3.826   0.033 -0.2423 -0.4470  0.0238
13663SOL    HW141514   2.097   3.874   0.024 -0.5119 -1.0122 -0.6461
13663SOL    HW241515   2.205   3.807  -0.057  0.7748 -0.0302  0.2212
13664SOL     OW41516   3.855   2.741   6.959 -0.4745 -0.5231 -0.1645
13664SOL    HW141517   3.902   2.799   7.020  0.0632 -0.6351 -0.4592
13664SOL    HW241518   3.920   2.722   6.891 -0.9638 -0.6698 -0.5921
13665SOL     OW41519   2.604   1.259   5.211  0.5281  0.0069  0.2175
13665SOL    HW141520   2.550   1.253   5.133 -0.1244  0.9264  0.5757
13665SOL    HW241521   2.559   1.205   5.276  0.8249 -0.3913  0.0936
13666SOL     OW41522   6.214   6.124   1.879 -0.0355  0.4089  0.0532
13666SOL    HW141523   6.242   6.194   1.822 -0.5113  2.2793  1.9938
13666SOL    HW241524   6.120   6.115   1.863 -0.1125  0.7306  0.3163
13667SOL     OW41525   2.018   1.564   1.081 -0.0640 -0.2670  0.6541
13667SOL    HW141526   2.025   1.616   1.001  0.3403 -3.1441 -1.3608
13667SOL    HW241527   2.078   1.605   1.143 -1.2119  2.7009 -0.0476
13668SOL     OW41528   5.033   3.223   0.687  0.9366 -0.1544 -0.1321
13668SOL    HW141529   5.091   3.286   0.643  0.4239 -0.1398 -0.8140
13668SOL    HW241530   5.007   3.266   0.768  2.1390 -0.2973  0.3436
13669SOL     OW41531   2.043   3.643   2.935  0.2232  0.2847 -0.5860
13669SOL    HW141532   2.062   3.555   2.901  1.1157  0.5444 -0.8037
13669SOL    HW241533   2.130   3.680   2.952 -0.1474  1.1978 -0.6750
13670SOL     OW41534   4.288   0.671   6.167  0.3038  0.3079  0.4017
13670SOL    HW141535   4.214   0.610   6.164 -0.0810  0.7611  0.5937
13670SOL    HW241536   4.285   0.716   6.083  1.0631 -0.4820 -0.0635
13671SOL     OW41537   5.703   4.630   2.801  0.0312 -0.0903  0.3514
13671SOL    HW141538   5.727   4.569   2.732 -0.7147  0.3417 -0.3064
13671SOL    HW241539   5.731   4.587   2.882  0.0287 -1.0394 -0.1427
13672SOL     OW41540   0.125   7.286   0.157 -0.5924  0.5607 -0.5129
13672SOL    HW141541   0.038   7.287   0.119  0.1275 -1.2416 -2.4114
13672SOL    HW241542   0.117   7.230   0.234 -1.4153  1.7803  0.3298
13673SOL     OW41543   0.405   6.452   1.672 -0.1367 -0.0013  0.1215
13673SOL    HW141544   0.467   6.468   1.600 -1.3741 -0.0943 -0.9888
13673SOL    HW241545   0.336   6.398   1.633 -1.1394  0.4429  1.2366
13674SOL     OW41546   6.614   5.330   6.634 -0.4059  0.2056 -0.2994
13674SOL    HW141547   6.629   5.240   6.608 -0.7988  0.3287 -0.9769
13674SOL    HW241548   6.635   5.382   6.556  2.8073  1.0038  0.9243
13675SOL     OW41549   0.129   2.462   0.170  0.6004 -0.1355 -0.2934
13675SOL    HW141550   0.057   2.423   0.120  0.8927 -1.3027  0.1688
13675SOL    HW241551   0.087   2.530   0.223  0.0926  0.2492 -1.1612
13676SOL     OW41552   6.051   2.273   3.427  0.1437  0.0318  0.0567
13676SOL    HW141553   6.063   2.295   3.520 -1.2108  0.6319  0.1159
13676SOL    HW241554   6.113   2.202   3.411 -0.0189 -0.5022  1.6016
13677SOL     OW41555   1.165   4.299   3.316  0.2825  0.1082  0.0834
13677SOL    HW141556   1.069   4.298   3.319  0.2429  0.7830 -0.6835
13677SOL    HW241557   1.186   4.337   3.230  1.2354 -2.5530 -0.9768
13678SOL     OW41558   2.288   2.348   3.385  0.5117  0.5453 -0.0989
13678SOL    HW141559   2.243   2.428   3.358  1.4751  0.4440 -2.1189
13678SOL    HW241560   2.281   2.290   3.310  1.4599 -0.5772  0.6505
13679SOL     OW41561   5.685   3.699   1.889 -0.2052  0.5151 -0.4295
13679SOL    HW141562   5.672   3.757   1.814  0.8122  1.5272  0.1337
13679SOL    HW241563   5.728   3.755   1.955  1.8127 -1.1298 -0.2532
13680SOL     OW41564   2.747   5.108   5.578 -0.1391 -0.9965  0.5897
13680SOL    HW141565   2.796   5.165   5.638 -0.9080  0.5140 -0.1832
13680SOL    HW241566   2.812   5.081   5.513 -0.1502  0.4806 -0.0715
13681SOL     OW41567   5.296   0.093   1.619 -0.9971 -1.0088  0.2849
13681SOL    HW141568   5.330   0.005   1.609 -0.4581 -0.7206 -0.5275
13681SOL    HW241569   5.234   0.103   1.546  0.5345  0.0012 -0.9338
13682SOL     OW41570   3.874   7.436   0.567  0.0012  0.0177  0.1732
13682SOL    HW141571   3.904   7.471   0.651 -1.6234  0.3552  0.6564
13682SOL    HW241572   3.881   7.341   0.576  0.3064  0.0705  0.5051
13683SOL     OW41573   0.306   7.528   0.684  0.1423 -1.0138 -0.6341
13683SOL    HW141574   0.242   7.457   0.684  0.0034 -0.9107  0.6218
13683SOL    HW241575   0.355   7.516   0.765 -0.6746  1.0137  0.2386
13684SOL     OW41576   0.902   2.548   4.737 -0.1891 -0.1091  0.0291
13684SOL    HW141577   0.875   2.488   4.668 -0.4441  0.7271 -0.6097
13684SOL    HW241578   0.998   2.543   4.737 -0.1909 -0.1630 -0.3409
13685SOL     OW41579   5.971   2.949   5.653  0.5142 -0.2945 -0.5466
13685SOL    HW141580   5.984   3.041   5.676  0.7511 -0.4219 -0.1689
13685SOL    HW241581   5.878   2.934   5.667  0.0158  0.4673 -2.7138
13686SOL     OW41582   6.197   6.063   6.449  0.3167  0.2359 -0.4841
13686SOL    HW141583   6.286   6.096   6.451  1.0908 -1.6313 -1.5400
13686SOL    HW241584   6.174   6.051   6.541  0.9306  1.2509 -0.1816
13687SOL     OW41585   0.589   2.486   5.243 -0.2604  0.9202 -0.4682
13687SOL    HW141586   0.623   2.565   5.286  0.2766  1.0344 -1.0920
13687SOL    HW241587   0.656   2.463   5.178 -0.5725  0.1426 -0.5204
13688SOL     OW41588   2.274   7.564   5.904 -0.1676  0.2541 -0.0378
13688SOL    HW141589   2.328   7.498   5.949  0.4104  0.5767 -0.2398
13688SOL    HW241590   2.337   7.629   5.875 -0.5761  0.2101 -1.0409
13689SOL     OW41591   5.669   5.847   5.658 -0.5042 -0.5423 -0.5001
13689SOL    HW141592   5.629   5.763   5.679 -0.1842 -0.5111  0.2805
13689SOL    HW241593   5.761   5.827   5.641 -0.4499 -0.3668 -0.4209
13690SOL     OW41594   0.369   3.359   1.694  0.8608  0.4083 -0.2870
13690SOL    HW141595   0.450   3.406   1.711 -0.2546  2.0593  0.7632
13690SOL    HW241596   0.397   3.270   1.670  2.9033  0.3764  1.8778
13691SOL     OW41597   3.028   1.040   2.523  0.0223 -0.2384 -0.0130
13691SOL    HW141598   2.979   0.965   2.490 -1.4222  0.3559  0.6620
13691SOL    HW241599   3.030   1.101   2.450 -1.0750  0.0998  0.2225
13692SOL     OW41600   6.412   5.915   0.375 -0.3601  0.3100  0.0529
13692SOL    HW141601   6.465   5.978   0.327 -0.0257  0.1928  0.2653
13692SOL    HW241602   6.379   5.855   0.308  0.7575 -0.3347  0.0457
13693SOL     OW41603   6.930   2.518   2.800 -0.1919  0.0650  0.2315
13693SOL    HW141604   6.938   2.443   2.741  1.6726 -0.7087  1.3721
13693SOL    HW241605   6.991   2.499   2.871 -0.1380  2.3787  0.8812
13694SOL     OW41606   1.399   0.411   3.978 -0.1645  0.1686  0.4658
13694SOL    HW141607   1.450   0.338   3.944  1.2048  1.6097 -0.7172
13694SOL    HW241608   1.347   0.373   4.049  0.8660 -1.8275  0.2164
13695SOL     OW41609   2.155   2.345   5.565  0.0544  0.2826  0.1995
13695SOL    HW141610   2.161   2.440   5.575 -1.6418  0.5570 -0.9282
13695SOL    HW241611   2.213   2.326   5.491  1.8898  0.1249  1.6047
13696SOL     OW41612   5.409   3.651   1.184  0.1647  0.2987 -0.7061
13696SOL    HW141613   5.467   3.728   1.188  0.1518  0.3810 -1.8356
13696SOL    HW241614   5.412   3.615   1.272  1.9613  0.2921 -0.7240
13697SOL     OW41615   2.436   2.041   1.052 -0.1993 -0.4617  0.0941
13697SOL    HW141616   2.513   1.989   1.073 -0.1086 -0.6175 -0.5829
13697SOL    HW241617   2.435   2.111   1.117  0.7479 -0.2273 -0.1374
13698SOL     OW41618   1.116   2.178   1.989  0.0684  0.2176 -0.0613
13698SOL    HW141619   1.168   2.130   2.054  0.5996 -0.4302 -0.9378
13698SOL    HW241620   1.039   2.123   1.974  0.3840 -0.0814 -0.6248
13699SOL     OW41621   5.955   2.895   6.079 -0.2932  0.0457 -0.0771
13699SOL    HW141622   5.906   2.824   6.037 -1.3940 -0.0274  1.2844
13699SOL    HW241623   6.033   2.905   6.024 -1.8543  0.2570 -2.4173
13700SOL     OW41624   4.468   3.830   3.910  0.2725 -0.5021  0.1828
13700SOL    HW141625   4.428   3.771   3.847  0.9719  0.3366 -1.0927
13700SOL    HW241626   4.546   3.784   3.941  0.6995 -0.3547 -0.6478
13701SOL     OW41627   6.511   2.847   1.099  0.7502  0.2833 -0.2739
13701SOL    HW141628   6.429   2.877   1.060 -0.6651 -0.5778  1.8682
13701SOL    HW241629   6.556   2.928   1.124  0.1784  0.7550 -0.7147
13702SOL     OW41630   5.077   0.128   0.879 -0.2687  0.2777  0.2565
13702SOL    HW141631   5.054   0.221   0.882 -1.1841  0.0574  0.4239
13702SOL    HW241632   5.120   0.112   0.963  0.5079  0.6999 -0.0566
13703SOL     OW41633   0.016   6.675   1.824  0.1068  0.0709  0.7625
13703SOL    HW141634  -0.037   6.745   1.863  1.0796  2.2929 -1.5981
13703SOL    HW241635   0.000   6.599   1.880 -2.3190  1.7072  2.5195
13704SOL     OW41636   4.906   1.402   4.216 -0.6108 -0.5097 -0.2744
13704SOL    HW141637   4.905   1.366   4.127 -0.1524 -0.0680 -0.4621
13704SOL    HW241638   4.958   1.482   4.209  0.3781 -1.0512  0.6230
13705SOL     OW41639   2.095   1.892   2.500  0.6177 -0.2441 -0.2824
13705SOL    HW141640   2.151   1.964   2.531  1.5942 -1.0899 -0.0639
13705SOL    HW241641   2.123   1.816   2.550 -0.6732 -0.7142 -0.2377
13706SOL     OW41642   4.800   4.912   3.538  0.2246 -0.0605  0.5925
13706SOL    HW141643   4.891   4.916   3.509 -0.4526 -0.5163 -1.8375
13706SOL    HW241644   4.753   4.967   3.475 -1.5808 -2.2315 -0.0800
13707SOL     OW41645   2.917   0.990   2.175  0.0979 -0.4320 -0.0155
13707SOL    HW141646   3.009   0.972   2.159  0.1337 -1.4063  1.1351
13707SOL    HW241647   2.880   1.004   2.088  1.5977  1.4654 -0.4008
13708SOL     OW41648   4.942   0.920   6.757 -0.1315  0.2563  0.3630
13708SOL    HW141649   4.928   0.975   6.681  0.2148 -0.7744 -0.4726
13708SOL    HW241650   4.961   0.981   6.828  1.3042  1.1747 -0.7510
13709SOL     OW41651   7.410   0.881   4.825 -0.1944 -0.1159 -0.2257
13709SOL    HW141652   7.412   0.976   4.814 -0.0911  0.0873  1.3035
13709SOL    HW241653   7.323   0.855   4.796 -0.5695  0.5869  0.2365
13710SOL     OW41654   6.885   3.878   6.395 -0.1994 -0.2668 -0.1973
13710SOL    HW141655   6.959   3.848   6.447 -0.3826  0.4592  0.5096
13710SOL    HW241656   6.823   3.913   6.460 -1.1624 -0.8622 -0.7723
13711SOL     OW41657   1.571   2.985   5.345 -0.1085 -0.3761  0.9549
13711SOL    HW141658   1.494   3.042   5.345  1.8270  2.5107 -0.2909
13711SOL    HW241659   1.612   3.001   5.430  1.6333  2.0988 -0.2166
13712SOL     OW41660   3.664   7.525   2.447 -0.0442 -0.0011 -0.2424
13712SOL    HW141661   3.634   7.616   2.439  0.2616  0.3334  1.7879
13712SOL    HW241662   3.758   7.530   2.435 -0.0772 -0.1237 -0.5594
13713SOL     OW41663   6.250   1.203   3.120 -0.0989  0.8809 -0.1926
13713SOL    HW141664   6.197   1.196   3.041 -2.1040 -2.0176  1.2324
13713SOL    HW241665   6.199   1.260   3.178 -0.7698 -0.3678  0.4806
13714SOL     OW41666   1.865   0.851   2.014  0.4183  0.2915 -0.0886
13714SOL    HW141667   1.912   0.933   2.027  0.2822  0.1127  1.6521
13714SOL    HW241668   1.929   0.783   2.034  0.0609  0.0012  0.0840
13715SOL     OW41669   6.523   1.131   6.011  0.0126 -0.3327  0.1471
13715SOL    HW141670   6.523   1.101   6.101 -1.1739  0.6231  0.4880
13715SOL    HW241671   6.613   1.118   5.982  0.9173  1.0882  2.0794
13716SOL     OW41672   3.874   2.414   1.175  0.5800 -0.1815  0.2831
13716SOL    HW141673   3.883   2.450   1.087  0.9576  1.5548  0.9855
13716SOL    HW241674   3.794   2.452   1.209 -0.4402 -2.0973  0.1719
13717SOL     OW41675   2.724   3.554   5.911 -0.2593 -0.2426 -0.8452
13717SOL    HW141676   2.659   3.499   5.866 -3.9772  0.5565  2.9158
13717SOL    HW241677   2.759   3.497   5.980 -0.2872  0.5682 -0.1466
13718SOL     OW41678   3.036   4.475   6.627  0.4850 -0.1015  0.7603
13718SOL    HW141679   3.091   4.439   6.697 -0.3746 -1.0099  0.9946
13718SOL    HW241680   2.996   4.398   6.587 -0.2799  0.5198  0.3116
13719SOL     OW41681   6.361   5.374   6.314  0.7889 -0.1616 -0.2740
13719SOL    HW141682   6.372   5.331   6.398  1.4213 -0.9633 -0.7474
13719SOL    HW241683   6.282   5.427   6.323  0.2994 -1.0111  0.5005
13720SOL     OW41684   6.414   5.482   3.708 -0.3558  0.2733 -0.0897
13720SOL    HW141685   6.494   5.516   3.667  0.1678  0.7066  1.2399
13720SOL    HW241686   6.378   5.421   3.643  0.8976  0.2837 -0.8262
13721SOL     OW41687   2.538   0.105   2.857 -0.1064  0.3300  0.2366
13721SOL    HW141688   2.547   0.137   2.767  0.3463 -1.0179 -0.2259
13721SOL    HW241689   2.504   0.016   2.847  2.0002 -0.6569  1.2709
13722SOL     OW41690   2.411   3.355   4.075  0.4290 -0.2964  0.4000
13722SOL    HW141691   2.376   3.356   4.164  1.7028 -0.4741  0.9280
13722SOL    HW241692   2.438   3.264   4.061  0.5867 -0.1894 -0.0128
13723SOL     OW41693   1.135   5.791   1.777  0.0757 -0.5800  0.1653
13723SOL    HW141694   1.121   5.748   1.693  0.0850 -1.8097  0.7787
13723SOL    HW241695   1.111   5.725   1.842  0.0501  0.3581  1.1326
13724SOL     OW41696   1.957   6.961   4.945 -0.0887 -0.4590  0.2148
13724SOL    HW141697   1.990   7.049   4.963  1.2213 -1.3272  2.5177
13724SOL    HW241698   1.879   6.975   4.891  0.2320  2.0830  0.2989
13725SOL     OW41699   6.778   7.014   4.072 -0.6494  0.0940  0.1419
13725SOL    HW141700   6.737   7.081   4.018 -0.9583 -0.1232  0.1049
13725SOL    HW241701   6.819   7.062   4.143  0.9157  0.5160 -0.9869
13726SOL     OW41702   1.585   5.939   1.716 -0.5008 -0.0605  0.5967
13726SOL    HW141703   1.602   5.880   1.789 -0.0413 -1.4981 -0.6173
13726SOL    HW241704   1.631   5.900   1.642 -1.6053  0.8989 -0.6607
13727SOL     OW41705   5.114   1.211   6.570 -0.4428 -0.2431 -0.4111
13727SOL    HW141706   5.117   1.306   6.559  0.0193 -0.0733  1.0183
13727SOL    HW241707   5.029   1.186   6.535 -0.7675  0.7514 -0.3617
13728SOL     OW41708   2.723   6.752   7.389 -0.4049 -0.1038 -0.3969
13728SOL    HW141709   2.766   6.804   7.320 -1.9802  2.0841  0.1717
13728SOL    HW241710   2.664   6.694   7.342  1.3991 -1.4919 -1.0519
13729SOL     OW41711   1.199   4.746   6.098  0.3260 -0.0271  0.1517
13729SOL    HW141712   1.110   4.710   6.104  0.9697 -1.4841  3.4760
13729SOL    HW241713   1.238   4.704   6.022 -1.5394 -0.0353 -0.8396
13730SOL     OW41714   0.439   7.054   1.850  0.2683 -0.1629  0.1121
13730SOL    HW141715   0.433   7.145   1.822  2.4183  0.6593  1.9823
13730SOL    HW241716   0.356   7.037   1.894 -0.8326  0.3027 -1.6609
13731SOL     OW41717   1.208   6.680   1.888 -0.0217 -0.8818  0.7968
13731SOL    HW141718   1.189   6.712   1.976 -0.0453 -0.9964  0.8325
13731SOL    HW241719   1.156   6.736   1.830 -1.4187 -1.9799  0.9611
13732SOL     OW41720   1.745   1.205   3.004 -0.0225 -1.1084 -0.0600
13732SOL    HW141721   1.819   1.153   3.036  2.5928  1.6643 -1.1336
13732SOL    HW241722   1.781   1.292   2.991 -3.9604  0.8640  0.8384
13733SOL     OW41723   4.214   3.760   2.893  0.2960 -0.6382  0.0879
13733SOL    HW141724   4.226   3.825   2.823  0.1735 -3.3755 -2.6966
13733SOL    HW241725   4.302   3.725   2.909  0.1150 -1.0213  0.2639
13734SOL     OW41726   6.423   5.445   2.474 -0.2383  0.2141 -0.0995
13734SOL    HW141727   6.435   5.388   2.550  0.8641 -1.2497 -1.2757
13734SOL    HW241728   6.425   5.384   2.399 -0.5556  1.6653 -1.3284
13735SOL     OW41729   1.468   1.738   2.263 -0.3738  0.0785  0.1858
13735SOL    HW141730   1.410   1.748   2.188 -0.0786  1.2187  0.0917
13735SOL    HW241731   1.416   1.690   2.327 -1.0749  0.2169 -0.2656
13736SOL     OW41732   3.194   0.251   0.743 -0.3837 -0.7082 -0.4306
13736SOL    HW141733   3.289   0.242   0.746 -0.4682 -1.3869  1.9386
13736SOL    HW241734   3.179   0.340   0.710  1.0481 -0.6844 -1.0768
13737SOL     OW41735   2.479   0.963   5.832 -0.0099 -0.4309 -0.2866
13737SOL    HW141736   2.546   0.896   5.847  0.4504 -0.1819 -1.1822
13737SOL    HW241737   2.434   0.972   5.917  0.2203 -1.5393 -0.0350
13738SOL     OW41738   0.217   5.441   5.223  0.5907  0.3260  0.7543
13738SOL    HW141739   0.273   5.410   5.152 -0.5740  1.6085 -0.8054
13738SOL    HW241740   0.225   5.374   5.291  1.1807 -1.3421 -0.8768
13739SOL     OW41741   7.405   7.326   0.385 -0.0749 -0.1950  0.0807
13739SOL    HW141742   7.442   7.409   0.354  1.6051 -1.2600 -0.9229
13739SOL    HW241743   7.380   7.344   0.476  0.8148  1.2508  0.0739
13740SOL     OW41744   5.903   1.190   6.041  0.0778 -0.1628 -0.2414
13740SOL    HW141745   5.951   1.107   6.036 -0.7907 -0.8501  1.6393
13740SOL    HW241746   5.870   1.204   5.953  2.5742 -0.3269 -1.2906
13741SOL     OW41747   3.347   0.631   6.889  0.0039  0.7984 -0.0258
13741SOL    HW141748   3.297   0.685   6.828  2.0045  1.2975 -1.3059
13741SOL    HW241749   3.299   0.637   6.971 -1.0014  2.7515 -0.7088
13742SOL     OW41750   5.943   5.585   4.599 -0.3984  0.6626  0.3008
13742SOL    HW141751   5.848   5.584   4.586 -0.4563 -0.2993  0.7202
13742SOL    HW241752   5.969   5.673   4.573 -0.9825  0.0598 -2.7779
13743SOL     OW41753   1.308   1.772   6.226 -0.0916  0.3222  0.2647
13743SOL    HW141754   1.282   1.854   6.182  0.5880  0.0765 -0.6386
13743SOL    HW241755   1.360   1.800   6.301 -1.0548  0.7488  0.7894
13744SOL     OW41756   2.122   4.214   1.988 -0.3147 -0.3591 -0.0583
13744SOL    HW141757   2.076   4.297   1.999 -0.2629 -0.4412  0.8858
13744SOL    HW241758   2.122   4.175   2.076  1.2478 -0.5146 -0.0902
13745SOL     OW41759   5.977   4.130   7.509 -0.2009  0.4710  0.1613
13745SOL    HW141760   5.962   4.057   7.449 -0.1141  0.5813  0.0045
13745SOL    HW241761   5.892   4.172   7.519 -0.2185  0.4439  0.1257
13746SOL     OW41762   4.206   4.651   6.252 -0.7212  0.4694  0.1311
13746SOL    HW141763   4.221   4.741   6.224 -0.5402  0.2878 -0.3659
13746SOL    HW241764   4.138   4.618   6.193  0.0242 -0.0788 -0.4287
13747SOL     OW41765   0.178   0.114   5.620 -0.2778 -0.1229  0.0810
13747SOL    HW141766   0.247   0.064   5.574 -0.6849  0.4980 -1.2718
13747SOL    HW241767   0.175   0.075   5.707  0.8171 -1.1047 -0.2785
13748SOL     OW41768   2.432   0.007   4.878 -0.1874 -0.3906 -0.1900
13748SOL    HW141769   2.493   0.046   4.815 -2.1190  0.6622 -1.5359
13748SOL    HW241770   2.434   0.066   4.953 -0.6166  0.4791 -0.8419
13749SOL     OW41771   1.028   3.460   1.018 -0.4795 -0.6254  0.2233
13749SOL    HW141772   0.987   3.432   0.936 -2.0930 -0.4739  0.9425
13749SOL    HW241773   0.956   3.461   1.081  0.5550  0.1637  1.4242
13750SOL     OW41774   6.485   4.489   6.526 -0.2404  0.8098  0.2312
13750SOL    HW141775   6.481   4.574   6.570 -0.2308  1.8733 -1.7285
13750SOL    HW241776   6.402   4.447   6.546 -0.7102  1.7559  0.3107
13751SOL     OW41777   5.382   5.876   2.538 -0.2888  0.2958  0.2647
13751SOL    HW141778   5.370   5.822   2.460 -0.4247  1.1740 -0.3451
13751SOL    HW241779   5.457   5.931   2.518 -0.0220  0.1910  0.9549
13752SOL     OW41780   0.740   0.299   2.578  0.0226 -0.3474  0.2673
13752SOL    HW141781   0.746   0.272   2.670 -0.5749 -2.3375 -0.2283
13752SOL    HW241782   0.651   0.274   2.551  0.1232  0.3798 -0.8167
13753SOL     OW41783   0.507   1.865   2.861 -0.3154 -0.5212 -0.0351
13753SOL    HW141784   0.572   1.928   2.830 -0.2160 -0.6682 -0.1262
13753SOL    HW241785   0.549   1.780   2.850  0.6259 -0.4921  2.6056
13754SOL     OW41786   5.458   7.447   0.830 -0.6759  0.3265 -0.2689
13754SOL    HW141787   5.531   7.466   0.772 -0.5982  1.0828  0.0667
13754SOL    HW241788   5.475   7.498   0.909 -2.4470  2.0000 -0.8691
13755SOL     OW41789   4.479   4.914   5.475 -0.1885 -0.2470 -0.1667
13755SOL    HW141790   4.405   4.876   5.428  0.8685 -0.4316 -1.7937
13755SOL    HW241791   4.440   4.966   5.545 -1.7872 -1.3445 -0.2027
13756SOL     OW41792   1.253   7.350   7.157  0.1064  0.1421  0.5024
13756SOL    HW141793   1.324   7.311   7.106 -0.3937  0.7594 -0.7093
13756SOL    HW241794   1.194   7.277   7.177 -0.6297  0.1552 -1.4143
13757SOL     OW41795   7.070   6.410   3.537 -0.1086  0.2448  0.3080
13757SOL    HW141796   7.003   6.345   3.560  0.3680 -0.2468  0.3201
13757SOL    HW241797   7.053   6.429   3.444 -0.0964 -0.0901  0.2352
13758SOL     OW41798   1.066   6.810   1.716  0.2102  0.3164  0.0700
13758SOL    HW141799   1.115   6.850   1.645  0.9015 -0.2261  0.2266
13758SOL    HW241800   0.976   6.805   1.684 -0.1707  3.0459  0.4890
13759SOL     OW41801   5.967   6.856   0.821 -0.0683  0.1907  0.5580
13759SOL    HW141802   6.003   6.787   0.765 -0.8367 -1.0272  1.5096
13759SOL    HW241803   5.928   6.919   0.760 -1.0869 -1.2155 -0.3121
13760SOL     OW41804   6.574   3.100   1.231 -0.2784 -0.0151 -0.1956
13760SOL    HW141805   6.611   3.168   1.287 -0.7584  1.0791 -1.1559
13760SOL    HW241806   6.523   3.045   1.291  0.8903 -0.0996  0.7409
13761SOL     OW41807   1.595   6.003   5.050  0.4210  0.0166  0.5761
13761SOL    HW141808   1.638   5.922   5.076  0.5322  0.0359  0.4606
13761SOL    HW241809   1.633   6.023   4.964 -1.6270 -1.2843 -0.6932
13762SOL     OW41810   4.943   4.132   5.004 -0.3525 -0.5268 -0.0945
13762SOL    HW141811   5.017   4.071   5.010  0.2491  0.2584  0.7843
13762SOL    HW241812   4.956   4.178   4.921  0.5771  0.1209  0.3882
13763SOL     OW41813   7.181   2.958   6.116  0.0324  0.2722 -0.0351
13763SOL    HW141814   7.260   3.006   6.092 -0.2707  0.6712 -0.2473
13763SOL    HW241815   7.142   2.932   6.032  1.3506 -2.3144  0.0411
13764SOL     OW41816   3.298   5.826   6.586 -0.2125 -0.0432  0.2058
13764SOL    HW141817   3.253   5.837   6.670 -3.4394 -1.5204 -1.1278
13764SOL    HW241818   3.250   5.883   6.526  1.1489 -0.0638 -0.9528
13765SOL     OW41819   4.383   0.071   3.691 -0.4794 -0.0184  0.2120
13765SOL    HW141820   4.435   0.005   3.738  2.5910  0.8290 -1.6929
13765SOL    HW241821   4.344   0.023   3.618  1.2139  0.0356 -0.7919
13766SOL     OW41822   5.777   0.382   4.362  0.1916 -0.2436  0.1377
13766SOL    HW141823   5.810   0.302   4.402  0.7355 -0.2243 -0.2526
13766SOL    HW241824   5.771   0.361   4.269  2.8155  0.9347 -0.3787
13767SOL     OW41825   1.446   4.141   0.941  0.4620  0.3078  0.1499
13767SOL    HW141826   1.403   4.105   0.864  1.5951 -0.8362  0.0116
13767SOL    HW241827   1.525   4.183   0.908  0.8705 -0.0393  0.6648
13768SOL     OW41828   3.503   4.593   5.952  0.4716  0.0293 -0.0220
13768SOL    HW141829   3.529   4.592   5.860  1.8126  0.7031  0.3324
13768SOL    HW241830   3.521   4.504   5.983 -0.5359 -0.3730 -0.5363
13769SOL     OW41831   4.256   3.306   5.394 -0.1424  0.6113  0.8295
13769SOL    HW141832   4.307   3.257   5.459 -0.7509 -0.8922  0.2345
13769SOL    HW241833   4.167   3.307   5.428 -0.2716  0.6701  0.4988
13770SOL     OW41834   0.510   2.001   5.025  0.4036  0.0989  0.0529
13770SOL    HW141835   0.495   2.073   4.963  0.6508  0.7523  0.7295
13770SOL    HW241836   0.588   1.957   4.991  0.8967  0.8175  0.2074
13771SOL     OW41837   4.236   1.076   3.176  0.0583 -0.4642 -0.2745
13771SOL    HW141838   4.185   1.034   3.244  1.1110 -2.3279 -0.5839
13771SOL    HW241839   4.277   1.004   3.128  2.5205  0.9120 -0.3777
13772SOL     OW41840   4.169   1.351   5.097  0.5115  0.2790 -0.2068
13772SOL    HW141841   4.151   1.264   5.063  1.3383  0.1534 -0.3408
13772SOL    HW241842   4.259   1.370   5.070  0.4835  1.0076  0.1672
13773SOL     OW41843   7.329   4.319   4.355  0.3511  0.0928  0.1576
13773SOL    HW141844   7.323   4.255   4.426 -0.7158  0.4387  0.3952
13773SOL    HW241845   7.420   4.313   4.325  0.1083 -2.0326 -0.3136
13774SOL     OW41846   2.799   0.297   5.162  0.1265 -0.3223 -0.2085
13774SOL    HW141847   2.803   0.277   5.255  1.3988  1.6504  0.2069
13774SOL    HW241848   2.777   0.390   5.157 -1.0750 -0.6396 -1.9264
13775SOL     OW41849   5.219   1.166   3.734  0.3706 -0.3015 -0.3042
13775SOL    HW141850   5.177   1.112   3.667  2.3453 -1.4056 -0.7231
13775SOL    HW241851   5.196   1.124   3.817 -1.8489  0.9084 -0.2236
13776SOL     OW41852   4.497   6.857   5.248  0.3900  0.7787 -0.3800
13776SOL    HW141853   4.566   6.833   5.186  1.3598 -0.6619  1.1681
13776SOL    HW241854   4.530   6.937   5.290  0.3821  0.9583 -0.7074
13777SOL     OW41855   1.319   6.508   6.237  0.0967  0.5874  0.3391
13777SOL    HW141856   1.225   6.527   6.239 -0.4337 -1.7776  1.2261
13777SOL    HW241857   1.344   6.499   6.329  0.8464 -0.2556  0.0712
13778SOL     OW41858   5.893   1.104   5.764  0.0869  0.1096  0.4200
13778SOL    HW141859   5.877   1.157   5.686 -2.4223  0.5320  1.1606
13778SOL    HW241860   5.884   1.014   5.735  0.9473  0.1902 -0.1244
13779SOL     OW41861   5.153   1.699   3.039  0.1855 -0.2608  0.3542
13779SOL    HW141862   5.227   1.759   3.048  0.2540 -0.1956 -0.5335
13779SOL    HW241863   5.076   1.757   3.038  0.3229 -0.0467 -1.6920
13780SOL     OW41864   5.112   0.373   6.965  0.4692  0.1940  0.2624
13780SOL    HW141865   5.131   0.341   7.054 -3.0283 -1.8956  0.4623
13780SOL    HW241866   5.111   0.294   6.911 -0.9536  0.9381 -0.8742
13781SOL     OW41867   6.857   0.831   0.995  0.0158 -0.2665  0.6321
13781SOL    HW141868   6.911   0.862   0.922  0.4116  0.3175  1.1592
13781SOL    HW241869   6.818   0.750   0.964  1.8654 -1.1660  0.5250
13782SOL     OW41870   6.722   2.840   5.948  0.4382 -0.4752  0.0902
13782SOL    HW141871   6.638   2.829   5.992  0.8327 -0.6956  0.8045
13782SOL    HW241872   6.699   2.872   5.861 -0.3596 -0.0603  0.4390
13783SOL     OW41873   0.172   1.753   3.152 -0.1788 -0.5725 -0.6244
13783SOL    HW141874   0.202   1.796   3.072 -0.3644  1.2535  0.2497
13783SOL    HW241875   0.250   1.706   3.184  0.0142 -0.9575 -1.6168
13784SOL     OW41876   1.662   6.248   0.535  0.2958 -0.3349 -0.3377
13784SOL    HW141877   1.680   6.168   0.583  2.5698  1.9639  3.1333
13784SOL    HW241878   1.748   6.275   0.500  0.4712  2.2145  1.6817
13785SOL     OW41879   3.471   1.702   6.211 -0.3985 -0.1545 -0.1129
13785SOL    HW141880   3.474   1.619   6.260  0.1590  0.6381  1.2705
13785SOL    HW241881   3.410   1.685   6.139  0.9325 -2.2590 -0.8454
13786SOL     OW41882   6.676   4.593   3.884  0.4477  0.3840  0.0309
13786SOL    HW141883   6.621   4.591   3.962  0.3213  1.8182  0.0014
13786SOL    HW241884   6.765   4.584   3.918  0.3708  0.7043  0.3222
13787SOL     OW41885   7.322   4.445   0.360 -0.3656 -0.3028 -0.1774
13787SOL    HW141886   7.274   4.379   0.410 -0.2430 -0.3762 -0.1562
13787SOL    HW241887   7.414   4.421   0.371 -0.2966  0.0859  0.1346
13788SOL     OW41888   4.007   4.744   5.613  0.1112  0.6352  0.1709
13788SOL    HW141889   3.988   4.715   5.524  1.0557  1.4200 -0.3079
13788SOL    HW241890   4.097   4.717   5.629  0.7177  2.4629  0.0346
13789SOL     OW41891   3.963   3.625   7.388  0.0723 -0.1534 -0.0798
13789SOL    HW141892   4.057   3.612   7.389  0.3169  1.4253  0.1480
13789SOL    HW241893   3.933   3.582   7.307  1.4307  1.9095 -1.7861
13790SOL     OW41894   3.496   5.165   6.128  0.3823 -0.6119  0.0578
13790SOL    HW141895   3.447   5.159   6.210  0.0927  0.2205 -0.0424
13790SOL    HW241896   3.518   5.074   6.107 -2.1853 -1.1935 -0.5390
13791SOL     OW41897   6.951   2.943   0.382  0.0397  0.0539  0.2856
13791SOL    HW141898   6.869   2.957   0.334  0.5208  1.1641 -0.2618
13791SOL    HW241899   6.927   2.888   0.456 -0.8135 -1.3466 -0.9803
13792SOL     OW41900   2.181   3.318   0.202 -0.0742  0.6540 -0.1135
13792SOL    HW141901   2.110   3.374   0.173  0.2939  1.4972  0.5602
13792SOL    HW241902   2.161   3.232   0.165 -0.5380  1.2661 -1.3481
13793SOL     OW41903   4.999   0.869   1.735  0.0603 -0.0245 -0.6637
13793SOL    HW141904   5.077   0.905   1.778 -1.1747  1.5642  0.3421
13793SOL    HW241905   4.976   0.934   1.669 -1.7430  0.7398  0.6342
13794SOL     OW41906   3.210   6.311   3.692 -0.0810  0.3400 -0.5182
13794SOL    HW141907   3.172   6.347   3.612 -2.2952 -0.8673 -0.0893
13794SOL    HW241908   3.205   6.383   3.755 -0.4558  0.6039 -0.8452
13795SOL     OW41909   6.783   1.026   3.948 -0.1020  0.0129 -0.2210
13795SOL    HW141910   6.869   0.985   3.957 -0.4448 -0.6949 -0.0766
13795SOL    HW241911   6.787   1.072   3.864  0.5694  0.3877  0.0075
13796SOL     OW41912   0.359   6.101   1.317 -0.2943  0.4437 -0.5295
13796SOL    HW141913   0.411   6.149   1.253  0.1910  0.5391 -0.0694
13796SOL    HW241914   0.423   6.047   1.364 -0.8066 -0.5281 -0.9237
13797SOL     OW41915   3.578   0.897   7.291  0.6048 -0.5482 -0.5543
13797SOL    HW141916   3.648   0.910   7.355  1.8313 -0.1009 -1.9296
13797SOL    HW241917   3.566   0.802   7.289  0.9490 -0.6090 -0.0756
13798SOL     OW41918   0.996   2.680   1.332  0.0686  0.0136  0.4813
13798SOL    HW141919   0.918   2.624   1.331 -0.4261  0.7010  0.2282
13798SOL    HW241920   0.969   2.761   1.289  0.4762  0.8524  1.7562
13799SOL     OW41921   3.611   1.343   0.124  0.1774  0.1915 -0.1414
13799SOL    HW141922   3.518   1.362   0.112  0.2038  0.2914 -0.1841
13799SOL    HW241923   3.650   1.361   0.039 -0.0092 -1.3360 -0.5911
13800SOL     OW41924   6.375   0.188   2.612 -0.4944 -0.1846  0.3405
13800SOL    HW141925   6.379   0.283   2.616  0.7317 -0.1849 -0.4051
13800SOL    HW241926   6.437   0.164   2.542 -3.3290 -1.3241 -2.0006
13801SOL     OW41927   2.907   4.705   7.521  0.3214  0.4057  0.5157
13801SOL    HW141928   2.962   4.633   7.490  0.5257  0.3677  0.9547
13801SOL    HW241929   2.953   4.784   7.492 -0.5392  0.3664 -1.0555
13802SOL     OW41930   4.710   5.597   6.120 -0.1062  0.6724 -0.5723
13802SOL    HW141931   4.715   5.681   6.076  1.8307  1.7570  1.5016
13802SOL    HW241932   4.794   5.555   6.101 -0.1594  0.1925  0.2001
13803SOL     OW41933   2.346   3.431   2.712 -0.4637 -0.7392  0.2829
13803SOL    HW141934   2.390   3.513   2.691  1.4703 -1.4218  1.4044
13803SOL    HW241935   2.403   3.363   2.675 -1.6399 -1.6198  0.0196
13804SOL     OW41936   3.775   7.463   6.968  0.0804  1.0298 -0.2541
13804SOL    HW141937   3.826   7.459   7.049  1.8449 -1.2588 -1.3471
13804SOL    HW241938   3.684   7.453   6.996  0.4802  2.0422  1.5394
13805SOL     OW41939   2.616   5.070   2.181  0.3204  0.0778  0.2494
13805SOL    HW141940   2.573   5.070   2.267  0.0212  0.8337  0.1103
13805SOL    HW241941   2.606   4.980   2.149  1.8016 -0.6495  1.6599
13806SOL     OW41942   2.180   0.887   4.698 -0.3472 -0.0236  0.0482
13806SOL    HW141943   2.110   0.922   4.754 -0.2370  0.4268 -0.0928
13806SOL    HW241944   2.138   0.817   4.647 -1.2343  1.5823 -1.5271
13807SOL     OW41945   2.536   0.747   3.989 -0.0928 -0.3110 -0.5578
13807SOL    HW141946   2.561   0.671   3.935  0.9667 -1.2126  1.1310
13807SOL    HW241947   2.447   0.727   4.018 -0.1296 -0.5127 -0.8040
13808SOL     OW41948   5.235   4.236   1.573  0.3053 -0.6052 -0.2540
13808SOL    HW141949   5.235   4.251   1.668  0.0982  1.3920 -0.5454
13808SOL    HW241950   5.181   4.306   1.537  1.5060 -0.5190 -1.9851
13809SOL     OW41951   5.195   2.222   4.069  0.3789 -0.4920  0.0414
13809SOL    HW141952   5.279   2.181   4.047  0.6096 -0.8661  1.5115
13809SOL    HW241953   5.143   2.214   3.989  1.5430 -0.7654 -0.7144
13810SOL     OW41954   0.231   3.943   4.521 -0.2951  0.2257 -1.2676
13810SOL    HW141955   0.314   3.944   4.568 -0.0020  2.5631 -1.6968
13810SOL    HW241956   0.247   3.890   4.443 -1.0268 -4.4688  1.3929
13811SOL     OW41957   5.305   6.769   6.280 -0.2901 -1.1790 -0.1682
13811SOL    HW141958   5.387   6.720   6.267  0.4333  0.2612 -1.4072
13811SOL    HW241959   5.269   6.778   6.191 -1.2872 -0.9344  0.2557
13812SOL     OW41960   5.265   6.818   5.018  0.0350  0.0817 -0.1292
13812SOL    HW141961   5.174   6.847   5.029  0.3598  1.3598 -0.7273
13812SOL    HW241962   5.269   6.787   4.928 -0.0961 -1.1011  0.2574
13813SOL     OW41963   4.396   3.059   6.669  0.4860 -0.2156 -0.0647
13813SOL    HW141964   4.384   3.079   6.576 -2.7137 -0.2025  0.2539
13813SOL    HW241965   4.393   2.964   6.674  1.6334 -0.2669 -0.0332
13814SOL     OW41966   5.078   0.659   7.024 -0.4320  0.3152  0.0331
13814SOL    HW141967   5.100   0.567   7.009 -0.3433  0.4438 -0.6824
13814SOL    HW241968   5.005   0.676   6.965 -1.1459  0.4346  0.9267
13815SOL     OW41969   1.841   6.936   5.409  0.6491  0.4327 -0.0770
13815SOL    HW141970   1.817   6.865   5.350  1.3243  0.1331 -0.0050
13815SOL    HW241971   1.825   6.900   5.496 -0.8941  1.0741 -0.0649
13816SOL     OW41972   0.667   3.864   5.562  0.1665  0.4249  0.5909
13816SOL    HW141973   0.738   3.802   5.581 -0.6492 -0.6290  0.3149
13816SOL    HW241974   0.662   3.866   5.467 -0.2377  0.4131  0.6096
13817SOL     OW41975   4.759   6.944   5.543 -0.0911 -0.2814  0.0836
13817SOL    HW141976   4.777   6.930   5.636 -0.7815  1.5656  0.5585
13817SOL    HW241977   4.668   6.974   5.541  0.7075  2.3560 -0.8381
13818SOL     OW41978   1.595   2.266   0.941 -0.3877 -0.2402 -0.2413
13818SOL    HW141979   1.632   2.184   0.974 -1.0379 -0.3222  0.3085
13818SOL    HW241980   1.651   2.290   0.867 -0.2636 -1.2420 -0.4783
13819SOL     OW41981   1.793   4.803   3.420  0.2474 -0.0899  0.0946
13819SOL    HW141982   1.881   4.772   3.400 -0.0961 -1.1240  0.0925
13819SOL    HW241983   1.737   4.756   3.358 -0.5006 -0.9907  1.4010
13820SOL     OW41984   5.675   0.037   4.299 -0.4108 -0.7437  0.8438
13820SOL    HW141985   5.732   0.079   4.363 -0.3372 -0.3876  0.5417
13820SOL    HW241986   5.597   0.091   4.296  0.7225  0.9389 -1.4909
13821SOL     OW41987   1.330   3.538   2.484  0.4596  0.1513 -0.1064
13821SOL    HW141988   1.288   3.542   2.398  2.5714 -2.4125 -1.3908
13821SOL    HW241989   1.407   3.594   2.475  0.1289  0.7330  0.5382
13822SOL     OW41990   4.851   2.128   5.330 -0.2533  0.2527  0.3948
13822SOL    HW141991   4.849   2.057   5.266 -0.6255  0.6564 -0.0509
13822SOL    HW241992   4.766   2.171   5.321  0.4829  1.6422 -0.3887
13823SOL     OW41993   5.582   1.649   5.489  0.1819  0.1004 -0.0005
13823SOL    HW141994   5.641   1.692   5.551  0.4052  1.1066 -0.8825
13823SOL    HW241995   5.536   1.583   5.541  0.1880  1.0732  1.2919
13824SOL     OW41996   2.313   5.136   0.087  1.3373  0.2672  0.0293
13824SOL    HW141997   2.260   5.150   0.165  2.1262 -0.6301  0.7505
13824SOL    HW241998   2.254   5.154   0.014  0.9524  2.5547  0.8004
13825SOL     OW41999   6.066   3.976   0.672 -0.1242  0.1095  0.2466
13825SOL    HW142000   6.057   3.931   0.588  0.2392  2.0953 -0.9310
13825SOL    HW242001   6.144   3.937   0.712  0.6680  0.2340 -1.1075
13826SOL     OW42002   0.208   1.286   4.518  0.0179 -0.2233  0.1465
13826SOL    HW142003   0.162   1.336   4.586 -0.0703 -1.5249  1.0808
13826SOL    HW242004   0.298   1.320   4.520  0.5566 -1.5789  2.3548
13827SOL     OW42005   4.393   2.381   4.690 -0.5138  0.8690  0.6431
13827SOL    HW142006   4.406   2.454   4.629  1.0041  0.8743  0.9499
13827SOL    HW242007   4.416   2.416   4.775 -0.5557  0.2583  0.9113
13828SOL     OW42008   4.831   3.400   0.841 -0.1302 -0.4314  0.1774
13828SOL    HW142009   4.746   3.444   0.842 -0.2616 -0.6629  1.2662
13828SOL    HW242010   4.882   3.446   0.775 -0.7316  0.4350  0.3008
13829SOL     OW42011   0.385   0.763   6.237 -0.6022  0.2679 -0.1243
13829SOL    HW142012   0.445   0.815   6.289  1.1502  0.7709 -2.4984
13829SOL    HW242013   0.360   0.819   6.164  0.2526 -1.6678 -2.0227
13830SOL     OW42014   6.468   1.322   3.624  0.3463 -0.4276 -0.1544
13830SOL    HW142015   6.414   1.400   3.634  1.0041  0.0422 -0.1803
13830SOL    HW242016   6.453   1.293   3.534  0.4567 -0.0539 -0.2949
13831SOL     OW42017   6.329   5.903   7.037 -0.3787  0.1000  0.3432
13831SOL    HW142018   6.383   5.911   7.115 -0.0843 -2.2668  0.4422
13831SOL    HW242019   6.284   5.819   7.047 -2.0637  0.7684 -0.9939
13832SOL     OW42020   2.276   3.114   1.334 -0.8546  0.5434 -0.2753
13832SOL    HW142021   2.280   3.156   1.420  2.2636  1.8896 -0.9532
13832SOL    HW242022   2.220   3.170   1.282  0.4181  1.9773 -0.1658
13833SOL     OW42023   3.637   5.414   2.304 -0.1810 -0.3050  0.3716
13833SOL    HW142024   3.709   5.433   2.243  0.1000 -1.7103  0.2286
13833SOL    HW242025   3.656   5.468   2.381  0.0927  0.6116 -0.3226
13834SOL     OW42026   7.185   4.997   5.925  0.0057  0.3763 -0.1486
13834SOL    HW142027   7.190   4.931   5.994 -0.8549 -0.2742 -0.6940
13834SOL    HW242028   7.276   5.026   5.913  0.2875 -0.1587  0.6143
13835SOL     OW42029   7.053   1.524   5.313 -0.3208  0.2561 -0.1951
13835SOL    HW142030   7.056   1.462   5.386  1.8771 -0.1047 -0.4993
13835SOL    HW242031   7.024   1.607   5.352 -0.1538 -0.1749  0.8804
13836SOL     OW42032   1.363   2.866   6.456 -0.6742 -0.1657 -0.6316
13836SOL    HW142033   1.309   2.787   6.466 -0.1686 -0.5173 -0.6298
13836SOL    HW242034   1.417   2.868   6.534 -0.2372 -0.1708 -0.9311
13837SOL     OW42035   3.515   4.906   5.305  0.4751  0.3072  0.4402
13837SOL    HW142036   3.451   4.840   5.332  0.8056 -1.0929 -1.9178
13837SOL    HW242037   3.474   4.989   5.327 -1.2497 -0.6043  0.8641
13838SOL     OW42038   7.055   1.327   2.809  0.0758 -0.1545  0.1557
13838SOL    HW142039   6.989   1.270   2.771  0.8996 -0.1315 -1.4115
13838SOL    HW242040   7.135   1.275   2.809  0.4068  0.3394  0.5397
13839SOL     OW42041   2.888   4.272   1.889 -0.1906  0.3041 -0.6096
13839SOL    HW142042   2.940   4.323   1.951  0.8307 -2.2209  0.7755
13839SOL    HW242043   2.834   4.216   1.945  0.6475 -1.9494 -1.9202
13840SOL     OW42044   1.668   2.409   1.175 -0.3113 -0.1214  0.5312
13840SOL    HW142045   1.604   2.470   1.211 -0.0157  0.6709 -0.2430
13840SOL    HW242046   1.623   2.367   1.102  0.4572  1.4786 -0.9328
13841SOL     OW42047   5.498   0.546   0.606 -0.0536 -0.5282  0.1675
13841SOL    HW142048   5.557   0.617   0.583 -0.6219  0.4883  1.6779
13841SOL    HW242049   5.487   0.554   0.701 -4.0809  0.6027 -0.1994
13842SOL     OW42050   5.254   2.529   1.902 -0.1016 -0.8695  0.2592
13842SOL    HW142051   5.286   2.611   1.866  0.1660 -0.5186  1.2690
13842SOL    HW242052   5.331   2.473   1.910 -0.2300 -1.1047 -0.1170
13843SOL     OW42053   3.042   0.920   4.974 -0.8902  0.1988  0.1015
13843SOL    HW142054   3.113   0.939   4.913 -0.8637 -0.1083  0.0379
13843SOL    HW242055   3.010   0.834   4.948 -1.2878  0.3366  0.1291
13844SOL     OW42056   5.493   0.495   4.676 -0.1214 -0.2268 -0.1473
13844SOL    HW142057   5.584   0.514   4.655  0.2334  1.5869  2.5432
13844SOL    HW242058   5.443   0.567   4.638  0.2576  1.7020  2.6977
13845SOL     OW42059   7.467   5.827   7.482 -0.6701 -0.5971  0.2678
13845SOL    HW142060   7.530   5.755   7.478  1.0019  0.8643 -1.8730
13845SOL    HW242061   7.475   5.871   7.397 -1.9640  1.8394  1.3003
13846SOL     OW42062   2.157   3.059   0.093  0.3521 -0.6217  0.2987
13846SOL    HW142063   2.198   2.977   0.063 -0.2016 -1.0195  0.6192
13846SOL    HW242064   2.063   3.044   0.082  0.2484 -0.0053  0.3152
13847SOL     OW42065   7.327   2.236   6.851 -1.0185 -0.6924 -0.2336
13847SOL    HW142066   7.339   2.315   6.799 -1.5995 -1.5645 -1.7553
13847SOL    HW242067   7.328   2.266   6.942  0.6004  0.8054 -0.6886
13848SOL     OW42068   1.104   3.859   6.417 -0.3499  0.1552 -0.5364
13848SOL    HW142069   1.033   3.801   6.390  2.1380 -2.6848 -1.5507
13848SOL    HW242070   1.096   3.936   6.360 -0.5898 -1.7075 -3.1823
13849SOL     OW42071   1.336   5.355   4.599  0.6173 -0.4595  0.0576
13849SOL    HW142072   1.287   5.323   4.675  1.2658 -2.8304 -0.4424
13849SOL    HW242073   1.368   5.276   4.556  4.2428  0.8736 -0.0562
13850SOL     OW42074   2.390   1.018   7.424 -0.1357 -0.2707 -0.5790
13850SOL    HW142075   2.437   0.987   7.346 -0.4390 -0.3163 -0.7468
13850SOL    HW242076   2.316   0.957   7.433  0.0525 -0.4294 -0.0928
13851SOL     OW42077   6.486   4.099   4.276 -0.4078  0.4225 -0.1640
13851SOL    HW142078   6.556   4.097   4.210 -0.4885  2.4419 -0.3611
13851SOL    HW242079   6.527   4.137   4.353 -0.8930  0.1282  0.2463
13852SOL     OW42080   7.348   7.339   2.996  0.1708  0.6428 -0.1584
13852SOL    HW142081   7.360   7.409   2.932  2.4107  0.8649  0.4082
13852SOL    HW242082   7.415   7.274   2.973 -2.8023 -2.1972 -1.6613
13853SOL     OW42083   0.068   0.143   3.046  0.6362  0.0436 -0.1319
13853SOL    HW142084  -0.009   0.141   3.103  0.1354 -0.1534 -0.7956
13853SOL    HW242085   0.044   0.202   2.975  0.8778 -0.4484 -0.6359
13854SOL     OW42086   3.531   0.008   0.730 -0.5882  0.3793 -0.2173
13854SOL    HW142087   3.603   0.044   0.677 -0.3566  1.6317  0.8800
13854SOL    HW242088   3.489   0.085   0.767 -2.6408 -0.3247 -0.9639
13855SOL     OW42089   6.382   6.707   4.317  0.0424  0.5571  0.1109
13855SOL    HW142090   6.442   6.705   4.392 -1.2237  3.4604  1.3292
13855SOL    HW242091   6.432   6.749   4.247 -0.0570  1.5403  0.6254
13856SOL     OW42092   5.533   7.533   6.411  0.3578  0.1880  0.2793
13856SOL    HW142093   5.574   7.449   6.434 -1.7981 -1.6108 -1.8786
13856SOL    HW242094   5.471   7.549   6.483  0.6429 -0.1693  0.6132
13857SOL     OW42095   2.738   3.106   5.994  0.5026  0.0989 -0.6814
13857SOL    HW142096   2.768   3.047   6.063  0.1116  0.6514 -0.0250
13857SOL    HW242097   2.796   3.089   5.921  1.7603  0.4188  0.2188
13858SOL     OW42098   1.826   6.573   7.112  0.3420 -0.2433 -0.0242
13858SOL    HW142099   1.864   6.622   7.186 -0.8596 -0.1473  0.5500
13858SOL    HW242100   1.752   6.626   7.084 -1.1160 -1.7801  0.7318
13859SOL     OW42101   5.557   2.648   6.500 -0.2789  0.3198 -0.5463
13859SOL    HW142102   5.473   2.660   6.456 -0.3514  3.1891  0.2013
13859SOL    HW242103   5.615   2.712   6.459  1.1202 -0.5122  0.0624
13860SOL     OW42104   7.395   2.923   5.426  0.9397  0.0227 -0.1019
13860SOL    HW142105   7.458   2.959   5.364  1.2690  0.0960  0.2676
13860SOL    HW242106   7.338   2.867   5.373  1.8241 -0.7006 -0.3201
13861SOL     OW42107   0.848   5.529   1.658 -0.2837  0.0548 -0.0251
13861SOL    HW142108   0.811   5.565   1.738  3.0050  2.9057  0.4105
13861SOL    HW242109   0.911   5.464   1.687 -0.3537 -0.2058 -0.4381
13862SOL     OW42110   4.063   5.938   4.604  0.0362  0.2013  0.5595
13862SOL    HW142111   4.135   5.979   4.652 -1.0602  2.3398  0.5198
13862SOL    HW242112   4.042   5.860   4.656  0.4024  1.1930  2.3084
13863SOL     OW42113   6.270   4.283   1.753 -0.0834 -0.5214  0.3703
13863SOL    HW142114   6.323   4.286   1.674 -0.6255 -0.9250 -0.0126
13863SOL    HW242115   6.185   4.249   1.724 -0.4481 -0.1896  1.0316
13864SOL     OW42116   6.603   0.150   3.611 -0.1018  0.2159 -0.2890
13864SOL    HW142117   6.600   0.074   3.669 -0.6257 -0.6958 -1.4545
13864SOL    HW242118   6.514   0.187   3.615 -0.0517  0.3338 -0.2637
13865SOL     OW42119   2.483   4.171   7.146 -0.0069 -0.0203  0.4404
13865SOL    HW142120   2.544   4.229   7.190  0.0050  0.2594  0.0646
13865SOL    HW242121   2.406   4.226   7.129 -0.1306 -0.2079  0.3893
13866SOL     OW42122   4.341   4.642   0.284 -0.0703 -0.0122  0.3093
13866SOL    HW142123   4.331   4.726   0.239  2.2196 -0.3210 -0.9193
13866SOL    HW242124   4.252   4.605   0.285 -0.4816  0.5944 -2.9147
13867SOL     OW42125   3.955   6.782   7.245 -0.2497 -0.1788  0.1269
13867SOL    HW142126   3.860   6.792   7.244 -0.0455  2.2669 -0.1810
13867SOL    HW242127   3.978   6.758   7.155 -0.2806  3.6855 -1.0639
13868SOL     OW42128   0.564   6.712   4.109  0.2445 -0.1469  0.2106
13868SOL    HW142129   0.580   6.800   4.073 -0.1025 -0.0969  0.1722
13868SOL    HW242130   0.564   6.725   4.204  0.2310 -0.1121  0.2064
13869SOL     OW42131   2.039   4.346   0.738 -0.0083 -0.0683  0.4090
13869SOL    HW142132   2.059   4.252   0.745  3.9738  0.6168  0.5950
13869SOL    HW242133   2.076   4.371   0.653 -2.1337  1.1792 -0.2122
13870SOL     OW42134   0.227   4.930   0.772 -0.5497 -1.0370  0.3862
13870SOL    HW142135   0.157   4.910   0.710 -0.2057  1.7620 -1.0652
13870SOL    HW242136   0.204   5.016   0.808  1.2163 -0.8691  1.2196
13871SOL     OW42137   0.194   0.740   0.531  1.4600  0.3708 -0.9730
13871SOL    HW142138   0.287   0.721   0.525  1.3643 -0.2069 -0.7120
13871SOL    HW242139   0.188   0.807   0.600  1.6316  0.0155 -0.6096
13872SOL     OW42140   1.724   5.872   1.452  0.5229  0.2827 -0.3085
13872SOL    HW142141   1.727   5.903   1.362 -0.1199  0.0660 -0.4129
13872SOL    HW242142   1.773   5.938   1.502  1.7384 -0.1113 -0.9436
13873SOL     OW42143   3.599   5.231   1.247  0.3419 -0.0748  0.3593
13873SOL    HW142144   3.682   5.198   1.215 -0.7035 -1.5728 -0.9426
13873SOL    HW242145   3.555   5.155   1.284 -1.2852  0.2210 -0.8513
13874SOL     OW42146   7.121   3.207   0.477 -0.7052  0.2145  0.3578
13874SOL    HW142147   7.101   3.227   0.568 -0.3516 -1.4629  0.8444
13874SOL    HW242148   7.071   3.127   0.459 -1.1494  0.7901 -1.0757
13875SOL     OW42149   4.301   4.091   1.753  0.0371 -0.0768 -0.0039
13875SOL    HW142150   4.325   4.002   1.778  0.8220  0.3111  0.6487
13875SOL    HW242151   4.221   4.109   1.802 -1.0091 -0.9739 -1.3337
13876SOL     OW42152   4.539   4.181   3.244  0.3457  0.1235 -0.2465
13876SOL    HW142153   4.506   4.142   3.162  0.4876 -0.6209  0.0415
13876SOL    HW242154   4.464   4.227   3.281 -0.3646 -1.4373  0.3327
13877SOL     OW42155   4.381   2.522   4.988 -0.0214 -0.0150 -0.1022
13877SOL    HW142156   4.307   2.552   5.040 -0.9669 -1.3010 -0.6611
13877SOL    HW242157   4.418   2.602   4.951 -1.5635  0.6042 -0.3847
13878SOL     OW42158   0.292   3.184   4.590  0.3598  0.2743  0.2175
13878SOL    HW142159   0.231   3.148   4.655  0.2213 -0.0782 -0.1032
13878SOL    HW242160   0.307   3.112   4.529 -0.6505  1.0349 -0.9636
13879SOL     OW42161   3.155   0.335   7.004 -0.2164 -0.5225  0.7566
13879SOL    HW142162   3.244   0.355   6.978  0.2813 -2.8073  0.5169
13879SOL    HW242163   3.126   0.413   7.053  1.2912  0.9142 -0.5271
13880SOL     OW42164   4.062   6.648   4.704  0.2738 -0.5324 -0.4508
13880SOL    HW142165   4.083   6.741   4.691 -0.1134 -0.0615  1.8347
13880SOL    HW242166   4.129   6.617   4.765  0.6475 -1.9119 -1.5014
13881SOL     OW42167   5.202   4.983   6.123  0.1571 -0.3457 -0.3190
13881SOL    HW142168   5.287   4.954   6.090 -0.7226 -2.9569 -0.4811
13881SOL    HW242169   5.219   5.011   6.213  0.8722 -3.0253  0.4566
13882SOL     OW42170   6.197   0.347   1.798 -0.4768  0.1304  0.2783
13882SOL    HW142171   6.173   0.349   1.706 -1.2431 -2.0287  0.3615
13882SOL    HW242172   6.235   0.260   1.811 -0.9168  0.1576  2.0967
13883SOL     OW42173   2.432   1.187   6.438  0.7421  0.7484 -0.1004
13883SOL    HW142174   2.419   1.145   6.523 -1.3234  1.4275 -0.0290
13883SOL    HW242175   2.490   1.262   6.457  1.5280  0.0362  0.4041
13884SOL     OW42176   3.108   4.531   4.052  0.6093  0.3040  0.1866
13884SOL    HW142177   3.105   4.474   3.975  1.4072  0.1262  0.2812
13884SOL    HW242178   3.201   4.537   4.074  0.4576  0.9899  0.6651
13885SOL     OW42179   4.965   4.444   0.740 -0.0988 -0.1754  0.0140
13885SOL    HW142180   4.946   4.411   0.827  1.6921 -0.6869  0.2530
13885SOL    HW242181   4.908   4.520   0.730 -1.6806 -1.2024  0.8712
13886SOL     OW42182   1.507   6.398   0.703  0.0787 -0.2216 -0.5021
13886SOL    HW142183   1.532   6.331   0.638  0.1541 -2.9353  2.1161
13886SOL    HW242184   1.588   6.415   0.752 -0.4881  0.0165  0.3682
13887SOL     OW42185   5.673   0.599   5.636  0.1229 -0.5063 -0.1036
13887SOL    HW142186   5.702   0.508   5.644 -0.2162 -0.6113 -0.0842
13887SOL    HW242187   5.610   0.599   5.564 -0.3369 -0.4004  0.2911
13888SOL     OW42188   7.510   3.189   4.515 -0.0615  0.0391  0.1392
13888SOL    HW142189   7.471   3.250   4.578 -1.0719 -0.7112  0.2788
13888SOL    HW242190   7.560   3.244   4.455 -1.3069  1.0785 -0.0025
13889SOL     OW42191   6.277   3.110   1.685  0.1933 -0.4443 -0.0359
13889SOL    HW142192   6.216   3.174   1.647  0.8079 -0.1949 -0.6354
13889SOL    HW242193   6.270   3.122   1.779  0.9640  1.1521 -0.1553
13890SOL     OW42194   4.511   2.287   3.617  0.2942 -0.0486 -0.4446
13890SOL    HW142195   4.512   2.382   3.621  1.5215  0.0987 -2.7668
13890SOL    HW242196   4.596   2.260   3.652 -0.2000 -0.3635  0.5783
13891SOL     OW42197   4.419   4.733   4.539  0.3074  0.0511  0.0744
13891SOL    HW142198   4.484   4.664   4.521  0.9091  0.1522  1.6364
13891SOL    HW242199   4.407   4.777   4.455  1.4194 -0.6896 -0.5138
13892SOL     OW42200   0.295   6.230   1.543 -0.1514  0.0021 -0.5336
13892SOL    HW142201   0.199   6.223   1.543 -0.3382  2.0144 -0.3743
13892SOL    HW242202   0.323   6.169   1.474 -1.4123 -1.5501  0.2430
13893SOL     OW42203   1.841   2.023   7.288  0.1319  0.1786 -0.2742
13893SOL    HW142204   1.839   2.088   7.217  1.7765 -0.1074 -0.6250
13893SOL    HW242205   1.805   1.943   7.249  0.4773  0.1857 -0.6098
13894SOL     OW42206   5.202   5.465   6.200 -0.1186 -0.1627  0.6972
13894SOL    HW142207   5.257   5.417   6.262  0.9232 -0.4853 -0.4424
13894SOL    HW242208   5.225   5.557   6.213 -0.7719 -0.1183  1.5999
13895SOL     OW42209   0.805   0.418   1.025  0.0120 -0.1735  0.0799
13895SOL    HW142210   0.711   0.431   1.012  0.0885  0.1733 -0.1335
13895SOL    HW242211   0.840   0.408   0.936  0.2347  0.0794  0.1393
13896SOL     OW42212   1.838   7.133   6.496  0.2473  0.6061  0.0826
13896SOL    HW142213   1.747   7.158   6.480  0.4787  1.9740  0.7683
13896SOL    HW242214   1.838   7.037   6.489 -1.4145  0.5092  0.8633
13897SOL     OW42215   7.529   6.306   0.402  0.7109  0.2144  0.0682
13897SOL    HW142216   7.602   6.309   0.464  0.7506  0.3774  0.0127
13897SOL    HW242217   7.555   6.366   0.331  0.4970  0.3180  0.0774
13898SOL     OW42218   1.500   4.375   4.322  0.1967  0.1985  0.4288
13898SOL    HW142219   1.420   4.377   4.270  1.4206 -0.2179 -1.5815
13898SOL    HW242220   1.511   4.465   4.353 -1.6669 -0.0011  1.8224
13899SOL     OW42221   3.556   3.526   2.428 -0.8552 -0.6225  0.2864
13899SOL    HW142222   3.589   3.451   2.378  0.1051 -0.8491  1.2254
13899SOL    HW242223   3.619   3.537   2.499 -0.2180  1.9012 -0.5560
13900SOL     OW42224   3.086   1.185   2.736 -0.1584  0.9702  0.2579
13900SOL    HW142225   3.073   1.137   2.655 -0.9226  2.0046 -0.2597
13900SOL    HW242226   3.150   1.133   2.785  0.5169  0.4623 -1.1100
13901SOL     OW42227   2.115   5.557   0.877 -0.2048  0.1252 -0.2687
13901SOL    HW142228   2.055   5.482   0.878 -2.3407  1.7126  1.5471
13901SOL    HW242229   2.154   5.558   0.964  0.9076  0.3248 -0.7536
13902SOL     OW42230   2.096   4.525   2.912 -0.7982 -0.0685  0.3217
13902SOL    HW142231   2.064   4.440   2.882 -2.0272  0.5468 -0.1646
13902SOL    HW242232   2.170   4.543   2.854 -0.9751 -0.4806 -0.0427
13903SOL     OW42233   1.517   7.224   5.560 -0.5879 -0.0899  0.2179
13903SOL    HW142234   1.465   7.182   5.491  0.9361  1.3671 -1.9530
13903SOL    HW242235   1.608   7.213   5.531  0.2459 -0.6404  2.7708
13904SOL     OW42236   1.063   2.741   4.362 -0.0241 -0.3076 -0.2951
13904SOL    HW142237   1.141   2.687   4.354 -1.3147 -2.0721 -1.9208
13904SOL    HW242238   0.990   2.681   4.348 -1.7262  1.2232  1.4191
13905SOL     OW42239   0.259   1.956   2.939 -0.2109  0.2547 -0.6727
13905SOL    HW142240   0.297   2.037   2.973 -0.0082  0.2873 -0.9624
13905SOL    HW242241   0.329   1.919   2.884 -0.1522 -0.3226 -0.2226
13906SOL     OW42242   4.699   4.987   2.317  0.3418  0.4207 -0.0701
13906SOL    HW142243   4.612   4.949   2.305 -0.1684  1.8000 -1.0227
13906SOL    HW242244   4.759   4.923   2.278 -0.3613  0.0236 -0.5094
13907SOL     OW42245   3.762   6.615   6.354  0.1107  0.9842  0.2817
13907SOL    HW142246   3.790   6.707   6.349 -0.4239  1.0968 -1.3546
13907SOL    HW242247   3.724   6.597   6.268  1.0333 -1.0595  0.2393
13908SOL     OW42248   4.373   2.612   3.952 -1.0542  0.1361 -0.4704
13908SOL    HW142249   4.325   2.541   3.911 -1.5483  1.8807 -3.1242
13908SOL    HW242250   4.465   2.596   3.929 -0.6884 -1.2979  1.6748
13909SOL     OW42251   0.930   0.694   7.133 -0.2218 -0.2342 -0.0644
13909SOL    HW142252   0.958   0.635   7.203  1.1577  0.1552 -0.2521
13909SOL    HW242253   0.990   0.674   7.061 -0.1976  0.9014 -0.3707
13910SOL     OW42254   4.249   4.720   4.761  0.9115 -0.0184 -0.3798
13910SOL    HW142255   4.269   4.634   4.798  0.2014 -0.3197 -0.6739
13910SOL    HW242256   4.324   4.740   4.705  1.3965 -0.1328  0.2104
13911SOL     OW42257   4.159   7.000   5.574 -0.3163  0.4921 -0.5557
13911SOL    HW142258   4.181   7.016   5.666 -0.8054  1.8903 -0.6609
13911SOL    HW242259   4.109   6.918   5.575  0.3586  0.0705  0.3170
13912SOL     OW42260   6.438   1.017   1.247  0.0416 -0.1918  0.5902
13912SOL    HW142261   6.406   1.107   1.243 -0.2763 -0.2913  0.8028
13912SOL    HW242262   6.525   1.020   1.208  0.3375  0.3482  1.2638
13913SOL     OW42263   2.117   2.050   5.438 -0.0718 -0.3542 -0.1989
13913SOL    HW142264   2.189   2.002   5.480 -1.0364 -0.8544  0.9750
13913SOL    HW242265   2.159   2.119   5.388  1.1990 -0.2497  0.9675
13914SOL     OW42266   0.594   7.145   2.389 -0.1246  0.3921 -0.0482
13914SOL    HW142267   0.555   7.211   2.331  0.7815  1.4706  0.5470
13914SOL    HW242268   0.648   7.194   2.450  1.9501 -1.0142 -0.6374
13915SOL     OW42269   1.367   4.147   2.967  0.0986 -0.3854  0.5894
13915SOL    HW142270   1.420   4.114   2.895  0.0038 -0.4614  0.5545
13915SOL    HW242271   1.390   4.092   3.042 -0.7492 -1.1440  0.3040
13916SOL     OW42272   5.971   3.464   7.421 -0.1085 -0.1928  0.2293
13916SOL    HW142273   6.032   3.523   7.464  0.1984 -0.7316  0.5388
13916SOL    HW242274   6.025   3.411   7.363 -0.1996 -1.0618  0.9291
13917SOL     OW42275   2.218   4.787   1.792  0.2368 -0.4133  0.4479
13917SOL    HW142276   2.187   4.772   1.882  0.0284  3.5120  1.1779
13917SOL    HW242277   2.139   4.797   1.740  0.2975  0.7566  0.5554
13918SOL     OW42278   5.399   0.812   3.024 -0.1009  0.0568  0.3087
13918SOL    HW142279   5.305   0.827   3.030  0.2800  3.0755  0.4856
13918SOL    HW242280   5.427   0.796   3.114 -0.3051  0.2173  0.4007
13919SOL     OW42281   4.073   4.211   1.848 -0.0420  0.2530  0.1349
13919SOL    HW142282   4.015   4.273   1.803  0.4218  0.8730  0.3636
13919SOL    HW242283   4.140   4.267   1.887 -0.3773 -0.2636  1.5225
13920SOL     OW42284   4.455   5.133   3.329  0.7155 -0.4856  0.0270
13920SOL    HW142285   4.427   5.184   3.252 -3.0827 -2.9672 -0.5234
13920SOL    HW242286   4.551   5.132   3.323  0.7023  1.4326 -3.3132
13921SOL     OW42287   2.780   3.781   4.808  0.1495  0.2393  0.2648
13921SOL    HW142288   2.777   3.868   4.769  1.7537  0.2775  0.1743
13921SOL    HW242289   2.769   3.796   4.902 -0.6930  0.4214  0.1440
13922SOL     OW42290   6.176   4.605   2.367  0.1733 -0.0196 -0.2410
13922SOL    HW142291   6.192   4.652   2.285  1.7081 -0.9782 -0.5425
13922SOL    HW242292   6.233   4.648   2.430  0.3158 -0.3859 -0.1148
13923SOL     OW42293   3.965   4.979   3.704 -0.4200 -0.2124  0.1195
13923SOL    HW142294   3.947   4.950   3.614 -0.1764  2.4271 -0.8998
13923SOL    HW242295   4.039   4.926   3.732 -0.2844 -0.8754 -1.3942
13924SOL     OW42296   3.443   4.835   6.378  0.1334  0.0695 -0.1739
13924SOL    HW142297   3.423   4.742   6.386 -1.0542  0.2136 -1.1998
13924SOL    HW242298   3.451   4.850   6.284  0.7585  0.9192  0.0069
13925SOL     OW42299   0.772   3.635   3.272 -0.0109  0.0086 -0.7475
13925SOL    HW142300   0.747   3.685   3.349  0.7192  0.2630 -0.6606
13925SOL    HW242301   0.857   3.672   3.246 -0.7723  0.7150 -2.3635
13926SOL     OW42302   6.255   2.738   4.012 -0.6311 -0.5515 -0.2132
13926SOL    HW142303   6.190   2.800   4.045 -0.3784  0.3659 -1.3691
13926SOL    HW242304   6.334   2.790   4.001  0.4015 -1.7000  1.3808
13927SOL     OW42305   5.282   3.196   2.435  0.1859  0.1058 -0.4030
13927SOL    HW142306   5.238   3.281   2.431  0.1846  0.1051 -0.4025
13927SOL    HW242307   5.314   3.189   2.525  1.4701  0.7583 -0.7728
13928SOL     OW42308   0.445   3.130   1.568 -0.0683  0.6510 -0.3808
13928SOL    HW142309   0.369   3.152   1.514  0.3192 -0.2654 -1.3410
13928SOL    HW242310   0.463   3.038   1.547  1.4618  0.9231 -0.3728
13929SOL     OW42311   1.859   2.257   1.829 -0.5047  0.3154 -0.1187
13929SOL    HW142312   1.843   2.259   1.734 -2.0179 -0.8598  0.0717
13929SOL    HW242313   1.895   2.344   1.849 -0.5579  0.7393 -1.6908
13930SOL     OW42314   6.907   6.188   2.372  0.0970 -0.0480  0.1620
13930SOL    HW142315   6.985   6.239   2.394  0.6565 -0.3631 -1.0287
13930SOL    HW242316   6.925   6.100   2.405  0.2664 -0.1315 -0.1518
13931SOL     OW42317   5.155   5.563   1.390 -0.6543 -0.0263  0.3466
13931SOL    HW142318   5.129   5.580   1.480 -1.4747 -0.6133  0.2270
13931SOL    HW242319   5.100   5.490   1.362  0.3209 -0.5330 -0.2976
13932SOL     OW42320   2.602   3.272   6.130 -0.2000  0.0143 -0.3850
13932SOL    HW142321   2.647   3.215   6.067 -0.1394 -0.3167 -0.0465
13932SOL    HW242322   2.625   3.236   6.215 -0.5705  0.2445 -0.1848
13933SOL     OW42323   6.470   1.691   6.417 -0.0131  0.4406  0.1376
13933SOL    HW142324   6.426   1.775   6.433 -0.0219  0.4742 -0.0516
13933SOL    HW242325   6.525   1.707   6.340  1.3552  0.7678  1.1617
13934SOL     OW42326   2.782   3.138   1.677 -0.2703 -0.3368 -0.3695
13934SOL    HW142327   2.763   3.212   1.735 -1.0239 -0.2826 -0.6753
13934SOL    HW242328   2.871   3.155   1.645  0.2286 -0.4619  0.9004
13935SOL     OW42329   3.111   3.523   3.300  0.0321 -0.5604  0.4074
13935SOL    HW142330   3.082   3.472   3.224 -0.0942 -0.0866  0.1340
13935SOL    HW242331   3.205   3.534   3.286 -0.0581 -0.1432  0.1192
13936SOL     OW42332   4.594   2.293   2.276 -0.4426 -0.0103  0.2601
13936SOL    HW142333   4.686   2.310   2.255 -0.4393  0.1581  0.4032
13936SOL    HW242334   4.589   2.199   2.288 -0.8390 -0.4274 -2.4263
13937SOL     OW42335   5.816   4.872   2.227  0.5280 -0.1507 -0.0249
13937SOL    HW142336   5.848   4.783   2.241 -1.6372 -0.7866  1.3790
13937SOL    HW242337   5.748   4.883   2.293  0.8131  2.6159 -0.1099
13938SOL     OW42338   1.095   5.751   2.780  0.1865  0.0556 -0.4903
13938SOL    HW142339   1.085   5.792   2.693 -0.5349  1.6689  0.3039
13938SOL    HW242340   1.188   5.763   2.802 -0.1717  2.1237  0.0835
13939SOL     OW42341   7.129   5.683   3.880 -0.3043  0.7661  0.3435
13939SOL    HW142342   7.158   5.680   3.971 -0.7313 -0.9716  0.4595
13939SOL    HW242343   7.046   5.636   3.879 -0.7059  1.4422 -0.8244
13940SOL     OW42344   7.183   3.318   0.726 -0.2023 -0.2990 -0.3148
13940SOL    HW142345   7.272   3.350   0.714 -0.6674  0.3941 -2.5075
13940SOL    HW242346   7.144   3.376   0.792  0.3137  0.8493 -0.9942
13941SOL     OW42347   6.442   5.504   6.082  0.7409 -0.0115  0.2158
13941SOL    HW142348   6.357   5.503   6.039  0.0606  2.5394  1.3257
13941SOL    HW242349   6.431   5.449   6.159  0.3232 -0.2273  0.0059
13942SOL     OW42350   2.068   0.834   0.129 -0.6775 -0.3844  0.3704
13942SOL    HW142351   2.140   0.860   0.187 -1.1516 -0.7537  1.1477
13942SOL    HW242352   1.989   0.858   0.178 -1.0895 -0.7542 -0.1055
13943SOL     OW42353   4.863   3.932   1.883 -0.1342 -0.6975 -0.4452
13943SOL    HW142354   4.886   3.839   1.875  2.4272 -0.1919  0.1644
13943SOL    HW242355   4.920   3.977   1.821 -0.1414  0.6106  0.4566
13944SOL     OW42356   2.959   2.888   5.680  0.0783 -0.3488 -0.2663
13944SOL    HW142357   2.910   2.936   5.613  2.5288  1.5231 -0.8720
13944SOL    HW242358   2.959   2.797   5.650  0.6099  0.3447 -2.5314
13945SOL     OW42359   4.930   4.343   6.295  0.5463 -0.4238  0.2578
13945SOL    HW142360   4.892   4.424   6.263 -1.0723 -1.1474  0.2429
13945SOL    HW242361   4.999   4.370   6.355  0.3651  0.9472 -0.1296
13946SOL     OW42362   4.057   6.380   0.844  0.5546  0.7044 -0.1269
13946SOL    HW142363   4.120   6.407   0.910  0.6665 -2.1355  1.0688
13946SOL    HW242364   3.987   6.337   0.893 -0.7121  0.8651 -1.6792
13947SOL     OW42365   6.279   4.731   1.521  0.5927  0.1197  0.4766
13947SOL    HW142366   6.233   4.722   1.604  1.4737  0.4514  1.0057
13947SOL    HW242367   6.331   4.651   1.513  1.3824  0.5889  0.8013
13948SOL     OW42368   3.578   3.502   1.129  0.2263 -0.1771  0.3087
13948SOL    HW142369   3.560   3.438   1.198  0.2891  1.2067  1.6690
13948SOL    HW242370   3.491   3.535   1.104  0.3278  1.1224  1.5529
13949SOL     OW42371   1.972   0.069   3.307 -0.2549 -0.2502  0.4878
13949SOL    HW142372   1.981   0.009   3.233  0.4210  0.9752 -0.4615
13949SOL    HW242373   1.878   0.077   3.321 -0.3493 -1.5740  0.6873
13950SOL     OW42374   5.980   2.962   1.749  0.0847 -0.1164  0.4599
13950SOL    HW142375   5.913   2.996   1.809  0.2133  1.7061 -0.3798
13950SOL    HW242376   5.987   3.028   1.680  2.1603 -0.6682  0.0711
13951SOL     OW42377   2.414   4.535   6.720  0.2132  0.2971 -0.1474
13951SOL    HW142378   2.390   4.473   6.651  1.5643 -0.3250 -0.0895
13951SOL    HW242379   2.370   4.502   6.798 -1.2984  0.9843 -0.6784
13952SOL     OW42380   3.473   6.499   6.531  0.0718 -0.9569  0.5987
13952SOL    HW142381   3.529   6.473   6.604  2.0252 -1.0909 -0.8967
13952SOL    HW242382   3.488   6.433   6.464 -2.2030 -1.2169  0.2492
13953SOL     OW42383   2.165   5.549   4.653  0.6831 -0.4336 -0.6141
13953SOL    HW142384   2.079   5.563   4.615 -0.7976 -0.3431  2.4683
13953SOL    HW242385   2.179   5.625   4.710  1.4047 -1.8563  1.2265
13954SOL     OW42386   7.146   0.250   4.560  0.3110  0.2363 -0.9424
13954SOL    HW142387   7.074   0.187   4.567  1.0615 -0.4569  1.8116
13954SOL    HW242388   7.130   0.313   4.631  1.3156  1.2659 -1.5917
13955SOL     OW42389   6.299   5.704   4.759 -0.0355  0.2610 -0.2080
13955SOL    HW142390   6.387   5.729   4.733  0.1859  1.2672  1.3291
13955SOL    HW242391   6.242   5.735   4.688  0.9096 -1.5346 -1.8302
13956SOL     OW42392   2.045   0.240   5.512 -0.2135  0.5911 -0.0839
13956SOL    HW142393   2.134   0.270   5.492  0.1959 -1.1050 -1.0456
13956SOL    HW242394   2.030   0.168   5.451 -2.5167  1.2430 -0.4005
13957SOL     OW42395   4.811   2.034   4.158 -0.0812  0.0022  0.1039
13957SOL    HW142396   4.898   1.997   4.145  0.2903 -0.4865  3.1853
13957SOL    HW242397   4.752   1.960   4.148  0.1153 -0.2108  0.4867
13958SOL     OW42398   0.464   0.842   0.900 -0.3189  0.6463 -0.7773
13958SOL    HW142399   0.435   0.785   0.972 -0.0034  1.4803  0.0262
13958SOL    HW242400   0.412   0.922   0.910 -0.1085  0.8616 -1.3450
13959SOL     OW42401   4.174   0.776   4.415  0.1277 -0.0317  0.0674
13959SOL    HW142402   4.216   0.724   4.483  3.5233  0.6153 -1.2951
13959SOL    HW242403   4.153   0.859   4.458 -2.0146 -1.1418  1.3409
13960SOL     OW42404   6.086   1.006   1.785 -0.2051  0.4877  0.1900
13960SOL    HW142405   6.042   0.986   1.868 -2.2027  0.4813 -0.8128
13960SOL    HW242406   6.086   1.102   1.780  0.0570  0.4922  0.2625
13961SOL     OW42407   1.996   5.853   5.958 -0.2376 -0.5427 -0.0325
13961SOL    HW142408   2.045   5.787   6.008  0.4452  0.9089  1.3187
13961SOL    HW242409   2.011   5.935   6.006 -1.3853  0.5313 -1.4207
13962SOL     OW42410   7.068   5.749   0.517 -0.3543  0.1340  0.3284
13962SOL    HW142411   7.109   5.691   0.582 -1.2212  1.3913  2.0720
13962SOL    HW242412   7.142   5.781   0.464  0.2668 -1.6253  0.0363
13963SOL     OW42413   4.569   6.954   6.849 -0.7936 -0.1170  0.3710
13963SOL    HW142414   4.521   6.886   6.803  1.0257 -1.9425  1.0476
13963SOL    HW242415   4.518   7.034   6.833 -3.2522 -1.6626 -0.0714
13964SOL     OW42416   1.008   2.344   3.535  0.1131  0.6894  0.1395
13964SOL    HW142417   1.083   2.372   3.483  1.1821 -0.8937  0.7441
13964SOL    HW242418   0.951   2.298   3.473  0.4112  0.5371 -0.0250
13965SOL     OW42419   2.105   1.487   7.379  0.0975  0.5341 -0.4307
13965SOL    HW142420   2.009   1.481   7.377  0.0331  1.4823 -3.0271
13965SOL    HW242421   2.135   1.397   7.369 -0.4420  0.0290  1.8803
13966SOL     OW42422   1.112   2.133   3.662 -0.3726  0.0785  0.3558
13966SOL    HW142423   1.064   2.195   3.607 -0.0887 -0.1458 -0.1443
13966SOL    HW242424   1.097   2.048   3.621  1.6115  0.1710 -0.6207
13967SOL     OW42425   0.629   6.688   1.786  0.6483  0.9038  0.9188
13967SOL    HW142426   0.640   6.616   1.724  1.7362  0.6825  1.3610
13967SOL    HW242427   0.704   6.746   1.770  1.2361  0.5822  2.3673
13968SOL     OW42428   1.090   0.616   6.906  0.4117  0.6192  0.0597
13968SOL    HW142429   1.123   0.534   6.943  0.2210  0.3789 -0.2931
13968SOL    HW242430   1.015   0.589   6.853  0.8406  0.9265 -0.7093
13969SOL     OW42431   6.770   6.689   1.453  0.0799 -0.5562  0.0757
13969SOL    HW142432   6.782   6.595   1.452  2.3081 -0.4437  3.1128
13969SOL    HW242433   6.825   6.722   1.382  0.1238 -1.4754 -0.3238
13970SOL     OW42434   2.483   3.871   1.567  0.0434  0.1167  0.2568
13970SOL    HW142435   2.541   3.869   1.643  0.0903 -1.8260  0.2311
13970SOL    HW242436   2.530   3.823   1.500 -1.8699 -2.3875  0.5212
13971SOL     OW42437   2.780   6.907   5.754  0.0729 -0.5240  0.1132
13971SOL    HW142438   2.735   6.987   5.781  1.2218  1.2570 -2.7582
13971SOL    HW242439   2.711   6.853   5.715 -0.2618  0.4653 -0.7193
13972SOL     OW42440   1.645   7.320   3.050  0.1925 -0.1348 -0.5101
13972SOL    HW142441   1.600   7.316   2.966  1.8552  1.0621 -1.5168
13972SOL    HW242442   1.730   7.279   3.034  0.6320  0.3305  0.5128
13973SOL     OW42443   3.852   0.257   1.796  0.3296 -0.1197 -0.2705
13973SOL    HW142444   3.885   0.253   1.886 -1.1911 -0.0750  0.3216
13973SOL    HW242445   3.907   0.196   1.748  0.7371 -0.6669  0.8514
13974SOL     OW42446   0.331   7.100   2.260  0.1069  0.6008  0.5259
13974SOL    HW142447   0.284   7.050   2.193  1.9566  1.2487 -1.3905
13974SOL    HW242448   0.379   7.035   2.310 -2.0382  0.0156  1.9681
13975SOL     OW42449   6.709   6.020   1.738 -0.1868 -0.4481  0.2128
13975SOL    HW142450   6.793   6.047   1.774 -0.7437  2.1240 -0.1928
13975SOL    HW242451   6.675   5.956   1.801 -0.2712  2.4030  3.4190
13976SOL     OW42452   6.915   5.971   0.566 -0.1187  0.3038 -0.7618
13976SOL    HW142453   6.925   5.968   0.661  0.6641 -1.7180 -0.8583
13976SOL    HW242454   6.967   5.897   0.534  0.0965  1.2760 -2.8097
13977SOL     OW42455   1.165   7.115   7.239 -0.4167  0.2212 -0.0623
13977SOL    HW142456   1.136   7.040   7.187 -1.6556  0.9488 -0.4434
13977SOL    HW242457   1.206   7.075   7.316 -0.0449 -0.8521 -0.7781
13978SOL     OW42458   4.360   3.945   0.210  0.0569 -0.2704  0.5300
13978SOL    HW142459   4.275   3.930   0.251  0.5459 -0.9333  1.3331
13978SOL    HW242460   4.411   3.991   0.277  1.0129 -1.7643  0.8779
13979SOL     OW42461   1.144   3.335   5.557 -0.3893  0.4679 -0.4447
13979SOL    HW142462   1.110   3.424   5.562 -1.5793 -0.0313  1.2390
13979SOL    HW242463   1.078   3.282   5.602  2.3083 -0.6483  2.5653
13980SOL     OW42464   0.732   3.415   4.174  0.3739 -0.3847  0.1459
13980SOL    HW142465   0.643   3.450   4.171  0.4565 -0.0795  1.1198
13980SOL    HW242466   0.732   3.345   4.109 -0.9346 -1.2044  1.0051
13981SOL     OW42467   5.145   5.556   6.484  0.1833  0.1498  0.6808
13981SOL    HW142468   5.223   5.507   6.508  0.2602 -1.0527 -1.6460
13981SOL    HW242469   5.173   5.614   6.414 -0.5746  1.3243  1.3132
13982SOL     OW42470   3.922   5.947   2.904 -0.1455  0.0141 -0.5773
13982SOL    HW142471   3.875   5.878   2.857  0.2269  0.7764 -2.1321
13982SOL    HW242472   3.926   6.019   2.842  0.6945  0.9406  0.5232
13983SOL     OW42473   7.366   4.199   6.783 -0.6368  0.0369 -0.0865
13983SOL    HW142474   7.375   4.262   6.712 -1.6679 -0.1843 -0.4307
13983SOL    HW242475   7.452   4.157   6.789 -0.2582  0.7336 -0.5549
13984SOL     OW42476   0.438   1.490   2.264 -0.3772 -0.1572 -0.4841
13984SOL    HW142477   0.516   1.434   2.273  0.2121  0.6323 -0.5090
13984SOL    HW242478   0.438   1.543   2.344 -1.4096 -0.7598 -0.0656
13985SOL     OW42479   5.721   2.236   3.674  0.1459  0.3892  0.4690
13985SOL    HW142480   5.689   2.168   3.733  1.6387 -0.2444  0.5863
13985SOL    HW242481   5.708   2.200   3.586  1.2152 -0.1975  0.5393
13986SOL     OW42482   1.395   7.317   2.590  0.5086 -0.2957 -0.5917
13986SOL    HW142483   1.453   7.361   2.528  0.3304 -0.1770 -0.6758
13986SOL    HW242484   1.386   7.228   2.557  0.3903 -0.2244 -0.7546
13987SOL     OW42485   1.914   1.842   0.016  0.0262  0.4553  0.1320
13987SOL    HW142486   1.996   1.868  -0.025  1.2674 -1.9332  0.9356
13987SOL    HW242487   1.861   1.922   0.017  0.8240  1.2124 -3.7743
13988SOL     OW42488   5.168   6.192   3.361  0.6988  0.1746 -0.4507
13988SOL    HW142489   5.177   6.111   3.311  0.9438  0.1364 -0.3469
13988SOL    HW242490   5.080   6.223   3.341 -0.8104 -1.9410  2.1546
13989SOL     OW42491   0.800   3.863   4.206  0.5294  0.0199 -0.1240
13989SOL    HW142492   0.736   3.933   4.208  0.3788 -0.1246  0.8171
13989SOL    HW242493   0.856   3.880   4.283  1.1331 -0.2956 -0.4846
13990SOL     OW42494   5.619   6.661   3.673  0.0438 -0.0725  0.2030
13990SOL    HW142495   5.610   6.598   3.745 -2.1095  1.5403  1.4858
13990SOL    HW242496   5.608   6.610   3.594 -2.4858 -1.2405  1.2228
13991SOL     OW42497   6.316   5.686   5.071 -0.1295  0.3184  0.3177
13991SOL    HW142498   6.244   5.744   5.095  0.0001  0.5104  0.2440
13991SOL    HW242499   6.326   5.697   4.977  0.2399  0.5720  0.3856
13992SOL     OW42500   4.747   3.003   5.066  0.3305 -0.0831 -0.1279
13992SOL    HW142501   4.794   2.956   5.135  0.1443 -2.0425 -1.2602
13992SOL    HW242502   4.736   2.938   4.996 -1.4998  1.1647 -1.0724
13993SOL     OW42503   3.400   2.758   6.191 -0.0832  0.9424  0.4292
13993SOL    HW142504   3.399   2.735   6.284 -0.7366 -2.2921 -0.2636
13993SOL    HW242505   3.313   2.734   6.160 -0.6040  3.9021 -0.6991
13994SOL     OW42506   2.122   0.628   3.090 -0.2618  0.0815  0.5029
13994SOL    HW142507   2.193   0.690   3.108  1.4063 -1.5793 -0.0856
13994SOL    HW242508   2.043   0.680   3.100  1.0206  2.0711  0.9807
13995SOL     OW42509   6.773   2.742   5.537 -0.0521 -0.5711  1.1578
13995SOL    HW142510   6.822   2.702   5.608  0.3962 -0.6800  0.7898
13995SOL    HW242511   6.831   2.736   5.461 -0.4887 -0.3769  0.8031
13996SOL     OW42512   5.498   5.297   2.318  0.9292 -0.0384 -0.3120
13996SOL    HW142513   5.410   5.311   2.284 -0.7203 -1.1427  3.0461
13996SOL    HW242514   5.530   5.385   2.338  0.4072  0.3437 -1.1125
13997SOL     OW42515   3.449   1.426   1.236  0.2054  0.2743 -0.6148
13997SOL    HW142516   3.519   1.399   1.177  0.8357  1.1777 -0.3013
13997SOL    HW242517   3.490   1.425   1.323  0.2614  2.1731 -0.5800
13998SOL     OW42518   7.202   7.151   4.546 -0.4356  0.3943 -0.2129
13998SOL    HW142519   7.145   7.078   4.570 -0.6060  0.5220 -0.2318
13998SOL    HW242520   7.251   7.171   4.626  0.3664 -0.4217 -0.4763
13999SOL     OW42521   1.302   5.335   1.429  0.2888 -0.0407 -0.5689
13999SOL    HW142522   1.257   5.341   1.514  1.0146  1.5878 -0.2638
13999SOL    HW242523   1.391   5.365   1.447  0.6353 -0.2824 -1.7968
14000SOL     OW42524   1.726   0.182   3.033  0.6264  0.2400 -0.7367
14000SOL    HW142525   1.739   0.101   3.082  1.4828  0.2712 -0.8964
14000SOL    HW242526   1.754   0.160   2.944 -0.6275  0.2662 -1.1593
14001SOL     OW42527   7.354   7.080   0.249  0.4764  0.5758  0.2181
14001SOL    HW142528   7.432   7.028   0.229 -0.6744 -1.2286  0.2493
14001SOL    HW242529   7.387   7.153   0.302  1.9999 -0.7247  1.1348
14002SOL     OW42530   2.225   4.788   0.833  0.2287 -0.8100  0.0911
14002SOL    HW142531   2.265   4.870   0.862 -1.6719  0.4195 -0.5499
14002SOL    HW242532   2.247   4.782   0.740  0.3487 -1.0248  0.1321
14003SOL     OW42533   5.119   4.808   5.097 -0.6268  0.9691 -0.5515
14003SOL    HW142534   5.207   4.835   5.124 -0.1501 -2.0773  1.3878
14003SOL    HW242535   5.063   4.828   5.172 -1.3143  1.3134 -1.1291
14004SOL     OW42536   4.795   4.513   6.006  0.1306  0.2001 -0.7845
14004SOL    HW142537   4.746   4.593   5.987 -2.2655 -1.0475 -0.3263
14004SOL    HW242538   4.814   4.518   6.099  0.9002  0.6935 -0.9643
14005SOL     OW42539   3.896   7.168   7.324 -0.6431 -0.9389 -0.6735
14005SOL    HW142540   3.975   7.117   7.342 -1.0785 -1.8180 -1.1809
14005SOL    HW242541   3.881   7.157   7.230 -1.5189 -0.9960 -0.5353
14006SOL     OW42542   6.562   7.432   3.727  1.1068 -0.5167 -0.2360
14006SOL    HW142543   6.595   7.472   3.808  1.7270 -0.6985 -0.3967
14006SOL    HW242544   6.639   7.419   3.673  0.6112  0.1683 -1.1181
14007SOL     OW42545   1.512   0.853   6.391 -0.7532  0.2214  0.2479
14007SOL    HW142546   1.476   0.768   6.364 -3.4001  1.3773 -0.2216
14007SOL    HW242547   1.436   0.901   6.423 -0.1759  3.7887 -3.0441
14008SOL     OW42548   0.414   0.360   7.474  0.3479  0.4773 -0.3906
14008SOL    HW142549   0.378   0.430   7.420 -0.7948  1.2335  1.2528
14008SOL    HW242550   0.496   0.395   7.507  0.7606  0.2437 -1.1680
14009SOL     OW42551   4.956   7.433   5.575  0.1360  0.1371 -0.1943
14009SOL    HW142552   4.861   7.430   5.589  0.0367  0.8951 -0.6381
14009SOL    HW242553   4.973   7.522   5.543  1.1035  0.2699  0.6230
14010SOL     OW42554   5.936   2.474   3.286  0.1787  0.8036  0.0398
14010SOL    HW142555   5.885   2.416   3.230  1.5217 -0.9042  0.4856
14010SOL    HW242556   5.989   2.414   3.340  1.1296  2.4472  1.0026
14011SOL     OW42557   0.574   3.228   5.747  0.8139  0.0657 -0.0672
14011SOL    HW142558   0.606   3.309   5.784  2.2352 -0.2421 -0.5659
14011SOL    HW242559   0.642   3.200   5.686  1.0082 -2.1836  1.0522
14012SOL     OW42560   4.569   1.866   5.820  0.5311  0.2527 -0.0053
14012SOL    HW142561   4.558   1.849   5.726  0.1437 -1.3274  0.2829
14012SOL    HW242562   4.652   1.912   5.827  0.2797  0.9307 -1.1681
14013SOL     OW42563   0.028   4.126   5.648 -0.1805  0.6235  0.2760
14013SOL    HW142564   0.111   4.118   5.695  0.5918  0.9687 -0.9557
14013SOL    HW242565  -0.038   4.136   5.716  1.0267  2.4472  1.2647
14014SOL     OW42566   2.028   6.452   7.392  0.3157  0.6437 -0.2909
14014SOL    HW142567   1.982   6.523   7.346 -0.1052 -0.3344 -1.4244
14014SOL    HW242568   1.966   6.379   7.392  0.3835  0.5108  1.6743
14015SOL     OW42569   5.362   7.184   5.823  0.5245  0.4727 -0.3849
14015SOL    HW142570   5.292   7.190   5.758  0.4873  2.8012 -0.1941
14015SOL    HW242571   5.442   7.186   5.772  0.4832 -0.1649 -0.4827
14016SOL     OW42572   0.123   3.489   0.908 -0.2103  0.5077 -0.0999
14016SOL    HW142573   0.218   3.486   0.925 -0.0917 -0.2950 -0.8158
14016SOL    HW242574   0.113   3.555   0.840 -0.0624  0.0534 -0.5714
14017SOL     OW42575   5.147   0.178   6.319 -0.2904  0.2608 -0.1266
14017SOL    HW142576   5.116   0.248   6.376  0.2631  0.0780  0.4018
14017SOL    HW242577   5.090   0.104   6.340 -0.2780  0.2805 -0.0216
14018SOL     OW42578   5.004   6.873   5.006  0.4971 -1.0814 -0.2010
14018SOL    HW142579   5.014   6.874   4.911  0.1760 -0.5671 -0.2373
14018SOL    HW242580   4.950   6.796   5.024  1.3475 -1.7200 -0.3423
14019SOL     OW42581   1.498   4.343   5.622 -0.2801 -0.5900  0.1260
14019SOL    HW142582   1.442   4.327   5.545  1.9198 -2.0549 -1.2940
14019SOL    HW242583   1.544   4.424   5.600  0.6436 -1.2214 -0.3369
14020SOL     OW42584   4.196   1.738   1.678 -0.7688  0.2138  0.7258
14020SOL    HW142585   4.242   1.693   1.749 -1.4242 -1.9497 -0.1494
14020SOL    HW242586   4.105   1.744   1.708 -0.7682  0.5918  0.6575
14021SOL     OW42587   5.073   4.729   6.159 -0.3029 -0.6564 -0.2506
14021SOL    HW142588   5.126   4.689   6.228  1.2936 -0.0206 -1.0482
14021SOL    HW242589   5.125   4.805   6.131 -0.9007 -0.8935 -2.1275
14022SOL     OW42590   0.739   2.291   3.401 -0.3435  0.0763 -0.2311
14022SOL    HW142591   0.681   2.262   3.472  0.1213 -0.8973 -0.2371
14022SOL    HW242592   0.762   2.211   3.355 -0.7347  0.7100 -1.5711
14023SOL     OW42593   0.299   5.839   2.908  0.0714  0.3832  0.6865
14023SOL    HW142594   0.365   5.868   2.971  1.4172  0.4790 -0.6893
14023SOL    HW242595   0.244   5.778   2.957  1.3972  0.0288  1.8120
14024SOL     OW42596   6.227   5.039   2.964 -0.5034 -0.2019 -0.1226
14024SOL    HW142597   6.221   5.006   2.874 -1.7002  0.4722 -0.3123
14024SOL    HW242598   6.311   5.008   2.995 -0.9683 -2.2153 -0.7603
14025SOL     OW42599   4.418   3.189   7.505  0.0503  0.4922  0.6880
14025SOL    HW142600   4.483   3.123   7.531  0.9354  0.5450 -1.1641
14025SOL    HW242601   4.447   3.270   7.547  2.5171  1.0060 -1.7167
14026SOL     OW42602   2.236   5.113   3.284  0.1015 -0.0596  0.6860
14026SOL    HW142603   2.235   5.202   3.249  1.4644 -0.8205 -1.5239
14026SOL    HW242604   2.290   5.117   3.362  0.1224  1.0618  0.6229
14027SOL     OW42605   7.150   2.344   5.386 -0.3247 -0.4306 -0.3001
14027SOL    HW142606   7.143   2.423   5.440 -2.2796 -1.2879  0.8069
14027SOL    HW242607   7.214   2.289   5.431  0.2338  0.0712 -0.4795
14028SOL     OW42608   4.464   0.287   3.362  0.1396  0.1125 -0.1033
14028SOL    HW142609   4.376   0.293   3.325 -0.0412 -0.6430  0.1773
14028SOL    HW242610   4.517   0.252   3.291 -0.2316 -1.4490  0.3403
14029SOL     OW42611   5.217   5.156   0.509  0.4183  0.7752 -0.4120
14029SOL    HW142612   5.189   5.237   0.551 -1.0196 -0.2203  0.6410
14029SOL    HW242613   5.313   5.160   0.510  0.3682  2.2366  0.0479
14030SOL     OW42614   7.137   2.752   2.998  0.4102 -0.0348  0.2475
14030SOL    HW142615   7.048   2.786   2.985 -0.0435 -0.8473  1.0929
14030SOL    HW242616   7.191   2.830   3.005 -0.4609  0.5222  1.1212
14031SOL     OW42617   4.992   0.279   1.259 -0.4441  0.2815 -0.2588
14031SOL    HW142618   4.980   0.366   1.297  0.7625  1.1259 -1.7132
14031SOL    HW242619   5.023   0.296   1.170  1.8324 -1.6235  0.0787
14032SOL     OW42620   3.757   2.473   0.924 -0.3962  0.2614 -0.4178
14032SOL    HW142621   3.778   2.566   0.937 -0.4159  0.0897  0.9912
14032SOL    HW242622   3.819   2.444   0.857 -0.2251  1.2237 -0.6939
14033SOL     OW42623   0.347   1.838   3.697  0.1478 -0.1734  0.8926
14033SOL    HW142624   0.314   1.927   3.682 -5.0367 -1.8065  0.4717
14033SOL    HW242625   0.323   1.819   3.787 -0.1652 -1.5756  0.5388
14034SOL     OW42626   1.720   1.883   3.880  0.2707  0.5053 -0.4911
14034SOL    HW142627   1.714   1.955   3.818  1.4351 -0.6782 -2.0688
14034SOL    HW242628   1.629   1.861   3.901 -0.1480  1.0183 -1.6941
14035SOL     OW42629   1.286   5.010   6.528  0.1243 -0.5499  0.0182
14035SOL    HW142630   1.319   4.922   6.549  0.6236 -0.5909 -0.9066
14035SOL    HW242631   1.280   5.011   6.433  1.5154  0.9093 -0.0830
14036SOL     OW42632   0.953   0.184   7.231 -0.0776  0.2422 -0.1943
14036SOL    HW142633   1.046   0.199   7.249  0.4807  0.9796 -3.2514
14036SOL    HW242634   0.950   0.098   7.190 -0.9166 -0.2078  0.7571
14037SOL     OW42635   6.109   4.604   1.276  0.4927 -0.1953 -0.2342
14037SOL    HW142636   6.059   4.685   1.284  0.2556 -0.4079  0.4723
14037SOL    HW242637   6.150   4.610   1.190  0.5601  0.7232 -0.1474
14038SOL     OW42638   1.399   0.622   6.813  0.2595  0.0152  0.7159
14038SOL    HW142639   1.337   0.695   6.812  0.9188  0.6109  1.8324
14038SOL    HW242640   1.444   0.629   6.897 -0.8772 -2.7187  1.6658
14039SOL     OW42641   6.026   2.254   1.006  0.5445  0.1242  0.3376
14039SOL    HW142642   5.961   2.299   1.059 -0.7758 -1.9210  0.5506
14039SOL    HW242643   6.099   2.236   1.066  1.9211  3.3192 -0.1336
14040SOL     OW42644   2.625   4.236   6.704 -0.1840  0.3477 -0.1755
14040SOL    HW142645   2.710   4.201   6.730 -0.7859 -0.9122  0.1939
14040SOL    HW242646   2.562   4.179   6.748 -1.2440  2.6616  1.4969
14041SOL     OW42647   2.038   0.379   6.635  0.2365  0.4555  0.4319
14041SOL    HW142648   2.089   0.298   6.627  0.0619  0.3168  0.6961
14041SOL    HW242649   2.078   0.439   6.572 -0.3110 -0.1801 -0.5476
14042SOL     OW42650   2.667   6.160   4.437 -0.2315 -0.2916 -0.0493
14042SOL    HW142651   2.756   6.181   4.463 -0.4523 -0.3915  0.8240
14042SOL    HW242652   2.612   6.221   4.487 -0.6787 -0.6182 -0.1340
14043SOL     OW42653   1.543   4.024   6.984 -0.1230 -0.0997 -0.2923
14043SOL    HW142654   1.626   4.067   7.006 -1.7576  2.3893  1.5617
14043SOL    HW242655   1.527   4.049   6.893  0.9380 -0.2851 -0.5468
14044SOL     OW42656   6.106   0.187   1.584  0.4970 -0.0466  0.0363
14044SOL    HW142657   6.183   0.132   1.571  0.1366 -0.2687 -1.3381
14044SOL    HW242658   6.048   0.164   1.512 -0.1998  1.2361  0.1620
14045SOL     OW42659   4.482   3.067   0.644 -0.3819  0.0693 -0.3287
14045SOL    HW142660   4.415   3.006   0.615 -0.4005  0.5794 -1.3918
14045SOL    HW242661   4.549   3.012   0.686  0.0264 -0.7845 -2.0349
14046SOL     OW42662   6.887   0.304   5.300  0.1387  0.4771  0.5476
14046SOL    HW142663   6.873   0.263   5.386 -1.1714  1.3028  0.7421
14046SOL    HW242664   6.974   0.274   5.274 -0.5226 -1.9835  0.9304
14047SOL     OW42665   2.280   2.568   4.047 -0.2870 -0.6426 -0.2958
14047SOL    HW142666   2.212   2.606   3.991 -1.1993  0.1397  1.2831
14047SOL    HW242667   2.256   2.475   4.053 -1.5140 -0.2928  0.6078
14048SOL     OW42668   6.891   2.669   4.500  0.3009 -0.4838  0.2571
14048SOL    HW142669   6.857   2.606   4.563 -0.3742 -1.0668 -0.6633
14048SOL    HW242670   6.873   2.755   4.538 -2.3516 -0.7601 -0.2239
14049SOL     OW42671   4.855   6.867   3.367  0.0023 -0.5565 -0.2229
14049SOL    HW142672   4.880   6.945   3.317  1.1778  0.5435  1.9026
14049SOL    HW242673   4.932   6.810   3.363 -0.1906 -0.8119 -0.3127
14050NA      NA42674   0.784   6.204   1.793  0.3282 -0.6524 -0.0916
14051NA      NA42675   4.242   0.897   1.304 -0.2766 -0.1657 -0.4647
14052NA      NA42676   3.069   5.402   0.679  0.3036 -0.2248  0.1005
14053NA      NA42677   6.308   4.213   2.170 -0.1590  0.3250  0.2621
14054NA      NA42678   4.419   6.659   3.379  0.0647 -0.4336  0.0323
14055NA      NA42679   2.162   5.475   5.485 -0.0277  0.1206  0.5149
14056NA      NA42680   1.566   1.848   4.744 -0.2835  0.8573 -0.0870
14057NA      NA42681   2.128   2.274   6.180 -0.0976  0.5044  0.1611
14058NA      NA42682   5.418   1.544   2.679 -0.1602 -0.1860 -0.0671
14059NA      NA42683   4.944   6.579   6.729  0.0373  0.3232 -0.4168
14060NA      NA42684   0.795   0.755   4.509 -0.2361 -0.0506  0.0008
14061NA      NA42685   0.856   4.003   1.818  0.3735 -0.0278  0.0392
14062NA      NA42686   0.819   3.133   0.528 -0.4648  0.2768 -0.2003
14063NA      NA42687   4.596   1.190   0.642 -0.1516  0.3962  0.0454
14064NA      NA42688   5.521   6.035   1.858 -0.0708 -0.0406  0.5125
14065NA      NA42689   1.171   2.746   0.634  0.0163  0.0772 -0.3448
14066NA      NA42690   3.405   1.904   4.681  0.1465  0.1319 -0.3601
14067NA      NA42691   6.700   4.923   5.741 -0.4900  0.0905  0.0048
14068NA      NA42692   6.411   5.450   0.616  0.0370 -0.1221  0.2385
14069NA      NA42693   5.434   4.087   5.143  0.1885  0.2576  0.0079
14070NA      NA42694   6.151   2.395   6.882 -0.4064 -0.0861  0.1866
14071NA      NA42695   4.793   6.439   6.059  0.5034 -0.1784 -0.2326
14072NA      NA42696   6.492   3.331   3.052 -0.5231  0.0658  0.1421
14073NA      NA42697   6.471   0.783   1.156 -0.6525  0.1132  0.1154
14074NA      NA42698   6.725   0.408   7.135  0.0472  0.1195 -0.1431
14075NA      NA42699   3.747   5.296   3.518 -0.3150 -0.1567  0.5433
14076NA      NA42700   0.248   0.129   7.027  0.0130  0.0124 -0.3321
14077NA      NA42701   6.986   6.446   1.162 -0.0578  0.0246  0.0999
14078NA      NA42702   5.421   2.308   0.369  0.1856  0.2478  0.0186
14079NA      NA42703   2.253   2.661   0.877 -0.1921 -0.0183 -0.0850
14080NA      NA42704   4.533   7.317   3.980 -0.0732  0.2260 -0.4625
14081NA      NA42705   3.623   0.024   4.396 -0.1409  0.2469  0.0423
14082NA      NA42706   3.025   3.484   3.894  0.0018 -0.3363  0.3296
14083NA      NA42707   5.882   2.484   5.147  0.1099  0.2384 -0.1847
14084NA      NA42708   1.897   4.256   6.250 -0.1552 -0.3012  0.0604
14085NA      NA42709   2.798   2.166   1.824  0.5204  0.1965  0.3597
14086NA      NA42710   5.581   0.939   2.494  0.3029 -0.3043 -0.0475
14087NA      NA42711   5.375   3.061   0.519 -0.1298 -0.3832 -0.1368
14088NA      NA42712   3.212   2.726   0.697 -0.2210 -0.2309  0.2362
14089NA      NA42713   0.459   0.568   1.911  0.1191  0.5199 -0.2008
14090NA      NA42714   2.593   0.389   3.193 -0.5035 -0.0466 -0.0244
14091CL      CL42715   5.800   2.631   5.992  0.3630  0.2448  0.3060
14092CL      CL42716   5.717   7.418   6.051  0.0377  0.1862  0.4696
14093CL      CL42717   7.505   4.103   1.804 -0.2238  0.1123  0.1933
14094CL      CL42718   2.823   0.049   7.094 -0.1744  0.0124 -0.3972
14095CL      CL42719   4.931   2.531   0.300 -0.3510 -0.0447 -0.6018
14096CL      CL42720   6.859   0.909   5.613  0.0781  0.4846  0.1182
14097CL      CL42721   2.896   7.124   2.833  0.1283 -0.4488 -0.2915
14098CL      CL42722   1.477   1.526   0.790  0.3024 -0.4346  0.0621
14099CL      CL42723   5.780   3.406   4.268 -0.0284 -0.1064 -0.2269
14100CL      CL42724   2.835   5.712   3.918 -0.0588 -0.2814 -0.4981
14101CL      CL42725   6.351   3.066   7.417  0.1996  0.0849 -0.0502
14102CL      CL42726   4.943   6.104   5.525  0.5439 -0.3568 -0.0523
14103CL      CL42727   5.394   1.880   3.113  0.0809  0.3899  0.0705
14104CL      CL42728   6.550   6.317   7.562 -0.2164 -0.3195  0.0471
14105CL      CL42729   3.208   3.742   4.281  0.0952  0.0065 -0.1426
14106CL      CL42730   4.847   3.102   5.633 -0.3048 -0.3157 -0.0072
14107CL      CL42731   0.938   3.170   5.693 -0.3336  0.2276  0.0516
14108CL      CL42732   3.061   0.716   3.346  0.4060  0.4438 -0.1405
14109CL      CL42733   0.707   5.425   2.134 -0.2132  0.3035  0.6215
14110CL      CL42734   6.008   2.699   2.527  0.0922 -0.1935 -0.1003
14111CL      CL42735   4.475   2.228   7.175 -0.2229 -0.1037 -0.0627
14112CL      CL42736   5.361   3.047   7.145  0.2962  0.0130 -0.4043
14113CL      CL42737   6.603   0.640   2.360  0.3967 -0.5352 -0.0619
14114CL      CL42738   5.544   6.413   1.338 -0.3728 -0.0206  0.0875
14115CL      CL42739   7.421   6.884   1.990 -0.3001 -0.2944 -0.1403
14116CL      CL42740   4.946   7.265   2.983 -0.1691 -0.2611  0.3044
14117CL      CL42741   5.184   5.409   2.286 -0.3854  0.1669 -0.0464
14118CL      CL42742   2.260   2.177   3.135  0.2335 -0.2131 -0.0393
14119CL      CL42743   3.593   3.057   1.468  0.2277  0.0451  0.2534
14120CL      CL42744   1.616   2.813   2.655  0.3432  0.0815  0.0028
14121CL      CL42745   4.895   1.384   1.034  0.2202 -0.0924 -0.2307
14122CL      CL42746   1.801   3.674   7.565  0.0824 -0.3912  0.2842
14123CL      CL42747   1.927   6.308   5.445  0.0410  0.1303  0.3544
14124CL      CL42748   0.864   3.087   0.750  0.0654 -0.1251 -0.1823
14125CL      CL42749   7.462   0.767   7.496 -0.0602 -0.1773 -0.1795
14126CL      CL42750   5.424   5.379   6.404 -0.0960  0.0034  0.1763
14127CL      CL42751   0.228   0.374   4.116  0.0916 -0.0019  0.5928
14128CL      CL42752   1.829   6.240   2.968 -0.3861  0.3866  0.1772
14129CL      CL42753   5.498   0.348   7.209 -0.1112 -0.0957 -0.4025
14130CL      CL42754   2.560   2.384   6.358  0.2617  0.0055 -0.0425
14131CL      CL42755   2.330   0.309   5.421 -0.0138  0.1404  0.3517
   7.56765   7.56765   7.56765
