;
;   File g2pocore_petim.itp  was generated
;   By user: sairam (1000)
;   On host: sairam
;   At date: Thu. August  4 10:59:06 2023
;
;   This is a standalone topology file
;
;   Created by:
;   ParmEd:       amb2gro_top_gro.py, VERSION 3.4.1
;   Executable:   amb2gro_top_gro.py
;   Library dir:  /usr/local/gromacs/share/gromacs/top
;   Command line:
;     ./amb2gro_top_gro.py -p g2pocore_petim.prmtop -c g2pocore_petim.inpcrd -t g2pocore_petim.itp -g g2pocore_petim.gro -b g2pocore_petim.pdb
;

;[ defaults ]
;; nbfunc        comb-rule       gen-pairs       fudgeLJ fudgeQQ
;1               2               yes             0.5          0.83333333  
;
;[ atomtypes ]
;; name    at.num    mass    charge ptype  sigma      epsilon
;os             8  16.000000  0.00000000  A     0.30000123        0.71128
;c3             6  12.010000  0.00000000  A     0.33996695      0.4577296
;h1             1   1.008000  0.00000000  A      0.2471353      0.0656888
;hc             1   1.008000  0.00000000  A     0.26495328      0.0656888
;n3             7  14.010000  0.00000000  A     0.32499985        0.71128
;hx             1   1.008000  0.00000000  A     0.19599772      0.0656888
;n4             7  14.010000  0.00000000  A     0.32499985        0.71128
;hn             1   1.008000  0.00000000  A     0.10690785      0.0656888


[ moleculetype ]
; Name            nrexcl
g2pocore_petim       3

[ atoms ]
;   nr       type  resnr residue  atom   cgnr    charge       mass  typeB    chargeB      massB
; residue    1 aaa rtp aaa q -0.0
    1         os      1    aaa     O1      1 -0.43807400  16.000000   ; qtot -0.438074
    2         c3      1    aaa     C1      2 0.04509800  12.010000   ; qtot -0.392976
    3         h1      1    aaa     H1      3 0.04771700   1.008000   ; qtot -0.345259
    4         h1      1    aaa     H2      4 0.04771700   1.008000   ; qtot -0.297542
    5         c3      1    aaa     C2      5 0.04509800  12.010000   ; qtot -0.252444
    6         h1      1    aaa     H3      6 0.04771700   1.008000   ; qtot -0.204727
    7         h1      1    aaa     H4      7 0.04771700   1.008000   ; qtot -0.157010
    8         c3      1    aaa     C3      8 0.05658600  12.010000   ; qtot -0.100424
    9         hc      1    aaa     H5      9 0.04933800   1.008000   ; qtot -0.051086
   10         hc      1    aaa     H6     10 0.04933800   1.008000   ; qtot -0.001748
   11         c3      1    aaa     C4     11 0.05658600  12.010000   ; qtot 0.054838
   12         hc      1    aaa     H7     12 0.04933800   1.008000   ; qtot 0.104176
   13         hc      1    aaa     H8     13 0.04933800   1.008000   ; qtot 0.153514
   14         c3      1    aaa     C5     14 0.00989700  12.010000   ; qtot 0.163411
   15         h1      1    aaa     H9     15 0.04845500   1.008000   ; qtot 0.211866
   16         h1      1    aaa    H10     16 0.04845500   1.008000   ; qtot 0.260321
   17         c3      1    aaa     C6     17 0.00989700  12.010000   ; qtot 0.270218
   18         h1      1    aaa    H11     18 0.04845500   1.008000   ; qtot 0.318673
   19         h1      1    aaa    H12     19 0.04845500   1.008000   ; qtot 0.367128
   20         n3      1    aaa     N1     20 -0.59936800  14.010000   ; qtot -0.232240
   21         n3      1    aaa     N2     21 -0.59936800  14.010000   ; qtot -0.831608
   22         c3      1    aaa     C7     22 0.08030200  12.010000   ; qtot -0.751306
   23         h1      1    aaa    H13     23 0.05071600   1.008000   ; qtot -0.700590
   24         h1      1    aaa    H14     24 0.05071600   1.008000   ; qtot -0.649874
   25         c3      1    aaa     C8     25 0.08030200  12.010000   ; qtot -0.569572
   26         h1      1    aaa    H15     26 0.05071600   1.008000   ; qtot -0.518856
   27         h1      1    aaa    H16     27 0.05071600   1.008000   ; qtot -0.468140
   28         c3      1    aaa     C9     28 0.08030200  12.010000   ; qtot -0.387838
   29         h1      1    aaa    H17     29 0.05071600   1.008000   ; qtot -0.337122
   30         h1      1    aaa    H18     30 0.05071600   1.008000   ; qtot -0.286406
   31         c3      1    aaa    C10     31 0.08030200  12.010000   ; qtot -0.206104
   32         h1      1    aaa    H19     32 0.05071600   1.008000   ; qtot -0.155388
   33         h1      1    aaa    H20     33 0.05071600   1.008000   ; qtot -0.104672
   34         c3      1    aaa    C11     34 0.10287800  12.010000   ; qtot -0.001794
   35         hc      1    aaa    H21     35 0.06787400   1.008000   ; qtot 0.066080
   36         hc      1    aaa    H22     36 0.06787400   1.008000   ; qtot 0.133954
   37         c3      1    aaa    C12     37 0.10287800  12.010000   ; qtot 0.236832
   38         hc      1    aaa    H23     38 0.06787400   1.008000   ; qtot 0.304706
   39         hc      1    aaa    H24     39 0.06787400   1.008000   ; qtot 0.372580
   40         c3      1    aaa    C13     40 0.10287800  12.010000   ; qtot 0.475458
   41         hc      1    aaa    H25     41 0.06787400   1.008000   ; qtot 0.543332
   42         hc      1    aaa    H26     42 0.06787400   1.008000   ; qtot 0.611206
   43         c3      1    aaa    C14     43 0.10287800  12.010000   ; qtot 0.714084
   44         hc      1    aaa    H27     44 0.06787400   1.008000   ; qtot 0.781958
   45         hc      1    aaa    H28     45 0.06787400   1.008000   ; qtot 0.849832
   46         c3      1    aaa    C15     46 -0.72585200  12.010000   ; qtot 0.123980
   47         h1      1    aaa    H29     47 0.25669700   1.008000   ; qtot 0.380677
   48         h1      1    aaa    H30     48 0.25669700   1.008000   ; qtot 0.637374
   49         c3      1    aaa    C16     49 -0.72585200  12.010000   ; qtot -0.088478
   50         h1      1    aaa    H31     50 0.25669700   1.008000   ; qtot 0.168219
   51         h1      1    aaa    H32     51 0.25669700   1.008000   ; qtot 0.424916
   52         c3      1    aaa    C17     52 -0.72585200  12.010000   ; qtot -0.300936
   53         h1      1    aaa    H33     53 0.25669700   1.008000   ; qtot -0.044239
   54         h1      1    aaa    H34     54 0.25669700   1.008000   ; qtot 0.212458
   55         c3      1    aaa    C18     55 -0.72585200  12.010000   ; qtot -0.513394
   56         h1      1    aaa    H35     56 0.25669700   1.008000   ; qtot -0.256697
   57         h1      1    aaa    H36     57 0.25669700   1.008000   ; qtot -0.000000
; residue    2 bbb rtp bbb q -0.0
   58         n3      2    bbb     N1     58 -0.59685800  14.010000   ; qtot -0.596858
   59         c3      2    bbb     C1     59 0.10137000  12.010000   ; qtot -0.495488
   60         h1      2    bbb     H1     60 0.04411300   1.008000   ; qtot -0.451375
   61         h1      2    bbb     H2     61 0.04411300   1.008000   ; qtot -0.407262
   62         c3      2    bbb     C2     62 0.10137000  12.010000   ; qtot -0.305892
   63         h1      2    bbb     H3     63 0.04411300   1.008000   ; qtot -0.261779
   64         h1      2    bbb     H4     64 0.04411300   1.008000   ; qtot -0.217666
   65         c3      2    bbb     C3     65 -0.00195300  12.010000   ; qtot -0.219619
   66         h1      2    bbb     H5     66 0.05064400   1.008000   ; qtot -0.168975
   67         h1      2    bbb     H6     67 0.05064400   1.008000   ; qtot -0.118331
   68         c3      2    bbb     C4     68 -0.01612100  12.010000   ; qtot -0.134452
   69         hc      2    bbb     H7     69 0.04936100   1.008000   ; qtot -0.085091
   70         hc      2    bbb     H8     70 0.04936100   1.008000   ; qtot -0.035730
   71         c3      2    bbb     C5     71 0.11363000  12.010000   ; qtot 0.077900
   72         hc      2    bbb     H9     72 0.06265900   1.008000   ; qtot 0.140559
   73         hc      2    bbb    H10     73 0.06265900   1.008000   ; qtot 0.203218
   74         c3      2    bbb     C6     74 0.11363000  12.010000   ; qtot 0.316848
   75         hc      2    bbb    H11     75 0.06265900   1.008000   ; qtot 0.379507
   76         hc      2    bbb    H12     76 0.06265900   1.008000   ; qtot 0.442166
   77         c3      2    bbb     C7     77 0.05858200  12.010000   ; qtot 0.500748
   78         h1      2    bbb    H13     78 0.06123400   1.008000   ; qtot 0.561982
   79         h1      2    bbb    H14     79 0.06123400   1.008000   ; qtot 0.623216
   80         c3      2    bbb     C8     80 -0.72423400  12.010000   ; qtot -0.101018
   81         h1      2    bbb    H15     81 0.25637600   1.008000   ; qtot 0.155358
   82         h1      2    bbb    H16     82 0.25637600   1.008000   ; qtot 0.411734
   83         c3      2    bbb     C9     83 -0.72423400  12.010000   ; qtot -0.312500
   84         h1      2    bbb    H17     84 0.25637600   1.008000   ; qtot -0.056124
   85         h1      2    bbb    H18     85 0.25637600   1.008000   ; qtot 0.200252
   86         os      2    bbb     O1     86 -0.20025300  16.000000   ; qtot -0.000001
; residue    3 bbb rtp bbb q -0.0
   87         n3      3    bbb     N1     87 -0.59685800  14.010000   ; qtot -0.596859
   88         c3      3    bbb     C1     88 0.10137000  12.010000   ; qtot -0.495489
   89         h1      3    bbb     H1     89 0.04411300   1.008000   ; qtot -0.451376
   90         h1      3    bbb     H2     90 0.04411300   1.008000   ; qtot -0.407263
   91         c3      3    bbb     C2     91 0.10137000  12.010000   ; qtot -0.305893
   92         h1      3    bbb     H3     92 0.04411300   1.008000   ; qtot -0.261780
   93         h1      3    bbb     H4     93 0.04411300   1.008000   ; qtot -0.217667
   94         c3      3    bbb     C3     94 -0.00195300  12.010000   ; qtot -0.219620
   95         h1      3    bbb     H5     95 0.05064400   1.008000   ; qtot -0.168976
   96         h1      3    bbb     H6     96 0.05064400   1.008000   ; qtot -0.118332
   97         c3      3    bbb     C4     97 -0.01612100  12.010000   ; qtot -0.134453
   98         hc      3    bbb     H7     98 0.04936100   1.008000   ; qtot -0.085092
   99         hc      3    bbb     H8     99 0.04936100   1.008000   ; qtot -0.035731
  100         c3      3    bbb     C5    100 0.11363000  12.010000   ; qtot 0.077899
  101         hc      3    bbb     H9    101 0.06265900   1.008000   ; qtot 0.140558
  102         hc      3    bbb    H10    102 0.06265900   1.008000   ; qtot 0.203217
  103         c3      3    bbb     C6    103 0.11363000  12.010000   ; qtot 0.316847
  104         hc      3    bbb    H11    104 0.06265900   1.008000   ; qtot 0.379506
  105         hc      3    bbb    H12    105 0.06265900   1.008000   ; qtot 0.442165
  106         c3      3    bbb     C7    106 0.05858200  12.010000   ; qtot 0.500747
  107         h1      3    bbb    H13    107 0.06123400   1.008000   ; qtot 0.561981
  108         h1      3    bbb    H14    108 0.06123400   1.008000   ; qtot 0.623215
  109         c3      3    bbb     C8    109 -0.72423400  12.010000   ; qtot -0.101019
  110         h1      3    bbb    H15    110 0.25637600   1.008000   ; qtot 0.155357
  111         h1      3    bbb    H16    111 0.25637600   1.008000   ; qtot 0.411733
  112         c3      3    bbb     C9    112 -0.72423400  12.010000   ; qtot -0.312501
  113         h1      3    bbb    H17    113 0.25637600   1.008000   ; qtot -0.056125
  114         h1      3    bbb    H18    114 0.25637600   1.008000   ; qtot 0.200251
  115         os      3    bbb     O1    115 -0.20025300  16.000000   ; qtot -0.000002
; residue    4 bbb rtp bbb q -0.0
  116         n3      4    bbb     N1    116 -0.59685800  14.010000   ; qtot -0.596860
  117         c3      4    bbb     C1    117 0.10137000  12.010000   ; qtot -0.495490
  118         h1      4    bbb     H1    118 0.04411300   1.008000   ; qtot -0.451377
  119         h1      4    bbb     H2    119 0.04411300   1.008000   ; qtot -0.407264
  120         c3      4    bbb     C2    120 0.10137000  12.010000   ; qtot -0.305894
  121         h1      4    bbb     H3    121 0.04411300   1.008000   ; qtot -0.261781
  122         h1      4    bbb     H4    122 0.04411300   1.008000   ; qtot -0.217668
  123         c3      4    bbb     C3    123 -0.00195300  12.010000   ; qtot -0.219621
  124         h1      4    bbb     H5    124 0.05064400   1.008000   ; qtot -0.168977
  125         h1      4    bbb     H6    125 0.05064400   1.008000   ; qtot -0.118333
  126         c3      4    bbb     C4    126 -0.01612100  12.010000   ; qtot -0.134454
  127         hc      4    bbb     H7    127 0.04936100   1.008000   ; qtot -0.085093
  128         hc      4    bbb     H8    128 0.04936100   1.008000   ; qtot -0.035732
  129         c3      4    bbb     C5    129 0.11363000  12.010000   ; qtot 0.077898
  130         hc      4    bbb     H9    130 0.06265900   1.008000   ; qtot 0.140557
  131         hc      4    bbb    H10    131 0.06265900   1.008000   ; qtot 0.203216
  132         c3      4    bbb     C6    132 0.11363000  12.010000   ; qtot 0.316846
  133         hc      4    bbb    H11    133 0.06265900   1.008000   ; qtot 0.379505
  134         hc      4    bbb    H12    134 0.06265900   1.008000   ; qtot 0.442164
  135         c3      4    bbb     C7    135 0.05858200  12.010000   ; qtot 0.500746
  136         h1      4    bbb    H13    136 0.06123400   1.008000   ; qtot 0.561980
  137         h1      4    bbb    H14    137 0.06123400   1.008000   ; qtot 0.623214
  138         c3      4    bbb     C8    138 -0.72423400  12.010000   ; qtot -0.101020
  139         h1      4    bbb    H15    139 0.25637600   1.008000   ; qtot 0.155356
  140         h1      4    bbb    H16    140 0.25637600   1.008000   ; qtot 0.411732
  141         c3      4    bbb     C9    141 -0.72423400  12.010000   ; qtot -0.312502
  142         h1      4    bbb    H17    142 0.25637600   1.008000   ; qtot -0.056126
  143         h1      4    bbb    H18    143 0.25637600   1.008000   ; qtot 0.200250
  144         os      4    bbb     O1    144 -0.20025300  16.000000   ; qtot -0.000003
; residue    5 bbb rtp bbb q -0.0
  145         n3      5    bbb     N1    145 -0.59685800  14.010000   ; qtot -0.596861
  146         c3      5    bbb     C1    146 0.10137000  12.010000   ; qtot -0.495491
  147         h1      5    bbb     H1    147 0.04411300   1.008000   ; qtot -0.451378
  148         h1      5    bbb     H2    148 0.04411300   1.008000   ; qtot -0.407265
  149         c3      5    bbb     C2    149 0.10137000  12.010000   ; qtot -0.305895
  150         h1      5    bbb     H3    150 0.04411300   1.008000   ; qtot -0.261782
  151         h1      5    bbb     H4    151 0.04411300   1.008000   ; qtot -0.217669
  152         c3      5    bbb     C3    152 -0.00195300  12.010000   ; qtot -0.219622
  153         h1      5    bbb     H5    153 0.05064400   1.008000   ; qtot -0.168978
  154         h1      5    bbb     H6    154 0.05064400   1.008000   ; qtot -0.118334
  155         c3      5    bbb     C4    155 -0.01612100  12.010000   ; qtot -0.134455
  156         hc      5    bbb     H7    156 0.04936100   1.008000   ; qtot -0.085094
  157         hc      5    bbb     H8    157 0.04936100   1.008000   ; qtot -0.035733
  158         c3      5    bbb     C5    158 0.11363000  12.010000   ; qtot 0.077897
  159         hc      5    bbb     H9    159 0.06265900   1.008000   ; qtot 0.140556
  160         hc      5    bbb    H10    160 0.06265900   1.008000   ; qtot 0.203215
  161         c3      5    bbb     C6    161 0.11363000  12.010000   ; qtot 0.316845
  162         hc      5    bbb    H11    162 0.06265900   1.008000   ; qtot 0.379504
  163         hc      5    bbb    H12    163 0.06265900   1.008000   ; qtot 0.442163
  164         c3      5    bbb     C7    164 0.05858200  12.010000   ; qtot 0.500745
  165         h1      5    bbb    H13    165 0.06123400   1.008000   ; qtot 0.561979
  166         h1      5    bbb    H14    166 0.06123400   1.008000   ; qtot 0.623213
  167         c3      5    bbb     C8    167 -0.72423400  12.010000   ; qtot -0.101021
  168         h1      5    bbb    H15    168 0.25637600   1.008000   ; qtot 0.155355
  169         h1      5    bbb    H16    169 0.25637600   1.008000   ; qtot 0.411731
  170         c3      5    bbb     C9    170 -0.72423400  12.010000   ; qtot -0.312503
  171         h1      5    bbb    H17    171 0.25637600   1.008000   ; qtot -0.056127
  172         h1      5    bbb    H18    172 0.25637600   1.008000   ; qtot 0.200249
  173         os      5    bbb     O1    173 -0.20025300  16.000000   ; qtot -0.000004
; residue    6 ccc rtp ccc q 1.0
  174         c3      6    ccc     C1    174 0.17060900  12.010000   ; qtot 0.170605
  175         hx      6    ccc     H1    175 0.04213200   1.008000   ; qtot 0.212737
  176         hx      6    ccc     H2    176 0.04213200   1.008000   ; qtot 0.254869
  177         c3      6    ccc     C2    177 -0.04496700  12.010000   ; qtot 0.209902
  178         hc      6    ccc     H3    178 0.02647500   1.008000   ; qtot 0.236377
  179         hc      6    ccc     H4    179 0.02647500   1.008000   ; qtot 0.262852
  180         c3      6    ccc     C3    180 0.04732600  12.010000   ; qtot 0.310178
  181         h1      6    ccc     H5    181 0.07030200   1.008000   ; qtot 0.380480
  182         h1      6    ccc     H6    182 0.07030200   1.008000   ; qtot 0.450782
  183         n4      6    ccc     N1    183 -0.21077700  14.010000   ; qtot 0.240005
  184         hn      6    ccc     H7    184 0.28399900   1.008000   ; qtot 0.524004
  185         hn      6    ccc     H8    185 0.28399900   1.008000   ; qtot 0.808003
  186         os      6    ccc     O1    186 -0.09200600  16.000000   ; qtot 0.715997
  187         hn      6    ccc    H17    187 0.28399900   1.008000   ; qtot 0.999996
; residue    7 ccc rtp ccc q 1.0
  188         c3      7    ccc     C1    188 0.17060900  12.010000   ; qtot 1.170605
  189         hx      7    ccc     H1    189 0.04213200   1.008000   ; qtot 1.212737
  190         hx      7    ccc     H2    190 0.04213200   1.008000   ; qtot 1.254869
  191         c3      7    ccc     C2    191 -0.04496700  12.010000   ; qtot 1.209902
  192         hc      7    ccc     H3    192 0.02647500   1.008000   ; qtot 1.236377
  193         hc      7    ccc     H4    193 0.02647500   1.008000   ; qtot 1.262852
  194         c3      7    ccc     C3    194 0.04732600  12.010000   ; qtot 1.310178
  195         h1      7    ccc     H5    195 0.07030200   1.008000   ; qtot 1.380480
  196         h1      7    ccc     H6    196 0.07030200   1.008000   ; qtot 1.450782
  197         n4      7    ccc     N1    197 -0.21077700  14.010000   ; qtot 1.240005
  198         hn      7    ccc     H7    198 0.28399900   1.008000   ; qtot 1.524004
  199         hn      7    ccc     H8    199 0.28399900   1.008000   ; qtot 1.808003
  200         os      7    ccc     O1    200 -0.09200600  16.000000   ; qtot 1.715997
  201         hn      7    ccc    H17    201 0.28399900   1.008000   ; qtot 1.999996
; residue    8 ccc rtp ccc q 1.0
  202         c3      8    ccc     C1    202 0.17060900  12.010000   ; qtot 2.170605
  203         hx      8    ccc     H1    203 0.04213200   1.008000   ; qtot 2.212737
  204         hx      8    ccc     H2    204 0.04213200   1.008000   ; qtot 2.254869
  205         c3      8    ccc     C2    205 -0.04496700  12.010000   ; qtot 2.209902
  206         hc      8    ccc     H3    206 0.02647500   1.008000   ; qtot 2.236377
  207         hc      8    ccc     H4    207 0.02647500   1.008000   ; qtot 2.262852
  208         c3      8    ccc     C3    208 0.04732600  12.010000   ; qtot 2.310178
  209         h1      8    ccc     H5    209 0.07030200   1.008000   ; qtot 2.380480
  210         h1      8    ccc     H6    210 0.07030200   1.008000   ; qtot 2.450782
  211         n4      8    ccc     N1    211 -0.21077700  14.010000   ; qtot 2.240005
  212         hn      8    ccc     H7    212 0.28399900   1.008000   ; qtot 2.524004
  213         hn      8    ccc     H8    213 0.28399900   1.008000   ; qtot 2.808003
  214         os      8    ccc     O1    214 -0.09200600  16.000000   ; qtot 2.715997
  215         hn      8    ccc    H17    215 0.28399900   1.008000   ; qtot 2.999996
; residue    9 ccc rtp ccc q 1.0
  216         c3      9    ccc     C1    216 0.17060900  12.010000   ; qtot 3.170605
  217         hx      9    ccc     H1    217 0.04213200   1.008000   ; qtot 3.212737
  218         hx      9    ccc     H2    218 0.04213200   1.008000   ; qtot 3.254869
  219         c3      9    ccc     C2    219 -0.04496700  12.010000   ; qtot 3.209902
  220         hc      9    ccc     H3    220 0.02647500   1.008000   ; qtot 3.236377
  221         hc      9    ccc     H4    221 0.02647500   1.008000   ; qtot 3.262852
  222         c3      9    ccc     C3    222 0.04732600  12.010000   ; qtot 3.310178
  223         h1      9    ccc     H5    223 0.07030200   1.008000   ; qtot 3.380480
  224         h1      9    ccc     H6    224 0.07030200   1.008000   ; qtot 3.450782
  225         n4      9    ccc     N1    225 -0.21077700  14.010000   ; qtot 3.240005
  226         hn      9    ccc     H7    226 0.28399900   1.008000   ; qtot 3.524004
  227         hn      9    ccc     H8    227 0.28399900   1.008000   ; qtot 3.808003
  228         os      9    ccc     O1    228 -0.09200600  16.000000   ; qtot 3.715997
  229         hn      9    ccc    H17    229 0.28399900   1.008000   ; qtot 3.999996
; residue   10 ccc rtp ccc q 1.0
  230         c3     10    ccc     C1    230 0.17060900  12.010000   ; qtot 4.170605
  231         hx     10    ccc     H1    231 0.04213200   1.008000   ; qtot 4.212737
  232         hx     10    ccc     H2    232 0.04213200   1.008000   ; qtot 4.254869
  233         c3     10    ccc     C2    233 -0.04496700  12.010000   ; qtot 4.209902
  234         hc     10    ccc     H3    234 0.02647500   1.008000   ; qtot 4.236377
  235         hc     10    ccc     H4    235 0.02647500   1.008000   ; qtot 4.262852
  236         c3     10    ccc     C3    236 0.04732600  12.010000   ; qtot 4.310178
  237         h1     10    ccc     H5    237 0.07030200   1.008000   ; qtot 4.380480
  238         h1     10    ccc     H6    238 0.07030200   1.008000   ; qtot 4.450782
  239         n4     10    ccc     N1    239 -0.21077700  14.010000   ; qtot 4.240005
  240         hn     10    ccc     H7    240 0.28399900   1.008000   ; qtot 4.524004
  241         hn     10    ccc     H8    241 0.28399900   1.008000   ; qtot 4.808003
  242         os     10    ccc     O1    242 -0.09200600  16.000000   ; qtot 4.715997
  243         hn     10    ccc    H17    243 0.28399900   1.008000   ; qtot 4.999996
; residue   11 ccc rtp ccc q 1.0
  244         c3     11    ccc     C1    244 0.17060900  12.010000   ; qtot 5.170605
  245         hx     11    ccc     H1    245 0.04213200   1.008000   ; qtot 5.212737
  246         hx     11    ccc     H2    246 0.04213200   1.008000   ; qtot 5.254869
  247         c3     11    ccc     C2    247 -0.04496700  12.010000   ; qtot 5.209902
  248         hc     11    ccc     H3    248 0.02647500   1.008000   ; qtot 5.236377
  249         hc     11    ccc     H4    249 0.02647500   1.008000   ; qtot 5.262852
  250         c3     11    ccc     C3    250 0.04732600  12.010000   ; qtot 5.310178
  251         h1     11    ccc     H5    251 0.07030200   1.008000   ; qtot 5.380480
  252         h1     11    ccc     H6    252 0.07030200   1.008000   ; qtot 5.450782
  253         n4     11    ccc     N1    253 -0.21077700  14.010000   ; qtot 5.240005
  254         hn     11    ccc     H7    254 0.28399900   1.008000   ; qtot 5.524004
  255         hn     11    ccc     H8    255 0.28399900   1.008000   ; qtot 5.808003
  256         os     11    ccc     O1    256 -0.09200600  16.000000   ; qtot 5.715997
  257         hn     11    ccc    H17    257 0.28399900   1.008000   ; qtot 5.999996
; residue   12 ccc rtp ccc q 1.0
  258         c3     12    ccc     C1    258 0.17060900  12.010000   ; qtot 6.170605
  259         hx     12    ccc     H1    259 0.04213200   1.008000   ; qtot 6.212737
  260         hx     12    ccc     H2    260 0.04213200   1.008000   ; qtot 6.254869
  261         c3     12    ccc     C2    261 -0.04496700  12.010000   ; qtot 6.209902
  262         hc     12    ccc     H3    262 0.02647500   1.008000   ; qtot 6.236377
  263         hc     12    ccc     H4    263 0.02647500   1.008000   ; qtot 6.262852
  264         c3     12    ccc     C3    264 0.04732600  12.010000   ; qtot 6.310178
  265         h1     12    ccc     H5    265 0.07030200   1.008000   ; qtot 6.380480
  266         h1     12    ccc     H6    266 0.07030200   1.008000   ; qtot 6.450782
  267         n4     12    ccc     N1    267 -0.21077700  14.010000   ; qtot 6.240005
  268         hn     12    ccc     H7    268 0.28399900   1.008000   ; qtot 6.524004
  269         hn     12    ccc     H8    269 0.28399900   1.008000   ; qtot 6.808003
  270         os     12    ccc     O1    270 -0.09200600  16.000000   ; qtot 6.715997
  271         hn     12    ccc    H17    271 0.28399900   1.008000   ; qtot 6.999996
; residue   13 ccc rtp ccc q 1.0
  272         c3     13    ccc     C1    272 0.17060900  12.010000   ; qtot 7.170605
  273         hx     13    ccc     H1    273 0.04213200   1.008000   ; qtot 7.212737
  274         hx     13    ccc     H2    274 0.04213200   1.008000   ; qtot 7.254869
  275         c3     13    ccc     C2    275 -0.04496700  12.010000   ; qtot 7.209902
  276         hc     13    ccc     H3    276 0.02647500   1.008000   ; qtot 7.236377
  277         hc     13    ccc     H4    277 0.02647500   1.008000   ; qtot 7.262852
  278         c3     13    ccc     C3    278 0.04732600  12.010000   ; qtot 7.310178
  279         h1     13    ccc     H5    279 0.07030200   1.008000   ; qtot 7.380480
  280         h1     13    ccc     H6    280 0.07030200   1.008000   ; qtot 7.450782
  281         n4     13    ccc     N1    281 -0.21077700  14.010000   ; qtot 7.240005
  282         hn     13    ccc     H7    282 0.28399900   1.008000   ; qtot 7.524004
  283         hn     13    ccc     H8    283 0.28399900   1.008000   ; qtot 7.808003
  284         os     13    ccc     O1    284 -0.09200600  16.000000   ; qtot 7.715997
  285         hn     13    ccc    H17    285 0.28399900   1.008000   ; qtot 7.999996

[ bonds ]
;    ai     aj funct         c0         c1         c2         c3
      1      2     1   0.14316 258236.480000
      1      5     1   0.14316 258236.480000
      2      8     1   0.15375 251793.120000
      5     11     1   0.15375 251793.120000
      8     14     1   0.15375 251793.120000
     11     17     1   0.15375 251793.120000
     14     20     1   0.14647 272713.120000
     17     21     1   0.14647 272713.120000
     20     28     1   0.14647 272713.120000
     20     31     1   0.14647 272713.120000
     21     22     1   0.14647 272713.120000
     21     25     1   0.14647 272713.120000
     22     34     1   0.15375 251793.120000
     25     37     1   0.15375 251793.120000
     28     40     1   0.15375 251793.120000
     31     43     1   0.15375 251793.120000
     34     55     1   0.15375 251793.120000
     37     52     1   0.15375 251793.120000
     40     49     1   0.15375 251793.120000
     43     46     1   0.15375 251793.120000
     46     86     1   0.14316 258236.480000
     49    115     1   0.14316 258236.480000
     52    144     1   0.14316 258236.480000
     55    173     1   0.14316 258236.480000
     58     59     1   0.14647 272713.120000
     58     62     1   0.14647 272713.120000
     58     65     1   0.14647 272713.120000
     59     71     1   0.15375 251793.120000
     62     74     1   0.15375 251793.120000
     65     68     1   0.15375 251793.120000
     68     77     1   0.15375 251793.120000
     71     83     1   0.15375 251793.120000
     74     80     1   0.15375 251793.120000
     77     86     1   0.14316 258236.480000
     80    186     1   0.14316 258236.480000
     83    200     1   0.14316 258236.480000
     87     88     1   0.14647 272713.120000
     87     91     1   0.14647 272713.120000
     87     94     1   0.14647 272713.120000
     88    100     1   0.15375 251793.120000
     91    103     1   0.15375 251793.120000
     94     97     1   0.15375 251793.120000
     97    106     1   0.15375 251793.120000
    100    112     1   0.15375 251793.120000
    103    109     1   0.15375 251793.120000
    106    115     1   0.14316 258236.480000
    109    214     1   0.14316 258236.480000
    112    228     1   0.14316 258236.480000
    116    117     1   0.14647 272713.120000
    116    120     1   0.14647 272713.120000
    116    123     1   0.14647 272713.120000
    117    129     1   0.15375 251793.120000
    120    132     1   0.15375 251793.120000
    123    126     1   0.15375 251793.120000
    126    135     1   0.15375 251793.120000
    129    141     1   0.15375 251793.120000
    132    138     1   0.15375 251793.120000
    135    144     1   0.14316 258236.480000
    138    242     1   0.14316 258236.480000
    141    256     1   0.14316 258236.480000
    145    146     1   0.14647 272713.120000
    145    149     1   0.14647 272713.120000
    145    152     1   0.14647 272713.120000
    146    158     1   0.15375 251793.120000
    149    161     1   0.15375 251793.120000
    152    155     1   0.15375 251793.120000
    155    164     1   0.15375 251793.120000
    158    170     1   0.15375 251793.120000
    161    167     1   0.15375 251793.120000
    164    173     1   0.14316 258236.480000
    167    270     1   0.14316 258236.480000
    170    284     1   0.14316 258236.480000
    174    177     1   0.15375 251793.120000
    174    183     1   0.15110 237065.440000
    177    180     1   0.15375 251793.120000
    180    186     1   0.14316 258236.480000
    188    191     1   0.15375 251793.120000
    188    197     1   0.15110 237065.440000
    191    194     1   0.15375 251793.120000
    194    200     1   0.14316 258236.480000
    202    205     1   0.15375 251793.120000
    202    211     1   0.15110 237065.440000
    205    208     1   0.15375 251793.120000
    208    214     1   0.14316 258236.480000
    216    219     1   0.15375 251793.120000
    216    225     1   0.15110 237065.440000
    219    222     1   0.15375 251793.120000
    222    228     1   0.14316 258236.480000
    230    233     1   0.15375 251793.120000
    230    239     1   0.15110 237065.440000
    233    236     1   0.15375 251793.120000
    236    242     1   0.14316 258236.480000
    244    247     1   0.15375 251793.120000
    244    253     1   0.15110 237065.440000
    247    250     1   0.15375 251793.120000
    250    256     1   0.14316 258236.480000
    258    261     1   0.15375 251793.120000
    258    267     1   0.15110 237065.440000
    261    264     1   0.15375 251793.120000
    264    270     1   0.14316 258236.480000
    272    275     1   0.15375 251793.120000
    272    281     1   0.15110 237065.440000
    275    278     1   0.15375 251793.120000
    278    284     1   0.14316 258236.480000
      2      3     1   0.10969 276646.080000
      2      4     1   0.10969 276646.080000
      5      6     1   0.10969 276646.080000
      5      7     1   0.10969 276646.080000
      8      9     1   0.10969 276646.080000
      8     10     1   0.10969 276646.080000
     11     12     1   0.10969 276646.080000
     11     13     1   0.10969 276646.080000
     14     15     1   0.10969 276646.080000
     14     16     1   0.10969 276646.080000
     17     18     1   0.10969 276646.080000
     17     19     1   0.10969 276646.080000
     22     23     1   0.10969 276646.080000
     22     24     1   0.10969 276646.080000
     25     26     1   0.10969 276646.080000
     25     27     1   0.10969 276646.080000
     28     29     1   0.10969 276646.080000
     28     30     1   0.10969 276646.080000
     31     32     1   0.10969 276646.080000
     31     33     1   0.10969 276646.080000
     34     35     1   0.10969 276646.080000
     34     36     1   0.10969 276646.080000
     37     38     1   0.10969 276646.080000
     37     39     1   0.10969 276646.080000
     40     41     1   0.10969 276646.080000
     40     42     1   0.10969 276646.080000
     43     44     1   0.10969 276646.080000
     43     45     1   0.10969 276646.080000
     46     47     1   0.10969 276646.080000
     46     48     1   0.10969 276646.080000
     49     50     1   0.10969 276646.080000
     49     51     1   0.10969 276646.080000
     52     53     1   0.10969 276646.080000
     52     54     1   0.10969 276646.080000
     55     56     1   0.10969 276646.080000
     55     57     1   0.10969 276646.080000
     59     60     1   0.10969 276646.080000
     59     61     1   0.10969 276646.080000
     62     63     1   0.10969 276646.080000
     62     64     1   0.10969 276646.080000
     65     66     1   0.10969 276646.080000
     65     67     1   0.10969 276646.080000
     68     69     1   0.10969 276646.080000
     68     70     1   0.10969 276646.080000
     71     72     1   0.10969 276646.080000
     71     73     1   0.10969 276646.080000
     74     75     1   0.10969 276646.080000
     74     76     1   0.10969 276646.080000
     77     78     1   0.10969 276646.080000
     77     79     1   0.10969 276646.080000
     80     81     1   0.10969 276646.080000
     80     82     1   0.10969 276646.080000
     83     84     1   0.10969 276646.080000
     83     85     1   0.10969 276646.080000
     88     89     1   0.10969 276646.080000
     88     90     1   0.10969 276646.080000
     91     92     1   0.10969 276646.080000
     91     93     1   0.10969 276646.080000
     94     95     1   0.10969 276646.080000
     94     96     1   0.10969 276646.080000
     97     98     1   0.10969 276646.080000
     97     99     1   0.10969 276646.080000
    100    101     1   0.10969 276646.080000
    100    102     1   0.10969 276646.080000
    103    104     1   0.10969 276646.080000
    103    105     1   0.10969 276646.080000
    106    107     1   0.10969 276646.080000
    106    108     1   0.10969 276646.080000
    109    110     1   0.10969 276646.080000
    109    111     1   0.10969 276646.080000
    112    113     1   0.10969 276646.080000
    112    114     1   0.10969 276646.080000
    117    118     1   0.10969 276646.080000
    117    119     1   0.10969 276646.080000
    120    121     1   0.10969 276646.080000
    120    122     1   0.10969 276646.080000
    123    124     1   0.10969 276646.080000
    123    125     1   0.10969 276646.080000
    126    127     1   0.10969 276646.080000
    126    128     1   0.10969 276646.080000
    129    130     1   0.10969 276646.080000
    129    131     1   0.10969 276646.080000
    132    133     1   0.10969 276646.080000
    132    134     1   0.10969 276646.080000
    135    136     1   0.10969 276646.080000
    135    137     1   0.10969 276646.080000
    138    139     1   0.10969 276646.080000
    138    140     1   0.10969 276646.080000
    141    142     1   0.10969 276646.080000
    141    143     1   0.10969 276646.080000
    146    147     1   0.10969 276646.080000
    146    148     1   0.10969 276646.080000
    149    150     1   0.10969 276646.080000
    149    151     1   0.10969 276646.080000
    152    153     1   0.10969 276646.080000
    152    154     1   0.10969 276646.080000
    155    156     1   0.10969 276646.080000
    155    157     1   0.10969 276646.080000
    158    159     1   0.10969 276646.080000
    158    160     1   0.10969 276646.080000
    161    162     1   0.10969 276646.080000
    161    163     1   0.10969 276646.080000
    164    165     1   0.10969 276646.080000
    164    166     1   0.10969 276646.080000
    167    168     1   0.10969 276646.080000
    167    169     1   0.10969 276646.080000
    170    171     1   0.10969 276646.080000
    170    172     1   0.10969 276646.080000
    174    175     1   0.10910 283424.160000
    174    176     1   0.10910 283424.160000
    177    178     1   0.10969 276646.080000
    177    179     1   0.10969 276646.080000
    180    181     1   0.10969 276646.080000
    180    182     1   0.10969 276646.080000
    183    184     1   0.10304 312293.760000
    183    185     1   0.10304 312293.760000
    183    187     1   0.10304 312293.760000
    188    189     1   0.10910 283424.160000
    188    190     1   0.10910 283424.160000
    191    192     1   0.10969 276646.080000
    191    193     1   0.10969 276646.080000
    194    195     1   0.10969 276646.080000
    194    196     1   0.10969 276646.080000
    197    198     1   0.10304 312293.760000
    197    199     1   0.10304 312293.760000
    197    201     1   0.10304 312293.760000
    202    203     1   0.10910 283424.160000
    202    204     1   0.10910 283424.160000
    205    206     1   0.10969 276646.080000
    205    207     1   0.10969 276646.080000
    208    209     1   0.10969 276646.080000
    208    210     1   0.10969 276646.080000
    211    212     1   0.10304 312293.760000
    211    213     1   0.10304 312293.760000
    211    215     1   0.10304 312293.760000
    216    217     1   0.10910 283424.160000
    216    218     1   0.10910 283424.160000
    219    220     1   0.10969 276646.080000
    219    221     1   0.10969 276646.080000
    222    223     1   0.10969 276646.080000
    222    224     1   0.10969 276646.080000
    225    226     1   0.10304 312293.760000
    225    227     1   0.10304 312293.760000
    225    229     1   0.10304 312293.760000
    230    231     1   0.10910 283424.160000
    230    232     1   0.10910 283424.160000
    233    234     1   0.10969 276646.080000
    233    235     1   0.10969 276646.080000
    236    237     1   0.10969 276646.080000
    236    238     1   0.10969 276646.080000
    239    240     1   0.10304 312293.760000
    239    241     1   0.10304 312293.760000
    239    243     1   0.10304 312293.760000
    244    245     1   0.10910 283424.160000
    244    246     1   0.10910 283424.160000
    247    248     1   0.10969 276646.080000
    247    249     1   0.10969 276646.080000
    250    251     1   0.10969 276646.080000
    250    252     1   0.10969 276646.080000
    253    254     1   0.10304 312293.760000
    253    255     1   0.10304 312293.760000
    253    257     1   0.10304 312293.760000
    258    259     1   0.10910 283424.160000
    258    260     1   0.10910 283424.160000
    261    262     1   0.10969 276646.080000
    261    263     1   0.10969 276646.080000
    264    265     1   0.10969 276646.080000
    264    266     1   0.10969 276646.080000
    267    268     1   0.10304 312293.760000
    267    269     1   0.10304 312293.760000
    267    271     1   0.10304 312293.760000
    272    273     1   0.10910 283424.160000
    272    274     1   0.10910 283424.160000
    275    276     1   0.10969 276646.080000
    275    277     1   0.10969 276646.080000
    278    279     1   0.10969 276646.080000
    278    280     1   0.10969 276646.080000
    281    282     1   0.10304 312293.760000
    281    283     1   0.10304 312293.760000
    281    285     1   0.10304 312293.760000

[ pairs ]
;    ai     aj funct         c0         c1         c2         c3
      1     14     1
      1     17     1
      2     11     1
      2     20     1
      5      8     1
      5     21     1
      8     28     1
      8     31     1
     11     22     1
     11     25     1
     14     40     1
     14     43     1
     17     34     1
     17     37     1
     20     49     1
     20     46     1
     21     55     1
     21     52     1
     22     37     1
     22    173     1
     25     34     1
     25    144     1
     28     43     1
     28    115     1
     31     40     1
     31     86     1
     34    164     1
     37    135     1
     40    106     1
     43     77     1
     46     68     1
     49     97     1
     52    126     1
     55    155     1
     58     83     1
     58     80     1
     58     77     1
     59     74     1
     59     68     1
     59    200     1
     62     71     1
     62     68     1
     62    186     1
     65     71     1
     65     74     1
     65     86     1
     71    194     1
     74    180     1
     80    177     1
     83    191     1
     87    112     1
     87    109     1
     87    106     1
     88    103     1
     88     97     1
     88    228     1
     91    100     1
     91     97     1
     91    214     1
     94    100     1
     94    103     1
     94    115     1
    100    222     1
    103    208     1
    109    205     1
    112    219     1
    116    141     1
    116    138     1
    116    135     1
    117    132     1
    117    126     1
    117    256     1
    120    129     1
    120    126     1
    120    242     1
    123    129     1
    123    132     1
    123    144     1
    129    250     1
    132    236     1
    138    233     1
    141    247     1
    145    170     1
    145    167     1
    145    164     1
    146    161     1
    146    155     1
    146    284     1
    149    158     1
    149    155     1
    149    270     1
    152    158     1
    152    161     1
    152    173     1
    158    278     1
    161    264     1
    167    261     1
    170    275     1
    174    186     1
    180    183     1
    188    200     1
    194    197     1
    202    214     1
    208    211     1
    216    228     1
    222    225     1
    230    242     1
    236    239     1
    244    256     1
    250    253     1
    258    270     1
    264    267     1
    272    284     1
    278    281     1
      1      9     1
      1     10     1
      1     12     1
      1     13     1
      2      6     1
      2      7     1
      2     15     1
      2     16     1
      5      3     1
      3     14     1
      3      9     1
      3     10     1
      5      4     1
      4     14     1
      4      9     1
      4     10     1
      5     18     1
      5     19     1
      6     17     1
      6     12     1
      6     13     1
      7     17     1
      7     12     1
      7     13     1
      9     20     1
      9     15     1
      9     16     1
     10     20     1
     10     15     1
     10     16     1
     12     21     1
     12     18     1
     12     19     1
     13     21     1
     13     18     1
     13     19     1
     14     29     1
     14     30     1
     14     32     1
     14     33     1
     15     28     1
     15     31     1
     16     28     1
     16     31     1
     17     23     1
     17     24     1
     17     26     1
     17     27     1
     18     22     1
     18     25     1
     19     22     1
     19     25     1
     20     41     1
     20     42     1
     20     44     1
     20     45     1
     21     35     1
     21     36     1
     21     38     1
     21     39     1
     22     26     1
     22     27     1
     22     56     1
     22     57     1
     23     25     1
     23     55     1
     23     35     1
     23     36     1
     24     25     1
     24     55     1
     24     35     1
     24     36     1
     25     53     1
     25     54     1
     26     52     1
     26     38     1
     26     39     1
     27     52     1
     27     38     1
     27     39     1
     28     32     1
     28     33     1
     28     50     1
     28     51     1
     29     31     1
     29     49     1
     29     41     1
     29     42     1
     30     31     1
     30     49     1
     30     41     1
     30     42     1
     31     47     1
     31     48     1
     32     46     1
     32     44     1
     32     45     1
     33     46     1
     33     44     1
     33     45     1
     35    173     1
     35     56     1
     35     57     1
     36    173     1
     36     56     1
     36     57     1
     38    144     1
     38     53     1
     38     54     1
     39    144     1
     39     53     1
     39     54     1
     41    115     1
     41     50     1
     41     51     1
     42    115     1
     42     50     1
     42     51     1
     44     86     1
     44     47     1
     44     48     1
     45     86     1
     45     47     1
     45     48     1
     46     78     1
     46     79     1
     47     77     1
     48     77     1
     49    107     1
     49    108     1
     50    106     1
     51    106     1
     52    136     1
     52    137     1
     53    135     1
     54    135     1
     55    165     1
     55    166     1
     56    164     1
     57    164     1
     58     72     1
     58     73     1
     58     75     1
     58     76     1
     58     69     1
     58     70     1
     59     63     1
     59     64     1
     59     66     1
     59     67     1
     59     84     1
     59     85     1
     60     62     1
     60     65     1
     60     83     1
     60     72     1
     60     73     1
     61     62     1
     61     65     1
     61     83     1
     61     72     1
     61     73     1
     62     66     1
     62     67     1
     62     81     1
     62     82     1
     63     65     1
     63     80     1
     63     75     1
     63     76     1
     64     65     1
     64     80     1
     64     75     1
     64     76     1
     65     78     1
     65     79     1
     66     77     1
     66     69     1
     66     70     1
     67     77     1
     67     69     1
     67     70     1
     69     86     1
     69     78     1
     69     79     1
     70     86     1
     70     78     1
     70     79     1
     72    200     1
     72     84     1
     72     85     1
     73    200     1
     73     84     1
     73     85     1
     75    186     1
     75     81     1
     75     82     1
     76    186     1
     76     81     1
     76     82     1
     80    181     1
     80    182     1
     81    180     1
     82    180     1
     83    195     1
     83    196     1
     84    194     1
     85    194     1
     87    101     1
     87    102     1
     87    104     1
     87    105     1
     87     98     1
     87     99     1
     88     92     1
     88     93     1
     88     95     1
     88     96     1
     88    113     1
     88    114     1
     89     91     1
     89     94     1
     89    112     1
     89    101     1
     89    102     1
     90     91     1
     90     94     1
     90    112     1
     90    101     1
     90    102     1
     91     95     1
     91     96     1
     91    110     1
     91    111     1
     92     94     1
     92    109     1
     92    104     1
     92    105     1
     93     94     1
     93    109     1
     93    104     1
     93    105     1
     94    107     1
     94    108     1
     95    106     1
     95     98     1
     95     99     1
     96    106     1
     96     98     1
     96     99     1
     98    115     1
     98    107     1
     98    108     1
     99    115     1
     99    107     1
     99    108     1
    101    228     1
    101    113     1
    101    114     1
    102    228     1
    102    113     1
    102    114     1
    104    214     1
    104    110     1
    104    111     1
    105    214     1
    105    110     1
    105    111     1
    109    209     1
    109    210     1
    110    208     1
    111    208     1
    112    223     1
    112    224     1
    113    222     1
    114    222     1
    116    130     1
    116    131     1
    116    133     1
    116    134     1
    116    127     1
    116    128     1
    117    121     1
    117    122     1
    117    124     1
    117    125     1
    117    142     1
    117    143     1
    118    120     1
    118    123     1
    118    141     1
    118    130     1
    118    131     1
    119    120     1
    119    123     1
    119    141     1
    119    130     1
    119    131     1
    120    124     1
    120    125     1
    120    139     1
    120    140     1
    121    123     1
    121    138     1
    121    133     1
    121    134     1
    122    123     1
    122    138     1
    122    133     1
    122    134     1
    123    136     1
    123    137     1
    124    135     1
    124    127     1
    124    128     1
    125    135     1
    125    127     1
    125    128     1
    127    144     1
    127    136     1
    127    137     1
    128    144     1
    128    136     1
    128    137     1
    130    256     1
    130    142     1
    130    143     1
    131    256     1
    131    142     1
    131    143     1
    133    242     1
    133    139     1
    133    140     1
    134    242     1
    134    139     1
    134    140     1
    138    237     1
    138    238     1
    139    236     1
    140    236     1
    141    251     1
    141    252     1
    142    250     1
    143    250     1
    145    159     1
    145    160     1
    145    162     1
    145    163     1
    145    156     1
    145    157     1
    146    150     1
    146    151     1
    146    153     1
    146    154     1
    146    171     1
    146    172     1
    147    149     1
    147    152     1
    147    170     1
    147    159     1
    147    160     1
    148    149     1
    148    152     1
    148    170     1
    148    159     1
    148    160     1
    149    153     1
    149    154     1
    149    168     1
    149    169     1
    150    152     1
    150    167     1
    150    162     1
    150    163     1
    151    152     1
    151    167     1
    151    162     1
    151    163     1
    152    165     1
    152    166     1
    153    164     1
    153    156     1
    153    157     1
    154    164     1
    154    156     1
    154    157     1
    156    173     1
    156    165     1
    156    166     1
    157    173     1
    157    165     1
    157    166     1
    159    284     1
    159    171     1
    159    172     1
    160    284     1
    160    171     1
    160    172     1
    162    270     1
    162    168     1
    162    169     1
    163    270     1
    163    168     1
    163    169     1
    167    265     1
    167    266     1
    168    264     1
    169    264     1
    170    279     1
    170    280     1
    171    278     1
    172    278     1
    174    181     1
    174    182     1
    175    180     1
    175    178     1
    175    179     1
    175    184     1
    175    185     1
    175    187     1
    176    180     1
    176    178     1
    176    179     1
    176    184     1
    176    185     1
    176    187     1
    177    184     1
    177    185     1
    177    187     1
    178    183     1
    178    186     1
    178    181     1
    178    182     1
    179    183     1
    179    186     1
    179    181     1
    179    182     1
    188    195     1
    188    196     1
    189    194     1
    189    192     1
    189    193     1
    189    198     1
    189    199     1
    189    201     1
    190    194     1
    190    192     1
    190    193     1
    190    198     1
    190    199     1
    190    201     1
    191    198     1
    191    199     1
    191    201     1
    192    200     1
    192    195     1
    192    196     1
    192    197     1
    193    200     1
    193    195     1
    193    196     1
    193    197     1
    202    209     1
    202    210     1
    203    208     1
    203    206     1
    203    207     1
    203    212     1
    203    213     1
    203    215     1
    204    208     1
    204    206     1
    204    207     1
    204    212     1
    204    213     1
    204    215     1
    205    212     1
    205    213     1
    205    215     1
    206    211     1
    206    214     1
    206    209     1
    206    210     1
    207    211     1
    207    214     1
    207    209     1
    207    210     1
    216    223     1
    216    224     1
    217    222     1
    217    220     1
    217    221     1
    217    226     1
    217    227     1
    217    229     1
    218    222     1
    218    220     1
    218    221     1
    218    226     1
    218    227     1
    218    229     1
    219    226     1
    219    227     1
    219    229     1
    220    228     1
    220    223     1
    220    224     1
    220    225     1
    221    228     1
    221    223     1
    221    224     1
    221    225     1
    230    237     1
    230    238     1
    231    236     1
    231    234     1
    231    235     1
    231    240     1
    231    241     1
    231    243     1
    232    236     1
    232    234     1
    232    235     1
    232    240     1
    232    241     1
    232    243     1
    233    240     1
    233    241     1
    233    243     1
    234    239     1
    234    242     1
    234    237     1
    234    238     1
    235    239     1
    235    242     1
    235    237     1
    235    238     1
    244    251     1
    244    252     1
    245    250     1
    245    248     1
    245    249     1
    245    254     1
    245    255     1
    245    257     1
    246    250     1
    246    248     1
    246    249     1
    246    254     1
    246    255     1
    246    257     1
    247    254     1
    247    255     1
    247    257     1
    248    256     1
    248    251     1
    248    252     1
    248    253     1
    249    256     1
    249    251     1
    249    252     1
    249    253     1
    258    265     1
    258    266     1
    259    264     1
    259    262     1
    259    263     1
    259    268     1
    259    269     1
    259    271     1
    260    264     1
    260    262     1
    260    263     1
    260    268     1
    260    269     1
    260    271     1
    261    268     1
    261    269     1
    261    271     1
    262    267     1
    262    270     1
    262    265     1
    262    266     1
    263    267     1
    263    270     1
    263    265     1
    263    266     1
    272    279     1
    272    280     1
    273    278     1
    273    276     1
    273    277     1
    273    282     1
    273    283     1
    273    285     1
    274    278     1
    274    276     1
    274    277     1
    274    282     1
    274    283     1
    274    285     1
    275    282     1
    275    283     1
    275    285     1
    276    284     1
    276    279     1
    276    280     1
    276    281     1
    277    284     1
    277    279     1
    277    280     1
    277    281     1

[ angles ]
;    ai     aj     ak funct         c0         c1         c2         c3
      1      2      8     1   107.9700462 569.024000
      1      5     11     1   107.9700462 569.024000
      2      1      5     1   112.4800480 524.673600
      2      8     14     1   111.5100476 526.347200
      5     11     17     1   111.5100476 526.347200
      8     14     20     1   111.0400475 552.288000
     11     17     21     1   111.0400475 552.288000
     14     20     28     1   112.3500484 533.878400
     14     20     31     1   112.3500484 533.878400
     17     21     22     1   112.3500484 533.878400
     17     21     25     1   112.3500484 533.878400
     20     28     40     1   111.0400475 552.288000
     20     31     43     1   111.0400475 552.288000
     21     22     34     1   111.0400475 552.288000
     21     25     37     1   111.0400475 552.288000
     22     21     25     1   112.3500484 533.878400
     22     34     55     1   111.5100476 526.347200
     25     37     52     1   111.5100476 526.347200
     28     20     31     1   112.3500484 533.878400
     28     40     49     1   111.5100476 526.347200
     31     43     46     1   111.5100476 526.347200
     34     55    173     1   107.9700462 569.024000
     37     52    144     1   107.9700462 569.024000
     40     49    115     1   107.9700462 569.024000
     43     46     86     1   107.9700462 569.024000
     46     86     77     1   112.4800480 524.673600
     49    115    106     1   112.4800480 524.673600
     52    144    135     1   112.4800480 524.673600
     55    173    164     1   112.4800480 524.673600
     58     59     71     1   111.0400475 552.288000
     58     62     74     1   111.0400475 552.288000
     58     65     68     1   111.0400475 552.288000
     59     58     62     1   112.3500484 533.878400
     59     58     65     1   112.3500484 533.878400
     59     71     83     1   111.5100476 526.347200
     62     58     65     1   112.3500484 533.878400
     62     74     80     1   111.5100476 526.347200
     65     68     77     1   111.5100476 526.347200
     68     77     86     1   107.9700462 569.024000
     71     83    200     1   107.9700462 569.024000
     74     80    186     1   107.9700462 569.024000
     80    186    180     1   112.4800480 524.673600
     83    200    194     1   112.4800480 524.673600
     87     88    100     1   111.0400475 552.288000
     87     91    103     1   111.0400475 552.288000
     87     94     97     1   111.0400475 552.288000
     88     87     91     1   112.3500484 533.878400
     88     87     94     1   112.3500484 533.878400
     88    100    112     1   111.5100476 526.347200
     91     87     94     1   112.3500484 533.878400
     91    103    109     1   111.5100476 526.347200
     94     97    106     1   111.5100476 526.347200
     97    106    115     1   107.9700462 569.024000
    100    112    228     1   107.9700462 569.024000
    103    109    214     1   107.9700462 569.024000
    109    214    208     1   112.4800480 524.673600
    112    228    222     1   112.4800480 524.673600
    116    117    129     1   111.0400475 552.288000
    116    120    132     1   111.0400475 552.288000
    116    123    126     1   111.0400475 552.288000
    117    116    120     1   112.3500484 533.878400
    117    116    123     1   112.3500484 533.878400
    117    129    141     1   111.5100476 526.347200
    120    116    123     1   112.3500484 533.878400
    120    132    138     1   111.5100476 526.347200
    123    126    135     1   111.5100476 526.347200
    126    135    144     1   107.9700462 569.024000
    129    141    256     1   107.9700462 569.024000
    132    138    242     1   107.9700462 569.024000
    138    242    236     1   112.4800480 524.673600
    141    256    250     1   112.4800480 524.673600
    145    146    158     1   111.0400475 552.288000
    145    149    161     1   111.0400475 552.288000
    145    152    155     1   111.0400475 552.288000
    146    145    149     1   112.3500484 533.878400
    146    145    152     1   112.3500484 533.878400
    146    158    170     1   111.5100476 526.347200
    149    145    152     1   112.3500484 533.878400
    149    161    167     1   111.5100476 526.347200
    152    155    164     1   111.5100476 526.347200
    155    164    173     1   107.9700462 569.024000
    158    170    284     1   107.9700462 569.024000
    161    167    270     1   107.9700462 569.024000
    167    270    264     1   112.4800480 524.673600
    170    284    278     1   112.4800480 524.673600
    174    177    180     1   111.5100476 526.347200
    177    174    183     1   114.2100488 537.225600
    177    180    186     1   107.9700462 569.024000
    188    191    194     1   111.5100476 526.347200
    191    194    200     1   107.9700462 569.024000
    191    188    197     1   114.2100488 537.225600
    202    205    208     1   111.5100476 526.347200
    205    202    211     1   114.2100488 537.225600
    205    208    214     1   107.9700462 569.024000
    216    219    222     1   111.5100476 526.347200
    219    222    228     1   107.9700462 569.024000
    219    216    225     1   114.2100488 537.225600
    230    233    236     1   111.5100476 526.347200
    233    230    239     1   114.2100488 537.225600
    233    236    242     1   107.9700462 569.024000
    244    247    250     1   111.5100476 526.347200
    247    250    256     1   107.9700462 569.024000
    247    244    253     1   114.2100488 537.225600
    258    261    264     1   111.5100476 526.347200
    261    258    267     1   114.2100488 537.225600
    261    264    270     1   107.9700462 569.024000
    272    275    278     1   111.5100476 526.347200
    275    278    284     1   107.9700462 569.024000
    275    272    281     1   114.2100488 537.225600
      1      2      3     1   109.7800468 425.094400
      1      2      4     1   109.7800468 425.094400
      1      5      6     1   109.7800468 425.094400
      1      5      7     1   109.7800468 425.094400
      2      8      9     1   109.8000471 387.438400
      2      8     10     1   109.8000471 387.438400
      3      2      8     1   109.5600471 388.275200
      3      2      4     1   108.4600466 328.025600
      4      2      8     1   109.5600471 388.275200
      5     11     12     1   109.8000471 387.438400
      5     11     13     1   109.8000471 387.438400
      6      5     11     1   109.5600471 388.275200
      6      5      7     1   108.4600466 328.025600
      7      5     11     1   109.5600471 388.275200
      8     14     15     1   109.5600471 388.275200
      8     14     16     1   109.5600471 388.275200
      9      8     14     1   109.8000471 387.438400
      9      8     10     1   107.5800459 329.699200
     10      8     14     1   109.8000471 387.438400
     11     17     18     1   109.5600471 388.275200
     11     17     19     1   109.5600471 388.275200
     12     11     17     1   109.8000471 387.438400
     12     11     13     1   107.5800459 329.699200
     13     11     17     1   109.8000471 387.438400
     15     14     20     1   109.8800469 414.216000
     15     14     16     1   108.4600466 328.025600
     16     14     20     1   109.8800469 414.216000
     18     17     21     1   109.8800469 414.216000
     18     17     19     1   108.4600466 328.025600
     19     17     21     1   109.8800469 414.216000
     20     28     29     1   109.8800469 414.216000
     20     28     30     1   109.8800469 414.216000
     20     31     32     1   109.8800469 414.216000
     20     31     33     1   109.8800469 414.216000
     21     22     23     1   109.8800469 414.216000
     21     22     24     1   109.8800469 414.216000
     21     25     26     1   109.8800469 414.216000
     21     25     27     1   109.8800469 414.216000
     22     34     35     1   109.8000471 387.438400
     22     34     36     1   109.8000471 387.438400
     23     22     34     1   109.5600471 388.275200
     23     22     24     1   108.4600466 328.025600
     24     22     34     1   109.5600471 388.275200
     25     37     38     1   109.8000471 387.438400
     25     37     39     1   109.8000471 387.438400
     26     25     37     1   109.5600471 388.275200
     26     25     27     1   108.4600466 328.025600
     27     25     37     1   109.5600471 388.275200
     28     40     41     1   109.8000471 387.438400
     28     40     42     1   109.8000471 387.438400
     29     28     40     1   109.5600471 388.275200
     29     28     30     1   108.4600466 328.025600
     30     28     40     1   109.5600471 388.275200
     31     43     44     1   109.8000471 387.438400
     31     43     45     1   109.8000471 387.438400
     32     31     43     1   109.5600471 388.275200
     32     31     33     1   108.4600466 328.025600
     33     31     43     1   109.5600471 388.275200
     34     55     56     1   109.5600471 388.275200
     34     55     57     1   109.5600471 388.275200
     35     34     55     1   109.8000471 387.438400
     35     34     36     1   107.5800459 329.699200
     36     34     55     1   109.8000471 387.438400
     37     52     53     1   109.5600471 388.275200
     37     52     54     1   109.5600471 388.275200
     38     37     52     1   109.8000471 387.438400
     38     37     39     1   107.5800459 329.699200
     39     37     52     1   109.8000471 387.438400
     40     49     50     1   109.5600471 388.275200
     40     49     51     1   109.5600471 388.275200
     41     40     49     1   109.8000471 387.438400
     41     40     42     1   107.5800459 329.699200
     42     40     49     1   109.8000471 387.438400
     43     46     47     1   109.5600471 388.275200
     43     46     48     1   109.5600471 388.275200
     44     43     46     1   109.8000471 387.438400
     44     43     45     1   107.5800459 329.699200
     45     43     46     1   109.8000471 387.438400
     47     46     86     1   109.7800468 425.094400
     47     46     48     1   108.4600466 328.025600
     48     46     86     1   109.7800468 425.094400
     50     49    115     1   109.7800468 425.094400
     50     49     51     1   108.4600466 328.025600
     51     49    115     1   109.7800468 425.094400
     53     52    144     1   109.7800468 425.094400
     53     52     54     1   108.4600466 328.025600
     54     52    144     1   109.7800468 425.094400
     56     55    173     1   109.7800468 425.094400
     56     55     57     1   108.4600466 328.025600
     57     55    173     1   109.7800468 425.094400
     58     59     60     1   109.8800469 414.216000
     58     59     61     1   109.8800469 414.216000
     58     62     63     1   109.8800469 414.216000
     58     62     64     1   109.8800469 414.216000
     58     65     66     1   109.8800469 414.216000
     58     65     67     1   109.8800469 414.216000
     59     71     72     1   109.8000471 387.438400
     59     71     73     1   109.8000471 387.438400
     60     59     71     1   109.5600471 388.275200
     60     59     61     1   108.4600466 328.025600
     61     59     71     1   109.5600471 388.275200
     62     74     75     1   109.8000471 387.438400
     62     74     76     1   109.8000471 387.438400
     63     62     74     1   109.5600471 388.275200
     63     62     64     1   108.4600466 328.025600
     64     62     74     1   109.5600471 388.275200
     65     68     69     1   109.8000471 387.438400
     65     68     70     1   109.8000471 387.438400
     66     65     68     1   109.5600471 388.275200
     66     65     67     1   108.4600466 328.025600
     67     65     68     1   109.5600471 388.275200
     68     77     78     1   109.5600471 388.275200
     68     77     79     1   109.5600471 388.275200
     69     68     77     1   109.8000471 387.438400
     69     68     70     1   107.5800459 329.699200
     70     68     77     1   109.8000471 387.438400
     71     83     84     1   109.5600471 388.275200
     71     83     85     1   109.5600471 388.275200
     72     71     83     1   109.8000471 387.438400
     72     71     73     1   107.5800459 329.699200
     73     71     83     1   109.8000471 387.438400
     74     80     81     1   109.5600471 388.275200
     74     80     82     1   109.5600471 388.275200
     75     74     80     1   109.8000471 387.438400
     75     74     76     1   107.5800459 329.699200
     76     74     80     1   109.8000471 387.438400
     78     77     86     1   109.7800468 425.094400
     78     77     79     1   108.4600466 328.025600
     79     77     86     1   109.7800468 425.094400
     81     80    186     1   109.7800468 425.094400
     81     80     82     1   108.4600466 328.025600
     82     80    186     1   109.7800468 425.094400
     84     83    200     1   109.7800468 425.094400
     84     83     85     1   108.4600466 328.025600
     85     83    200     1   109.7800468 425.094400
     87     88     89     1   109.8800469 414.216000
     87     88     90     1   109.8800469 414.216000
     87     91     92     1   109.8800469 414.216000
     87     91     93     1   109.8800469 414.216000
     87     94     95     1   109.8800469 414.216000
     87     94     96     1   109.8800469 414.216000
     88    100    101     1   109.8000471 387.438400
     88    100    102     1   109.8000471 387.438400
     89     88    100     1   109.5600471 388.275200
     89     88     90     1   108.4600466 328.025600
     90     88    100     1   109.5600471 388.275200
     91    103    104     1   109.8000471 387.438400
     91    103    105     1   109.8000471 387.438400
     92     91    103     1   109.5600471 388.275200
     92     91     93     1   108.4600466 328.025600
     93     91    103     1   109.5600471 388.275200
     94     97     98     1   109.8000471 387.438400
     94     97     99     1   109.8000471 387.438400
     95     94     97     1   109.5600471 388.275200
     95     94     96     1   108.4600466 328.025600
     96     94     97     1   109.5600471 388.275200
     97    106    107     1   109.5600471 388.275200
     97    106    108     1   109.5600471 388.275200
     98     97    106     1   109.8000471 387.438400
     98     97     99     1   107.5800459 329.699200
     99     97    106     1   109.8000471 387.438400
    100    112    113     1   109.5600471 388.275200
    100    112    114     1   109.5600471 388.275200
    101    100    112     1   109.8000471 387.438400
    101    100    102     1   107.5800459 329.699200
    102    100    112     1   109.8000471 387.438400
    103    109    110     1   109.5600471 388.275200
    103    109    111     1   109.5600471 388.275200
    104    103    109     1   109.8000471 387.438400
    104    103    105     1   107.5800459 329.699200
    105    103    109     1   109.8000471 387.438400
    107    106    115     1   109.7800468 425.094400
    107    106    108     1   108.4600466 328.025600
    108    106    115     1   109.7800468 425.094400
    110    109    214     1   109.7800468 425.094400
    110    109    111     1   108.4600466 328.025600
    111    109    214     1   109.7800468 425.094400
    113    112    228     1   109.7800468 425.094400
    113    112    114     1   108.4600466 328.025600
    114    112    228     1   109.7800468 425.094400
    116    117    118     1   109.8800469 414.216000
    116    117    119     1   109.8800469 414.216000
    116    120    121     1   109.8800469 414.216000
    116    120    122     1   109.8800469 414.216000
    116    123    124     1   109.8800469 414.216000
    116    123    125     1   109.8800469 414.216000
    117    129    130     1   109.8000471 387.438400
    117    129    131     1   109.8000471 387.438400
    118    117    129     1   109.5600471 388.275200
    118    117    119     1   108.4600466 328.025600
    119    117    129     1   109.5600471 388.275200
    120    132    133     1   109.8000471 387.438400
    120    132    134     1   109.8000471 387.438400
    121    120    132     1   109.5600471 388.275200
    121    120    122     1   108.4600466 328.025600
    122    120    132     1   109.5600471 388.275200
    123    126    127     1   109.8000471 387.438400
    123    126    128     1   109.8000471 387.438400
    124    123    126     1   109.5600471 388.275200
    124    123    125     1   108.4600466 328.025600
    125    123    126     1   109.5600471 388.275200
    126    135    136     1   109.5600471 388.275200
    126    135    137     1   109.5600471 388.275200
    127    126    135     1   109.8000471 387.438400
    127    126    128     1   107.5800459 329.699200
    128    126    135     1   109.8000471 387.438400
    129    141    142     1   109.5600471 388.275200
    129    141    143     1   109.5600471 388.275200
    130    129    141     1   109.8000471 387.438400
    130    129    131     1   107.5800459 329.699200
    131    129    141     1   109.8000471 387.438400
    132    138    139     1   109.5600471 388.275200
    132    138    140     1   109.5600471 388.275200
    133    132    138     1   109.8000471 387.438400
    133    132    134     1   107.5800459 329.699200
    134    132    138     1   109.8000471 387.438400
    136    135    144     1   109.7800468 425.094400
    136    135    137     1   108.4600466 328.025600
    137    135    144     1   109.7800468 425.094400
    139    138    242     1   109.7800468 425.094400
    139    138    140     1   108.4600466 328.025600
    140    138    242     1   109.7800468 425.094400
    142    141    256     1   109.7800468 425.094400
    142    141    143     1   108.4600466 328.025600
    143    141    256     1   109.7800468 425.094400
    145    146    147     1   109.8800469 414.216000
    145    146    148     1   109.8800469 414.216000
    145    149    150     1   109.8800469 414.216000
    145    149    151     1   109.8800469 414.216000
    145    152    153     1   109.8800469 414.216000
    145    152    154     1   109.8800469 414.216000
    146    158    159     1   109.8000471 387.438400
    146    158    160     1   109.8000471 387.438400
    147    146    158     1   109.5600471 388.275200
    147    146    148     1   108.4600466 328.025600
    148    146    158     1   109.5600471 388.275200
    149    161    162     1   109.8000471 387.438400
    149    161    163     1   109.8000471 387.438400
    150    149    161     1   109.5600471 388.275200
    150    149    151     1   108.4600466 328.025600
    151    149    161     1   109.5600471 388.275200
    152    155    156     1   109.8000471 387.438400
    152    155    157     1   109.8000471 387.438400
    153    152    155     1   109.5600471 388.275200
    153    152    154     1   108.4600466 328.025600
    154    152    155     1   109.5600471 388.275200
    155    164    165     1   109.5600471 388.275200
    155    164    166     1   109.5600471 388.275200
    156    155    164     1   109.8000471 387.438400
    156    155    157     1   107.5800459 329.699200
    157    155    164     1   109.8000471 387.438400
    158    170    171     1   109.5600471 388.275200
    158    170    172     1   109.5600471 388.275200
    159    158    170     1   109.8000471 387.438400
    159    158    160     1   107.5800459 329.699200
    160    158    170     1   109.8000471 387.438400
    161    167    168     1   109.5600471 388.275200
    161    167    169     1   109.5600471 388.275200
    162    161    167     1   109.8000471 387.438400
    162    161    163     1   107.5800459 329.699200
    163    161    167     1   109.8000471 387.438400
    165    164    173     1   109.7800468 425.094400
    165    164    166     1   108.4600466 328.025600
    166    164    173     1   109.7800468 425.094400
    168    167    270     1   109.7800468 425.094400
    168    167    169     1   108.4600466 328.025600
    169    167    270     1   109.7800468 425.094400
    171    170    284     1   109.7800468 425.094400
    171    170    172     1   108.4600466 328.025600
    172    170    284     1   109.7800468 425.094400
    174    177    178     1   109.8000471 387.438400
    174    177    179     1   109.8000471 387.438400
    174    183    184     1   110.1100470 384.091200
    174    183    185     1   110.1100470 384.091200
    174    183    187     1   110.1100470 384.091200
    175    174    177     1   110.5600475 386.601600
    175    174    183     1   108.0100461 406.684800
    175    174    176     1   109.7500473 328.025600
    176    174    177     1   110.5600475 386.601600
    176    174    183     1   108.0100461 406.684800
    177    180    181     1   109.5600471 388.275200
    177    180    182     1   109.5600471 388.275200
    178    177    180     1   109.8000471 387.438400
    178    177    179     1   107.5800459 329.699200
    179    177    180     1   109.8000471 387.438400
    181    180    186     1   109.7800468 425.094400
    181    180    182     1   108.4600466 328.025600
    182    180    186     1   109.7800468 425.094400
    184    183    185     1   108.3000464 339.740800
    184    183    187     1   108.3000464 339.740800
    185    183    187     1   108.3000464 339.740800
    188    191    192     1   109.8000471 387.438400
    188    191    193     1   109.8000471 387.438400
    188    197    198     1   110.1100470 384.091200
    188    197    199     1   110.1100470 384.091200
    188    197    201     1   110.1100470 384.091200
    189    188    191     1   110.5600475 386.601600
    189    188    197     1   108.0100461 406.684800
    189    188    190     1   109.7500473 328.025600
    190    188    191     1   110.5600475 386.601600
    190    188    197     1   108.0100461 406.684800
    191    194    195     1   109.5600471 388.275200
    191    194    196     1   109.5600471 388.275200
    192    191    194     1   109.8000471 387.438400
    192    191    193     1   107.5800459 329.699200
    193    191    194     1   109.8000471 387.438400
    195    194    200     1   109.7800468 425.094400
    195    194    196     1   108.4600466 328.025600
    196    194    200     1   109.7800468 425.094400
    198    197    199     1   108.3000464 339.740800
    198    197    201     1   108.3000464 339.740800
    199    197    201     1   108.3000464 339.740800
    202    205    206     1   109.8000471 387.438400
    202    205    207     1   109.8000471 387.438400
    202    211    212     1   110.1100470 384.091200
    202    211    213     1   110.1100470 384.091200
    202    211    215     1   110.1100470 384.091200
    203    202    205     1   110.5600475 386.601600
    203    202    211     1   108.0100461 406.684800
    203    202    204     1   109.7500473 328.025600
    204    202    205     1   110.5600475 386.601600
    204    202    211     1   108.0100461 406.684800
    205    208    209     1   109.5600471 388.275200
    205    208    210     1   109.5600471 388.275200
    206    205    208     1   109.8000471 387.438400
    206    205    207     1   107.5800459 329.699200
    207    205    208     1   109.8000471 387.438400
    209    208    214     1   109.7800468 425.094400
    209    208    210     1   108.4600466 328.025600
    210    208    214     1   109.7800468 425.094400
    212    211    213     1   108.3000464 339.740800
    212    211    215     1   108.3000464 339.740800
    213    211    215     1   108.3000464 339.740800
    216    219    220     1   109.8000471 387.438400
    216    219    221     1   109.8000471 387.438400
    216    225    226     1   110.1100470 384.091200
    216    225    227     1   110.1100470 384.091200
    216    225    229     1   110.1100470 384.091200
    217    216    219     1   110.5600475 386.601600
    217    216    225     1   108.0100461 406.684800
    217    216    218     1   109.7500473 328.025600
    218    216    219     1   110.5600475 386.601600
    218    216    225     1   108.0100461 406.684800
    219    222    223     1   109.5600471 388.275200
    219    222    224     1   109.5600471 388.275200
    220    219    222     1   109.8000471 387.438400
    220    219    221     1   107.5800459 329.699200
    221    219    222     1   109.8000471 387.438400
    223    222    228     1   109.7800468 425.094400
    223    222    224     1   108.4600466 328.025600
    224    222    228     1   109.7800468 425.094400
    226    225    227     1   108.3000464 339.740800
    226    225    229     1   108.3000464 339.740800
    227    225    229     1   108.3000464 339.740800
    230    233    234     1   109.8000471 387.438400
    230    233    235     1   109.8000471 387.438400
    230    239    240     1   110.1100470 384.091200
    230    239    241     1   110.1100470 384.091200
    230    239    243     1   110.1100470 384.091200
    231    230    233     1   110.5600475 386.601600
    231    230    239     1   108.0100461 406.684800
    231    230    232     1   109.7500473 328.025600
    232    230    233     1   110.5600475 386.601600
    232    230    239     1   108.0100461 406.684800
    233    236    237     1   109.5600471 388.275200
    233    236    238     1   109.5600471 388.275200
    234    233    236     1   109.8000471 387.438400
    234    233    235     1   107.5800459 329.699200
    235    233    236     1   109.8000471 387.438400
    237    236    242     1   109.7800468 425.094400
    237    236    238     1   108.4600466 328.025600
    238    236    242     1   109.7800468 425.094400
    240    239    241     1   108.3000464 339.740800
    240    239    243     1   108.3000464 339.740800
    241    239    243     1   108.3000464 339.740800
    244    247    248     1   109.8000471 387.438400
    244    247    249     1   109.8000471 387.438400
    244    253    254     1   110.1100470 384.091200
    244    253    255     1   110.1100470 384.091200
    244    253    257     1   110.1100470 384.091200
    245    244    247     1   110.5600475 386.601600
    245    244    253     1   108.0100461 406.684800
    245    244    246     1   109.7500473 328.025600
    246    244    247     1   110.5600475 386.601600
    246    244    253     1   108.0100461 406.684800
    247    250    251     1   109.5600471 388.275200
    247    250    252     1   109.5600471 388.275200
    248    247    250     1   109.8000471 387.438400
    248    247    249     1   107.5800459 329.699200
    249    247    250     1   109.8000471 387.438400
    251    250    256     1   109.7800468 425.094400
    251    250    252     1   108.4600466 328.025600
    252    250    256     1   109.7800468 425.094400
    254    253    255     1   108.3000464 339.740800
    254    253    257     1   108.3000464 339.740800
    255    253    257     1   108.3000464 339.740800
    258    261    262     1   109.8000471 387.438400
    258    261    263     1   109.8000471 387.438400
    258    267    268     1   110.1100470 384.091200
    258    267    269     1   110.1100470 384.091200
    258    267    271     1   110.1100470 384.091200
    259    258    261     1   110.5600475 386.601600
    259    258    267     1   108.0100461 406.684800
    259    258    260     1   109.7500473 328.025600
    260    258    261     1   110.5600475 386.601600
    260    258    267     1   108.0100461 406.684800
    261    264    265     1   109.5600471 388.275200
    261    264    266     1   109.5600471 388.275200
    262    261    264     1   109.8000471 387.438400
    262    261    263     1   107.5800459 329.699200
    263    261    264     1   109.8000471 387.438400
    265    264    270     1   109.7800468 425.094400
    265    264    266     1   108.4600466 328.025600
    266    264    270     1   109.7800468 425.094400
    268    267    269     1   108.3000464 339.740800
    268    267    271     1   108.3000464 339.740800
    269    267    271     1   108.3000464 339.740800
    272    275    276     1   109.8000471 387.438400
    272    275    277     1   109.8000471 387.438400
    272    281    282     1   110.1100470 384.091200
    272    281    283     1   110.1100470 384.091200
    272    281    285     1   110.1100470 384.091200
    273    272    275     1   110.5600475 386.601600
    273    272    281     1   108.0100461 406.684800
    273    272    274     1   109.7500473 328.025600
    274    272    275     1   110.5600475 386.601600
    274    272    281     1   108.0100461 406.684800
    275    278    279     1   109.5600471 388.275200
    275    278    280     1   109.5600471 388.275200
    276    275    278     1   109.8000471 387.438400
    276    275    277     1   107.5800459 329.699200
    277    275    278     1   109.8000471 387.438400
    279    278    284     1   109.7800468 425.094400
    279    278    280     1   108.4600466 328.025600
    280    278    284     1   109.7800468 425.094400
    282    281    283     1   108.3000464 339.740800
    282    281    285     1   108.3000464 339.740800
    283    281    285     1   108.3000464 339.740800

[ dihedrals ]
;    ai     aj     ak     al funct         c0         c1         c2         c3         c4         c5
      1      2      8     14     1  0.0000000  0.6508444  3
      1      5     11     17     1  0.0000000  0.6508444  3
      2      1      5     11     1  180.0000771  0.4184000  2
      2      1      5     11     1  0.0000000  1.6024720  3
      2      8     14     20     1  0.0000000  0.6508444  3
      5      1      2      8     1  180.0000771  0.4184000  2
      5      1      2      8     1  0.0000000  1.6024720  3
      5     11     17     21     1  0.0000000  0.6508444  3
      8     14     20     28     1  180.0000771  2.0083200  2
      8     14     20     28     1  0.0000000  1.2552000  3
      8     14     20     31     1  180.0000771  2.0083200  2
      8     14     20     31     1  0.0000000  1.2552000  3
     11     17     21     22     1  180.0000771  2.0083200  2
     11     17     21     22     1  0.0000000  1.2552000  3
     11     17     21     25     1  180.0000771  2.0083200  2
     11     17     21     25     1  0.0000000  1.2552000  3
     14     20     28     40     1  180.0000771  2.0083200  2
     14     20     28     40     1  0.0000000  1.2552000  3
     14     20     31     43     1  180.0000771  2.0083200  2
     14     20     31     43     1  0.0000000  1.2552000  3
     17     21     22     34     1  180.0000771  2.0083200  2
     17     21     22     34     1  0.0000000  1.2552000  3
     17     21     25     37     1  180.0000771  2.0083200  2
     17     21     25     37     1  0.0000000  1.2552000  3
     20     28     40     49     1  0.0000000  0.6508444  3
     20     31     43     46     1  0.0000000  0.6508444  3
     21     22     34     55     1  0.0000000  0.6508444  3
     21     25     37     52     1  0.0000000  0.6508444  3
     22     21     25     37     1  180.0000771  2.0083200  2
     22     21     25     37     1  0.0000000  1.2552000  3
     22     34     55    173     1  0.0000000  0.6508444  3
     25     21     22     34     1  180.0000771  2.0083200  2
     25     21     22     34     1  0.0000000  1.2552000  3
     25     37     52    144     1  0.0000000  0.6508444  3
     28     20     31     43     1  180.0000771  2.0083200  2
     28     20     31     43     1  0.0000000  1.2552000  3
     28     40     49    115     1  0.0000000  0.6508444  3
     31     20     28     40     1  180.0000771  2.0083200  2
     31     20     28     40     1  0.0000000  1.2552000  3
     31     43     46     86     1  0.0000000  0.6508444  3
     34     55    173    164     1  180.0000771  0.4184000  2
     34     55    173    164     1  0.0000000  1.6024720  3
     37     52    144    135     1  180.0000771  0.4184000  2
     37     52    144    135     1  0.0000000  1.6024720  3
     40     49    115    106     1  180.0000771  0.4184000  2
     40     49    115    106     1  0.0000000  1.6024720  3
     43     46     86     77     1  180.0000771  0.4184000  2
     43     46     86     77     1  0.0000000  1.6024720  3
     46     86     77     68     1  180.0000771  0.4184000  2
     46     86     77     68     1  0.0000000  1.6024720  3
     49    115    106     97     1  180.0000771  0.4184000  2
     49    115    106     97     1  0.0000000  1.6024720  3
     52    144    135    126     1  180.0000771  0.4184000  2
     52    144    135    126     1  0.0000000  1.6024720  3
     55    173    164    155     1  180.0000771  0.4184000  2
     55    173    164    155     1  0.0000000  1.6024720  3
     58     59     71     83     1  0.0000000  0.6508444  3
     58     62     74     80     1  0.0000000  0.6508444  3
     58     65     68     77     1  0.0000000  0.6508444  3
     59     58     62     74     1  180.0000771  2.0083200  2
     59     58     62     74     1  0.0000000  1.2552000  3
     59     58     65     68     1  180.0000771  2.0083200  2
     59     58     65     68     1  0.0000000  1.2552000  3
     59     71     83    200     1  0.0000000  0.6508444  3
     62     58     59     71     1  180.0000771  2.0083200  2
     62     58     59     71     1  0.0000000  1.2552000  3
     62     58     65     68     1  180.0000771  2.0083200  2
     62     58     65     68     1  0.0000000  1.2552000  3
     62     74     80    186     1  0.0000000  0.6508444  3
     65     58     59     71     1  180.0000771  2.0083200  2
     65     58     59     71     1  0.0000000  1.2552000  3
     65     58     62     74     1  180.0000771  2.0083200  2
     65     58     62     74     1  0.0000000  1.2552000  3
     65     68     77     86     1  0.0000000  0.6508444  3
     71     83    200    194     1  180.0000771  0.4184000  2
     71     83    200    194     1  0.0000000  1.6024720  3
     74     80    186    180     1  180.0000771  0.4184000  2
     74     80    186    180     1  0.0000000  1.6024720  3
     80    186    180    177     1  180.0000771  0.4184000  2
     80    186    180    177     1  0.0000000  1.6024720  3
     83    200    194    191     1  180.0000771  0.4184000  2
     83    200    194    191     1  0.0000000  1.6024720  3
     87     88    100    112     1  0.0000000  0.6508444  3
     87     91    103    109     1  0.0000000  0.6508444  3
     87     94     97    106     1  0.0000000  0.6508444  3
     88     87     91    103     1  180.0000771  2.0083200  2
     88     87     91    103     1  0.0000000  1.2552000  3
     88     87     94     97     1  180.0000771  2.0083200  2
     88     87     94     97     1  0.0000000  1.2552000  3
     88    100    112    228     1  0.0000000  0.6508444  3
     91     87     88    100     1  180.0000771  2.0083200  2
     91     87     88    100     1  0.0000000  1.2552000  3
     91     87     94     97     1  180.0000771  2.0083200  2
     91     87     94     97     1  0.0000000  1.2552000  3
     91    103    109    214     1  0.0000000  0.6508444  3
     94     87     88    100     1  180.0000771  2.0083200  2
     94     87     88    100     1  0.0000000  1.2552000  3
     94     87     91    103     1  180.0000771  2.0083200  2
     94     87     91    103     1  0.0000000  1.2552000  3
     94     97    106    115     1  0.0000000  0.6508444  3
    100    112    228    222     1  180.0000771  0.4184000  2
    100    112    228    222     1  0.0000000  1.6024720  3
    103    109    214    208     1  180.0000771  0.4184000  2
    103    109    214    208     1  0.0000000  1.6024720  3
    109    214    208    205     1  180.0000771  0.4184000  2
    109    214    208    205     1  0.0000000  1.6024720  3
    112    228    222    219     1  180.0000771  0.4184000  2
    112    228    222    219     1  0.0000000  1.6024720  3
    116    117    129    141     1  0.0000000  0.6508444  3
    116    120    132    138     1  0.0000000  0.6508444  3
    116    123    126    135     1  0.0000000  0.6508444  3
    117    116    120    132     1  180.0000771  2.0083200  2
    117    116    120    132     1  0.0000000  1.2552000  3
    117    116    123    126     1  180.0000771  2.0083200  2
    117    116    123    126     1  0.0000000  1.2552000  3
    117    129    141    256     1  0.0000000  0.6508444  3
    120    116    117    129     1  180.0000771  2.0083200  2
    120    116    117    129     1  0.0000000  1.2552000  3
    120    116    123    126     1  180.0000771  2.0083200  2
    120    116    123    126     1  0.0000000  1.2552000  3
    120    132    138    242     1  0.0000000  0.6508444  3
    123    116    117    129     1  180.0000771  2.0083200  2
    123    116    117    129     1  0.0000000  1.2552000  3
    123    116    120    132     1  180.0000771  2.0083200  2
    123    116    120    132     1  0.0000000  1.2552000  3
    123    126    135    144     1  0.0000000  0.6508444  3
    129    141    256    250     1  180.0000771  0.4184000  2
    129    141    256    250     1  0.0000000  1.6024720  3
    132    138    242    236     1  180.0000771  0.4184000  2
    132    138    242    236     1  0.0000000  1.6024720  3
    138    242    236    233     1  180.0000771  0.4184000  2
    138    242    236    233     1  0.0000000  1.6024720  3
    141    256    250    247     1  180.0000771  0.4184000  2
    141    256    250    247     1  0.0000000  1.6024720  3
    145    146    158    170     1  0.0000000  0.6508444  3
    145    149    161    167     1  0.0000000  0.6508444  3
    145    152    155    164     1  0.0000000  0.6508444  3
    146    145    149    161     1  180.0000771  2.0083200  2
    146    145    149    161     1  0.0000000  1.2552000  3
    146    145    152    155     1  180.0000771  2.0083200  2
    146    145    152    155     1  0.0000000  1.2552000  3
    146    158    170    284     1  0.0000000  0.6508444  3
    149    145    146    158     1  180.0000771  2.0083200  2
    149    145    146    158     1  0.0000000  1.2552000  3
    149    145    152    155     1  180.0000771  2.0083200  2
    149    145    152    155     1  0.0000000  1.2552000  3
    149    161    167    270     1  0.0000000  0.6508444  3
    152    145    146    158     1  180.0000771  2.0083200  2
    152    145    146    158     1  0.0000000  1.2552000  3
    152    145    149    161     1  180.0000771  2.0083200  2
    152    145    149    161     1  0.0000000  1.2552000  3
    152    155    164    173     1  0.0000000  0.6508444  3
    158    170    284    278     1  180.0000771  0.4184000  2
    158    170    284    278     1  0.0000000  1.6024720  3
    161    167    270    264     1  180.0000771  0.4184000  2
    161    167    270    264     1  0.0000000  1.6024720  3
    167    270    264    261     1  180.0000771  0.4184000  2
    167    270    264    261     1  0.0000000  1.6024720  3
    170    284    278    275     1  180.0000771  0.4184000  2
    170    284    278    275     1  0.0000000  1.6024720  3
    174    177    180    186     1  0.0000000  0.6508444  3
    180    177    174    183     1  0.0000000  0.6508444  3
    188    191    194    200     1  0.0000000  0.6508444  3
    194    191    188    197     1  0.0000000  0.6508444  3
    202    205    208    214     1  0.0000000  0.6508444  3
    208    205    202    211     1  0.0000000  0.6508444  3
    216    219    222    228     1  0.0000000  0.6508444  3
    222    219    216    225     1  0.0000000  0.6508444  3
    230    233    236    242     1  0.0000000  0.6508444  3
    236    233    230    239     1  0.0000000  0.6508444  3
    244    247    250    256     1  0.0000000  0.6508444  3
    250    247    244    253     1  0.0000000  0.6508444  3
    258    261    264    270     1  0.0000000  0.6508444  3
    264    261    258    267     1  0.0000000  0.6508444  3
    272    275    278    284     1  0.0000000  0.6508444  3
    278    275    272    281     1  0.0000000  0.6508444  3
      1      2      8      9     1  0.0000000  1.0460000  1
      1      2      8      9     1  0.0000000  0.0000000  3
      1      2      8     10     1  0.0000000  1.0460000  1
      1      2      8     10     1  0.0000000  0.0000000  3
      1      5     11     12     1  0.0000000  1.0460000  1
      1      5     11     12     1  0.0000000  0.0000000  3
      1      5     11     13     1  0.0000000  1.0460000  1
      1      5     11     13     1  0.0000000  0.0000000  3
      2      1      5      6     1  0.0000000  1.6038667  3
      2      1      5      7     1  0.0000000  1.6038667  3
      2      8     14     15     1  0.0000000  0.6508444  3
      2      8     14     16     1  0.0000000  0.6508444  3
      5      1      2      3     1  0.0000000  1.6038667  3
      3      2      8     14     1  0.0000000  0.6508444  3
      3      2      8      9     1  0.0000000  0.6508444  3
      3      2      8     10     1  0.0000000  0.6508444  3
      5      1      2      4     1  0.0000000  1.6038667  3
      4      2      8     14     1  0.0000000  0.6508444  3
      4      2      8      9     1  0.0000000  0.6508444  3
      4      2      8     10     1  0.0000000  0.6508444  3
      5     11     17     18     1  0.0000000  0.6508444  3
      5     11     17     19     1  0.0000000  0.6508444  3
      6      5     11     17     1  0.0000000  0.6508444  3
      6      5     11     12     1  0.0000000  0.6508444  3
      6      5     11     13     1  0.0000000  0.6508444  3
      7      5     11     17     1  0.0000000  0.6508444  3
      7      5     11     12     1  0.0000000  0.6508444  3
      7      5     11     13     1  0.0000000  0.6508444  3
      9      8     14     20     1  0.0000000  0.6508444  3
      9      8     14     15     1  0.0000000  0.6508444  3
      9      8     14     16     1  0.0000000  0.6508444  3
     10      8     14     20     1  0.0000000  0.6508444  3
     10      8     14     15     1  0.0000000  0.6508444  3
     10      8     14     16     1  0.0000000  0.6508444  3
     12     11     17     21     1  0.0000000  0.6508444  3
     12     11     17     18     1  0.0000000  0.6508444  3
     12     11     17     19     1  0.0000000  0.6508444  3
     13     11     17     21     1  0.0000000  0.6508444  3
     13     11     17     18     1  0.0000000  0.6508444  3
     13     11     17     19     1  0.0000000  0.6508444  3
     14     20     28     29     1  0.0000000  1.2552000  3
     14     20     28     30     1  0.0000000  1.2552000  3
     14     20     31     32     1  0.0000000  1.2552000  3
     14     20     31     33     1  0.0000000  1.2552000  3
     15     14     20     28     1  0.0000000  1.2552000  3
     15     14     20     31     1  0.0000000  1.2552000  3
     16     14     20     28     1  0.0000000  1.2552000  3
     16     14     20     31     1  0.0000000  1.2552000  3
     17     21     22     23     1  0.0000000  1.2552000  3
     17     21     22     24     1  0.0000000  1.2552000  3
     17     21     25     26     1  0.0000000  1.2552000  3
     17     21     25     27     1  0.0000000  1.2552000  3
     18     17     21     22     1  0.0000000  1.2552000  3
     18     17     21     25     1  0.0000000  1.2552000  3
     19     17     21     22     1  0.0000000  1.2552000  3
     19     17     21     25     1  0.0000000  1.2552000  3
     20     28     40     41     1  0.0000000  0.6508444  3
     20     28     40     42     1  0.0000000  0.6508444  3
     20     31     43     44     1  0.0000000  0.6508444  3
     20     31     43     45     1  0.0000000  0.6508444  3
     21     22     34     35     1  0.0000000  0.6508444  3
     21     22     34     36     1  0.0000000  0.6508444  3
     21     25     37     38     1  0.0000000  0.6508444  3
     21     25     37     39     1  0.0000000  0.6508444  3
     22     21     25     26     1  0.0000000  1.2552000  3
     22     21     25     27     1  0.0000000  1.2552000  3
     22     34     55     56     1  0.0000000  0.6508444  3
     22     34     55     57     1  0.0000000  0.6508444  3
     23     22     21     25     1  0.0000000  1.2552000  3
     23     22     34     55     1  0.0000000  0.6508444  3
     23     22     34     35     1  0.0000000  0.6508444  3
     23     22     34     36     1  0.0000000  0.6508444  3
     24     22     21     25     1  0.0000000  1.2552000  3
     24     22     34     55     1  0.0000000  0.6508444  3
     24     22     34     35     1  0.0000000  0.6508444  3
     24     22     34     36     1  0.0000000  0.6508444  3
     25     37     52     53     1  0.0000000  0.6508444  3
     25     37     52     54     1  0.0000000  0.6508444  3
     26     25     37     52     1  0.0000000  0.6508444  3
     26     25     37     38     1  0.0000000  0.6508444  3
     26     25     37     39     1  0.0000000  0.6508444  3
     27     25     37     52     1  0.0000000  0.6508444  3
     27     25     37     38     1  0.0000000  0.6508444  3
     27     25     37     39     1  0.0000000  0.6508444  3
     28     20     31     32     1  0.0000000  1.2552000  3
     28     20     31     33     1  0.0000000  1.2552000  3
     28     40     49     50     1  0.0000000  0.6508444  3
     28     40     49     51     1  0.0000000  0.6508444  3
     29     28     20     31     1  0.0000000  1.2552000  3
     29     28     40     49     1  0.0000000  0.6508444  3
     29     28     40     41     1  0.0000000  0.6508444  3
     29     28     40     42     1  0.0000000  0.6508444  3
     30     28     20     31     1  0.0000000  1.2552000  3
     30     28     40     49     1  0.0000000  0.6508444  3
     30     28     40     41     1  0.0000000  0.6508444  3
     30     28     40     42     1  0.0000000  0.6508444  3
     31     43     46     47     1  0.0000000  0.6508444  3
     31     43     46     48     1  0.0000000  0.6508444  3
     32     31     43     46     1  0.0000000  0.6508444  3
     32     31     43     44     1  0.0000000  0.6508444  3
     32     31     43     45     1  0.0000000  0.6508444  3
     33     31     43     46     1  0.0000000  0.6508444  3
     33     31     43     44     1  0.0000000  0.6508444  3
     33     31     43     45     1  0.0000000  0.6508444  3
     35     34     55    173     1  0.0000000  1.0460000  1
     35     34     55    173     1  0.0000000  0.0000000  3
     35     34     55     56     1  0.0000000  0.6508444  3
     35     34     55     57     1  0.0000000  0.6508444  3
     36     34     55    173     1  0.0000000  1.0460000  1
     36     34     55    173     1  0.0000000  0.0000000  3
     36     34     55     56     1  0.0000000  0.6508444  3
     36     34     55     57     1  0.0000000  0.6508444  3
     38     37     52    144     1  0.0000000  1.0460000  1
     38     37     52    144     1  0.0000000  0.0000000  3
     38     37     52     53     1  0.0000000  0.6508444  3
     38     37     52     54     1  0.0000000  0.6508444  3
     39     37     52    144     1  0.0000000  1.0460000  1
     39     37     52    144     1  0.0000000  0.0000000  3
     39     37     52     53     1  0.0000000  0.6508444  3
     39     37     52     54     1  0.0000000  0.6508444  3
     41     40     49    115     1  0.0000000  1.0460000  1
     41     40     49    115     1  0.0000000  0.0000000  3
     41     40     49     50     1  0.0000000  0.6508444  3
     41     40     49     51     1  0.0000000  0.6508444  3
     42     40     49    115     1  0.0000000  1.0460000  1
     42     40     49    115     1  0.0000000  0.0000000  3
     42     40     49     50     1  0.0000000  0.6508444  3
     42     40     49     51     1  0.0000000  0.6508444  3
     44     43     46     86     1  0.0000000  1.0460000  1
     44     43     46     86     1  0.0000000  0.0000000  3
     44     43     46     47     1  0.0000000  0.6508444  3
     44     43     46     48     1  0.0000000  0.6508444  3
     45     43     46     86     1  0.0000000  1.0460000  1
     45     43     46     86     1  0.0000000  0.0000000  3
     45     43     46     47     1  0.0000000  0.6508444  3
     45     43     46     48     1  0.0000000  0.6508444  3
     46     86     77     78     1  0.0000000  1.6038667  3
     46     86     77     79     1  0.0000000  1.6038667  3
     47     46     86     77     1  0.0000000  1.6038667  3
     48     46     86     77     1  0.0000000  1.6038667  3
     49    115    106    107     1  0.0000000  1.6038667  3
     49    115    106    108     1  0.0000000  1.6038667  3
     50     49    115    106     1  0.0000000  1.6038667  3
     51     49    115    106     1  0.0000000  1.6038667  3
     52    144    135    136     1  0.0000000  1.6038667  3
     52    144    135    137     1  0.0000000  1.6038667  3
     53     52    144    135     1  0.0000000  1.6038667  3
     54     52    144    135     1  0.0000000  1.6038667  3
     55    173    164    165     1  0.0000000  1.6038667  3
     55    173    164    166     1  0.0000000  1.6038667  3
     56     55    173    164     1  0.0000000  1.6038667  3
     57     55    173    164     1  0.0000000  1.6038667  3
     58     59     71     72     1  0.0000000  0.6508444  3
     58     59     71     73     1  0.0000000  0.6508444  3
     58     62     74     75     1  0.0000000  0.6508444  3
     58     62     74     76     1  0.0000000  0.6508444  3
     58     65     68     69     1  0.0000000  0.6508444  3
     58     65     68     70     1  0.0000000  0.6508444  3
     59     58     62     63     1  0.0000000  1.2552000  3
     59     58     62     64     1  0.0000000  1.2552000  3
     59     58     65     66     1  0.0000000  1.2552000  3
     59     58     65     67     1  0.0000000  1.2552000  3
     59     71     83     84     1  0.0000000  0.6508444  3
     59     71     83     85     1  0.0000000  0.6508444  3
     60     59     58     62     1  0.0000000  1.2552000  3
     60     59     58     65     1  0.0000000  1.2552000  3
     60     59     71     83     1  0.0000000  0.6508444  3
     60     59     71     72     1  0.0000000  0.6508444  3
     60     59     71     73     1  0.0000000  0.6508444  3
     61     59     58     62     1  0.0000000  1.2552000  3
     61     59     58     65     1  0.0000000  1.2552000  3
     61     59     71     83     1  0.0000000  0.6508444  3
     61     59     71     72     1  0.0000000  0.6508444  3
     61     59     71     73     1  0.0000000  0.6508444  3
     62     58     65     66     1  0.0000000  1.2552000  3
     62     58     65     67     1  0.0000000  1.2552000  3
     62     74     80     81     1  0.0000000  0.6508444  3
     62     74     80     82     1  0.0000000  0.6508444  3
     63     62     58     65     1  0.0000000  1.2552000  3
     63     62     74     80     1  0.0000000  0.6508444  3
     63     62     74     75     1  0.0000000  0.6508444  3
     63     62     74     76     1  0.0000000  0.6508444  3
     64     62     58     65     1  0.0000000  1.2552000  3
     64     62     74     80     1  0.0000000  0.6508444  3
     64     62     74     75     1  0.0000000  0.6508444  3
     64     62     74     76     1  0.0000000  0.6508444  3
     65     68     77     78     1  0.0000000  0.6508444  3
     65     68     77     79     1  0.0000000  0.6508444  3
     66     65     68     77     1  0.0000000  0.6508444  3
     66     65     68     69     1  0.0000000  0.6508444  3
     66     65     68     70     1  0.0000000  0.6508444  3
     67     65     68     77     1  0.0000000  0.6508444  3
     67     65     68     69     1  0.0000000  0.6508444  3
     67     65     68     70     1  0.0000000  0.6508444  3
     69     68     77     86     1  0.0000000  1.0460000  1
     69     68     77     86     1  0.0000000  0.0000000  3
     69     68     77     78     1  0.0000000  0.6508444  3
     69     68     77     79     1  0.0000000  0.6508444  3
     70     68     77     86     1  0.0000000  1.0460000  1
     70     68     77     86     1  0.0000000  0.0000000  3
     70     68     77     78     1  0.0000000  0.6508444  3
     70     68     77     79     1  0.0000000  0.6508444  3
     72     71     83    200     1  0.0000000  1.0460000  1
     72     71     83    200     1  0.0000000  0.0000000  3
     72     71     83     84     1  0.0000000  0.6508444  3
     72     71     83     85     1  0.0000000  0.6508444  3
     73     71     83    200     1  0.0000000  1.0460000  1
     73     71     83    200     1  0.0000000  0.0000000  3
     73     71     83     84     1  0.0000000  0.6508444  3
     73     71     83     85     1  0.0000000  0.6508444  3
     75     74     80    186     1  0.0000000  1.0460000  1
     75     74     80    186     1  0.0000000  0.0000000  3
     75     74     80     81     1  0.0000000  0.6508444  3
     75     74     80     82     1  0.0000000  0.6508444  3
     76     74     80    186     1  0.0000000  1.0460000  1
     76     74     80    186     1  0.0000000  0.0000000  3
     76     74     80     81     1  0.0000000  0.6508444  3
     76     74     80     82     1  0.0000000  0.6508444  3
     80    186    180    181     1  0.0000000  1.6038667  3
     80    186    180    182     1  0.0000000  1.6038667  3
     81     80    186    180     1  0.0000000  1.6038667  3
     82     80    186    180     1  0.0000000  1.6038667  3
     83    200    194    195     1  0.0000000  1.6038667  3
     83    200    194    196     1  0.0000000  1.6038667  3
     84     83    200    194     1  0.0000000  1.6038667  3
     85     83    200    194     1  0.0000000  1.6038667  3
     87     88    100    101     1  0.0000000  0.6508444  3
     87     88    100    102     1  0.0000000  0.6508444  3
     87     91    103    104     1  0.0000000  0.6508444  3
     87     91    103    105     1  0.0000000  0.6508444  3
     87     94     97     98     1  0.0000000  0.6508444  3
     87     94     97     99     1  0.0000000  0.6508444  3
     88     87     91     92     1  0.0000000  1.2552000  3
     88     87     91     93     1  0.0000000  1.2552000  3
     88     87     94     95     1  0.0000000  1.2552000  3
     88     87     94     96     1  0.0000000  1.2552000  3
     88    100    112    113     1  0.0000000  0.6508444  3
     88    100    112    114     1  0.0000000  0.6508444  3
     89     88     87     91     1  0.0000000  1.2552000  3
     89     88     87     94     1  0.0000000  1.2552000  3
     89     88    100    112     1  0.0000000  0.6508444  3
     89     88    100    101     1  0.0000000  0.6508444  3
     89     88    100    102     1  0.0000000  0.6508444  3
     90     88     87     91     1  0.0000000  1.2552000  3
     90     88     87     94     1  0.0000000  1.2552000  3
     90     88    100    112     1  0.0000000  0.6508444  3
     90     88    100    101     1  0.0000000  0.6508444  3
     90     88    100    102     1  0.0000000  0.6508444  3
     91     87     94     95     1  0.0000000  1.2552000  3
     91     87     94     96     1  0.0000000  1.2552000  3
     91    103    109    110     1  0.0000000  0.6508444  3
     91    103    109    111     1  0.0000000  0.6508444  3
     92     91     87     94     1  0.0000000  1.2552000  3
     92     91    103    109     1  0.0000000  0.6508444  3
     92     91    103    104     1  0.0000000  0.6508444  3
     92     91    103    105     1  0.0000000  0.6508444  3
     93     91     87     94     1  0.0000000  1.2552000  3
     93     91    103    109     1  0.0000000  0.6508444  3
     93     91    103    104     1  0.0000000  0.6508444  3
     93     91    103    105     1  0.0000000  0.6508444  3
     94     97    106    107     1  0.0000000  0.6508444  3
     94     97    106    108     1  0.0000000  0.6508444  3
     95     94     97    106     1  0.0000000  0.6508444  3
     95     94     97     98     1  0.0000000  0.6508444  3
     95     94     97     99     1  0.0000000  0.6508444  3
     96     94     97    106     1  0.0000000  0.6508444  3
     96     94     97     98     1  0.0000000  0.6508444  3
     96     94     97     99     1  0.0000000  0.6508444  3
     98     97    106    115     1  0.0000000  1.0460000  1
     98     97    106    115     1  0.0000000  0.0000000  3
     98     97    106    107     1  0.0000000  0.6508444  3
     98     97    106    108     1  0.0000000  0.6508444  3
     99     97    106    115     1  0.0000000  1.0460000  1
     99     97    106    115     1  0.0000000  0.0000000  3
     99     97    106    107     1  0.0000000  0.6508444  3
     99     97    106    108     1  0.0000000  0.6508444  3
    101    100    112    228     1  0.0000000  1.0460000  1
    101    100    112    228     1  0.0000000  0.0000000  3
    101    100    112    113     1  0.0000000  0.6508444  3
    101    100    112    114     1  0.0000000  0.6508444  3
    102    100    112    228     1  0.0000000  1.0460000  1
    102    100    112    228     1  0.0000000  0.0000000  3
    102    100    112    113     1  0.0000000  0.6508444  3
    102    100    112    114     1  0.0000000  0.6508444  3
    104    103    109    214     1  0.0000000  1.0460000  1
    104    103    109    214     1  0.0000000  0.0000000  3
    104    103    109    110     1  0.0000000  0.6508444  3
    104    103    109    111     1  0.0000000  0.6508444  3
    105    103    109    214     1  0.0000000  1.0460000  1
    105    103    109    214     1  0.0000000  0.0000000  3
    105    103    109    110     1  0.0000000  0.6508444  3
    105    103    109    111     1  0.0000000  0.6508444  3
    109    214    208    209     1  0.0000000  1.6038667  3
    109    214    208    210     1  0.0000000  1.6038667  3
    110    109    214    208     1  0.0000000  1.6038667  3
    111    109    214    208     1  0.0000000  1.6038667  3
    112    228    222    223     1  0.0000000  1.6038667  3
    112    228    222    224     1  0.0000000  1.6038667  3
    113    112    228    222     1  0.0000000  1.6038667  3
    114    112    228    222     1  0.0000000  1.6038667  3
    116    117    129    130     1  0.0000000  0.6508444  3
    116    117    129    131     1  0.0000000  0.6508444  3
    116    120    132    133     1  0.0000000  0.6508444  3
    116    120    132    134     1  0.0000000  0.6508444  3
    116    123    126    127     1  0.0000000  0.6508444  3
    116    123    126    128     1  0.0000000  0.6508444  3
    117    116    120    121     1  0.0000000  1.2552000  3
    117    116    120    122     1  0.0000000  1.2552000  3
    117    116    123    124     1  0.0000000  1.2552000  3
    117    116    123    125     1  0.0000000  1.2552000  3
    117    129    141    142     1  0.0000000  0.6508444  3
    117    129    141    143     1  0.0000000  0.6508444  3
    118    117    116    120     1  0.0000000  1.2552000  3
    118    117    116    123     1  0.0000000  1.2552000  3
    118    117    129    141     1  0.0000000  0.6508444  3
    118    117    129    130     1  0.0000000  0.6508444  3
    118    117    129    131     1  0.0000000  0.6508444  3
    119    117    116    120     1  0.0000000  1.2552000  3
    119    117    116    123     1  0.0000000  1.2552000  3
    119    117    129    141     1  0.0000000  0.6508444  3
    119    117    129    130     1  0.0000000  0.6508444  3
    119    117    129    131     1  0.0000000  0.6508444  3
    120    116    123    124     1  0.0000000  1.2552000  3
    120    116    123    125     1  0.0000000  1.2552000  3
    120    132    138    139     1  0.0000000  0.6508444  3
    120    132    138    140     1  0.0000000  0.6508444  3
    121    120    116    123     1  0.0000000  1.2552000  3
    121    120    132    138     1  0.0000000  0.6508444  3
    121    120    132    133     1  0.0000000  0.6508444  3
    121    120    132    134     1  0.0000000  0.6508444  3
    122    120    116    123     1  0.0000000  1.2552000  3
    122    120    132    138     1  0.0000000  0.6508444  3
    122    120    132    133     1  0.0000000  0.6508444  3
    122    120    132    134     1  0.0000000  0.6508444  3
    123    126    135    136     1  0.0000000  0.6508444  3
    123    126    135    137     1  0.0000000  0.6508444  3
    124    123    126    135     1  0.0000000  0.6508444  3
    124    123    126    127     1  0.0000000  0.6508444  3
    124    123    126    128     1  0.0000000  0.6508444  3
    125    123    126    135     1  0.0000000  0.6508444  3
    125    123    126    127     1  0.0000000  0.6508444  3
    125    123    126    128     1  0.0000000  0.6508444  3
    127    126    135    144     1  0.0000000  1.0460000  1
    127    126    135    144     1  0.0000000  0.0000000  3
    127    126    135    136     1  0.0000000  0.6508444  3
    127    126    135    137     1  0.0000000  0.6508444  3
    128    126    135    144     1  0.0000000  1.0460000  1
    128    126    135    144     1  0.0000000  0.0000000  3
    128    126    135    136     1  0.0000000  0.6508444  3
    128    126    135    137     1  0.0000000  0.6508444  3
    130    129    141    256     1  0.0000000  1.0460000  1
    130    129    141    256     1  0.0000000  0.0000000  3
    130    129    141    142     1  0.0000000  0.6508444  3
    130    129    141    143     1  0.0000000  0.6508444  3
    131    129    141    256     1  0.0000000  1.0460000  1
    131    129    141    256     1  0.0000000  0.0000000  3
    131    129    141    142     1  0.0000000  0.6508444  3
    131    129    141    143     1  0.0000000  0.6508444  3
    133    132    138    242     1  0.0000000  1.0460000  1
    133    132    138    242     1  0.0000000  0.0000000  3
    133    132    138    139     1  0.0000000  0.6508444  3
    133    132    138    140     1  0.0000000  0.6508444  3
    134    132    138    242     1  0.0000000  1.0460000  1
    134    132    138    242     1  0.0000000  0.0000000  3
    134    132    138    139     1  0.0000000  0.6508444  3
    134    132    138    140     1  0.0000000  0.6508444  3
    138    242    236    237     1  0.0000000  1.6038667  3
    138    242    236    238     1  0.0000000  1.6038667  3
    139    138    242    236     1  0.0000000  1.6038667  3
    140    138    242    236     1  0.0000000  1.6038667  3
    141    256    250    251     1  0.0000000  1.6038667  3
    141    256    250    252     1  0.0000000  1.6038667  3
    142    141    256    250     1  0.0000000  1.6038667  3
    143    141    256    250     1  0.0000000  1.6038667  3
    145    146    158    159     1  0.0000000  0.6508444  3
    145    146    158    160     1  0.0000000  0.6508444  3
    145    149    161    162     1  0.0000000  0.6508444  3
    145    149    161    163     1  0.0000000  0.6508444  3
    145    152    155    156     1  0.0000000  0.6508444  3
    145    152    155    157     1  0.0000000  0.6508444  3
    146    145    149    150     1  0.0000000  1.2552000  3
    146    145    149    151     1  0.0000000  1.2552000  3
    146    145    152    153     1  0.0000000  1.2552000  3
    146    145    152    154     1  0.0000000  1.2552000  3
    146    158    170    171     1  0.0000000  0.6508444  3
    146    158    170    172     1  0.0000000  0.6508444  3
    147    146    145    149     1  0.0000000  1.2552000  3
    147    146    145    152     1  0.0000000  1.2552000  3
    147    146    158    170     1  0.0000000  0.6508444  3
    147    146    158    159     1  0.0000000  0.6508444  3
    147    146    158    160     1  0.0000000  0.6508444  3
    148    146    145    149     1  0.0000000  1.2552000  3
    148    146    145    152     1  0.0000000  1.2552000  3
    148    146    158    170     1  0.0000000  0.6508444  3
    148    146    158    159     1  0.0000000  0.6508444  3
    148    146    158    160     1  0.0000000  0.6508444  3
    149    145    152    153     1  0.0000000  1.2552000  3
    149    145    152    154     1  0.0000000  1.2552000  3
    149    161    167    168     1  0.0000000  0.6508444  3
    149    161    167    169     1  0.0000000  0.6508444  3
    150    149    145    152     1  0.0000000  1.2552000  3
    150    149    161    167     1  0.0000000  0.6508444  3
    150    149    161    162     1  0.0000000  0.6508444  3
    150    149    161    163     1  0.0000000  0.6508444  3
    151    149    145    152     1  0.0000000  1.2552000  3
    151    149    161    167     1  0.0000000  0.6508444  3
    151    149    161    162     1  0.0000000  0.6508444  3
    151    149    161    163     1  0.0000000  0.6508444  3
    152    155    164    165     1  0.0000000  0.6508444  3
    152    155    164    166     1  0.0000000  0.6508444  3
    153    152    155    164     1  0.0000000  0.6508444  3
    153    152    155    156     1  0.0000000  0.6508444  3
    153    152    155    157     1  0.0000000  0.6508444  3
    154    152    155    164     1  0.0000000  0.6508444  3
    154    152    155    156     1  0.0000000  0.6508444  3
    154    152    155    157     1  0.0000000  0.6508444  3
    156    155    164    173     1  0.0000000  1.0460000  1
    156    155    164    173     1  0.0000000  0.0000000  3
    156    155    164    165     1  0.0000000  0.6508444  3
    156    155    164    166     1  0.0000000  0.6508444  3
    157    155    164    173     1  0.0000000  1.0460000  1
    157    155    164    173     1  0.0000000  0.0000000  3
    157    155    164    165     1  0.0000000  0.6508444  3
    157    155    164    166     1  0.0000000  0.6508444  3
    159    158    170    284     1  0.0000000  1.0460000  1
    159    158    170    284     1  0.0000000  0.0000000  3
    159    158    170    171     1  0.0000000  0.6508444  3
    159    158    170    172     1  0.0000000  0.6508444  3
    160    158    170    284     1  0.0000000  1.0460000  1
    160    158    170    284     1  0.0000000  0.0000000  3
    160    158    170    171     1  0.0000000  0.6508444  3
    160    158    170    172     1  0.0000000  0.6508444  3
    162    161    167    270     1  0.0000000  1.0460000  1
    162    161    167    270     1  0.0000000  0.0000000  3
    162    161    167    168     1  0.0000000  0.6508444  3
    162    161    167    169     1  0.0000000  0.6508444  3
    163    161    167    270     1  0.0000000  1.0460000  1
    163    161    167    270     1  0.0000000  0.0000000  3
    163    161    167    168     1  0.0000000  0.6508444  3
    163    161    167    169     1  0.0000000  0.6508444  3
    167    270    264    265     1  0.0000000  1.6038667  3
    167    270    264    266     1  0.0000000  1.6038667  3
    168    167    270    264     1  0.0000000  1.6038667  3
    169    167    270    264     1  0.0000000  1.6038667  3
    170    284    278    279     1  0.0000000  1.6038667  3
    170    284    278    280     1  0.0000000  1.6038667  3
    171    170    284    278     1  0.0000000  1.6038667  3
    172    170    284    278     1  0.0000000  1.6038667  3
    174    177    180    181     1  0.0000000  0.6508444  3
    174    177    180    182     1  0.0000000  0.6508444  3
    175    174    177    180     1  0.0000000  0.6508444  3
    175    174    177    178     1  0.0000000  0.6508444  3
    175    174    177    179     1  0.0000000  0.6508444  3
    175    174    183    184     1  0.0000000  0.6508444  3
    175    174    183    185     1  0.0000000  0.6508444  3
    175    174    183    187     1  0.0000000  0.6508444  3
    176    174    177    180     1  0.0000000  0.6508444  3
    176    174    177    178     1  0.0000000  0.6508444  3
    176    174    177    179     1  0.0000000  0.6508444  3
    176    174    183    184     1  0.0000000  0.6508444  3
    176    174    183    185     1  0.0000000  0.6508444  3
    176    174    183    187     1  0.0000000  0.6508444  3
    177    174    183    184     1  0.0000000  0.6508444  3
    177    174    183    185     1  0.0000000  0.6508444  3
    177    174    183    187     1  0.0000000  0.6508444  3
    178    177    174    183     1  0.0000000  0.6508444  3
    178    177    180    186     1  0.0000000  1.0460000  1
    178    177    180    186     1  0.0000000  0.0000000  3
    178    177    180    181     1  0.0000000  0.6508444  3
    178    177    180    182     1  0.0000000  0.6508444  3
    179    177    174    183     1  0.0000000  0.6508444  3
    179    177    180    186     1  0.0000000  1.0460000  1
    179    177    180    186     1  0.0000000  0.0000000  3
    179    177    180    181     1  0.0000000  0.6508444  3
    179    177    180    182     1  0.0000000  0.6508444  3
    188    191    194    195     1  0.0000000  0.6508444  3
    188    191    194    196     1  0.0000000  0.6508444  3
    189    188    191    194     1  0.0000000  0.6508444  3
    189    188    191    192     1  0.0000000  0.6508444  3
    189    188    191    193     1  0.0000000  0.6508444  3
    189    188    197    198     1  0.0000000  0.6508444  3
    189    188    197    199     1  0.0000000  0.6508444  3
    189    188    197    201     1  0.0000000  0.6508444  3
    190    188    191    194     1  0.0000000  0.6508444  3
    190    188    191    192     1  0.0000000  0.6508444  3
    190    188    191    193     1  0.0000000  0.6508444  3
    190    188    197    198     1  0.0000000  0.6508444  3
    190    188    197    199     1  0.0000000  0.6508444  3
    190    188    197    201     1  0.0000000  0.6508444  3
    191    188    197    198     1  0.0000000  0.6508444  3
    191    188    197    199     1  0.0000000  0.6508444  3
    191    188    197    201     1  0.0000000  0.6508444  3
    192    191    194    200     1  0.0000000  1.0460000  1
    192    191    194    200     1  0.0000000  0.0000000  3
    192    191    194    195     1  0.0000000  0.6508444  3
    192    191    194    196     1  0.0000000  0.6508444  3
    192    191    188    197     1  0.0000000  0.6508444  3
    193    191    194    200     1  0.0000000  1.0460000  1
    193    191    194    200     1  0.0000000  0.0000000  3
    193    191    194    195     1  0.0000000  0.6508444  3
    193    191    194    196     1  0.0000000  0.6508444  3
    193    191    188    197     1  0.0000000  0.6508444  3
    202    205    208    209     1  0.0000000  0.6508444  3
    202    205    208    210     1  0.0000000  0.6508444  3
    203    202    205    208     1  0.0000000  0.6508444  3
    203    202    205    206     1  0.0000000  0.6508444  3
    203    202    205    207     1  0.0000000  0.6508444  3
    203    202    211    212     1  0.0000000  0.6508444  3
    203    202    211    213     1  0.0000000  0.6508444  3
    203    202    211    215     1  0.0000000  0.6508444  3
    204    202    205    208     1  0.0000000  0.6508444  3
    204    202    205    206     1  0.0000000  0.6508444  3
    204    202    205    207     1  0.0000000  0.6508444  3
    204    202    211    212     1  0.0000000  0.6508444  3
    204    202    211    213     1  0.0000000  0.6508444  3
    204    202    211    215     1  0.0000000  0.6508444  3
    205    202    211    212     1  0.0000000  0.6508444  3
    205    202    211    213     1  0.0000000  0.6508444  3
    205    202    211    215     1  0.0000000  0.6508444  3
    206    205    202    211     1  0.0000000  0.6508444  3
    206    205    208    214     1  0.0000000  1.0460000  1
    206    205    208    214     1  0.0000000  0.0000000  3
    206    205    208    209     1  0.0000000  0.6508444  3
    206    205    208    210     1  0.0000000  0.6508444  3
    207    205    202    211     1  0.0000000  0.6508444  3
    207    205    208    214     1  0.0000000  1.0460000  1
    207    205    208    214     1  0.0000000  0.0000000  3
    207    205    208    209     1  0.0000000  0.6508444  3
    207    205    208    210     1  0.0000000  0.6508444  3
    216    219    222    223     1  0.0000000  0.6508444  3
    216    219    222    224     1  0.0000000  0.6508444  3
    217    216    219    222     1  0.0000000  0.6508444  3
    217    216    219    220     1  0.0000000  0.6508444  3
    217    216    219    221     1  0.0000000  0.6508444  3
    217    216    225    226     1  0.0000000  0.6508444  3
    217    216    225    227     1  0.0000000  0.6508444  3
    217    216    225    229     1  0.0000000  0.6508444  3
    218    216    219    222     1  0.0000000  0.6508444  3
    218    216    219    220     1  0.0000000  0.6508444  3
    218    216    219    221     1  0.0000000  0.6508444  3
    218    216    225    226     1  0.0000000  0.6508444  3
    218    216    225    227     1  0.0000000  0.6508444  3
    218    216    225    229     1  0.0000000  0.6508444  3
    219    216    225    226     1  0.0000000  0.6508444  3
    219    216    225    227     1  0.0000000  0.6508444  3
    219    216    225    229     1  0.0000000  0.6508444  3
    220    219    222    228     1  0.0000000  1.0460000  1
    220    219    222    228     1  0.0000000  0.0000000  3
    220    219    222    223     1  0.0000000  0.6508444  3
    220    219    222    224     1  0.0000000  0.6508444  3
    220    219    216    225     1  0.0000000  0.6508444  3
    221    219    222    228     1  0.0000000  1.0460000  1
    221    219    222    228     1  0.0000000  0.0000000  3
    221    219    222    223     1  0.0000000  0.6508444  3
    221    219    222    224     1  0.0000000  0.6508444  3
    221    219    216    225     1  0.0000000  0.6508444  3
    230    233    236    237     1  0.0000000  0.6508444  3
    230    233    236    238     1  0.0000000  0.6508444  3
    231    230    233    236     1  0.0000000  0.6508444  3
    231    230    233    234     1  0.0000000  0.6508444  3
    231    230    233    235     1  0.0000000  0.6508444  3
    231    230    239    240     1  0.0000000  0.6508444  3
    231    230    239    241     1  0.0000000  0.6508444  3
    231    230    239    243     1  0.0000000  0.6508444  3
    232    230    233    236     1  0.0000000  0.6508444  3
    232    230    233    234     1  0.0000000  0.6508444  3
    232    230    233    235     1  0.0000000  0.6508444  3
    232    230    239    240     1  0.0000000  0.6508444  3
    232    230    239    241     1  0.0000000  0.6508444  3
    232    230    239    243     1  0.0000000  0.6508444  3
    233    230    239    240     1  0.0000000  0.6508444  3
    233    230    239    241     1  0.0000000  0.6508444  3
    233    230    239    243     1  0.0000000  0.6508444  3
    234    233    230    239     1  0.0000000  0.6508444  3
    234    233    236    242     1  0.0000000  1.0460000  1
    234    233    236    242     1  0.0000000  0.0000000  3
    234    233    236    237     1  0.0000000  0.6508444  3
    234    233    236    238     1  0.0000000  0.6508444  3
    235    233    230    239     1  0.0000000  0.6508444  3
    235    233    236    242     1  0.0000000  1.0460000  1
    235    233    236    242     1  0.0000000  0.0000000  3
    235    233    236    237     1  0.0000000  0.6508444  3
    235    233    236    238     1  0.0000000  0.6508444  3
    244    247    250    251     1  0.0000000  0.6508444  3
    244    247    250    252     1  0.0000000  0.6508444  3
    245    244    247    250     1  0.0000000  0.6508444  3
    245    244    247    248     1  0.0000000  0.6508444  3
    245    244    247    249     1  0.0000000  0.6508444  3
    245    244    253    254     1  0.0000000  0.6508444  3
    245    244    253    255     1  0.0000000  0.6508444  3
    245    244    253    257     1  0.0000000  0.6508444  3
    246    244    247    250     1  0.0000000  0.6508444  3
    246    244    247    248     1  0.0000000  0.6508444  3
    246    244    247    249     1  0.0000000  0.6508444  3
    246    244    253    254     1  0.0000000  0.6508444  3
    246    244    253    255     1  0.0000000  0.6508444  3
    246    244    253    257     1  0.0000000  0.6508444  3
    247    244    253    254     1  0.0000000  0.6508444  3
    247    244    253    255     1  0.0000000  0.6508444  3
    247    244    253    257     1  0.0000000  0.6508444  3
    248    247    250    256     1  0.0000000  1.0460000  1
    248    247    250    256     1  0.0000000  0.0000000  3
    248    247    250    251     1  0.0000000  0.6508444  3
    248    247    250    252     1  0.0000000  0.6508444  3
    248    247    244    253     1  0.0000000  0.6508444  3
    249    247    250    256     1  0.0000000  1.0460000  1
    249    247    250    256     1  0.0000000  0.0000000  3
    249    247    250    251     1  0.0000000  0.6508444  3
    249    247    250    252     1  0.0000000  0.6508444  3
    249    247    244    253     1  0.0000000  0.6508444  3
    258    261    264    265     1  0.0000000  0.6508444  3
    258    261    264    266     1  0.0000000  0.6508444  3
    259    258    261    264     1  0.0000000  0.6508444  3
    259    258    261    262     1  0.0000000  0.6508444  3
    259    258    261    263     1  0.0000000  0.6508444  3
    259    258    267    268     1  0.0000000  0.6508444  3
    259    258    267    269     1  0.0000000  0.6508444  3
    259    258    267    271     1  0.0000000  0.6508444  3
    260    258    261    264     1  0.0000000  0.6508444  3
    260    258    261    262     1  0.0000000  0.6508444  3
    260    258    261    263     1  0.0000000  0.6508444  3
    260    258    267    268     1  0.0000000  0.6508444  3
    260    258    267    269     1  0.0000000  0.6508444  3
    260    258    267    271     1  0.0000000  0.6508444  3
    261    258    267    268     1  0.0000000  0.6508444  3
    261    258    267    269     1  0.0000000  0.6508444  3
    261    258    267    271     1  0.0000000  0.6508444  3
    262    261    258    267     1  0.0000000  0.6508444  3
    262    261    264    270     1  0.0000000  1.0460000  1
    262    261    264    270     1  0.0000000  0.0000000  3
    262    261    264    265     1  0.0000000  0.6508444  3
    262    261    264    266     1  0.0000000  0.6508444  3
    263    261    258    267     1  0.0000000  0.6508444  3
    263    261    264    270     1  0.0000000  1.0460000  1
    263    261    264    270     1  0.0000000  0.0000000  3
    263    261    264    265     1  0.0000000  0.6508444  3
    263    261    264    266     1  0.0000000  0.6508444  3
    272    275    278    279     1  0.0000000  0.6508444  3
    272    275    278    280     1  0.0000000  0.6508444  3
    273    272    275    278     1  0.0000000  0.6508444  3
    273    272    275    276     1  0.0000000  0.6508444  3
    273    272    275    277     1  0.0000000  0.6508444  3
    273    272    281    282     1  0.0000000  0.6508444  3
    273    272    281    283     1  0.0000000  0.6508444  3
    273    272    281    285     1  0.0000000  0.6508444  3
    274    272    275    278     1  0.0000000  0.6508444  3
    274    272    275    276     1  0.0000000  0.6508444  3
    274    272    275    277     1  0.0000000  0.6508444  3
    274    272    281    282     1  0.0000000  0.6508444  3
    274    272    281    283     1  0.0000000  0.6508444  3
    274    272    281    285     1  0.0000000  0.6508444  3
    275    272    281    282     1  0.0000000  0.6508444  3
    275    272    281    283     1  0.0000000  0.6508444  3
    275    272    281    285     1  0.0000000  0.6508444  3
    276    275    278    284     1  0.0000000  1.0460000  1
    276    275    278    284     1  0.0000000  0.0000000  3
    276    275    278    279     1  0.0000000  0.6508444  3
    276    275    278    280     1  0.0000000  0.6508444  3
    276    275    272    281     1  0.0000000  0.6508444  3
    277    275    278    284     1  0.0000000  1.0460000  1
    277    275    278    284     1  0.0000000  0.0000000  3
    277    275    278    279     1  0.0000000  0.6508444  3
    277    275    278    280     1  0.0000000  0.6508444  3
    277    275    272    281     1  0.0000000  0.6508444  3

;[ system ]
;; Name
;Generic title
;
;[ molecules ]
;; Compound       #mols
;g2pocore_petim      1
