G2POcore-PETIM in water
22949
    1aaa     O1    1   0.025   2.155   1.381 -0.3343 -0.6645  0.7059
    1aaa     C1    2   0.082   2.052   1.298  0.0345  0.1747 -0.3356
    1aaa     H1    3   0.033   2.052   1.199 -1.0046 -0.5893  0.1505
    1aaa     H2    4   0.083   1.953   1.345  0.3988  1.1406  1.8013
    1aaa     C2    5  -0.115   2.133   1.411  0.5161 -1.0279  0.1412
    1aaa     H3    6  -0.164   2.091   1.322 -1.2768 -1.1229  1.1232
    1aaa     H4    7  -0.168   2.226   1.435 -0.0779 -1.5831  1.0301
    1aaa     C3    8   0.231   2.078   1.285  0.2899 -0.1108 -0.0575
    1aaa     H5    9   0.281   2.082   1.382  2.8798 -0.0987 -1.2934
    1aaa     H6   10   0.240   2.176   1.238  0.2284  0.7551  1.6837
    1aaa     C4   11  -0.132   2.031   1.527 -0.5044  0.5873  0.0254
    1aaa     H7   12  -0.090   1.937   1.491  0.8148  1.4093 -0.6701
    1aaa     H8   13  -0.237   2.013   1.551 -0.2962 -0.8147 -0.0773
    1aaa     C5   14   0.301   1.977   1.192 -0.1605  0.1412 -1.2094
    1aaa     H9   15   0.238   1.970   1.103 -0.4937  0.4633 -0.9991
    1aaa    H10   16   0.397   2.021   1.162 -1.0308  2.7162 -0.5058
    1aaa     C6   17  -0.048   2.062   1.657  1.0555 -0.1296 -0.1731
    1aaa    H11   18  -0.061   2.169   1.679 -0.9500 -0.6289  1.3053
    1aaa    H12   19   0.060   2.052   1.639  1.1012  0.8882 -0.5286
    1aaa     N1   20   0.322   1.844   1.273  0.3512 -0.1203 -0.5333
    1aaa     N2   21  -0.088   1.990   1.783 -0.2599 -0.1560 -0.0291
    1aaa     C7   22  -0.092   1.845   1.767 -0.1855  0.4689  0.0107
    1aaa    H13   23  -0.148   1.814   1.678  0.4502 -3.1043  0.7176
    1aaa    H14   24   0.006   1.803   1.742 -1.3767 -2.5133 -0.0761
    1aaa     C8   25  -0.002   2.027   1.892 -0.7339  0.0195 -0.4461
    1aaa    H15   26   0.006   2.137   1.895 -0.1938 -0.0309  0.2839
    1aaa    H16   27  -0.058   2.006   1.984  0.6358 -1.9224  0.0049
    1aaa     C9   28   0.453   1.857   1.343  0.4037 -0.7243  0.7551
    1aaa    H17   29   0.529   1.846   1.265  1.7792 -0.6832  2.0634
    1aaa    H18   30   0.470   1.957   1.386  0.5072 -0.1940 -0.4792
    1aaa    C10   31   0.278   1.714   1.215 -0.1450  0.5117 -0.0170
    1aaa    H19   32   0.331   1.710   1.119  1.7306  2.7610  0.8246
    1aaa    H20   33   0.313   1.638   1.286 -0.9894  1.3537  1.3632
    1aaa    C11   34  -0.158   1.765   1.891 -0.6833  0.0279  0.1041
    1aaa    H21   35  -0.106   1.775   1.987  0.6579 -0.4110 -0.5503
    1aaa    H22   36  -0.261   1.800   1.907 -0.0377  0.7372  3.5062
    1aaa    C12   37   0.147   1.971   1.894  0.3686  0.6195 -0.9945
    1aaa    H23   38   0.144   1.864   1.921  1.2557  1.3474  2.5197
    1aaa    H24   39   0.200   1.984   1.799 -0.7268 -0.0927 -1.7305
    1aaa    C13   40   0.480   1.752   1.459 -0.5221  0.5771 -0.1304
    1aaa    H25   41   0.493   1.653   1.414  2.3721  0.4908  0.6637
    1aaa    H26   42   0.581   1.764   1.502  0.2546 -0.8598 -1.4386
    1aaa    C14   43   0.124   1.694   1.198 -0.1937 -0.6624 -0.3036
    1aaa    H27   44   0.077   1.777   1.145  0.9892  1.0436  1.2026
    1aaa    H28   45   0.106   1.602   1.141 -1.6084  0.0579 -1.0765
    1aaa    C15   46   0.045   1.661   1.324  0.0865 -0.2254  0.0128
    1aaa    H29   47   0.079   1.563   1.361  2.5732  0.6787  0.3627
    1aaa    H30   48   0.070   1.735   1.402  1.9147  0.2825 -0.9925
    1aaa    C16   49   0.373   1.744   1.562 -0.3894 -0.0790 -0.3244
    1aaa    H31   50   0.351   1.848   1.589 -1.3967 -0.1062 -0.9538
    1aaa    H32   51   0.278   1.697   1.531 -0.2379 -2.3192  2.1939
    1aaa    C17   52   0.232   2.042   2.003  0.1929 -0.1855 -0.1831
    1aaa    H33   53   0.211   2.149   2.011 -0.6692 -0.4684  1.9934
    1aaa    H34   54   0.201   2.001   2.100 -1.0117 -2.1079 -1.3102
    1aaa    C18   55  -0.158   1.615   1.853 -0.2683  0.4482  0.4134
    1aaa    H35   56  -0.190   1.576   1.951  1.7100 -2.2388  0.0957
    1aaa    H36   57  -0.238   1.596   1.781 -1.0642  2.2861  0.7454
    2bbb     N1   58  -0.528   1.795   1.297 -0.3550 -0.0488 -0.9997
    2bbb     C1   59  -0.582   1.709   1.186 -0.2120 -0.9921  0.2413
    2bbb     H1   60  -0.545   1.606   1.182  1.1390 -0.5362  0.3681
    2bbb     H2   61  -0.554   1.764   1.095  3.7585 -2.1869  0.5506
    2bbb     C2   62  -0.584   1.930   1.308 -0.2487 -0.5171  0.0016
    2bbb     H3   63  -0.542   1.969   1.401  0.7585  1.4905 -1.2121
    2bbb     H4   64  -0.692   1.934   1.325 -0.4169  0.2660 -1.1362
    2bbb     C3   65  -0.378   1.787   1.305 -0.6273 -0.7900  0.5213
    2bbb     H5   66  -0.344   1.855   1.384  2.1850 -1.2836 -0.1680
    2bbb     H6   67  -0.327   1.818   1.213 -0.5158 -0.3037  0.7470
    2bbb     C4   68  -0.331   1.643   1.337 -0.2116  0.3912 -0.0443
    2bbb     H7   69  -0.335   1.594   1.239  1.2038  0.8435 -0.3461
    2bbb     H8   70  -0.390   1.593   1.415 -2.3046 -0.2901 -1.9353
    2bbb     C5   71  -0.733   1.699   1.195 -0.3807 -0.0792 -0.2637
    2bbb     H9   72  -0.779   1.799   1.195 -1.7124 -0.6649  0.0408
    2bbb    H10   73  -0.770   1.640   1.279 -1.9209 -0.9549 -1.5023
    2bbb     C6   74  -0.540   2.026   1.197 -0.0115 -0.0060 -0.2770
    2bbb    H11   75  -0.447   1.989   1.152 -0.0577 -0.0223 -0.3602
    2bbb    H12   76  -0.511   2.124   1.237 -1.5043 -0.0685  1.0616
    2bbb     C7   77  -0.192   1.647   1.398  0.2176 -0.0619  0.1254
    2bbb    H13   78  -0.171   1.548   1.442  1.4097 -0.1758 -0.6605
    2bbb    H14   79  -0.184   1.728   1.472  0.4382  2.2049 -2.2407
    2bbb     C8   80  -0.639   2.048   1.084  0.3895  1.0896 -0.3933
    2bbb    H15   81  -0.746   2.029   1.103 -0.4921  3.0087 -2.8886
    2bbb    H16   82  -0.623   1.978   1.001 -1.2066 -1.8301  1.5755
    2bbb     C9   83  -0.797   1.629   1.070 -0.6632 -0.6272 -0.2523
    2bbb    H17   84  -0.744   1.533   1.070 -0.4315 -0.5895  2.8273
    2bbb    H18   85  -0.782   1.693   0.982 -0.7901  0.0555  0.2216
    2bbb     O1   86  -0.098   1.671   1.292 -0.3472  0.0686 -0.1919
    3bbb     N1   87   0.301   1.447   2.099 -0.0186  1.3578  0.1721
    3bbb     C1   88   0.331   1.315   2.032  0.4789  0.0286 -0.4281
    3bbb     H1   89   0.430   1.304   1.986  0.0905  0.8689 -1.5040
    3bbb     H2   90   0.268   1.299   1.944 -0.3148 -2.6967  0.5502
    3bbb     C2   91   0.192   1.435   2.188 -0.4419  0.1787  0.0369
    3bbb     H3   92   0.213   1.353   2.258 -1.8259 -2.5494 -2.5412
    3bbb     H4   93   0.100   1.403   2.139 -0.3684  2.0912 -1.4566
    3bbb     C3   94   0.281   1.561   2.005 -0.0006 -0.4124 -0.0925
    3bbb     H5   95   0.287   1.658   2.056 -0.7115 -0.2494 -0.2957
    3bbb     H6   96   0.182   1.563   1.957  0.4426  0.7431 -1.0161
    3bbb     C4   97   0.381   1.576   1.893 -0.3282  0.2953 -0.6670
    3bbb     H7   98   0.394   1.482   1.839 -0.5980  0.0221 -0.2557
    3bbb     H8   99   0.484   1.599   1.923 -0.0760 -0.7436 -0.7250
    3bbb     C5  100   0.333   1.191   2.133 -0.4155 -0.1774  0.7471
    3bbb     H9  101   0.229   1.162   2.151 -1.5178  0.9765 -2.8092
    3bbb    H10  102   0.381   1.226   2.225  1.4405 -0.1460 -0.1683
    3bbb     C6  103   0.165   1.552   2.281  0.1007 -0.3913  1.4089
    3bbb    H11  104   0.142   1.637   2.216  2.5383 -1.0672 -0.5059
    3bbb    H12  105   0.257   1.581   2.334  1.5163 -1.7695 -0.1616
    3bbb     C7  106   0.341   1.685   1.789  0.5530  0.0994 -0.3493
    3bbb    H13  107   0.355   1.785   1.833  1.5057 -1.4905  3.3188
    3bbb    H14  108   0.236   1.664   1.766  0.1008 -1.1705  2.4722
    3bbb     C8  109   0.046   1.533   2.371 -0.2301  0.3765  0.5900
    3bbb    H15  110   0.018   1.632   2.410 -1.2118  0.6622 -0.7736
    3bbb    H16  111   0.085   1.466   2.449  1.4369 -2.5622 -2.5047
    3bbb     C9  112   0.418   1.061   2.086 -0.3091 -0.3488 -0.6247
    3bbb    H17  113   0.412   0.976   2.155 -1.6176 -0.5955 -1.0143
    3bbb    H18  114   0.522   1.096   2.079  0.5366 -2.0492  2.0387
    3bbb     O1  115   0.418   1.664   1.672 -0.1650  0.2240  0.6494
    4bbb     N1  116   0.593   2.274   1.641  0.9460 -0.6621 -0.7623
    4bbb     C1  117   0.669   2.359   1.735 -0.2483 -0.6186  0.0073
    4bbb     H1  118   0.649   2.333   1.840  0.3272  1.4456  0.6704
    4bbb     H2  119   0.638   2.463   1.720 -0.7537 -0.7597  0.0234
    4bbb     C2  120   0.456   2.330   1.607 -0.8075 -0.6094 -0.1639
    4bbb     H3  121   0.446   2.436   1.634  1.9221 -0.9390  2.8380
    4bbb     H4  122   0.374   2.280   1.660 -0.7674 -1.4952 -0.8994
    4bbb     C3  123   0.590   2.123   1.667  0.7055  0.1540 -0.4221
    4bbb     H5  124   0.695   2.095   1.648  0.8896  2.0592 -2.5830
    4bbb     H6  125   0.535   2.070   1.587 -0.5800  1.4567 -0.4342
    4bbb     C4  126   0.549   2.071   1.810  0.1520  0.1999 -0.2176
    4bbb     H7  127   0.630   2.093   1.881 -1.3414  1.3716  1.2054
    4bbb     H8  128   0.547   1.961   1.801 -0.5453  0.3139 -1.8293
    4bbb     C5  129   0.825   2.337   1.725  0.1357 -0.2023 -0.3103
    4bbb     H9  130   0.850   2.348   1.619 -0.8848 -0.2679 -0.5647
    4bbb    H10  131   0.863   2.238   1.751  1.5132  0.0510 -1.2325
    4bbb     C6  132   0.443   2.329   1.456  0.9734  0.5662 -0.3322
    4bbb    H11  133   0.464   2.228   1.418  0.4079 -0.6398  2.3661
    4bbb    H12  134   0.522   2.383   1.401 -0.4327  2.9446 -0.1420
    4bbb     C7  135   0.417   2.108   1.876 -0.7649 -0.2747  0.2957
    4bbb    H13  136   0.344   2.124   1.795  1.4736  0.7741 -1.6460
    4bbb    H14  137   0.431   2.204   1.927 -2.6400 -0.7746  1.8672
    4bbb     C8  138   0.305   2.373   1.416 -0.0463 -0.2728  0.3556
    4bbb    H15  139   0.229   2.311   1.464  1.0393 -0.8802  1.3362
    4bbb    H16  140   0.294   2.368   1.307 -0.4440  2.3564  0.2174
    4bbb     C9  141   0.904   2.443   1.807 -0.3146  0.0186 -0.1691
    4bbb    H17  142   1.009   2.409   1.804  0.1640  1.1297  1.9289
    4bbb    H18  143   0.869   2.449   1.911  1.1859 -0.1506  0.3801
    4bbb     O1  144   0.368   2.013   1.976 -0.0505  0.7686  0.7719
    5bbb     N1  145   0.229   1.252   1.542  0.1071  0.2985 -0.6226
    5bbb     C1  146   0.360   1.301   1.589  0.6016  0.5775  0.6078
    5bbb     H1  147   0.375   1.270   1.693  0.6940  1.2734  0.8089
    5bbb     H2  148   0.375   1.410   1.589  0.6853  0.7071 -3.1674
    5bbb     C2  149   0.199   1.272   1.400  0.5580 -0.4840 -0.1303
    5bbb     H3  150   0.285   1.232   1.344 -0.1869  1.6956 -3.0761
    5bbb     H4  151   0.199   1.381   1.386  2.2886 -0.4219  0.0912
    5bbb     C3  152   0.131   1.263   1.644 -0.6731  0.1810  0.5934
    5bbb     H5  153   0.150   1.200   1.732 -1.0549  0.1541  0.6568
    5bbb     H6  154   0.033   1.230   1.607 -1.4733 -0.7275  3.2487
    5bbb     C4  155   0.110   1.414   1.689  0.1289  0.2174 -0.3488
    5bbb     H7  156   0.116   1.481   1.602  0.8156  0.0589 -0.4332
    5bbb     H8  157   0.188   1.440   1.762 -0.6229  0.6866  0.2989
    5bbb     C5  158   0.482   1.241   1.509  0.8306 -0.7765  0.1847
    5bbb     H9  159   0.472   1.277   1.407  0.3872 -2.4491 -0.3987
    5bbb    H10  160   0.484   1.132   1.498  0.9510 -0.5312 -3.1674
    5bbb     C6  161   0.063   1.221   1.347  1.0477  0.0994  0.0400
    5bbb    H11  162  -0.020   1.253   1.411 -3.4555 -0.5624 -4.7953
    5bbb    H12  163   0.052   1.112   1.339 -0.3290  0.3915 -3.3572
    5bbb     C7  164  -0.030   1.433   1.758 -0.2613  0.2620  0.6766
    5bbb    H13  165  -0.046   1.366   1.844 -1.3231  0.0114  0.3022
    5bbb    H14  166  -0.111   1.426   1.684 -0.7870  3.0605  0.8886
    5bbb     C8  167   0.003   1.285   1.221 -0.8993 -0.6828  0.3075
    5bbb    H15  168   0.074   1.270   1.138 -0.4025 -1.6179  0.8891
    5bbb    H16  169  -0.017   1.392   1.233 -4.3554 -1.1757 -0.0252
    5bbb     C9  170   0.611   1.289   1.584  0.2278  0.0008  0.0878
    5bbb    H17  171   0.606   1.395   1.614  0.5742 -0.1970  0.8755
    5bbb    H18  172   0.692   1.286   1.510 -0.1770 -1.3076 -0.3124
    5bbb     O1  173  -0.033   1.569   1.798 -0.3824 -0.0316  0.1273
    6ccc     C1  174  -0.801   2.403   0.964  0.2157  1.1039  0.1646
    6ccc     H1  175  -0.819   2.506   0.933  1.4634  0.8448 -1.5894
    6ccc     H2  176  -0.766   2.400   1.067  0.0197 -0.3548  0.2081
    6ccc     C2  177  -0.686   2.356   0.873  0.2244 -0.0741 -0.5744
    6ccc     H3  178  -0.731   2.378   0.775 -1.0184  0.5368  0.1110
    6ccc     H4  179  -0.592   2.409   0.889  0.9248 -1.5588  0.5113
    6ccc     C3  180  -0.663   2.207   0.892  0.1640 -0.6564 -0.4386
    6ccc     H5  181  -0.571   2.178   0.839 -0.5149  0.0676 -2.0490
    6ccc     H6  182  -0.748   2.149   0.854  0.4295 -0.8348 -0.7620
    6ccc     N1  183  -0.935   2.334   0.957  0.5271 -0.0017 -0.8820
    6ccc     H7  184  -1.011   2.390   1.000 -0.8926 -1.4513 -1.3785
    6ccc     H8  185  -0.961   2.331   0.857  1.8649  0.5858 -1.2717
    6ccc     O1  186  -0.625   2.179   1.028  0.1066 -0.7796 -0.3571
    6ccc    H17  187  -0.937   2.239   0.997 -2.7867 -0.1930 -1.1934
    7ccc     C1  188  -1.196   1.609   1.159 -0.2697  0.4454 -0.0136
    7ccc     H1  189  -1.144   1.694   1.205 -1.1781  1.3431 -0.6002
    7ccc     H2  190  -1.177   1.522   1.222  1.5547 -0.5377 -1.8375
    7ccc     C2  191  -1.155   1.574   1.018  0.0790 -0.5165  0.3536
    7ccc     H3  192  -1.236   1.509   0.982 -0.7414  0.7410 -0.1022
    7ccc     H4  193  -1.163   1.666   0.960  0.1302 -0.7692 -0.0608
    7ccc     C3  194  -1.009   1.519   1.013  0.5805 -0.0235 -0.7680
    7ccc     H5  195  -0.964   1.505   0.915  1.9641 -1.9955  0.0802
    7ccc     H6  196  -1.005   1.420   1.060  1.3711  1.0076  1.4904
    7ccc     N1  197  -1.342   1.641   1.177  0.2232  0.4968 -0.2676
    7ccc     H7  198  -1.370   1.620   1.274  0.1234 -0.9193 -0.5720
    7ccc     H8  199  -1.366   1.740   1.160  1.2835  0.7135 -0.5585
    7ccc     O1  200  -0.932   1.609   1.099  0.3393  0.0493 -0.5139
    7ccc    H17  201  -1.401   1.581   1.117  0.2903 -0.9936  1.1166
    8ccc     C1  202  -0.287   1.359   2.144  0.2917  0.5533 -0.4972
    8ccc     H1  203  -0.196   1.362   2.084  0.8414  0.2870  0.3183
    8ccc     H2  204  -0.354   1.444   2.129 -4.2041 -2.7851 -1.8024
    8ccc     C2  205  -0.257   1.331   2.297  0.4995  0.4796  0.0955
    8ccc     H3  206  -0.345   1.317   2.361  0.9912  0.5125  0.7952
    8ccc     H4  207  -0.192   1.245   2.316 -0.6707 -0.3230  0.6330
    8ccc     C3  208  -0.182   1.451   2.369  0.7114  0.0588 -0.4681
    8ccc     H5  209  -0.165   1.419   2.473  2.7576 -0.3754 -0.9043
    8ccc     H6  210  -0.237   1.546   2.370  0.9477  0.1956 -0.2886
    8ccc     N1  211  -0.363   1.238   2.097 -0.4201  0.3480 -0.0658
    8ccc     H7  212  -0.312   1.150   2.112 -1.0695 -0.4993 -2.4648
    8ccc     H8  213  -0.442   1.227   2.163  1.4027  1.9264  2.6058
    8ccc     O1  214  -0.062   1.467   2.301 -0.5314  0.1670  0.3908
    8ccc    H17  215  -0.406   1.245   2.004 -0.2468 -3.3628 -0.5507
    9ccc     C1  216   0.562   0.831   1.685  0.2393  0.4780  0.3971
    9ccc     H1  217   0.657   0.881   1.705  0.6403  0.1970 -0.7339
    9ccc     H2  218   0.545   0.832   1.578 -2.3377  0.2251  0.7364
    9ccc     C2  219   0.446   0.904   1.748 -0.5023 -0.4273 -0.6586
    9ccc     H3  220   0.441   1.004   1.705 -0.5082 -0.9081 -1.8223
    9ccc     H4  221   0.355   0.847   1.724 -0.4968 -0.4559 -0.6137
    9ccc     C3  222   0.462   0.913   1.902 -0.0220  0.6549 -0.3906
    9ccc     H5  223   0.569   0.926   1.920 -0.3797  3.3902  0.1577
    9ccc     H6  224   0.430   0.816   1.942 -0.0451  0.0696 -1.7695
    9ccc     N1  225   0.586   0.686   1.721  0.5217  0.6412  0.1815
    9ccc     H7  226   0.612   0.675   1.821  2.1464  3.2353  0.1512
    9ccc     H8  227   0.512   0.623   1.687  0.6812  0.7948 -0.4629
    9ccc     O1  228   0.380   1.013   1.959 -0.0772 -0.4892  0.5474
    9ccc    H17  229   0.666   0.653   1.665 -0.5301 -0.3625 -0.7784
   10ccc     C1  230   0.314   2.790   1.448  0.4975  0.0540 -0.2226
   10ccc     H1  231   0.408   2.735   1.444 -0.4300 -1.5479 -0.7391
   10ccc     H2  232   0.309   2.820   1.553 -1.4948 -0.1229 -0.2360
   10ccc     C2  233   0.188   2.710   1.409  0.8532  0.4190  0.0480
   10ccc     H3  234   0.101   2.766   1.444 -0.7238 -3.1440  2.3438
   10ccc     H4  235   0.179   2.704   1.299  1.3878  0.1000  0.0181
   10ccc     C3  236   0.172   2.569   1.466 -0.6088  0.1495 -0.3793
   10ccc     H5  237   0.101   2.520   1.398 -0.7503  1.6641 -1.3714
   10ccc     H6  238   0.149   2.582   1.572 -0.0587  1.2564 -0.3825
   10ccc     N1  239   0.335   2.909   1.365  0.2133  0.4435  0.1470
   10ccc     H7  240   0.436   2.928   1.374  0.4003 -0.7911  0.8461
   10ccc     H8  241   0.302   2.878   1.272 -0.8688  0.3822  0.5395
   10ccc     O1  242   0.296   2.507   1.458 -0.0743 -1.0813 -0.1112
   10ccc    H17  243   0.277   2.986   1.401  1.4374  0.8339  1.3520
   11ccc     C1  244   0.794   2.843   1.640 -0.0170  0.6534 -0.5315
   11ccc     H1  245   0.705   2.851   1.703 -0.2615 -0.7935 -0.6523
   11ccc     H2  246   0.771   2.761   1.571 -2.3648 -1.1711  2.1834
   11ccc     C2  247   0.914   2.818   1.735 -0.8366  0.5394  0.1217
   11ccc     H3  248   1.012   2.823   1.686  0.0707  1.2731  1.9276
   11ccc     H4  249   0.926   2.901   1.805  1.2230 -0.6933  1.3481
   11ccc     C3  250   0.916   2.689   1.822 -0.3159  0.0369  0.2705
   11ccc     H5  251   0.835   2.693   1.895 -0.7215  0.4597 -0.1888
   11ccc     H6  252   1.007   2.688   1.883  0.3449 -0.8866 -0.6910
   11ccc     N1  253   0.807   2.968   1.567 -0.4951  0.1026  0.3354
   11ccc     H7  254   0.847   2.959   1.472  1.5784  1.4554  0.9886
   11ccc     H8  255   0.720   3.022   1.555  0.1252  0.9488 -0.6114
   11ccc     O1  256   0.905   2.572   1.740  0.3359 -0.7878  0.3343
   11ccc    H17  257   0.872   3.035   1.612 -0.3559  0.5155 -0.4524
   12ccc     C1  258  -0.254   0.998   1.114  0.3083  0.3594  0.6093
   12ccc     H1  259  -0.338   0.928   1.104  1.3456 -0.7411 -0.9170
   12ccc     H2  260  -0.228   1.021   1.217  0.5049  2.0979  0.1885
   12ccc     C2  261  -0.293   1.137   1.054 -0.3882  1.1100 -0.0567
   12ccc     H3  262  -0.322   1.132   0.949  1.0364 -0.9277 -0.4224
   12ccc     H4  263  -0.375   1.185   1.109 -1.2613 -0.9792  0.5943
   12ccc     C3  264  -0.183   1.240   1.071 -0.0691  0.6973 -0.2981
   12ccc     H5  265  -0.222   1.339   1.042  0.6271  0.3992 -2.4304
   12ccc     H6  266  -0.105   1.217   0.998  0.4720 -1.1816  0.8007
   12ccc     N1  267  -0.141   0.922   1.041 -0.3218  0.0638 -0.2510
   12ccc     H7  268  -0.166   0.876   0.952  0.2238 -1.0538  0.1510
   12ccc     H8  269  -0.065   0.987   1.016 -0.8903  0.0423 -2.2346
   12ccc     O1  270  -0.123   1.228   1.202  0.1230 -0.3459  0.0139
   12ccc    H17  271  -0.100   0.840   1.089 -1.4974 -0.8216 -0.7018
   13ccc     C1  272   0.895   1.107   1.655 -0.2336 -0.1437 -0.3622
   13ccc     H1  273   0.871   1.165   1.566  1.3460 -0.0099 -0.7307
   13ccc     H2  274   0.838   1.014   1.647  0.9843 -0.9524  0.1604
   13ccc     C2  275   0.862   1.193   1.780  0.1052 -0.4560 -0.2006
   13ccc     H3  276   0.888   1.125   1.862  1.2825  1.8346  1.4161
   13ccc     H4  277   0.934   1.275   1.784 -0.0305 -0.3037 -0.7694
   13ccc     C3  278   0.724   1.249   1.798  0.7198  0.2282 -0.5181
   13ccc     H5  279   0.720   1.358   1.809  0.9141  0.1225  0.7430
   13ccc     H6  280   0.680   1.212   1.891 -0.3813  0.8876 -0.7519
   13ccc     N1  281   1.044   1.082   1.638 -0.1262  0.1433  0.1176
   13ccc     H7  282   1.065   1.019   1.560 -0.5243  0.5650 -0.3325
   13ccc     H8  283   1.095   1.171   1.628 -1.0508  0.6934  0.1854
   13ccc     O1  284   0.635   1.199   1.693 -0.2076 -0.4464 -0.0962
   13ccc    H17  285   1.090   1.036   1.718  0.8016 -1.6794 -1.3777
   14SOL     OW  286   1.540   0.666   2.827  0.3897 -0.0159 -0.3749
   14SOL    HW1  287   1.609   0.653   2.892 -1.3562  0.4564  1.7181
   14SOL    HW2  288   1.575   0.731   2.766  0.7902  2.5774  2.3774
   15SOL     OW  289   5.468   3.420   1.433  0.1978 -0.3507  0.1764
   15SOL    HW1  290   5.382   3.456   1.453 -0.2000 -2.0880  1.8864
   15SOL    HW2  291   5.488   3.453   1.346 -1.4613  1.4095  0.3954
   16SOL     OW  292   5.055   2.501   0.272  0.6100 -0.1415 -0.6204
   16SOL    HW1  293   5.031   2.538   0.187  0.7615  0.3919 -0.4351
   16SOL    HW2  294   4.975   2.459   0.304  0.5871 -0.4524 -1.0804
   17SOL     OW  295   2.825   1.479   1.997 -0.1425  0.0533  0.5242
   17SOL    HW1  296   2.876   1.536   1.940  2.0772 -2.9161 -0.7399
   17SOL    HW2  297   2.750   1.451   1.944 -1.3772  1.8526  1.2351
   18SOL     OW  298   4.221   4.569   0.272 -0.2150 -0.6631 -0.0408
   18SOL    HW1  299   4.265   4.527   0.346 -0.7786  0.1586  0.7819
   18SOL    HW2  300   4.289   4.624   0.233  0.6963 -2.6805 -1.4779
   19SOL     OW  301   3.288   4.128   4.922  0.0004 -0.7481 -0.2393
   19SOL    HW1  302   3.206   4.091   4.889  0.3972 -1.7314 -0.1559
   19SOL    HW2  303   3.266   4.163   5.008 -0.6381  0.2617 -0.7855
   20SOL     OW  304   1.227   5.313   5.850 -0.2532 -0.2008  0.9054
   20SOL    HW1  305   1.266   5.226   5.863  0.1124  0.0054  1.1838
   20SOL    HW2  306   1.294   5.374   5.879  1.4977  0.4420 -3.6260
   21SOL     OW  307   1.699   4.749   6.036 -0.2005  0.2216  0.0377
   21SOL    HW1  308   1.698   4.842   6.058 -1.0148  0.5370 -1.1917
   21SOL    HW2  309   1.674   4.746   5.943 -1.2197 -1.2882  0.3161
   22SOL     OW  310   0.975   1.051   4.858  0.5575  0.0424 -0.2171
   22SOL    HW1  311   0.886   1.068   4.828  1.0089  0.8412 -1.1752
   22SOL    HW2  312   1.021   1.133   4.842  1.8739 -0.8634 -1.3227
   23SOL     OW  313   2.929   0.732   4.951  0.4882  0.1787 -0.0303
   23SOL    HW1  314   2.868   0.806   4.957  0.5264  0.2650 -0.6802
   23SOL    HW2  315   2.989   0.745   5.025 -0.7024 -0.3041  1.0569
   24SOL     OW  316   4.625   6.022   1.850  0.4391  0.1463 -0.0298
   24SOL    HW1  317   4.663   5.934   1.860  1.7089  0.6017 -0.6177
   24SOL    HW2  318   4.656   6.070   1.927  1.6331  0.6988 -0.8200
   25SOL     OW  319   4.710   2.852   0.529  0.3027  0.1667 -0.2898
   25SOL    HW1  320   4.686   2.785   0.593 -0.2467  0.8073  0.1995
   25SOL    HW2  321   4.724   2.804   0.447 -0.0994 -0.5412  0.0460
   26SOL     OW  322   5.527   1.231   3.015  0.3085 -0.1657  0.1631
   26SOL    HW1  323   5.525   1.270   3.102  0.4024  1.6415 -0.6140
   26SOL    HW2  324   5.469   1.154   3.022  0.3125 -0.0457  1.7972
   27SOL     OW  325   5.653   2.749   0.376  0.1332  0.1665  0.0882
   27SOL    HW1  326   5.605   2.816   0.327  0.6759  1.0696  0.7542
   27SOL    HW2  327   5.587   2.709   0.432 -0.2795 -0.1599 -0.6122
   28SOL     OW  328   0.197   5.232   0.551 -0.0952 -0.0188  0.4362
   28SOL    HW1  329   0.103   5.247   0.548 -0.1195 -0.2554 -0.0075
   28SOL    HW2  330   0.234   5.318   0.573 -0.5810 -0.5141  3.7181
   29SOL     OW  331   3.198   0.702   0.593 -0.5903 -0.7396  0.0639
   29SOL    HW1  332   3.157   0.732   0.675 -1.0980 -1.6194  0.1547
   29SOL    HW2  333   3.285   0.672   0.619 -0.1632  0.4026  0.0084
   30SOL     OW  334   1.026   4.998   5.365 -0.2410 -0.5685  0.1472
   30SOL    HW1  335   1.105   4.978   5.415 -1.8530 -0.1965  3.0972
   30SOL    HW2  336   1.029   4.939   5.290  3.0752 -0.1406 -0.2119
   31SOL     OW  337   4.303   2.229   0.900  0.0258  0.5599 -0.0405
   31SOL    HW1  338   4.270   2.316   0.925  1.9191  0.7473  2.1431
   31SOL    HW2  339   4.321   2.187   0.984 -0.0312 -1.6513 -1.0898
   32SOL     OW  340   1.869   1.835   3.882 -0.3512 -0.0099 -0.1522
   32SOL    HW1  341   1.946   1.800   3.927 -0.5019 -1.9116 -1.2779
   32SOL    HW2  342   1.837   1.762   3.829 -0.4506  1.9223 -2.9803
   33SOL     OW  343   2.119   1.938   5.768 -0.3943 -0.5966  0.2003
   33SOL    HW1  344   2.075   2.001   5.825 -3.2561  0.2258 -2.6025
   33SOL    HW2  345   2.165   1.992   5.704 -0.7646 -1.3624 -0.7360
   34SOL     OW  346   2.043   2.060   5.386  0.4304 -0.1387 -0.4427
   34SOL    HW1  347   1.981   2.036   5.317 -0.1540 -0.1398  0.0738
   34SOL    HW2  348   1.998   2.130   5.434 -0.1333 -1.6197  1.2936
   35SOL     OW  349   0.408   4.067   3.050 -0.2670  0.5911 -0.7856
   35SOL    HW1  350   0.439   4.027   3.131 -0.0195  1.5422 -0.3928
   35SOL    HW2  351   0.438   4.009   2.980  1.5270  0.9457 -0.3572
   36SOL     OW  352   5.209   1.987   4.512  0.0616  0.3793 -0.2293
   36SOL    HW1  353   5.268   1.922   4.474  2.4735  2.6146 -0.5665
   36SOL    HW2  354   5.125   1.972   4.467 -0.5071 -4.2936  1.7796
   37SOL     OW  355   4.719   1.350   0.242 -0.0883  0.4494 -0.2420
   37SOL    HW1  356   4.732   1.336   0.148 -0.0063 -1.0027 -0.0370
   37SOL    HW2  357   4.802   1.385   0.273  0.8765 -1.7135 -0.2454
   38SOL     OW  358   5.223   2.799   1.587  0.1051 -0.2586 -0.3645
   38SOL    HW1  359   5.156   2.860   1.554 -2.1056 -1.8590  0.9279
   38SOL    HW2  360   5.194   2.777   1.675  1.0900 -2.7911 -0.5981
   39SOL     OW  361   4.326   4.627   2.484  0.0580 -0.0190 -0.0500
   39SOL    HW1  362   4.258   4.601   2.547  0.2523 -0.0776  0.1371
   39SOL    HW2  363   4.377   4.693   2.530  0.7083 -0.6559  0.1646
   40SOL     OW  364   0.754   2.987   3.046  0.0487 -0.1988 -0.3078
   40SOL    HW1  365   0.669   2.979   3.089  1.0303  1.7890  2.3277
   40SOL    HW2  366   0.734   3.021   2.959 -1.8836  3.6613  1.3611
   41SOL     OW  367   0.680   5.868   1.639 -0.1855 -0.5042  0.1441
   41SOL    HW1  368   0.713   5.811   1.569  2.1033  1.8849 -0.8866
   41SOL    HW2  369   0.715   5.830   1.720  4.1194  0.9546 -0.7479
   42SOL     OW  370   3.584   5.022   5.429 -0.6634 -0.2015  0.1257
   42SOL    HW1  371   3.668   4.975   5.426 -0.8901 -0.5632 -1.8265
   42SOL    HW2  372   3.547   5.011   5.341 -1.2934  2.6368 -0.0567
   43SOL     OW  373   5.490   4.034   1.743 -0.6595 -0.1223  0.1932
   43SOL    HW1  374   5.501   3.943   1.769  1.2606 -0.1303 -0.4410
   43SOL    HW2  375   5.431   4.071   1.809 -3.1873 -2.2564 -0.6978
   44SOL     OW  376   2.441   3.645   3.678  0.4615 -0.2549  0.6738
   44SOL    HW1  377   2.448   3.607   3.765 -0.1919  1.1152  1.3557
   44SOL    HW2  378   2.418   3.571   3.621 -0.0530 -1.0065  1.8222
   45SOL     OW  379   2.911   3.480   2.246 -0.5688  0.3276  0.3517
   45SOL    HW1  380   2.826   3.487   2.288 -0.3758  0.2915  0.7511
   45SOL    HW2  381   2.972   3.462   2.317 -0.0124  1.7401  0.2819
   46SOL     OW  382   5.502   5.931   0.418 -0.7014 -0.0894 -0.1419
   46SOL    HW1  383   5.424   5.932   0.362 -1.8898 -0.2327  1.4461
   46SOL    HW2  384   5.525   5.838   0.425  0.4502  0.0357 -1.6546
   47SOL     OW  385   5.323   2.898   3.045 -0.1160 -0.1687  0.5503
   47SOL    HW1  386   5.348   2.985   3.014  1.0276 -1.0687 -1.1889
   47SOL    HW2  387   5.365   2.891   3.131  0.9356  0.4793  0.1087
   48SOL     OW  388   6.019   3.275   0.433 -0.0131  0.2943 -0.5916
   48SOL    HW1  389   6.025   3.339   0.504  2.6096 -0.1292 -0.3124
   48SOL    HW2  390   6.016   3.190   0.477 -0.9386  0.1106 -0.9884
   49SOL     OW  391   1.875   0.810   0.651  0.3064  0.6442  0.2161
   49SOL    HW1  392   1.829   0.797   0.734 -1.6679  0.4814 -0.8232
   49SOL    HW2  393   1.823   0.761   0.587  2.3277 -0.0756 -0.9756
   50SOL     OW  394   1.084   6.009   1.363 -0.3615  0.3105  0.2587
   50SOL    HW1  395   1.036   6.074   1.414  0.0923  1.0594 -0.2420
   50SOL    HW2  396   1.162   5.990   1.414 -0.9634 -0.5864  0.8694
   51SOL     OW  397   2.268   2.158   6.045  0.1330 -0.0764  0.5138
   51SOL    HW1  398   2.190   2.134   5.996  1.0578  0.1072 -1.1212
   51SOL    HW2  399   2.261   2.108   6.127 -1.5917 -0.1783  0.3380
   52SOL     OW  400   3.401   0.681   2.564  0.2314  0.2864 -0.6126
   52SOL    HW1  401   3.371   0.730   2.641  0.8511  0.2962 -0.3673
   52SOL    HW2  402   3.415   0.592   2.597  0.9897  0.4078 -0.5846
   53SOL     OW  403   1.233   2.897   1.506  0.1367  0.2372 -0.6979
   53SOL    HW1  404   1.263   2.845   1.431 -2.7428 -0.0549 -1.7691
   53SOL    HW2  405   1.158   2.947   1.472  0.4822  2.2778  1.2896
   54SOL     OW  406   2.656   2.065   0.557  0.4319  0.4202  0.2395
   54SOL    HW1  407   2.656   2.159   0.576 -0.0768  0.2927  0.9397
   54SOL    HW2  408   2.693   2.025   0.636 -0.3237 -0.0293  0.3802
   55SOL     OW  409   1.713   2.185   5.243  0.3934  0.4671 -0.5233
   55SOL    HW1  410   1.719   2.092   5.263  2.1326  0.2506 -1.7606
   55SOL    HW2  411   1.683   2.188   5.152  0.0459  1.1173 -0.3921
   56SOL     OW  412   2.614   3.187   4.745 -0.3476 -0.1631  0.0956
   56SOL    HW1  413   2.668   3.261   4.719 -1.8661  1.4022  1.1515
   56SOL    HW2  414   2.641   3.168   4.835 -0.6197 -0.2605  0.1575
   57SOL     OW  415   1.586   1.636   1.307 -0.5018 -0.3837  0.5348
   57SOL    HW1  416   1.669   1.619   1.353 -0.4368 -0.7878  0.2813
   57SOL    HW2  417   1.551   1.715   1.347  0.4172  0.2689  0.0887
   58SOL     OW  418   1.032   1.353   3.645  0.3693  0.5020  0.4190
   58SOL    HW1  419   0.965   1.321   3.586 -0.6821  0.8653  1.3850
   58SOL    HW2  420   1.074   1.273   3.679 -1.2452  0.1196  1.6781
   59SOL     OW  421   1.657   1.484   2.202  0.3314 -0.1629  0.0544
   59SOL    HW1  422   1.697   1.497   2.288  0.4352 -0.7570  0.1023
   59SOL    HW2  423   1.580   1.429   2.219 -0.0039  0.2347 -0.1531
   60SOL     OW  424   0.291   5.510   0.730  0.0664  0.0995  0.3109
   60SOL    HW1  425   0.232   5.566   0.782  1.1487 -0.0392  1.7586
   60SOL    HW2  426   0.375   5.515   0.776  0.9042 -0.5799 -1.0837
   61SOL     OW  427   5.663   0.382   3.262 -0.0041  0.4131 -0.8552
   61SOL    HW1  428   5.650   0.297   3.304  1.9695  0.9405  0.9783
   61SOL    HW2  429   5.703   0.361   3.177 -1.7998 -0.5506 -1.5152
   62SOL     OW  430   3.226   4.928   0.358  0.6486  0.6999  0.4390
   62SOL    HW1  431   3.184   4.843   0.375 -1.6766  1.5960 -0.3931
   62SOL    HW2  432   3.314   4.905   0.327 -0.0295 -1.4454 -0.0967
   63SOL     OW  433   2.681   4.973   0.637 -0.4755  0.3094  0.1854
   63SOL    HW1  434   2.698   4.883   0.609  1.7483  0.5311  0.6637
   63SOL    HW2  435   2.618   5.006   0.573  0.7490 -0.7366 -1.6566
   64SOL     OW  436   2.516   2.932   4.266  1.0272 -0.2704 -0.7668
   64SOL    HW1  437   2.605   2.947   4.296  1.1188 -1.5087 -0.3377
   64SOL    HW2  438   2.474   3.018   4.268  2.1246  0.2692 -0.6889
   65SOL     OW  439   1.190   2.961   0.856 -0.6501  0.3536  0.5681
   65SOL    HW1  440   1.177   3.046   0.815  2.1482 -0.0518 -1.4638
   65SOL    HW2  441   1.223   2.980   0.943 -0.0256  1.3575  0.1214
   66SOL     OW  442   4.841   5.188   3.194  0.1448  0.0655 -0.5206
   66SOL    HW1  443   4.898   5.116   3.222  0.6246  1.1291  1.3821
   66SOL    HW2  444   4.757   5.145   3.175 -0.5365 -0.8015  3.5190
   67SOL     OW  445   5.316   4.032   5.491 -0.3563  0.3158 -0.2082
   67SOL    HW1  446   5.375   3.969   5.448  0.4225  0.5096  0.5372
   67SOL    HW2  447   5.259   4.063   5.421  1.2741  1.0842 -1.2853
   68SOL     OW  448   4.706   0.994   1.033 -0.7412  0.1718  0.1796
   68SOL    HW1  449   4.668   1.010   0.947 -0.7383  0.0999  0.1651
   68SOL    HW2  450   4.649   0.928   1.073 -0.3585 -0.2944 -0.0301
   69SOL     OW  451   1.933   1.451   3.353  0.4938  0.0366  0.4866
   69SOL    HW1  452   1.891   1.537   3.360  1.5033  0.4954  1.2342
   69SOL    HW2  453   2.016   1.469   3.308  0.1988 -0.7420 -0.3815
   70SOL     OW  454   6.109   4.021   5.750  0.3859  0.1644 -0.1440
   70SOL    HW1  455   6.057   4.056   5.823  0.2969 -1.0026  0.3764
   70SOL    HW2  456   6.198   4.013   5.786  0.1772 -1.1651  0.1068
   71SOL     OW  457   5.025   0.832   1.898 -0.1543 -0.2521  0.4919
   71SOL    HW1  458   5.034   0.918   1.940 -0.3107  0.1964 -0.3754
   71SOL    HW2  459   4.984   0.851   1.814  1.0968 -1.0102 -0.3099
   72SOL     OW  460   4.188   4.453   0.608 -0.1540  0.6119 -0.1434
   72SOL    HW1  461   4.142   4.397   0.545 -0.3225 -0.6756  1.0620
   72SOL    HW2  462   4.280   4.443   0.587 -0.1652 -0.3577  0.2140
   73SOL     OW  463   0.631   2.380   3.862 -0.5150  0.5050  0.0916
   73SOL    HW1  464   0.713   2.342   3.831 -0.4693 -0.4499  1.3050
   73SOL    HW2  465   0.563   2.332   3.815 -0.4059  0.9929 -0.5840
   74SOL     OW  466   0.901   2.170   1.140  0.3832 -0.1772  0.5186
   74SOL    HW1  467   0.994   2.154   1.126  1.1724  3.4378  0.7259
   74SOL    HW2  468   0.894   2.198   1.231 -0.9234 -0.3334  0.4947
   75SOL     OW  469   5.850   2.287   5.392  0.2435 -0.0725  0.6454
   75SOL    HW1  470   5.886   2.371   5.418  0.3159  0.3206 -0.6676
   75SOL    HW2  471   5.920   2.244   5.342 -0.3484 -0.2052 -0.0936
   76SOL     OW  472   4.593   5.562   4.632 -0.3769 -0.2825 -0.4151
   76SOL    HW1  473   4.520   5.524   4.681 -0.2447 -0.1531 -0.1125
   76SOL    HW2  474   4.559   5.577   4.544 -0.6040 -0.5612 -0.3744
   77SOL     OW  475   1.558   4.016   2.359  0.2186 -0.7118 -0.0177
   77SOL    HW1  476   1.549   3.933   2.312  1.6291 -1.3381  0.7507
   77SOL    HW2  477   1.629   4.001   2.421  0.1631  0.9224  0.4973
   78SOL     OW  478   5.882   2.973   0.760  0.0762  0.1424 -0.9033
   78SOL    HW1  479   5.823   3.028   0.812  0.7698  1.3826 -1.4032
   78SOL    HW2  480   5.835   2.890   0.753 -0.0700 -0.1017  1.6728
   79SOL     OW  481   2.128   1.804   1.053 -0.3960  0.7685  0.4489
   79SOL    HW1  482   2.053   1.778   1.105 -1.2357  3.0795  0.5328
   79SOL    HW2  483   2.095   1.810   0.963 -0.6171  2.6492  0.6128
   80SOL     OW  484   1.841   2.280   4.370 -0.3349  0.2098  0.0524
   80SOL    HW1  485   1.887   2.196   4.368  1.0947  0.9003  1.3832
   80SOL    HW2  486   1.768   2.267   4.430  0.1280  0.0303  0.5790
   81SOL     OW  487   5.211   0.719   4.256 -0.0618  0.5407  0.6588
   81SOL    HW1  488   5.165   0.788   4.209  1.0408  0.6641 -0.2883
   81SOL    HW2  489   5.239   0.658   4.187 -1.1692 -0.9521  1.4960
   82SOL     OW  490   4.365   0.415   5.448  0.2590  1.0274 -0.5151
   82SOL    HW1  491   4.330   0.492   5.491  1.1256  0.2852  1.6445
   82SOL    HW2  492   4.306   0.344   5.472  1.3188  0.4112  0.3700
   83SOL     OW  493   2.054   5.948   3.126  0.1227  0.6949 -0.1641
   83SOL    HW1  494   2.117   5.895   3.077 -3.1235 -1.5198 -2.4005
   83SOL    HW2  495   2.047   6.029   3.076  0.2096  0.3563 -0.7427
   84SOL     OW  496   4.437   0.337   5.852  0.4286  0.3522 -0.0932
   84SOL    HW1  497   4.343   0.332   5.835  0.2910 -1.5908  0.9396
   84SOL    HW2  498   4.451   0.278   5.926  2.1603  2.3331  1.2440
   85SOL     OW  499   3.020   1.305   3.789 -0.5990 -0.3770  0.1308
   85SOL    HW1  500   3.010   1.214   3.816  0.6477 -0.0482  1.9053
   85SOL    HW2  501   3.054   1.349   3.867  0.6696  1.2215 -1.2497
   86SOL     OW  502   1.544   1.919   3.523 -0.6280 -0.0378  0.3302
   86SOL    HW1  503   1.581   1.835   3.497 -0.0459  0.4471 -0.4675
   86SOL    HW2  504   1.620   1.976   3.534 -0.9944  0.2861  1.2474
   87SOL     OW  505   1.753   3.681   1.407 -0.4474  0.4038 -0.4731
   87SOL    HW1  506   1.800   3.681   1.324  0.7795 -0.0691  0.2106
   87SOL    HW2  507   1.759   3.591   1.439  0.9746  1.0321  1.1627
   88SOL     OW  508   3.237   6.097   0.907 -0.1086  0.5311  0.4137
   88SOL    HW1  509   3.238   6.007   0.940  2.3515  0.5945  0.6917
   88SOL    HW2  510   3.304   6.142   0.959  1.7434  1.4229 -2.4978
   89SOL     OW  511   4.440   4.816   4.308 -0.1307  0.2301  0.2976
   89SOL    HW1  512   4.424   4.756   4.380 -2.0056 -1.4167 -1.3703
   89SOL    HW2  513   4.494   4.767   4.246  4.7060  2.8199  1.9481
   90SOL     OW  514   5.620   1.081   5.026  0.2639  0.0774  0.1195
   90SOL    HW1  515   5.546   1.107   5.080  0.2555  1.2032 -0.4070
   90SOL    HW2  516   5.585   1.081   4.936  0.3850 -1.3448  0.0524
   91SOL     OW  517   4.824   3.732   5.216  0.2277  0.5465 -0.2772
   91SOL    HW1  518   4.820   3.801   5.282 -1.3924  1.1315 -0.9589
   91SOL    HW2  519   4.743   3.683   5.227  0.4517 -0.0343 -1.1198
   92SOL     OW  520   0.582   3.778   1.133  0.5128 -0.4172 -0.6602
   92SOL    HW1  521   0.622   3.713   1.191  0.1178 -0.6488 -0.6401
   92SOL    HW2  522   0.654   3.809   1.078  0.9813  0.1189  0.2309
   93SOL     OW  523   0.359   1.306   0.676  0.6958  0.1309  0.0909
   93SOL    HW1  524   0.326   1.299   0.766 -1.9078  2.0878 -0.5991
   93SOL    HW2  525   0.314   1.235   0.629  1.0433 -0.0621  0.0441
   94SOL     OW  526   2.042   5.060   0.165 -0.0622  0.3534 -0.2636
   94SOL    HW1  527   1.956   5.060   0.207 -0.2961 -2.4868 -0.5275
   94SOL    HW2  528   2.025   5.025   0.077  1.4532 -1.1932  0.0082
   95SOL     OW  529   1.325   5.461   5.151  0.5879 -0.2530  0.4144
   95SOL    HW1  530   1.249   5.403   5.152 -0.0317  0.4553 -1.3324
   95SOL    HW2  531   1.357   5.459   5.241 -1.1649 -0.9938  1.0848
   96SOL     OW  532   2.413   5.499   3.032 -0.0606  0.1604 -0.0155
   96SOL    HW1  533   2.411   5.410   3.067  1.6957  0.1745  0.2539
   96SOL    HW2  534   2.461   5.490   2.949  1.3825  1.0110  0.6763
   97SOL     OW  535   5.603   6.027   2.713 -0.0886  0.4739  0.9624
   97SOL    HW1  536   5.681   6.073   2.681 -1.8083  2.3303 -0.8248
   97SOL    HW2  537   5.573   5.976   2.638  0.6690 -2.2216  2.3399
   98SOL     OW  538   0.265   1.745   3.999  0.0114 -0.4786 -1.0938
   98SOL    HW1  539   0.173   1.764   4.016  0.3773 -1.4917  3.7042
   98SOL    HW2  540   0.309   1.830   4.008 -0.1870 -0.5005  0.3374
   99SOL     OW  541   2.112   5.157   0.465  0.2566  0.2639 -0.4254
   99SOL    HW1  542   2.142   5.082   0.414 -0.0062 -0.4838  0.4849
   99SOL    HW2  543   2.073   5.118   0.543 -0.2280  1.3416 -0.1153
  100SOL     OW  544   0.785   3.648   3.480 -0.1633  0.3190 -0.1416
  100SOL    HW1  545   0.798   3.608   3.566 -2.4605 -1.7246 -0.6148
  100SOL    HW2  546   0.723   3.720   3.496  0.0851  0.4956  0.0288
  101SOL     OW  547   4.506   5.259   2.219  0.0805 -0.3408  0.0856
  101SOL    HW1  548   4.473   5.186   2.166 -0.2592 -0.3046  0.2434
  101SOL    HW2  549   4.434   5.322   2.221  0.2837 -0.1077  0.1528
  102SOL     OW  550   5.904   1.303   3.953 -0.0317 -0.2383  0.2264
  102SOL    HW1  551   5.816   1.340   3.962  0.9840  2.4044  0.2221
  102SOL    HW2  552   5.910   1.274   3.862 -1.2028 -1.4315  0.5017
  103SOL     OW  553   1.122   1.992   4.807  0.0888  0.1345  0.3674
  103SOL    HW1  554   1.138   1.902   4.838  0.5664  0.6025  1.5621
  103SOL    HW2  555   1.096   1.982   4.716 -0.1784 -1.2432  0.5719
  104SOL     OW  556   2.139   2.806   1.483 -0.3375  0.6449 -0.2924
  104SOL    HW1  557   2.223   2.764   1.504  0.1517  1.1320 -1.2261
  104SOL    HW2  558   2.076   2.735   1.485  0.4272 -0.0961 -1.5465
  105SOL     OW  559   1.553   4.294   4.921 -0.1548 -0.0241 -0.0139
  105SOL    HW1  560   1.595   4.371   4.961  0.2902  1.1354 -2.4938
  105SOL    HW2  561   1.484   4.270   4.982 -0.4643  2.5224  0.7582
  106SOL     OW  562   1.013   2.310   4.637 -0.3753 -0.0038  0.7958
  106SOL    HW1  563   1.098   2.308   4.681 -1.1075 -0.5530  2.2675
  106SOL    HW2  564   0.955   2.259   4.694 -2.0622  1.6151  0.6187
  107SOL     OW  565   1.688   5.667   1.662 -0.1052  0.0199  0.6653
  107SOL    HW1  566   1.771   5.711   1.675 -0.3850  0.3175  1.4705
  107SOL    HW2  567   1.709   5.594   1.603  0.7516 -0.0228  1.0110
  108SOL     OW  568   1.295   0.949   3.937 -0.0862 -0.2258  0.0018
  108SOL    HW1  569   1.332   1.006   4.004  0.1477  0.3172 -0.5814
  108SOL    HW2  570   1.200   0.957   3.947 -0.0894  1.4856 -1.0703
  109SOL     OW  571   5.462   4.989   0.877 -0.5981 -0.2929 -0.5288
  109SOL    HW1  572   5.373   5.014   0.852 -0.9964 -1.1887 -0.0692
  109SOL    HW2  573   5.452   4.902   0.916  0.4549 -0.3212 -0.2948
  110SOL     OW  574   5.882   1.865   5.131 -0.2872  0.2012 -0.2550
  110SOL    HW1  575   5.809   1.857   5.193 -0.5066  1.6737 -0.2909
  110SOL    HW2  576   5.852   1.817   5.054 -1.3068  0.9089 -0.3258
  111SOL     OW  577   1.316   4.024   2.030 -0.1297 -0.3175  0.4856
  111SOL    HW1  578   1.370   4.017   1.952 -0.4345  0.4509  0.2017
  111SOL    HW2  579   1.359   4.090   2.084 -0.0977 -0.6119  0.8245
  112SOL     OW  580   3.006   1.735   5.430  0.0206  0.1379  0.9227
  112SOL    HW1  581   3.041   1.821   5.454 -1.4499  0.9364  0.2775
  112SOL    HW2  582   3.030   1.678   5.504 -0.6606  1.5424  2.2726
  113SOL     OW  583   5.409   5.738   0.090 -0.5335 -0.4243  0.1158
  113SOL    HW1  584   5.504   5.735   0.102 -0.5319 -1.7556 -0.1254
  113SOL    HW2  585   5.379   5.801   0.156  0.4992 -0.0053  0.2150
  114SOL     OW  586   0.581   2.260   0.860 -0.2699  0.0274  0.0632
  114SOL    HW1  587   0.568   2.185   0.917 -1.5091 -0.2186 -0.5010
  114SOL    HW2  588   0.674   2.279   0.865 -0.1758 -0.6867  1.2805
  115SOL     OW  589   1.950   3.976   5.468 -0.1717 -0.0926 -0.6671
  115SOL    HW1  590   1.951   3.986   5.563  0.3311 -0.5909 -0.6160
  115SOL    HW2  591   1.985   3.889   5.452 -0.3451 -0.0524 -1.3069
  116SOL     OW  592   4.431   5.913   0.345 -0.2225 -0.1467 -0.3635
  116SOL    HW1  593   4.339   5.902   0.323 -0.6873  0.6733  1.0364
  116SOL    HW2  594   4.440   5.873   0.431  1.0472 -1.4053 -1.0459
  117SOL     OW  595   4.172   0.288   3.696  0.4974  0.5179  0.2316
  117SOL    HW1  596   4.215   0.316   3.778 -0.0175  0.4561  0.5232
  117SOL    HW2  597   4.178   0.193   3.697 -1.3580  0.3796  1.2264
  118SOL     OW  598   2.383   1.868   5.104  0.6345 -0.6114 -0.3927
  118SOL    HW1  599   2.442   1.910   5.042 -1.3064 -0.0030 -1.9400
  118SOL    HW2  600   2.326   1.939   5.135 -0.5049 -1.4776 -0.4280
  119SOL     OW  601   2.729   3.529   0.957 -0.9033  0.1452 -0.2929
  119SOL    HW1  602   2.718   3.516   1.051 -0.3243 -1.3926 -0.4177
  119SOL    HW2  603   2.743   3.624   0.948  0.0693  0.1866  1.2845
  120SOL     OW  604   2.879   2.220   3.556 -0.3952  0.1133  0.2521
  120SOL    HW1  605   2.952   2.196   3.613  0.7578  0.4711 -1.0278
  120SOL    HW2  606   2.853   2.138   3.514  0.3413  0.2404 -0.4792
  121SOL     OW  607   1.259   1.492   3.792  0.5007 -0.2317  0.3061
  121SOL    HW1  608   1.287   1.555   3.726  0.9177 -0.9415 -0.2132
  121SOL    HW2  609   1.308   1.412   3.771  0.5166 -0.5172  1.3800
  122SOL     OW  610   5.105   0.306   4.985  0.1774 -0.0560  0.2292
  122SOL    HW1  611   5.105   0.390   5.030  0.5432 -0.1495  0.4082
  122SOL    HW2  612   5.013   0.292   4.960 -0.0254  0.0077  0.9247
  123SOL     OW  613   4.640   3.896   3.032  0.2838  0.4385 -0.5714
  123SOL    HW1  614   4.562   3.950   3.041  0.7177  1.1620 -1.0645
  123SOL    HW2  615   4.685   3.904   3.116 -0.4263 -0.4054 -0.0960
  124SOL     OW  616   1.919   3.036   5.544  0.4989 -0.1456  0.4829
  124SOL    HW1  617   1.847   3.050   5.483  1.4031  1.2243 -0.3011
  124SOL    HW2  618   1.908   3.103   5.611 -0.8027 -1.9723  2.2103
  125SOL     OW  619   4.933   2.649   3.161 -0.1739 -0.5545 -0.7051
  125SOL    HW1  620   4.856   2.607   3.202  0.1799 -1.2145 -0.7052
  125SOL    HW2  621   4.956   2.719   3.221 -1.6839  0.6234 -1.4435
  126SOL     OW  622   0.345   5.513   1.827  0.4997 -0.9067  0.5548
  126SOL    HW1  623   0.333   5.515   1.922 -3.8825 -0.7595  0.2062
  126SOL    HW2  624   0.302   5.432   1.799  1.0747 -0.5964 -1.3990
  127SOL     OW  625   2.787   2.795   2.179  0.3070  0.1334  0.6814
  127SOL    HW1  626   2.767   2.704   2.158 -0.6501  0.5527 -0.3321
  127SOL    HW2  627   2.706   2.828   2.220  0.5557  0.6035  0.7954
  128SOL     OW  628   5.841   0.924   5.053 -0.0825  0.3462 -0.1152
  128SOL    HW1  629   5.761   0.974   5.038 -0.1464  0.0386 -0.8420
  128SOL    HW2  630   5.882   0.966   5.128 -0.2369  1.3756 -0.5865
  129SOL     OW  631   1.762   0.266   3.486 -0.1104 -0.7154  0.2308
  129SOL    HW1  632   1.684   0.321   3.471  2.1541  2.5112 -0.8045
  129SOL    HW2  633   1.794   0.247   3.398  0.9490 -0.9699  0.6637
  130SOL     OW  634   1.324   5.059   2.711 -0.1154  0.0722 -0.5093
  130SOL    HW1  635   1.420   5.057   2.711 -0.1298 -0.7576 -1.2090
  130SOL    HW2  636   1.299   5.021   2.628 -1.0762 -0.6972  0.1127
  131SOL     OW  637   4.218   1.271   2.774 -0.2745  0.2972  0.0987
  131SOL    HW1  638   4.270   1.331   2.827 -1.8585 -1.4671  4.0223
  131SOL    HW2  639   4.128   1.305   2.779 -0.9836 -1.5786  1.3388
  132SOL     OW  640   4.182   3.071   1.725  0.1569  0.5959  0.0936
  132SOL    HW1  641   4.148   2.985   1.702 -1.1810  0.7536  1.3694
  132SOL    HW2  642   4.205   3.111   1.641 -0.1093 -0.6140 -0.5803
  133SOL     OW  643   3.113   1.952   2.399  0.7341  0.1550  0.0877
  133SOL    HW1  644   3.202   1.957   2.364  0.2620 -0.4769 -1.3162
  133SOL    HW2  645   3.124   1.928   2.491  2.0250  0.8538  0.1368
  134SOL     OW  646   3.806   5.591   0.139 -0.4045 -0.2743  0.0373
  134SOL    HW1  647   3.781   5.591   0.232  2.5694  0.5972  0.9316
  134SOL    HW2  648   3.792   5.681   0.110 -1.4676 -0.5776 -0.4541
  135SOL     OW  649   0.355   3.153   1.047  0.0602  0.3014  0.5545
  135SOL    HW1  650   0.427   3.166   0.985 -0.5716  2.1164  0.1150
  135SOL    HW2  651   0.376   3.210   1.121 -0.9296  0.8978  0.3924
  136SOL     OW  652   5.105   2.246   3.585 -0.4791  0.0104  0.0071
  136SOL    HW1  653   5.121   2.292   3.668 -0.5883  1.6132 -0.8064
  136SOL    HW2  654   5.044   2.304   3.539 -0.1279 -0.6778 -1.3357
  137SOL     OW  655   1.838   3.467   4.834  0.0326 -0.0842  0.0201
  137SOL    HW1  656   1.838   3.374   4.813  0.9442 -0.0050 -0.3785
  137SOL    HW2  657   1.761   3.501   4.790  0.0208 -0.5461 -0.3229
  138SOL     OW  658   0.709   4.122   3.166 -0.4009  0.1147  0.2556
  138SOL    HW1  659   0.746   4.105   3.253 -1.8759 -1.0169  0.6942
  138SOL    HW2  660   0.643   4.190   3.181  0.4482  1.0832 -0.2787
  139SOL     OW  661   5.454   3.541   5.901  0.4517 -0.0659  0.0820
  139SOL    HW1  662   5.455   3.546   5.997 -1.3685  1.5320  0.0605
  139SOL    HW2  663   5.446   3.631   5.872 -3.7524 -0.7174 -1.3990
  140SOL     OW  664   6.060   5.204   0.530  0.0952  1.0101 -0.4049
  140SOL    HW1  665   6.070   5.134   0.594 -0.7284  2.1388  1.0275
  140SOL    HW2  666   6.046   5.159   0.447 -0.4574 -0.5119  0.4741
  141SOL     OW  667   4.171   3.424   2.860  0.0382 -0.4902 -0.2270
  141SOL    HW1  668   4.130   3.339   2.875 -0.9725  0.0822  0.3724
  141SOL    HW2  669   4.189   3.458   2.948 -0.8938  0.5276 -0.4106
  142SOL     OW  670   1.436   5.302   3.284 -0.1388 -0.0181  1.0850
  142SOL    HW1  671   1.401   5.350   3.209  0.2284 -0.4450  0.6433
  142SOL    HW2  672   1.391   5.218   3.282 -0.9966  0.3996  2.0296
  143SOL     OW  673   0.390   3.746   0.549  0.8344  0.2943 -0.2950
  143SOL    HW1  674   0.448   3.822   0.556  0.3791  0.5578  0.8049
  143SOL    HW2  675   0.376   3.718   0.639  0.4935 -0.7248 -0.6475
  144SOL     OW  676   3.811   3.951   2.458  0.3681 -0.2989  0.0725
  144SOL    HW1  677   3.859   3.871   2.436  0.2194 -0.4039  0.1323
  144SOL    HW2  678   3.740   3.954   2.394  0.2548 -0.3204  0.1968
  145SOL     OW  679   2.583   1.122   3.116 -0.0895 -0.3723  0.2943
  145SOL    HW1  680   2.562   1.028   3.114 -0.5216 -0.3768  2.6797
  145SOL    HW2  681   2.543   1.154   3.197  1.2765  1.5777  0.2627
  146SOL     OW  682   2.416   2.765   0.733  0.1280 -0.7760 -0.4514
  146SOL    HW1  683   2.505   2.765   0.766  0.7924 -2.7969 -2.0168
  146SOL    HW2  684   2.414   2.835   0.669  0.1054  0.2829  0.6760
  147SOL     OW  685   4.101   2.930   3.144 -0.0006  0.7597 -0.1242
  147SOL    HW1  686   4.193   2.906   3.147 -0.5007 -1.5342 -1.2624
  147SOL    HW2  687   4.063   2.872   3.079 -2.1956  1.9314  0.0213
  148SOL     OW  688   4.173   3.623   1.320 -0.3610 -0.0215  0.2531
  148SOL    HW1  689   4.184   3.678   1.242 -0.4801  0.3628  0.5038
  148SOL    HW2  690   4.087   3.582   1.309 -1.0808  1.2645  0.9349
  149SOL     OW  691   5.504   3.482   2.208 -0.4732 -0.0791 -0.1601
  149SOL    HW1  692   5.445   3.533   2.264 -2.0007 -1.1327 -0.7516
  149SOL    HW2  693   5.584   3.474   2.260 -2.2809 -2.2584  2.6407
  150SOL     OW  694   1.151   3.895   2.512 -0.2997  0.1220  0.0260
  150SOL    HW1  695   1.204   3.971   2.533  0.1224 -0.0204 -0.4832
  150SOL    HW2  696   1.131   3.905   2.419  0.3980 -0.7560 -0.2375
  151SOL     OW  697   1.953   5.407   5.478 -0.5787 -0.0115 -0.8685
  151SOL    HW1  698   1.960   5.438   5.388 -0.7574 -1.6605 -1.4857
  151SOL    HW2  699   1.890   5.466   5.519 -0.9941  0.3672 -2.0136
  152SOL     OW  700   5.875   5.098   1.913 -0.3792 -0.0635 -0.3325
  152SOL    HW1  701   5.859   5.030   1.979 -1.3252  1.7269  1.4195
  152SOL    HW2  702   5.788   5.127   1.887 -0.0076 -0.5334 -2.2181
  153SOL     OW  703   1.351   4.309   3.971  0.6329 -0.3568 -0.0634
  153SOL    HW1  704   1.365   4.233   4.028  2.9898 -0.8876 -1.1999
  153SOL    HW2  705   1.430   4.362   3.984  0.2261  0.5545 -1.2499
  154SOL     OW  706   4.628   4.599   2.423 -0.0036 -0.6480 -0.3248
  154SOL    HW1  707   4.696   4.631   2.364  1.2514  1.2207  1.9785
  154SOL    HW2  708   4.667   4.523   2.466  0.0316 -0.5107 -0.1144
  155SOL     OW  709   4.395   0.032   5.240  0.7214 -0.6269 -1.0176
  155SOL    HW1  710   4.350   0.104   5.194 -0.7782 -0.3702  0.7344
  155SOL    HW2  711   4.468   0.075   5.284  0.4617 -0.3445 -0.8512
  156SOL     OW  712   5.517   1.604   6.121 -0.0880 -0.4066 -0.1217
  156SOL    HW1  713   5.601   1.593   6.076  0.0995  0.9955 -0.1523
  156SOL    HW2  714   5.468   1.524   6.100  0.9744 -0.9358 -0.6627
  157SOL     OW  715   4.613   4.436   4.811 -0.3871  0.3450  0.1190
  157SOL    HW1  716   4.646   4.485   4.886  1.7391 -0.3869 -0.2479
  157SOL    HW2  717   4.518   4.435   4.821 -0.1658  0.2933  2.7799
  158SOL     OW  718   2.720   2.555   4.499 -0.0982  0.1240 -0.1262
  158SOL    HW1  719   2.656   2.621   4.473 -2.5796 -1.9531  0.2611
  158SOL    HW2  720   2.705   2.542   4.592  3.3026  1.8920  0.8551
  159SOL     OW  721   0.228   5.481   3.407  0.2108 -0.7196 -0.6863
  159SOL    HW1  722   0.289   5.461   3.336  0.8241 -1.0590 -0.0664
  159SOL    HW2  723   0.244   5.413   3.473  0.3005  0.1423  0.1938
  160SOL     OW  724   2.799   4.722   0.727  0.4022  0.3881  1.1707
  160SOL    HW1  725   2.764   4.634   0.746  0.7598  0.0418  0.2955
  160SOL    HW2  726   2.891   4.706   0.703 -0.4310  0.4935 -2.6785
  161SOL     OW  727   1.611   2.308   5.900  0.5575 -0.0711  0.2561
  161SOL    HW1  728   1.535   2.366   5.890 -0.6814 -1.8515 -1.3482
  161SOL    HW2  729   1.682   2.353   5.856 -0.7994 -0.4144 -2.4908
  162SOL     OW  730   5.496   0.906   1.812 -0.0164  0.2871  0.0197
  162SOL    HW1  731   5.563   0.840   1.796  1.3076  1.7024 -0.5112
  162SOL    HW2  732   5.444   0.909   1.731  0.4587  0.4894 -0.2797
  163SOL     OW  733   5.158   3.025   0.923 -0.6406  0.2822  0.1050
  163SOL    HW1  734   5.112   2.966   0.982  1.3358 -1.4515  0.0304
  163SOL    HW2  735   5.245   3.034   0.963 -0.2523  1.5599 -0.9582
  164SOL     OW  736   4.369   5.747   3.070 -0.0088  0.3582 -0.1120
  164SOL    HW1  737   4.308   5.676   3.087  1.2054 -0.3736  1.5481
  164SOL    HW2  738   4.353   5.810   3.141  1.7845 -0.3283  0.9622
  165SOL     OW  739   0.721   4.318   4.016  0.1793  0.1955  0.1243
  165SOL    HW1  740   0.702   4.397   4.066 -0.7866  0.7635 -1.1058
  165SOL    HW2  741   0.638   4.295   3.974  0.7121 -0.8626 -0.3830
  166SOL     OW  742   2.907   0.399   0.391 -0.0872 -0.2832  0.0694
  166SOL    HW1  743   2.884   0.457   0.464 -1.3381 -1.5048  0.6754
  166SOL    HW2  744   3.002   0.407   0.384 -0.0864  0.8352  0.9806
  167SOL     OW  745   5.033   4.187   5.729  0.8528 -0.1696  0.3663
  167SOL    HW1  746   5.102   4.224   5.674 -1.2548  2.1554 -0.9218
  167SOL    HW2  747   5.004   4.110   5.681  0.0639  0.9834 -1.1018
  168SOL     OW  748   0.723   0.630   0.991  0.4111  0.0588 -0.1634
  168SOL    HW1  749   0.656   0.561   0.985  0.2772  0.0550  1.1589
  168SOL    HW2  750   0.802   0.588   0.958 -0.3102  0.2195 -2.2455
  169SOL     OW  751   6.128   6.116   3.952  0.1992  0.4644 -0.0854
  169SOL    HW1  752   6.078   6.035   3.941 -2.5601  2.1388 -0.7418
  169SOL    HW2  753   6.132   6.154   3.865 -0.3544  1.9999  0.5240
  170SOL     OW  754   1.716   0.313   2.865  0.5162 -0.6528  0.0674
  170SOL    HW1  755   1.688   0.246   2.928  2.0596 -0.0425  1.4901
  170SOL    HW2  756   1.641   0.323   2.806 -0.5485 -2.1172  1.0792
  171SOL     OW  757   0.550   3.909   3.639 -0.1318  0.3482 -0.1073
  171SOL    HW1  758   0.596   3.943   3.562 -0.1005  0.9193  0.1569
  171SOL    HW2  759   0.561   3.977   3.706 -0.0169 -0.2094  0.4581
  172SOL     OW  760   1.355   4.051   4.089 -0.2380  0.4806  0.5303
  172SOL    HW1  761   1.420   4.025   4.155 -0.8277 -2.1068  0.2327
  172SOL    HW2  762   1.271   4.048   4.136 -0.6176 -0.9963 -0.1642
  173SOL     OW  763   5.613   1.148   2.302 -0.6952  0.3836  0.3131
  173SOL    HW1  764   5.559   1.175   2.377 -1.3418  0.1074 -0.0414
  173SOL    HW2  765   5.671   1.080   2.338  1.0385  2.2552  1.2416
  174SOL     OW  766   3.596   4.253   3.846 -0.1851 -0.9784  0.7351
  174SOL    HW1  767   3.634   4.191   3.907  0.3992 -0.0119  1.3920
  174SOL    HW2  768   3.670   4.280   3.791 -0.2903 -0.4216  0.8566
  175SOL     OW  769   0.751   4.372   1.164 -0.1090 -0.0099  0.2735
  175SOL    HW1  770   0.808   4.297   1.147 -1.0597 -0.7115  0.0963
  175SOL    HW2  771   0.804   4.431   1.217 -0.1556 -1.9068  2.5691
  176SOL     OW  772   4.193   2.861   2.250 -0.5757  0.2226 -0.1732
  176SOL    HW1  773   4.281   2.855   2.213 -0.5089 -1.0208  0.1485
  176SOL    HW2  774   4.135   2.860   2.174 -0.3888 -0.9718 -0.3096
  177SOL     OW  775   5.244   3.646   5.340 -0.6659 -0.3893 -0.3514
  177SOL    HW1  776   5.290   3.729   5.349  1.4900 -1.2774 -2.1072
  177SOL    HW2  777   5.152   3.668   5.351 -0.1689  2.2066 -0.7310
  178SOL     OW  778   3.396   3.224   2.110  0.4096 -0.1484 -0.6910
  178SOL    HW1  779   3.400   3.183   2.197 -0.1254  1.3764  0.0808
  178SOL    HW2  780   3.302   3.224   2.089  0.3536  1.0204 -0.4914
  179SOL     OW  781   5.667   2.900   1.993  0.4346  0.1048  0.3118
  179SOL    HW1  782   5.679   2.993   1.975  1.5698 -0.0835  0.0243
  179SOL    HW2  783   5.726   2.856   1.932 -0.1359 -0.8138  0.4027
  180SOL     OW  784   5.229   4.119   2.192 -0.1230 -0.0936 -0.0567
  180SOL    HW1  785   5.154   4.060   2.189 -0.6449  0.5884 -1.0420
  180SOL    HW2  786   5.209   4.180   2.263  1.1237 -1.9548  2.0117
  181SOL     OW  787   5.448   1.065   1.388  0.2430 -0.3519 -0.5300
  181SOL    HW1  788   5.484   1.021   1.310  0.5533 -1.6381  0.3029
  181SOL    HW2  789   5.426   0.993   1.448 -0.2951  0.5985  0.4412
  182SOL     OW  790   3.241   0.484   4.867  0.2502  0.0322 -0.3870
  182SOL    HW1  791   3.264   0.463   4.958  0.4198 -1.3576 -0.7213
  182SOL    HW2  792   3.197   0.405   4.836  1.7281 -0.1989 -2.0338
  183SOL     OW  793   0.678   2.013   4.183  0.6217  0.3724  0.1013
  183SOL    HW1  794   0.744   1.993   4.117 -0.1344 -0.0533 -0.5481
  183SOL    HW2  795   0.658   1.927   4.223  0.9782  0.6044  0.8062
  184SOL     OW  796   5.903   3.709   2.477 -0.0717 -0.2933 -0.7548
  184SOL    HW1  797   5.961   3.784   2.461  0.4372 -0.8512 -1.5547
  184SOL    HW2  798   5.941   3.638   2.426  0.0939 -1.4234  0.8830
  185SOL     OW  799   6.096   5.089   3.844  0.3726  0.1243  0.2520
  185SOL    HW1  800   6.039   5.129   3.910 -0.3088 -1.6521  0.7995
  185SOL    HW2  801   6.145   5.163   3.807 -0.0586  1.3129  1.9181
  186SOL     OW  802   4.215   0.271   2.416 -0.2061  0.7350 -0.1454
  186SOL    HW1  803   4.295   0.318   2.391 -0.0413  0.7301  0.3548
  186SOL    HW2  804   4.144   0.325   2.384 -0.0295  1.5851  0.8469
  187SOL     OW  805   2.564   0.126   4.393 -0.1138  0.6199 -0.3449
  187SOL    HW1  806   2.481   0.172   4.384 -0.2564  0.6675  1.0586
  187SOL    HW2  807   2.626   0.192   4.422  0.3595  0.5145 -1.0798
  188SOL     OW  808   2.030   4.002   0.300 -0.5305  0.0600 -0.4195
  188SOL    HW1  809   1.958   4.043   0.348  0.0980  0.0225  0.5695
  188SOL    HW2  810   1.987   3.936   0.245 -1.2562  0.1151  0.0714
  189SOL     OW  811   5.395   1.351   3.567  0.5746  0.0552  0.1932
  189SOL    HW1  812   5.356   1.428   3.525 -0.6993 -0.1907  0.8571
  189SOL    HW2  813   5.388   1.368   3.661  1.3039 -0.3878  0.3329
  190SOL     OW  814   3.158   4.613   5.315  0.2169 -0.1661 -0.5117
  190SOL    HW1  815   3.105   4.537   5.336 -1.6411  0.4060 -2.6541
  190SOL    HW2  816   3.146   4.673   5.389 -1.0492 -0.6153 -0.3439
  191SOL     OW  817   1.475   3.853   0.767 -0.0102 -0.2547 -0.5264
  191SOL    HW1  818   1.459   3.877   0.676  0.0912 -1.8646 -0.9966
  191SOL    HW2  819   1.448   3.761   0.773  0.4530 -0.3199  0.9350
  192SOL     OW  820   4.892   2.357   3.297 -0.1228  0.0993 -0.0551
  192SOL    HW1  821   4.960   2.291   3.280 -0.0470 -0.3525  1.7833
  192SOL    HW2  822   4.810   2.307   3.297 -0.2763  0.3421 -0.4664
  193SOL     OW  823   3.011   1.940   3.911  0.5340  0.4048  0.4152
  193SOL    HW1  824   2.977   2.029   3.917  2.4007  1.2059 -0.1059
  193SOL    HW2  825   2.973   1.905   3.830 -0.7223  0.4628  0.9615
  194SOL     OW  826   4.159   1.084   0.468 -0.5737 -0.1300  0.2940
  194SOL    HW1  827   4.172   1.025   0.393 -2.0893 -0.0840 -0.0317
  194SOL    HW2  828   4.087   1.046   0.517  0.3584 -0.1293  1.7474
  195SOL     OW  829   5.224   4.356   1.409 -0.0966 -0.2373  0.0988
  195SOL    HW1  830   5.270   4.421   1.461 -1.2482 -0.0049  0.8694
  195SOL    HW2  831   5.267   4.273   1.432  2.5373  0.3417 -2.1869
  196SOL     OW  832   1.842   3.240   1.224 -0.4744 -0.1509 -0.2016
  196SOL    HW1  833   1.792   3.187   1.286 -0.6613 -1.3000 -1.2747
  196SOL    HW2  834   1.931   3.207   1.232 -0.0085  1.2964  1.0807
  197SOL     OW  835   3.162   1.288   5.290 -0.1664  0.3446 -0.0216
  197SOL    HW1  836   3.202   1.327   5.368 -0.7942  1.3845 -0.2033
  197SOL    HW2  837   3.197   1.199   5.288 -0.5325  0.1156  1.7339
  198SOL     OW  838   2.781   5.624   1.940 -0.4446  0.2481  0.2523
  198SOL    HW1  839   2.784   5.628   1.844 -0.1779  0.3656  0.2641
  198SOL    HW2  840   2.759   5.533   1.959 -1.6210  0.4832  0.0583
  199SOL     OW  841   4.026   3.480   3.880 -0.4442 -0.5078  0.5422
  199SOL    HW1  842   3.959   3.412   3.894  0.3615 -1.6344 -0.7636
  199SOL    HW2  843   4.107   3.440   3.912 -0.0044 -0.0794 -0.0224
  200SOL     OW  844   2.590   0.344   2.038  0.2550  0.5176 -0.5694
  200SOL    HW1  845   2.668   0.346   1.982 -0.4759  0.1560 -1.6388
  200SOL    HW2  846   2.575   0.436   2.062  1.7844  0.4511  0.7963
  201SOL     OW  847   1.589   2.136   1.559 -0.2100 -0.0192  0.4653
  201SOL    HW1  848   1.583   2.231   1.572  0.7144  0.0344  0.5920
  201SOL    HW2  849   1.571   2.124   1.466 -2.6856  0.0186  0.8843
  202SOL     OW  850   2.303   1.732   0.502 -0.1156 -0.3752  0.0369
  202SOL    HW1  851   2.337   1.821   0.489  3.4254 -1.5421  0.1710
  202SOL    HW2  852   2.265   1.709   0.417  0.3592  0.7385 -0.5074
  203SOL     OW  853   0.938   0.288   1.150 -0.7653 -0.2614 -0.2748
  203SOL    HW1  854   0.921   0.355   1.084  1.1862  1.8467  1.1808
  203SOL    HW2  855   1.024   0.253   1.126 -0.2925  0.1353  0.7743
  204SOL     OW  856   4.374   5.905   4.511  0.1905 -0.5263  0.0796
  204SOL    HW1  857   4.386   5.981   4.454 -0.4519  1.8858  2.9202
  204SOL    HW2  858   4.281   5.886   4.506  0.2606 -0.8194 -0.1997
  205SOL     OW  859   5.701   1.918   6.057  0.5296 -0.5562 -0.1292
  205SOL    HW1  860   5.711   1.825   6.077 -1.0084 -0.7670 -0.1970
  205SOL    HW2  861   5.741   1.928   5.970  0.9816 -1.0814  0.0103
  206SOL     OW  862   2.534   1.625   2.134  0.2030  0.3096  0.4127
  206SOL    HW1  863   2.451   1.642   2.089 -0.0599 -1.3101  0.2019
  206SOL    HW2  864   2.555   1.535   2.111  2.3476  0.8741  0.0136
  207SOL     OW  865   4.788   1.572   4.575  0.3122 -0.1624  0.1963
  207SOL    HW1  866   4.859   1.598   4.516 -0.5981  1.3525 -0.2847
  207SOL    HW2  867   4.727   1.646   4.574 -2.1263 -2.0431 -0.6998
  208SOL     OW  868   2.429   5.557   4.997  0.3812  0.4366 -0.3491
  208SOL    HW1  869   2.480   5.524   4.923 -0.5471 -0.2979 -0.6797
  208SOL    HW2  870   2.495   5.577   5.064  1.3894  2.6775 -1.9139
  209SOL     OW  871   5.231   0.133   2.949 -0.4486  0.5954  0.0533
  209SOL    HW1  872   5.201   0.042   2.945 -1.4286  0.9429 -1.0072
  209SOL    HW2  873   5.150   0.185   2.942 -0.0862  1.5696  2.2473
  210SOL     OW  874   2.967   4.322   5.129 -0.1643  0.3056 -0.5570
  210SOL    HW1  875   3.037   4.263   5.155 -0.6482 -0.4183 -0.8740
  210SOL    HW2  876   3.006   4.376   5.059  0.2847  0.3871 -0.2466
  211SOL     OW  877   0.844   0.581   6.136 -0.1895  0.3133 -0.0783
  211SOL    HW1  878   0.806   0.528   6.206  1.1866 -0.2053  0.3073
  211SOL    HW2  879   0.939   0.570   6.147  0.0518  0.4351 -1.8677
  212SOL     OW  880   5.731   5.489   0.930 -0.1883 -0.0225  0.6447
  212SOL    HW1  881   5.703   5.420   0.870  1.4270  1.3440 -1.8335
  212SOL    HW2  882   5.698   5.461   1.016  0.1706 -3.7146 -0.2638
  213SOL     OW  883   1.542   0.312   0.749  0.3657  0.1742  0.0720
  213SOL    HW1  884   1.528   0.327   0.655 -0.0959 -1.3577 -0.1387
  213SOL    HW2  885   1.613   0.371   0.772  0.2484  0.8336 -1.1689
  214SOL     OW  886   5.162   3.272   0.393 -0.0070 -0.4593 -0.5702
  214SOL    HW1  887   5.237   3.331   0.381 -1.0529  0.9651 -0.2912
  214SOL    HW2  888   5.129   3.293   0.480 -0.6363 -1.2024 -0.6183
  215SOL     OW  889   0.140   2.098   5.089 -0.1139  0.1216 -0.6160
  215SOL    HW1  890   0.082   2.039   5.042  0.4706 -0.9698 -0.0244
  215SOL    HW2  891   0.093   2.181   5.092 -0.8076 -0.2075 -1.7751
  216SOL     OW  892   6.089   1.015   3.625 -0.6348  0.4586 -0.2721
  216SOL    HW1  893   6.073   0.933   3.577 -0.4035  0.2940 -0.0700
  216SOL    HW2  894   6.009   1.030   3.674 -0.2299 -0.3070  0.6546
  217SOL     OW  895   0.174   0.681   3.782  0.1112  0.3818 -0.4085
  217SOL    HW1  896   0.106   0.687   3.849 -0.2209  0.4655 -0.7459
  217SOL    HW2  897   0.131   0.637   3.709  0.3665  0.6013 -0.6910
  218SOL     OW  898   5.146   2.095   1.470  0.2815 -0.1399  0.0534
  218SOL    HW1  899   5.176   2.103   1.560  1.1469  1.7209 -0.3577
  218SOL    HW2  900   5.069   2.038   1.475 -0.7309  1.2949  2.2087
  219SOL     OW  901   1.571   2.905   1.593 -0.2162 -0.5188  0.0386
  219SOL    HW1  902   1.515   2.983   1.591 -2.2960 -1.9299  0.7815
  219SOL    HW2  903   1.549   2.857   1.513  2.1725  0.2970 -1.2302
  220SOL     OW  904   5.594   0.480   2.774 -0.3485  0.3460 -0.2289
  220SOL    HW1  905   5.551   0.413   2.721 -0.0358 -0.5377  0.5924
  220SOL    HW2  906   5.639   0.430   2.843 -0.9500  1.4587  1.0091
  221SOL     OW  907   2.243   5.154   1.040 -0.7305 -0.4947 -0.1239
  221SOL    HW1  908   2.239   5.137   1.134 -2.1426 -0.2190 -0.1210
  221SOL    HW2  909   2.227   5.069   0.999 -1.6490 -0.3376 -0.1058
  222SOL     OW  910   2.481   2.505   4.107 -0.0023  0.1780  0.1790
  222SOL    HW1  911   2.497   2.599   4.104 -1.3329  0.3978 -0.7269
  222SOL    HW2  912   2.395   2.496   4.147  0.2849 -0.6855  0.6308
  223SOL     OW  913   3.717   5.596   4.601  0.0491 -0.4169  0.3680
  223SOL    HW1  914   3.685   5.686   4.609  2.3587  0.4903  0.2264
  223SOL    HW2  915   3.722   5.565   4.691 -0.1846 -0.1980  0.4599
  224SOL     OW  916   4.444   0.796   4.974  0.2310 -0.1250 -0.2486
  224SOL    HW1  917   4.427   0.707   5.003 -0.4130  0.0898  0.0460
  224SOL    HW2  918   4.368   0.820   4.920 -1.4813  1.5088  2.6371
  225SOL     OW  919   3.506   1.929   1.431  0.3041 -0.0661  0.1688
  225SOL    HW1  920   3.494   2.012   1.477 -1.1211 -0.4882  0.6161
  225SOL    HW2  921   3.465   1.942   1.346 -0.3101 -0.4236  0.3986
  226SOL     OW  922   1.073   1.872   0.497 -0.0347 -0.2328 -0.3164
  226SOL    HW1  923   1.049   1.960   0.524  0.7482  0.2761 -1.2126
  226SOL    HW2  924   1.097   1.827   0.578  0.7153  0.7497  0.0214
  227SOL     OW  925   3.892   0.928   4.942 -0.2094 -0.1929 -0.3338
  227SOL    HW1  926   3.903   0.882   5.025  0.8512 -0.2317 -0.4733
  227SOL    HW2  927   3.891   1.020   4.966 -1.4359 -0.2513 -0.1377
  228SOL     OW  928   3.001   3.813   4.689 -0.4691  0.6121  0.0833
  228SOL    HW1  929   3.066   3.751   4.656 -0.0532  0.5841  0.9181
  228SOL    HW2  930   2.917   3.767   4.680 -0.0413 -0.6131  1.8530
  229SOL     OW  931   4.485   4.002   2.573  0.6416  0.1622  0.6723
  229SOL    HW1  932   4.463   3.921   2.618  0.8677  0.0340  0.5532
  229SOL    HW2  933   4.445   3.994   2.487  1.8599 -0.4481  0.1360
  230SOL     OW  934   3.393   5.433   0.439  0.0493  0.4137  0.0565
  230SOL    HW1  935   3.413   5.483   0.360 -1.2947  0.4080 -0.3051
  230SOL    HW2  936   3.318   5.478   0.478  1.0200  0.7486  1.6559
  231SOL     OW  937   5.437   5.989   5.970 -0.3677  0.3688 -0.7960
  231SOL    HW1  938   5.373   5.919   5.987 -1.7498  1.8147  0.2184
  231SOL    HW2  939   5.474   5.966   5.885  0.0357 -2.1637 -0.0371
  232SOL     OW  940   4.717   4.097   1.666 -0.0950 -0.3695  0.1172
  232SOL    HW1  941   4.750   4.010   1.690 -0.9186 -0.3847  1.2643
  232SOL    HW2  942   4.644   4.079   1.606 -1.0577 -0.5506  1.3023
  233SOL     OW  943   4.055   0.850   3.992 -0.8559  0.2345  0.4609
  233SOL    HW1  944   4.111   0.779   3.962 -1.2675 -0.3049  0.9409
  233SOL    HW2  945   3.967   0.811   3.994 -1.1647  0.9149  0.2068
  234SOL     OW  946   2.003   1.455   2.685  0.5726 -0.4052 -0.4495
  234SOL    HW1  947   2.092   1.424   2.670  1.1292  1.2756 -0.8767
  234SOL    HW2  948   1.973   1.483   2.598  0.1710  0.3888 -0.0607
  235SOL     OW  949   0.984   4.370   1.821  0.4568  0.6728  0.1200
  235SOL    HW1  950   0.936   4.399   1.743  0.7240  1.2195  0.1533
  235SOL    HW2  951   0.933   4.405   1.895  1.0443  1.4986  0.1493
  236SOL     OW  952   3.890   4.581   1.543  0.1551 -0.1311 -0.0928
  236SOL    HW1  953   3.886   4.604   1.636 -1.2247 -0.1792 -0.1228
  236SOL    HW2  954   3.824   4.636   1.502 -1.0755 -1.9134 -0.6279
  237SOL     OW  955   4.125   4.283   2.867  0.3816 -0.1000  0.6228
  237SOL    HW1  956   4.147   4.214   2.805  1.0112 -0.3055  1.0635
  237SOL    HW2  957   4.029   4.283   2.870  0.3720 -0.7690  0.4190
  238SOL     OW  958   1.711   1.386   4.644  0.2637 -0.1882 -0.5534
  238SOL    HW1  959   1.726   1.311   4.702  0.8365 -0.4085 -0.9849
  238SOL    HW2  960   1.790   1.392   4.590 -0.8731 -0.9971 -2.4377
  239SOL     OW  961   0.466   5.321   1.348  0.0644 -0.0684  0.2644
  239SOL    HW1  962   0.475   5.274   1.431 -0.4905 -0.1546  0.2823
  239SOL    HW2  963   0.372   5.321   1.331  0.2487 -1.0038 -0.9067
  240SOL     OW  964   0.604   5.705   0.094 -0.3409  0.4040  0.0159
  240SOL    HW1  965   0.589   5.671   0.006  1.1417  0.5132 -0.3017
  240SOL    HW2  966   0.642   5.631   0.142 -2.4168 -0.1112  1.0282
  241SOL     OW  967   3.084   5.331   2.490  0.4300  0.4484  0.0445
  241SOL    HW1  968   2.994   5.336   2.522  0.1820 -1.2102 -0.3068
  241SOL    HW2  969   3.075   5.326   2.395  0.9990  1.9975 -0.1116
  242SOL     OW  970   0.596   2.948   1.042 -0.1965 -0.3313  0.1759
  242SOL    HW1  971   0.615   2.869   0.992  2.0852 -0.1925  0.7066
  242SOL    HW2  972   0.597   3.018   0.977 -1.6468 -0.6477 -0.2078
  243SOL     OW  973   0.646   4.591   5.799 -0.1871  0.2794  0.0673
  243SOL    HW1  974   0.571   4.640   5.834 -0.5850 -1.3724  1.6580
  243SOL    HW2  975   0.654   4.622   5.709 -1.3746  2.1099  0.5285
  244SOL     OW  976   2.113   4.809   4.245 -0.0336  0.2171 -0.2676
  244SOL    HW1  977   2.122   4.861   4.324  1.5854  0.7384 -0.7619
  244SOL    HW2  978   2.079   4.725   4.275  0.2059  0.5305  0.9281
  245SOL     OW  979   3.914   1.692   1.145 -0.6444  0.1433 -0.1802
  245SOL    HW1  980   3.873   1.693   1.059 -1.9649 -1.1182  0.3876
  245SOL    HW2  981   3.941   1.783   1.161  0.9711  0.1609 -2.4960
  246SOL     OW  982   2.144   3.929   0.711  0.2153  0.4626 -0.4391
  246SOL    HW1  983   2.126   3.861   0.646  1.2959  0.7424 -1.0489
  246SOL    HW2  984   2.068   3.987   0.706  1.2051  1.7044 -3.0820
  247SOL     OW  985   3.548   3.987   4.913 -1.0810 -0.2108  0.6924
  247SOL    HW1  986   3.557   3.942   4.997 -1.5848 -2.4476 -0.3663
  247SOL    HW2  987   3.463   4.030   4.917 -1.7382 -1.4790  0.8554
  248SOL     OW  988   3.934   0.678   1.284 -0.6093 -0.2542  0.0473
  248SOL    HW1  989   4.010   0.704   1.233  0.7583 -0.7666  1.7473
  248SOL    HW2  990   3.940   0.729   1.365 -2.3102  0.0001  0.0479
  249SOL     OW  991   1.035   2.512   5.528 -0.5131  0.3774  0.3124
  249SOL    HW1  992   0.940   2.512   5.534 -0.6228 -0.7237 -0.9382
  249SOL    HW2  993   1.063   2.437   5.580 -0.6309 -1.5529 -2.2302
  250SOL     OW  994   4.769   3.488   5.849 -0.0380  0.7398 -0.1595
  250SOL    HW1  995   4.840   3.458   5.907  0.6970 -2.7233 -2.4844
  250SOL    HW2  996   4.809   3.556   5.796  0.7571  0.6212  0.2638
  251SOL     OW  997   6.110   5.131   1.739  0.4436  0.2245 -0.2180
  251SOL    HW1  998   6.060   5.098   1.814  1.5680 -1.5740 -0.1907
  251SOL    HW2  999   6.047   5.132   1.667  0.3187 -2.2580 -0.2480
  252SOL     OW 1000   4.678   0.026   1.577  0.5610 -0.4956  0.1883
  252SOL    HW1 1001   4.604  -0.001   1.631  0.4815  0.2854  0.4915
  252SOL    HW2 1002   4.755  -0.013   1.618  0.3685 -0.8995  0.1608
  253SOL     OW 1003   5.715   2.781   0.705 -0.0631 -0.7179  0.4428
  253SOL    HW1 1004   5.652   2.849   0.680  0.0463 -0.6661  0.3030
  253SOL    HW2 1005   5.742   2.742   0.622  1.9012  0.8697  0.2610
  254SOL     OW 1006   3.440   3.589   4.210  0.3298  0.9124  0.0480
  254SOL    HW1 1007   3.442   3.653   4.282 -0.4985  0.8247  0.1600
  254SOL    HW2 1008   3.532   3.577   4.186  0.4946  2.2834 -0.0961
  255SOL     OW 1009   3.945   2.038   1.836 -0.0621  0.0228 -0.5506
  255SOL    HW1 1010   3.936   2.133   1.844  0.3220  0.0905 -0.8929
  255SOL    HW2 1011   4.004   2.013   1.906 -1.4016 -0.1849  0.5578
  256SOL     OW 1012   3.807   3.945   2.005  0.0972  0.5007  0.0853
  256SOL    HW1 1013   3.882   3.999   2.030  0.6758 -0.5022  0.5435
  256SOL    HW2 1014   3.839   3.890   1.935 -0.2831  0.2352  0.1176
  257SOL     OW 1015   2.928   2.952   3.951 -0.9231 -0.6343 -0.3329
  257SOL    HW1 1016   2.997   3.000   3.997 -0.5648 -0.1455 -1.3486
  257SOL    HW2 1017   2.869   3.020   3.919 -2.1196 -1.0680  0.8556
  258SOL     OW 1018   1.560   5.632   1.896 -0.5431 -0.2015  0.2047
  258SOL    HW1 1019   1.607   5.662   1.819  0.0266 -0.3891  0.4695
  258SOL    HW2 1020   1.619   5.652   1.969 -3.4385  5.9256  1.5187
  259SOL     OW 1021   5.853   1.666   2.764  0.0834 -0.4256 -0.4615
  259SOL    HW1 1022   5.933   1.629   2.726  0.0719 -1.4735  0.4779
  259SOL    HW2 1023   5.883   1.740   2.817  0.4062 -0.6681 -0.3043
  260SOL     OW 1024   3.056   0.152   5.520  0.0448 -0.6356 -0.1668
  260SOL    HW1 1025   3.116   0.104   5.577 -0.7888 -3.1418 -1.2513
  260SOL    HW2 1026   3.066   0.111   5.434  0.3251  2.1740 -1.5820
  261SOL     OW 1027   0.582   3.734   4.873  0.1552  0.0071  0.9059
  261SOL    HW1 1028   0.623   3.711   4.790  2.2835  1.0929  1.5486
  261SOL    HW2 1029   0.515   3.668   4.888  0.5963 -0.9253 -1.0502
  262SOL     OW 1030   0.819   5.323   5.937 -0.6233 -0.3309  0.1736
  262SOL    HW1 1031   0.828   5.252   5.874 -2.2345 -0.6474  0.2448
  262SOL    HW2 1032   0.821   5.403   5.884 -1.7876 -0.5854 -0.2952
  263SOL     OW 1033   4.368   5.709   0.554 -0.3230 -0.2779 -0.2796
  263SOL    HW1 1034   4.275   5.691   0.544 -0.3493 -1.2335  1.2294
  263SOL    HW2 1035   4.375   5.754   0.639  0.4025  1.6571 -1.3001
  264SOL     OW 1036   1.495   6.052   3.973  0.0687  0.3496 -0.0874
  264SOL    HW1 1037   1.501   6.106   4.051  0.8327 -1.3701  1.1002
  264SOL    HW2 1038   1.459   6.111   3.906 -1.9880  1.5101  1.8761
  265SOL     OW 1039   5.843   0.601   2.694  0.2914  0.5504  0.0983
  265SOL    HW1 1040   5.900   0.608   2.769 -0.9866  2.4126  0.9836
  265SOL    HW2 1041   5.754   0.599   2.731 -0.3199 -0.0663 -1.3035
  266SOL     OW 1042   3.514   1.221   2.229  0.0694  0.4224  0.2757
  266SOL    HW1 1043   3.569   1.290   2.267 -0.1848 -0.1090  1.6381
  266SOL    HW2 1044   3.506   1.247   2.137  0.9566  1.5739  0.4834
  267SOL     OW 1045   3.157   1.008   1.045  0.0067 -0.2704 -0.2088
  267SOL    HW1 1046   3.138   0.947   1.116  0.5066 -0.4313 -0.2093
  267SOL    HW2 1047   3.115   1.090   1.071 -0.7320 -0.6332 -0.2458
  268SOL     OW 1048   0.119   6.054   1.523  0.1573  0.0989  0.0701
  268SOL    HW1 1049   0.092   5.965   1.545  1.7934 -0.7434 -1.0863
  268SOL    HW2 1050   0.168   6.044   1.441  1.9736  1.7870  0.8755
  269SOL     OW 1051   0.487   5.025   4.432  0.2114 -0.1174 -0.5712
  269SOL    HW1 1052   0.556   5.090   4.418  0.5964 -0.6094 -0.9967
  269SOL    HW2 1053   0.482   4.977   4.349 -0.0727 -0.6266 -0.2654
  270SOL     OW 1054   2.838   2.974   5.907  0.0957  0.0393 -0.4375
  270SOL    HW1 1055   2.753   3.000   5.943  0.7364  0.2852  0.9687
  270SOL    HW2 1056   2.833   2.879   5.898 -0.0780 -0.0301  0.3400
  271SOL     OW 1057   0.315   5.638   5.910  0.1079 -0.5720 -0.1813
  271SOL    HW1 1058   0.345   5.676   5.828  1.4587 -0.3916  0.3706
  271SOL    HW2 1059   0.395   5.609   5.954 -0.7583 -2.9921 -0.0287
  272SOL     OW 1060   4.810   1.958   3.371  0.1294  0.2613  0.1374
  272SOL    HW1 1061   4.812   1.867   3.400  2.8692  0.7664  1.8760
  272SOL    HW2 1062   4.886   1.967   3.314 -0.5368  1.3035 -0.6207
  273SOL     OW 1063   5.831   1.939   4.699  0.5164  0.2479  0.3911
  273SOL    HW1 1064   5.797   2.028   4.707 -0.3876  0.0032 -0.5170
  273SOL    HW2 1065   5.823   1.919   4.606  0.4214 -0.8902  0.6301
  274SOL     OW 1066   0.126   1.790   2.961  0.0238  0.4799  0.2719
  274SOL    HW1 1067   0.149   1.708   2.917  1.8538  1.4591 -0.7267
  274SOL    HW2 1068   0.208   1.821   2.999 -0.7845  1.4952  1.2697
  275SOL     OW 1069   3.707   1.076   5.769 -0.1535 -0.1490  0.3481
  275SOL    HW1 1070   3.648   1.151   5.764  0.0769 -0.0614 -2.0057
  275SOL    HW2 1071   3.680   1.020   5.696  2.0769 -0.5337 -0.2380
  276SOL     OW 1072   4.241   4.982   4.079  0.2337 -0.0653 -0.3034
  276SOL    HW1 1073   4.334   5.005   4.073 -0.4749  3.3714 -0.1852
  276SOL    HW2 1074   4.224   4.973   4.173 -0.2954  3.6928  0.1166
  277SOL     OW 1075   1.810   2.091   1.715 -0.6902  0.0291 -0.1937
  277SOL    HW1 1076   1.727   2.118   1.677 -0.6421  0.0048 -0.3209
  277SOL    HW2 1077   1.792   2.077   1.807 -0.8618 -0.1163 -0.2487
  278SOL     OW 1078   5.677   4.891   4.722 -0.2830 -0.5848 -0.4295
  278SOL    HW1 1079   5.743   4.839   4.676 -0.5022 -0.4270 -0.9269
  278SOL    HW2 1080   5.687   4.867   4.814  1.5722  0.6256 -0.2602
  279SOL     OW 1081   2.500   4.027   3.165  0.0142  0.2649 -0.4639
  279SOL    HW1 1082   2.481   4.090   3.096  0.4829 -1.6561 -2.4472
  279SOL    HW2 1083   2.552   3.959   3.123 -2.0798 -2.4898  1.0218
  280SOL     OW 1084   0.201   2.508   2.814  0.0244  0.5580  0.1498
  280SOL    HW1 1085   0.210   2.435   2.876  0.5069  0.3675 -0.1389
  280SOL    HW2 1086   0.118   2.491   2.769  0.7720 -0.5632 -0.8672
  281SOL     OW 1087   0.791   2.273   1.387 -0.0518  0.4465 -0.6491
  281SOL    HW1 1088   0.704   2.297   1.420  0.4586  0.6943  0.5619
  281SOL    HW2 1089   0.831   2.357   1.361  0.6326  0.6083  0.8484
  282SOL     OW 1090   1.675   4.658   5.745  0.4433 -0.1198 -0.0107
  282SOL    HW1 1091   1.604   4.648   5.682  0.8505  1.7153 -0.8114
  282SOL    HW2 1092   1.749   4.613   5.704  0.5606  0.6057 -0.6046
  283SOL     OW 1093   1.073   0.762   2.513  0.7057  0.0461 -0.0261
  283SOL    HW1 1094   1.139   0.746   2.445 -0.4626  1.3096 -1.5312
  283SOL    HW2 1095   1.094   0.699   2.582  3.1115  0.0100 -0.6953
  284SOL     OW 1096   0.051   2.724   3.969 -0.4822 -0.1005 -0.1665
  284SOL    HW1 1097   0.017   2.695   3.884  0.6251 -0.5242 -0.4768
  284SOL    HW2 1098   0.082   2.813   3.954  1.3412 -0.7781 -0.6995
  285SOL     OW 1099   1.360   2.951   5.178  0.2431 -0.0821  0.2640
  285SOL    HW1 1100   1.453   2.928   5.183  0.5827  0.7227 -1.6308
  285SOL    HW2 1101   1.349   3.017   5.246  1.8871  2.2223 -1.5218
  286SOL     OW 1102   2.852   2.930   2.479  0.2049  0.0618  0.1461
  286SOL    HW1 1103   2.850   2.841   2.445  1.2839 -0.3539  1.0999
  286SOL    HW2 1104   2.797   2.928   2.557  1.1719 -0.0906  0.8429
  287SOL     OW 1105   5.945   3.230   1.735  0.5427 -0.1593 -0.4532
  287SOL    HW1 1106   5.879   3.299   1.746 -0.5353 -1.4712  2.3989
  287SOL    HW2 1107   5.895   3.149   1.746  2.4743 -1.2313  0.9148
  288SOL     OW 1108   4.620   2.234   6.132 -0.0610  0.0677  0.2227
  288SOL    HW1 1109   4.630   2.144   6.101  1.0511 -0.5843  2.2936
  288SOL    HW2 1110   4.707   2.273   6.123 -0.3903  0.7410 -0.0847
  289SOL     OW 1111   4.081   3.346   0.441 -0.1563  0.1245  0.3377
  289SOL    HW1 1112   4.153   3.398   0.406 -0.2393 -0.2437 -0.4177
  289SOL    HW2 1113   4.014   3.350   0.373 -0.1658 -0.9538  0.2641
  290SOL     OW 1114   5.267   4.980   5.236  0.1715  0.3947 -0.0028
  290SOL    HW1 1115   5.201   5.039   5.199 -1.0073 -1.4914 -1.0502
  290SOL    HW2 1116   5.247   4.977   5.329 -0.3344  0.9201 -0.0897
  291SOL     OW 1117   4.485   3.004   1.143  0.1951  0.1027  0.0447
  291SOL    HW1 1118   4.437   3.082   1.113  0.2305  0.0171 -0.2359
  291SOL    HW2 1119   4.540   2.980   1.069  1.7021  0.9996  0.8203
  292SOL     OW 1120   3.911   0.270   3.344  0.3182  0.6544 -0.2564
  292SOL    HW1 1121   3.942   0.275   3.254 -0.6432  0.3806 -0.6100
  292SOL    HW2 1122   3.962   0.336   3.391  1.1567  0.4751 -0.8924
  293SOL     OW 1123   0.732   0.071   0.832 -0.0750  0.4476 -0.4897
  293SOL    HW1 1124   0.724   0.017   0.753  0.2322  1.3229 -1.1270
  293SOL    HW2 1125   0.823   0.060   0.859 -0.3235 -0.2944  0.0761
  294SOL     OW 1126   3.774   2.162   3.672  0.2600 -0.3402 -0.1261
  294SOL    HW1 1127   3.689   2.141   3.635  0.2190  0.2559 -0.3902
  294SOL    HW2 1128   3.829   2.183   3.596  0.9810 -1.8203 -0.0562
  295SOL     OW 1129   1.810   1.124   2.683 -0.0219 -0.0015  0.1592
  295SOL    HW1 1130   1.818   1.215   2.712 -0.1940 -0.6115  2.2358
  295SOL    HW2 1131   1.875   1.115   2.613 -0.7660  1.9908 -0.8885
  296SOL     OW 1132   4.796   1.536   4.855  0.1408 -0.2531 -0.0217
  296SOL    HW1 1133   4.770   1.551   4.764  0.2697 -1.3168 -0.2431
  296SOL    HW2 1134   4.747   1.459   4.882  2.0941 -1.5715 -0.0556
  297SOL     OW 1135   4.325   4.867   4.589  0.4354  0.2764 -0.2990
  297SOL    HW1 1136   4.400   4.859   4.648 -0.2204 -1.1154  0.3947
  297SOL    HW2 1137   4.254   4.897   4.646  0.5065  1.9312 -1.0188
  298SOL     OW 1138   2.578   5.643   1.489 -0.3283 -0.4684 -0.5416
  298SOL    HW1 1139   2.564   5.577   1.557 -0.6474 -1.4235 -1.5008
  298SOL    HW2 1140   2.495   5.690   1.483  0.3747  1.1429  1.2402
  299SOL     OW 1141   5.660   5.271   0.228  0.2724 -0.1507  0.0969
  299SOL    HW1 1142   5.709   5.288   0.308 -0.9723 -0.2347  0.9011
  299SOL    HW2 1143   5.598   5.344   0.221 -0.5955 -0.8716 -0.0092
  300SOL     OW 1144   4.994   5.325   0.003 -0.2245  0.0493 -0.5380
  300SOL    HW1 1145   5.070   5.287  -0.040  1.8943  1.5710  1.6252
  300SOL    HW2 1146   4.942   5.362  -0.069  2.0263  0.5849 -1.9911
  301SOL     OW 1147   1.087   1.132   4.506  0.1128  0.4328  0.7283
  301SOL    HW1 1148   1.041   1.061   4.461  0.6311 -0.3384  1.3651
  301SOL    HW2 1149   1.178   1.124   4.476  0.1187  1.0167  0.5833
  302SOL     OW 1150   1.077   2.929   2.804  0.0655  0.3683  0.1657
  302SOL    HW1 1151   1.097   2.992   2.873 -1.0752  0.9636 -0.0327
  302SOL    HW2 1152   1.015   2.868   2.844 -0.5661  0.6909 -0.3168
  303SOL     OW 1153   1.582   1.811   3.204  0.4236 -0.0309 -0.4989
  303SOL    HW1 1154   1.664   1.803   3.156  1.2620  2.4019  0.3857
  303SOL    HW2 1155   1.574   1.904   3.224 -0.8327 -0.6195  2.3779
  304SOL     OW 1156   5.220   3.419   1.927  0.3748  0.3050  0.0028
  304SOL    HW1 1157   5.138   3.463   1.905  0.0902  0.5184  1.4406
  304SOL    HW2 1158   5.212   3.396   2.019  1.3901 -0.8858 -0.1757
  305SOL     OW 1159   1.941   0.125   0.199 -0.3075  0.1220 -0.1628
  305SOL    HW1 1160   1.940   0.037   0.236 -0.5333  0.0170 -0.4159
  305SOL    HW2 1161   1.907   0.181   0.269  1.3868  0.2656  0.6134
  306SOL     OW 1162   5.608   2.633   2.910  1.0057  0.3883 -0.3001
  306SOL    HW1 1163   5.607   2.682   2.828 -0.8396  1.3239  0.2551
  306SOL    HW2 1164   5.661   2.686   2.969  1.6001  0.1456 -0.6024
  307SOL     OW 1165   3.279   3.382   1.786  0.2859 -0.3639  0.0588
  307SOL    HW1 1166   3.314   3.400   1.873  3.3861 -0.2435 -1.0902
  307SOL    HW2 1167   3.314   3.296   1.763  0.8130  0.2475 -1.5960
  308SOL     OW 1168   2.252   3.499   6.081  0.0543  0.5819  0.0444
  308SOL    HW1 1169   2.335   3.527   6.042 -1.1531 -0.7832 -4.0216
  308SOL    HW2 1170   2.185   3.548   6.033 -1.6179  1.5294  3.0874
  309SOL     OW 1171   4.472   5.643   4.388 -0.1462  0.1050  0.3287
  309SOL    HW1 1172   4.474   5.734   4.418  0.8580  0.1885  0.0246
  309SOL    HW2 1173   4.387   5.635   4.344  0.2662  1.2618 -0.7434
  310SOL     OW 1174   2.942   5.287   0.565  0.1006 -0.0655  0.3052
  310SOL    HW1 1175   2.881   5.252   0.629 -0.4518  0.4619  0.0774
  310SOL    HW2 1176   2.911   5.376   0.549 -0.7431 -0.6922 -1.8869
  311SOL     OW 1177   2.849   2.863   0.923  0.1583 -0.5005 -0.4822
  311SOL    HW1 1178   2.777   2.898   0.975 -0.0160  2.2095 -2.3550
  311SOL    HW2 1179   2.913   2.934   0.921  0.5729 -0.8629 -3.0788
  312SOL     OW 1180   4.484   1.001   0.514 -0.0277  0.2035 -0.5527
  312SOL    HW1 1181   4.405   1.023   0.564 -0.1979 -0.9707 -0.2724
  312SOL    HW2 1182   4.463   0.918   0.472  0.4709  0.7037 -1.8174
  313SOL     OW 1183   5.103   2.311   5.086 -0.1487  0.2449  0.5228
  313SOL    HW1 1184   5.029   2.368   5.107  0.4062  1.0654  0.2934
  313SOL    HW2 1185   5.098   2.240   5.151 -1.2751  0.1447  0.3512
  314SOL     OW 1186   1.966   2.235   2.483  0.2942 -0.0270  0.2559
  314SOL    HW1 1187   1.915   2.154   2.480 -0.7190  0.4018  3.1365
  314SOL    HW2 1188   2.057   2.206   2.476 -0.0999 -1.2639 -0.0569
  315SOL     OW 1189   5.422   5.663   0.976 -0.1324 -0.4840 -0.0426
  315SOL    HW1 1190   5.409   5.671   1.071 -0.0971  1.4635 -0.1500
  315SOL    HW2 1191   5.461   5.747   0.951 -2.8304  0.2761 -2.1889
  316SOL     OW 1192   4.521   4.114   2.810 -0.3952 -0.7185  0.0287
  316SOL    HW1 1193   4.616   4.122   2.821 -0.3226 -1.3118 -0.1427
  316SOL    HW2 1194   4.510   4.087   2.719 -0.7803  0.2523 -0.2334
  317SOL     OW 1195   5.271   5.517   5.074 -0.0169  0.3037  0.2768
  317SOL    HW1 1196   5.351   5.519   5.127 -0.4414 -0.3547  0.9637
  317SOL    HW2 1197   5.280   5.591   5.014  2.6818 -1.7205 -2.0426
  318SOL     OW 1198   4.874   5.277   1.079 -0.1052  0.1041  0.4354
  318SOL    HW1 1199   4.887   5.208   1.144 -0.9470 -0.0896  0.4075
  318SOL    HW2 1200   4.934   5.347   1.105  0.5005 -0.4870  0.6681
  319SOL     OW 1201   1.802   4.732   5.404 -0.4257 -0.0073 -0.7714
  319SOL    HW1 1202   1.764   4.814   5.373 -0.1762  0.6710  0.6186
  319SOL    HW2 1203   1.767   4.665   5.346 -0.7769  1.0628 -1.8232
  320SOL     OW 1204   3.333   3.411   1.177  0.6096  0.0883 -0.1636
  320SOL    HW1 1205   3.282   3.480   1.218 -0.4591  0.7876 -2.5380
  320SOL    HW2 1206   3.375   3.453   1.102 -0.0762 -1.7919 -1.6816
  321SOL     OW 1207   4.889   0.916   5.252 -0.1488  0.1854  0.0084
  321SOL    HW1 1208   4.943   0.839   5.270  0.8104  0.7767 -0.2786
  321SOL    HW2 1209   4.801   0.891   5.283 -0.2200 -1.5766 -1.4210
  322SOL     OW 1210   2.747   0.833   1.101  0.1834 -0.5844 -0.1203
  322SOL    HW1 1211   2.747   0.831   1.006 -0.9068 -1.1325 -0.1280
  322SOL    HW2 1212   2.825   0.783   1.126  1.5545  1.1610 -0.7009
  323SOL     OW 1213   3.957   0.305   2.038 -0.3810  0.5279 -0.6451
  323SOL    HW1 1214   3.863   0.290   2.034 -0.0301 -1.9073 -1.1132
  323SOL    HW2 1215   3.985   0.305   1.947  0.1451  0.7405 -0.4868
  324SOL     OW 1216   0.884   0.130   2.180 -0.1762  0.4034 -0.1777
  324SOL    HW1 1217   0.979   0.124   2.187 -0.2901 -0.3949  0.8661
  324SOL    HW2 1218   0.857   0.045   2.145 -0.7051 -0.4538  2.1324
  325SOL     OW 1219   1.751   2.463   5.206  0.3341 -0.0198 -0.5418
  325SOL    HW1 1220   1.666   2.464   5.161  0.4994  1.6660 -0.8813
  325SOL    HW2 1221   1.795   2.542   5.175  2.1795 -1.0442 -0.6182
  326SOL     OW 1222   1.799   1.543   5.344  0.1823 -0.1744 -0.4581
  326SOL    HW1 1223   1.865   1.604   5.378 -0.1945 -0.0167 -0.0081
  326SOL    HW2 1224   1.826   1.527   5.253 -0.4515  1.7410 -1.0380
  327SOL     OW 1225   4.501   3.095   1.474 -0.1628  0.0645  0.1010
  327SOL    HW1 1226   4.496   3.184   1.509 -2.0771 -0.4329  1.2357
  327SOL    HW2 1227   4.451   3.098   1.393  1.0280  0.3248 -0.6535
  328SOL     OW 1228   1.271   0.896   4.533  0.2735  0.0779  0.0322
  328SOL    HW1 1229   1.356   0.922   4.496 -0.8547  1.5316 -1.7012
  328SOL    HW2 1230   1.265   0.944   4.615  0.2302  1.7609 -0.9027
  329SOL     OW 1231   4.520   0.350   0.578 -0.1713 -0.3235  0.1994
  329SOL    HW1 1232   4.495   0.294   0.504 -1.1290 -1.4376  1.3173
  329SOL    HW2 1233   4.535   0.436   0.539  4.4049 -1.8410 -2.1787
  330SOL     OW 1234   1.637   0.077   4.678 -0.5561  0.1775  0.2194
  330SOL    HW1 1235   1.579   0.123   4.738 -1.6611 -0.4211 -0.3344
  330SOL    HW2 1236   1.600   0.095   4.591 -1.1146 -1.7812 -0.0090
  331SOL     OW 1237   4.547   0.217   5.361 -0.3829  0.5411 -0.0762
  331SOL    HW1 1238   4.581   0.185   5.444 -0.3072  0.1546 -0.2510
  331SOL    HW2 1239   4.483   0.284   5.385 -0.9790 -0.1502  0.3270
  332SOL     OW 1240   3.178   4.238   4.451 -0.0138 -0.0040  0.0078
  332SOL    HW1 1241   3.180   4.164   4.511 -0.6716 -0.3941 -0.4400
  332SOL    HW2 1242   3.085   4.256   4.438  0.1266  0.4148 -0.4781
  333SOL     OW 1243   2.816   4.023   0.861 -0.4520  0.5307  0.7001
  333SOL    HW1 1244   2.897   4.022   0.912 -0.1823 -0.3809  0.2735
  333SOL    HW2 1245   2.838   4.072   0.781 -0.3004  0.2209  0.5516
  334SOL     OW 1246   4.300   1.635   4.949 -0.3717 -0.6784  0.4670
  334SOL    HW1 1247   4.377   1.638   4.893 -0.4248 -0.6825  0.3940
  334SOL    HW2 1248   4.275   1.543   4.952  1.4364 -1.1714  2.9428
  335SOL     OW 1249   0.992   1.161   2.119 -0.1911 -0.3916  0.9610
  335SOL    HW1 1250   0.958   1.250   2.110 -0.7716 -0.7340 -0.5813
  335SOL    HW2 1251   1.068   1.170   2.177 -0.0679  1.1577  0.6093
  336SOL     OW 1252   3.299   4.648   4.166 -0.4324  0.8675  0.3379
  336SOL    HW1 1253   3.257   4.721   4.121 -1.5255 -0.1792 -0.3980
  336SOL    HW2 1254   3.351   4.605   4.099 -1.2356 -0.0787  0.2988
  337SOL     OW 1255   5.247   0.316   3.760  0.8422 -0.3279 -0.0820
  337SOL    HW1 1256   5.231   0.307   3.854  0.0347 -2.0908 -0.3470
  337SOL    HW2 1257   5.316   0.252   3.742 -0.1156 -1.1417 -0.9433
  338SOL     OW 1258   3.236   0.724   3.642  0.1208  0.4262  0.6173
  338SOL    HW1 1259   3.303   0.713   3.574  1.6772 -0.7667  2.2760
  338SOL    HW2 1260   3.283   0.759   3.717 -1.2961  0.3701  1.5739
  339SOL     OW 1261   3.367   2.070   5.697  0.3875  0.3084 -0.5870
  339SOL    HW1 1262   3.402   2.036   5.614 -0.4483 -0.9043 -0.4510
  339SOL    HW2 1263   3.348   2.162   5.678  0.5539  0.1401 -1.6356
  340SOL     OW 1264   0.443   2.287   0.337 -0.1937  0.5179 -0.6967
  340SOL    HW1 1265   0.374   2.352   0.326  1.0927  2.2549  0.9361
  340SOL    HW2 1266   0.517   2.321   0.286  0.1853 -0.1951 -0.6445
  341SOL     OW 1267   3.388   2.062   2.506  0.3920  0.3497  0.7782
  341SOL    HW1 1268   3.298   2.086   2.525 -0.0807 -1.2812  0.8036
  341SOL    HW2 1269   3.427   2.140   2.468 -0.5289  1.6251  2.3337
  342SOL     OW 1270   0.727   2.459   2.755 -0.1509  0.0068 -0.7308
  342SOL    HW1 1271   0.750   2.486   2.666  0.7899  0.8241 -0.2575
  342SOL    HW2 1272   0.732   2.364   2.753 -0.1037  0.0148 -1.5361
  343SOL     OW 1273   4.487   4.361   2.504  0.3086  0.3313 -0.1172
  343SOL    HW1 1274   4.508   4.270   2.525 -0.1848  0.1535 -0.3673
  343SOL    HW2 1275   4.496   4.407   2.587 -1.3775 -0.3219  0.4807
  344SOL     OW 1276   3.985   4.069   5.830 -0.1128  0.1600 -0.2319
  344SOL    HW1 1277   4.045   4.038   5.897 -0.5394 -1.1451 -0.4295
  344SOL    HW2 1278   4.033   4.058   5.748 -0.8384 -1.5661 -0.4641
  345SOL     OW 1279   2.154   5.540   5.015 -0.7572  0.1632 -0.4409
  345SOL    HW1 1280   2.249   5.547   5.008 -0.8162  1.7018 -0.2112
  345SOL    HW2 1281   2.139   5.498   5.099 -0.2582  1.4133  0.3115
  346SOL     OW 1282   4.275   5.420   0.774  0.1798  0.1399 -0.8429
  346SOL    HW1 1283   4.357   5.375   0.794 -0.5619 -0.5806  0.8338
  346SOL    HW2 1284   4.302   5.505   0.739  1.6259 -0.2747 -0.8109
  347SOL     OW 1285   4.291   4.123   0.202 -0.1169 -0.4223  0.8884
  347SOL    HW1 1286   4.271   4.077   0.284  1.3955  0.0573  1.5642
  347SOL    HW2 1287   4.367   4.078   0.167  0.8881  1.0180  1.1392
  348SOL     OW 1288   0.795   2.653   3.718 -0.4268 -0.5181 -0.7953
  348SOL    HW1 1289   0.811   2.742   3.684 -1.0837 -0.2679 -0.4607
  348SOL    HW2 1290   0.711   2.628   3.679 -1.5499  0.0493  1.1496
  349SOL     OW 1291   1.373   1.799   5.346 -0.4204  0.3247 -0.0280
  349SOL    HW1 1292   1.291   1.800   5.396 -0.5039  1.8286 -0.1621
  349SOL    HW2 1293   1.440   1.779   5.411 -1.0349 -3.0332 -0.2427
  350SOL     OW 1294   2.922   0.409   0.696 -0.1805  0.1319  0.2117
  350SOL    HW1 1295   2.874   0.328   0.715 -0.8766  0.7397  1.1566
  350SOL    HW2 1296   2.984   0.418   0.768 -1.9641  1.8058  1.6366
  351SOL     OW 1297   3.161   5.041   5.322  0.2131  0.3255  0.4956
  351SOL    HW1 1298   3.252   5.049   5.292 -0.0709 -1.0694 -0.8648
  351SOL    HW2 1299   3.159   4.959   5.370 -0.1121  0.8799  1.4519
  352SOL     OW 1300   4.763   2.704   0.305  0.3607  0.7522 -0.0982
  352SOL    HW1 1301   4.776   2.611   0.323  2.7404  0.9786 -0.3729
  352SOL    HW2 1302   4.673   2.709   0.273  0.3670 -1.5635 -0.6957
  353SOL     OW 1303   6.032   2.655   0.496  0.4635  0.9028 -0.2377
  353SOL    HW1 1304   5.996   2.567   0.481  0.3087  0.9814 -0.3356
  353SOL    HW2 1305   6.059   2.654   0.588  0.9312  0.5891 -0.3724
  354SOL     OW 1306   5.766   2.680   3.419 -0.1250 -0.1665 -0.4299
  354SOL    HW1 1307   5.830   2.734   3.372 -0.3393  1.2022  0.7962
  354SOL    HW2 1308   5.705   2.651   3.352  0.9777 -0.3315 -1.3931
  355SOL     OW 1309   3.732   3.186   1.390  0.5024  0.2604 -0.3795
  355SOL    HW1 1310   3.658   3.163   1.335  0.1680 -2.3070  1.0233
  355SOL    HW2 1311   3.694   3.207   1.475  1.3353 -1.1850  0.3888
  356SOL     OW 1312   1.497   3.997   5.935 -0.0482 -0.2037  0.0410
  356SOL    HW1 1313   1.582   4.024   5.970 -0.0628  1.4882 -1.0811
  356SOL    HW2 1314   1.460   4.078   5.898 -1.3519 -1.2597 -1.0863
  357SOL     OW 1315   5.628   3.490   5.696  0.0324 -0.9306  0.2612
  357SOL    HW1 1316   5.608   3.400   5.670 -3.4690  0.0827 -1.1827
  357SOL    HW2 1317   5.559   3.511   5.760 -0.9145  1.4997 -1.4434
  358SOL     OW 1318   5.624   2.159   5.546 -0.0676  0.2353 -0.6093
  358SOL    HW1 1319   5.548   2.215   5.531  0.1788  1.2355  1.4516
  358SOL    HW2 1320   5.699   2.211   5.517 -0.0650 -0.3301 -1.6576
  359SOL     OW 1321   5.626   2.464   5.388 -0.6467 -0.2090  0.1358
  359SOL    HW1 1322   5.554   2.402   5.374  0.3396 -1.0214 -1.6796
  359SOL    HW2 1323   5.705   2.414   5.369  0.2661  1.2784 -0.1708
  360SOL     OW 1324   2.916   0.882   4.610 -0.3629 -0.0496 -0.2604
  360SOL    HW1 1325   2.977   0.839   4.550  1.2569  1.2582  0.3658
  360SOL    HW2 1326   2.922   0.975   4.588  0.2620  0.4768  1.8331
  361SOL     OW 1327   4.463   4.720   5.130  0.2647 -0.4870 -0.3891
  361SOL    HW1 1328   4.507   4.762   5.204  0.7374  0.9664 -1.4366
  361SOL    HW2 1329   4.370   4.732   5.147  0.3140  3.2341 -1.7207
  362SOL     OW 1330   1.830   4.944   2.221 -0.6590 -0.2131  0.1227
  362SOL    HW1 1331   1.763   4.879   2.242 -0.0591 -0.4712  1.3142
  362SOL    HW2 1332   1.912   4.896   2.227 -0.1250  0.8332  1.9905
  363SOL     OW 1333   3.279   5.452   5.838 -0.2642 -0.2565  0.0076
  363SOL    HW1 1334   3.291   5.524   5.775 -0.6806 -0.8689 -0.7875
  363SOL    HW2 1335   3.239   5.494   5.915  0.2090  0.4944 -0.1449
  364SOL     OW 1336   4.805   2.266   4.292  0.3109  0.6383 -0.0434
  364SOL    HW1 1337   4.791   2.185   4.243  0.6755  1.0780 -0.8962
  364SOL    HW2 1338   4.741   2.262   4.363  0.2208 -0.3223 -0.1600
  365SOL     OW 1339   3.614   1.669   5.785  1.1609  0.5236 -0.0150
  365SOL    HW1 1340   3.531   1.629   5.812  0.6416  0.8781 -1.0482
  365SOL    HW2 1341   3.653   1.605   5.726  0.4102  1.4060 -1.5364
  366SOL     OW 1342   5.302   5.701   3.893  0.2700 -0.5546  0.4932
  366SOL    HW1 1343   5.283   5.780   3.944 -1.6017 -0.0565 -0.8456
  366SOL    HW2 1344   5.379   5.723   3.841 -0.1483  0.3748  0.2395
  367SOL     OW 1345   0.969   4.496   2.906  0.2644  0.6273 -0.0297
  367SOL    HW1 1346   1.058   4.499   2.939  0.8042 -0.1711 -1.3314
  367SOL    HW2 1347   0.944   4.404   2.911 -0.6401  0.8915  0.6634
  368SOL     OW 1348   1.120   1.286   5.540 -0.1606  0.2753  0.2951
  368SOL    HW1 1349   1.049   1.326   5.590 -0.4108 -0.5471  0.6008
  368SOL    HW2 1350   1.128   1.341   5.462 -1.8249 -0.2315 -0.2518
  369SOL     OW 1351   1.954   5.658   1.435  0.2680 -0.0456 -0.2289
  369SOL    HW1 1352   2.049   5.654   1.425  0.2726 -0.2992 -0.1060
  369SOL    HW2 1353   1.934   5.587   1.496  0.0257  0.1600 -0.0649
  370SOL     OW 1354   2.348   0.282   4.288 -0.7221 -0.4745 -0.0540
  370SOL    HW1 1355   2.279   0.217   4.273 -1.1360 -0.5524  1.8977
  370SOL    HW2 1356   2.323   0.325   4.370  1.2743 -0.1126  0.4203
  371SOL     OW 1357   2.593   5.827   4.658 -0.2681  0.6601 -0.8594
  371SOL    HW1 1358   2.514   5.857   4.614  0.6292  2.9313 -1.0656
  371SOL    HW2 1359   2.572   5.829   4.752 -0.7307  0.3086 -0.9529
  372SOL     OW 1360   1.603   2.611   4.458 -0.3707 -0.0474 -0.3073
  372SOL    HW1 1361   1.681   2.646   4.501 -0.3877 -0.5072  0.1077
  372SOL    HW2 1362   1.540   2.597   4.530 -0.6664 -0.1212 -0.5760
  373SOL     OW 1363   4.491   4.993   0.751  0.4046 -0.7856  0.4040
  373SOL    HW1 1364   4.514   5.071   0.801  1.3988 -0.1431 -0.9811
  373SOL    HW2 1365   4.548   4.996   0.674  0.5624 -2.9531  0.3747
  374SOL     OW 1366   2.058   4.134   1.647 -0.0252  0.0905  0.1076
  374SOL    HW1 1367   1.964   4.140   1.667  0.0637 -1.5344  1.2339
  374SOL    HW2 1368   2.066   4.058   1.590  0.6605 -0.0853  0.4242
  375SOL     OW 1369   0.835   0.929   2.052  0.1950  0.3453  0.3593
  375SOL    HW1 1370   0.902   0.884   2.000  0.0177  1.6094 -1.0332
  375SOL    HW2 1371   0.874   1.013   2.074 -1.6182  2.0928 -2.4360
  376SOL     OW 1372   3.933   3.930   1.383 -0.4582  0.2214 -0.1803
  376SOL    HW1 1373   4.012   3.944   1.436  1.9187  2.1968 -3.8383
  376SOL    HW2 1374   3.958   3.955   1.295 -4.2943 -2.2967 -2.2885
  377SOL     OW 1375   2.413   4.890   3.846  0.4814 -0.0732  0.2273
  377SOL    HW1 1376   2.358   4.953   3.893  0.4952 -0.2272  0.4457
  377SOL    HW2 1377   2.443   4.829   3.912  1.4262  0.3642  0.2231
  378SOL     OW 1378   5.908   4.490   4.551  0.1107 -0.5332 -0.3796
  378SOL    HW1 1379   5.897   4.558   4.618 -0.6903 -0.2754 -0.7592
  378SOL    HW2 1380   5.869   4.412   4.589  1.6886 -1.0128  0.3590
  379SOL     OW 1381   3.944   2.032   5.573 -0.0984 -0.1788 -0.1865
  379SOL    HW1 1382   3.988   1.995   5.497 -0.1432 -0.2435 -0.1809
  379SOL    HW2 1383   3.869   1.975   5.589  1.8550 -2.3643  2.1017
  380SOL     OW 1384   1.434   1.490   1.148  0.4433  0.3850  0.4748
  380SOL    HW1 1385   1.500   1.506   1.216 -1.0287  0.4613  1.9493
  380SOL    HW2 1386   1.401   1.577   1.125  0.6624  0.3292 -0.0582
  381SOL     OW 1387   5.567   4.956   4.337  0.0188 -0.2512 -0.1092
  381SOL    HW1 1388   5.486   5.004   4.324 -0.6088 -1.4460 -0.7716
  381SOL    HW2 1389   5.540   4.866   4.356  1.1654 -0.5160  0.4019
  382SOL     OW 1390   1.918   3.517   4.441  0.2934  0.9884  0.1106
  382SOL    HW1 1391   1.944   3.609   4.451  1.1075  0.9129 -1.1208
  382SOL    HW2 1392   1.837   3.510   4.490 -0.7019  2.7930 -1.1468
  383SOL     OW 1393   4.901   4.051   1.903 -0.1296  0.2896  0.0942
  383SOL    HW1 1394   4.909   3.983   1.836 -1.5982 -1.3089  1.4428
  383SOL    HW2 1395   4.813   4.086   1.893 -0.2723  0.2248  0.9891
  384SOL     OW 1396   0.160   2.710   0.470 -0.2213 -0.5427 -0.4264
  384SOL    HW1 1397   0.065   2.713   0.478 -0.1353  1.4247  0.5452
  384SOL    HW2 1398   0.180   2.768   0.396  0.2052 -1.3937 -0.9915
  385SOL     OW 1399   2.872   2.662   4.255  0.5161  0.1505  0.2819
  385SOL    HW1 1400   2.834   2.612   4.327  0.9283  0.5809  0.8085
  385SOL    HW2 1401   2.842   2.752   4.268  1.3289  0.4076  0.4478
  386SOL     OW 1402   4.851   5.954   0.281 -0.0040 -0.2554 -0.4901
  386SOL    HW1 1403   4.885   6.042   0.291 -2.8142  0.7809  1.1045
  386SOL    HW2 1404   4.869   5.911   0.365 -0.2336 -0.6122 -0.6181
  387SOL     OW 1405   5.693   0.536   5.996  0.1992  0.3702  0.3470
  387SOL    HW1 1406   5.609   0.498   6.018  0.6799  0.6975  3.1077
  387SOL    HW2 1407   5.675   0.629   5.981  0.2723  0.9198  3.1601
  388SOL     OW 1408   2.002   2.227   1.975 -0.0123  0.1072 -0.6256
  388SOL    HW1 1409   2.042   2.163   2.033 -0.3284 -0.1831 -0.7253
  388SOL    HW2 1410   2.031   2.202   1.887  0.1733  0.3304 -0.6292
  389SOL     OW 1411   0.011   0.523   1.300 -0.0933  0.9315 -0.4475
  389SOL    HW1 1412  -0.074   0.512   1.342 -0.3603 -0.8312 -1.3672
  389SOL    HW2 1413   0.002   0.478   1.216  1.6674  0.9647 -0.6859
  390SOL     OW 1414   3.426   0.834   5.887  0.2537 -0.4683 -0.1874
  390SOL    HW1 1415   3.402   0.909   5.940 -1.9538 -0.8007 -0.6288
  390SOL    HW2 1416   3.422   0.866   5.797 -0.9212 -1.1385 -0.3905
  391SOL     OW 1417   0.580   1.439   0.985  0.4538  0.2911 -0.5183
  391SOL    HW1 1418   0.555   1.486   0.906 -0.2516  0.4629 -0.1970
  391SOL    HW2 1419   0.599   1.350   0.955  2.3079  0.8852 -1.2046
  392SOL     OW 1420   4.125   5.862   4.574 -0.3686  0.2627  0.9927
  392SOL    HW1 1421   4.062   5.826   4.512  0.5516  1.1459 -0.5115
  392SOL    HW2 1422   4.074   5.923   4.628 -1.0318  0.0399  0.6215
  393SOL     OW 1423   0.324   1.382   3.013  0.2270  0.3170 -0.2405
  393SOL    HW1 1424   0.419   1.380   3.027  0.3293 -1.9375 -0.8586
  393SOL    HW2 1425   0.287   1.397   3.100  1.1173  1.3710 -0.0151
  394SOL     OW 1426   1.694   4.665   3.055  0.4157  0.0922 -0.2240
  394SOL    HW1 1427   1.754   4.739   3.043  2.0260 -0.9671  0.7742
  394SOL    HW2 1428   1.753   4.589   3.065 -1.1006 -0.9506  1.1877
  395SOL     OW 1429   4.991   5.007   0.631 -0.2712 -0.4511 -0.2665
  395SOL    HW1 1430   5.059   4.986   0.567 -0.0763 -1.1376  0.1510
  395SOL    HW2 1431   4.981   5.102   0.625  1.6863 -0.1395  0.6025
  396SOL     OW 1432   4.066   3.827   0.362 -0.3926  0.0302  0.7046
  396SOL    HW1 1433   3.981   3.866   0.386 -0.6049 -1.0339  1.7497
  396SOL    HW2 1434   4.130   3.883   0.405 -0.6748 -0.5067  1.8397
  397SOL     OW 1435   1.497   3.412   0.423 -0.9302  0.1287  0.2547
  397SOL    HW1 1436   1.510   3.503   0.449  0.4261  0.3203 -0.9417
  397SOL    HW2 1437   1.544   3.361   0.488  0.0507  0.4210 -0.2118
  398SOL     OW 1438   2.130   3.324   4.961  0.2381  0.3429 -0.2038
  398SOL    HW1 1439   2.213   3.303   5.003  0.4972  1.2387 -0.2422
  398SOL    HW2 1440   2.063   3.291   5.021  0.6170  0.4164  0.2643
  399SOL     OW 1441   2.285   5.479   5.290 -0.1732 -0.1580  0.0427
  399SOL    HW1 1442   2.255   5.556   5.338  0.9209 -0.9742  2.1661
  399SOL    HW2 1443   2.324   5.514   5.210 -0.9765  1.3592  0.2795
  400SOL     OW 1444   5.052   3.532   3.754  0.4029  0.0711 -0.6065
  400SOL    HW1 1445   5.088   3.448   3.725  2.9170  0.9229 -0.2072
  400SOL    HW2 1446   5.057   3.588   3.676  0.1750  0.2814 -0.4709
  401SOL     OW 1447   4.182   4.737   0.953  0.1697 -0.6436  0.1069
  401SOL    HW1 1448   4.129   4.808   0.918  0.0553 -0.2370  1.0747
  401SOL    HW2 1449   4.249   4.721   0.886  0.5123  0.7410  0.0955
  402SOL     OW 1450   1.793   0.964   3.742  0.3679 -0.5071 -0.1426
  402SOL    HW1 1451   1.855   0.896   3.715  0.2581  0.0828 -2.0181
  402SOL    HW2 1452   1.797   1.029   3.672 -2.6323 -0.6438 -0.5711
  403SOL     OW 1453   1.684   4.152   5.260  0.3698  0.1257 -0.2378
  403SOL    HW1 1454   1.779   4.151   5.272  0.6335  0.7161 -2.0199
  403SOL    HW2 1455   1.670   4.123   5.170 -0.9767  2.0652 -0.7375
  404SOL     OW 1456   0.901   5.377   2.221 -0.1890  0.0379  0.4434
  404SOL    HW1 1457   0.905   5.392   2.315 -0.1720 -0.0200  0.4518
  404SOL    HW2 1458   0.820   5.420   2.193 -1.1528 -1.4980  0.7739
  405SOL     OW 1459   5.176   6.013   3.521 -0.4474  0.1861  0.0182
  405SOL    HW1 1460   5.263   6.046   3.544 -0.4168  0.8025 -0.9179
  405SOL    HW2 1461   5.189   5.919   3.507  0.2924  0.4337 -1.1070
  406SOL     OW 1462   3.930   2.778   1.876 -0.0465 -0.3212 -0.6549
  406SOL    HW1 1463   3.968   2.691   1.883  1.1759  0.2599  0.4704
  406SOL    HW2 1464   3.972   2.816   1.798  2.6386  0.6703  1.1059
  407SOL     OW 1465   2.225   5.608   2.151  0.3795  0.1478  0.2669
  407SOL    HW1 1466   2.254   5.672   2.216 -0.6904 -1.1522  2.0840
  407SOL    HW2 1467   2.222   5.525   2.197 -0.0796 -0.9133 -1.5551
  408SOL     OW 1468   5.792   3.778   5.928 -0.3451  0.4261  0.2686
  408SOL    HW1 1469   5.832   3.757   5.843 -1.0154  1.6676 -0.3782
  408SOL    HW2 1470   5.756   3.866   5.916 -1.5964  0.0963  1.4435
  409SOL     OW 1471   1.250   2.508   0.860  0.4914 -0.2213  0.3428
  409SOL    HW1 1472   1.223   2.595   0.888  1.5842  0.1998  0.1506
  409SOL    HW2 1473   1.289   2.522   0.773  0.1709 -0.9908  0.0694
  410SOL     OW 1474   1.650   0.663   5.117 -0.7247  0.1594  0.7042
  410SOL    HW1 1475   1.727   0.614   5.090  1.6209  2.5006  2.5864
  410SOL    HW2 1476   1.583   0.597   5.133  1.0175 -2.0253 -0.4934
  411SOL     OW 1477   1.535   0.879   3.023 -0.1193  0.0283 -0.3248
  411SOL    HW1 1478   1.543   0.941   2.950  0.9597  0.5197  0.1909
  411SOL    HW2 1479   1.485   0.806   2.986  1.5187 -0.3521 -1.9721
  412SOL     OW 1480   4.963   5.195   0.267 -0.4666 -0.1678 -0.3622
  412SOL    HW1 1481   4.967   5.234   0.180 -0.5819  0.0225 -0.2829
  412SOL    HW2 1482   4.880   5.147   0.267 -1.6036  1.7197  0.4260
  413SOL     OW 1483   5.124   0.031   1.504 -0.7928 -0.1332 -0.2714
  413SOL    HW1 1484   5.095  -0.003   1.419 -1.2412 -1.8301  0.5210
  413SOL    HW2 1485   5.177  -0.040   1.541  0.3277  1.0230  0.4014
  414SOL     OW 1486   2.262   2.224   1.297  0.2596 -0.0524  0.0428
  414SOL    HW1 1487   2.256   2.192   1.207 -0.6257  0.6059 -0.1510
  414SOL    HW2 1488   2.235   2.316   1.291  1.7720  0.4655  0.7345
  415SOL     OW 1489   1.645   3.636   5.246 -0.1629 -0.1647  0.2569
  415SOL    HW1 1490   1.664   3.713   5.300 -0.7720  0.7211 -0.7494
  415SOL    HW2 1491   1.724   3.623   5.194 -0.1417 -0.0755  0.2661
  416SOL     OW 1492   3.236   0.428   5.216 -0.1236 -0.0438 -0.4779
  416SOL    HW1 1493   3.324   0.454   5.190 -0.4682  1.0477 -0.6303
  416SOL    HW2 1494   3.204   0.501   5.269 -0.3166 -1.1905  1.0474
  417SOL     OW 1495   3.623   3.287   2.843  0.1427  0.2583  0.5179
  417SOL    HW1 1496   3.586   3.312   2.758 -0.0155 -0.3365  0.4036
  417SOL    HW2 1497   3.547   3.259   2.894  0.3791 -0.5983  0.4174
  418SOL     OW 1498   2.455   6.038   4.274  0.7829  0.2387  0.5186
  418SOL    HW1 1499   2.500   6.115   4.309  0.3811  1.0008 -0.5790
  418SOL    HW2 1500   2.444   6.058   4.181 -0.0173 -0.8154  0.3798
  419SOL     OW 1501   2.845   1.412   1.440 -0.0371  0.1004  0.1848
  419SOL    HW1 1502   2.822   1.491   1.489  1.2889  0.1599  0.7413
  419SOL    HW2 1503   2.849   1.441   1.349  0.6263  0.7190  0.4073
  420SOL     OW 1504   4.994   1.919   0.056  0.3326 -0.0222 -0.4169
  420SOL    HW1 1505   5.069   1.977   0.053 -0.0061  0.3928 -1.0241
  420SOL    HW2 1506   4.948   1.941   0.137  1.7315 -1.3984  0.8171
  421SOL     OW 1507   0.412   0.267   0.558 -0.1276 -0.2989 -0.0741
  421SOL    HW1 1508   0.334   0.220   0.589 -1.3093  0.3106 -1.9343
  421SOL    HW2 1509   0.381   0.316   0.482  1.6863  1.3831  0.1986
  422SOL     OW 1510   5.479   3.797   5.810 -0.3364 -0.3080 -0.2387
  422SOL    HW1 1511   5.540   3.839   5.871 -1.8725  0.9387  0.5203
  422SOL    HW2 1512   5.429   3.870   5.773 -1.6226 -1.3096 -0.5341
  423SOL     OW 1513   2.686   3.948   1.288  0.3998 -0.0903  0.0384
  423SOL    HW1 1514   2.634   3.927   1.210  0.8392  0.7985 -0.5181
  423SOL    HW2 1515   2.656   3.886   1.354  0.6699 -1.4799 -1.0941
  424SOL     OW 1516   5.948   2.273   3.836  0.0082  0.2275 -0.4194
  424SOL    HW1 1517   5.861   2.272   3.875  0.3075 -0.9463  0.2841
  424SOL    HW2 1518   6.007   2.255   3.909  0.8234  0.7791 -0.9264
  425SOL     OW 1519   1.123   3.969   1.200 -0.0743 -0.2649  0.0987
  425SOL    HW1 1520   1.066   3.964   1.276 -0.0396  0.2032  0.1569
  425SOL    HW2 1521   1.211   3.964   1.236 -0.0706 -2.0017 -0.0660
  426SOL     OW 1522   5.329   5.371   1.659  0.4531 -0.2465  0.0114
  426SOL    HW1 1523   5.269   5.313   1.706  1.0054  0.0907  1.1762
  426SOL    HW2 1524   5.416   5.338   1.682  0.8401  1.8308  1.8467
  427SOL     OW 1525   1.589   3.546   3.480 -0.1029  0.9989 -0.2309
  427SOL    HW1 1526   1.525   3.480   3.509 -0.3001  1.0991 -0.4322
  427SOL    HW2 1527   1.660   3.494   3.442 -0.4124  0.9049 -0.7012
  428SOL     OW 1528   1.753   0.085   2.222 -0.0268  0.1214 -0.1113
  428SOL    HW1 1529   1.812   0.117   2.154  1.1567  0.3709  0.9997
  428SOL    HW2 1530   1.724  -0.000   2.190  3.2320 -1.3990  0.5562
  429SOL     OW 1531   1.476   5.508   0.862 -0.8740  0.5898  0.1997
  429SOL    HW1 1532   1.536   5.578   0.889 -1.2806  1.1848 -0.4079
  429SOL    HW2 1533   1.477   5.511   0.767 -0.4180 -0.6618  0.1437
  430SOL     OW 1534   3.943   2.282   1.439 -0.4044  0.5489 -0.0797
  430SOL    HW1 1535   3.919   2.255   1.351 -0.9256  1.2650 -0.1663
  430SOL    HW2 1536   3.884   2.234   1.497  1.2458 -1.4868  0.0540
  431SOL     OW 1537   4.175   0.734   3.259 -0.1839 -0.0050 -0.5097
  431SOL    HW1 1538   4.158   0.663   3.197 -0.2420  0.4061 -0.9705
  431SOL    HW2 1539   4.266   0.721   3.286  0.1056  0.2955 -1.3197
  432SOL     OW 1540   5.026   0.259   3.226 -0.4099  0.1446 -1.0187
  432SOL    HW1 1541   4.981   0.282   3.145 -1.7052  1.7611  0.0956
  432SOL    HW2 1542   5.093   0.327   3.237 -0.8261  0.4573 -0.3105
  433SOL     OW 1543   5.687   3.811   3.333 -0.0435  0.3477 -0.0321
  433SOL    HW1 1544   5.670   3.885   3.275 -0.5804 -1.4970 -2.3596
  433SOL    HW2 1545   5.603   3.792   3.374 -0.6548 -0.7231 -1.6779
  434SOL     OW 1546   5.335   4.736   5.115 -0.7516  0.7745 -0.2236
  434SOL    HW1 1547   5.317   4.814   5.168 -1.2368 -0.1783  1.0834
  434SOL    HW2 1548   5.404   4.690   5.163 -0.4474  0.4192 -0.9947
  435SOL     OW 1549   3.965   5.901   1.775 -0.7660 -0.2120 -0.1578
  435SOL    HW1 1550   4.017   5.821   1.768 -0.7767 -0.1793 -0.7275
  435SOL    HW2 1551   3.999   5.945   1.852 -0.5215 -0.6005 -0.0394
  436SOL     OW 1552   2.730   1.297   2.956 -0.8315 -0.0545 -0.2932
  436SOL    HW1 1553   2.658   1.252   2.999 -1.0853  1.6948  1.1971
  436SOL    HW2 1554   2.696   1.384   2.936  0.8507  0.8247  0.4715
  437SOL     OW 1555   2.934   1.362   4.616 -0.3895  0.6523  0.0407
  437SOL    HW1 1556   2.855   1.399   4.575 -0.3458  1.1285  0.3746
  437SOL    HW2 1557   2.915   1.364   4.710 -0.1645  0.3262  0.0932
  438SOL     OW 1558   4.627   5.569   2.956 -0.0833 -0.4141  0.2745
  438SOL    HW1 1559   4.602   5.583   3.048 -0.3342 -1.0526  0.3100
  438SOL    HW2 1560   4.715   5.605   2.949 -1.2534  2.6206 -0.0366
  439SOL     OW 1561   1.733   2.342   3.512  0.0356  0.1995 -0.1638
  439SOL    HW1 1562   1.747   2.290   3.591 -0.5219  1.1223  0.5557
  439SOL    HW2 1563   1.651   2.307   3.476  1.2494 -1.5222 -1.4211
  440SOL     OW 1564   1.202   6.047   1.129  0.0121 -0.4148 -0.3161
  440SOL    HW1 1565   1.214   5.964   1.082 -1.3698 -0.5441 -0.4850
  440SOL    HW2 1566   1.172   6.021   1.216  1.0539 -0.1280  0.1365
  441SOL     OW 1567   2.716   3.883   3.770 -0.1483 -0.4265 -0.4392
  441SOL    HW1 1568   2.663   3.877   3.849  0.0334 -0.0121 -0.2791
  441SOL    HW2 1569   2.731   3.977   3.759  0.3501 -0.5252 -0.6152
  442SOL     OW 1570   3.487   2.038   4.717  0.3798  0.5383  0.1488
  442SOL    HW1 1571   3.453   2.005   4.633 -0.3446 -0.5685  0.8476
  442SOL    HW2 1572   3.495   1.960   4.771  0.0715  1.3349  1.3748
  443SOL     OW 1573   5.206   1.992   2.081  0.6964 -0.1412 -0.6028
  443SOL    HW1 1574   5.115   1.983   2.051  0.7844 -0.1305 -0.8804
  443SOL    HW2 1575   5.255   2.014   2.001  0.5708  2.2837 -0.0814
  444SOL     OW 1576   5.409   1.046   3.508 -0.1949  0.0128 -0.2043
  444SOL    HW1 1577   5.422   1.135   3.541  0.7319 -1.1109  2.8316
  444SOL    HW2 1578   5.497   1.013   3.493 -0.4030 -1.0083  0.6841
  445SOL     OW 1579   1.957   4.564   1.668  0.5371  0.3234  0.0261
  445SOL    HW1 1580   1.955   4.573   1.763  0.3631 -0.2088  0.0744
  445SOL    HW2 1581   1.883   4.508   1.647 -0.7947  2.2471 -0.6472
  446SOL     OW 1582   2.347   3.171   4.291 -0.7320  0.4658 -0.7663
  446SOL    HW1 1583   2.371   3.188   4.382 -0.1304 -2.1256 -0.3491
  446SOL    HW2 1584   2.257   3.203   4.284 -1.2303 -0.3627  1.1189
  447SOL     OW 1585   5.884   4.206   4.859  0.0573  0.3370  0.0765
  447SOL    HW1 1586   5.814   4.215   4.924  0.3082 -2.2492  0.8225
  447SOL    HW2 1587   5.964   4.213   4.910  0.3356  1.2765 -0.4645
  448SOL     OW 1588   0.238   3.979   3.644  0.0596 -0.0104  0.1111
  448SOL    HW1 1589   0.263   4.005   3.556 -0.0127  0.2790  0.1761
  448SOL    HW2 1590   0.202   3.891   3.633 -0.1053  0.0913 -0.1731
  449SOL     OW 1591   4.614   1.093   0.270  0.3710  0.4763 -0.1814
  449SOL    HW1 1592   4.612   1.082   0.365  0.5902  2.3458  0.0779
  449SOL    HW2 1593   4.683   1.158   0.255 -0.7960  1.4809 -1.4561
  450SOL     OW 1594   5.576   3.019   3.373 -0.0083 -0.0769  0.4548
  450SOL    HW1 1595   5.658   2.970   3.382 -0.8313 -1.9780 -1.4498
  450SOL    HW2 1596   5.604   3.110   3.362  1.8700 -0.6898 -0.3558
  451SOL     OW 1597   3.576   2.536   5.052  0.4893  0.0580 -0.3962
  451SOL    HW1 1598   3.595   2.443   5.053  0.4352 -0.0080 -2.0650
  451SOL    HW2 1599   3.661   2.578   5.037  0.5714  0.3180  0.7184
  452SOL     OW 1600   3.733   4.820   5.546  0.1131  0.2112 -0.4668
  452SOL    HW1 1601   3.661   4.773   5.505 -0.4928  0.3730  0.3688
  452SOL    HW2 1602   3.810   4.799   5.493 -0.1645 -1.5755 -0.2128
  453SOL     OW 1603   0.999   0.005   1.839 -0.8269  0.4764  0.0829
  453SOL    HW1 1604   1.027  -0.087   1.841  0.6324  0.6737 -3.3832
  453SOL    HW2 1605   0.904   0.001   1.835 -0.7971 -0.8889  0.1785
  454SOL     OW 1606   3.543   3.147   0.795  0.0643 -0.1804 -0.4614
  454SOL    HW1 1607   3.594   3.137   0.875  0.8519  0.8593 -0.8076
  454SOL    HW2 1608   3.498   3.063   0.784 -0.3737 -0.2140  1.2717
  455SOL     OW 1609   5.267   2.003   3.805 -0.0329  0.8768 -0.1394
  455SOL    HW1 1610   5.302   2.019   3.718 -1.2578  1.6112 -0.5318
  455SOL    HW2 1611   5.287   2.082   3.855  2.1061 -0.1755  0.7858
  456SOL     OW 1612   5.704   5.464   3.111 -0.1113 -0.2230 -0.1979
  456SOL    HW1 1613   5.734   5.522   3.042 -0.9045 -2.7072 -2.8257
  456SOL    HW2 1614   5.751   5.382   3.095 -1.7841 -1.4856  1.0036
  457SOL     OW 1615   4.156   5.721   1.786 -0.0661  0.1947  0.3825
  457SOL    HW1 1616   4.217   5.736   1.858  1.1216 -2.2765  0.0320
  457SOL    HW2 1617   4.212   5.696   1.712 -1.4342 -2.0992  0.0203
  458SOL     OW 1618   1.029   6.142   0.914  0.1002 -0.1991 -0.6503
  458SOL    HW1 1619   1.050   6.235   0.912 -0.6478 -0.0136 -0.4165
  458SOL    HW2 1620   1.100   6.103   0.966 -0.1208  0.3985  0.1303
  459SOL     OW 1621   3.518   1.158   0.085 -0.2260  0.3311  0.2339
  459SOL    HW1 1622   3.582   1.220   0.121  1.1704 -0.9662  0.1192
  459SOL    HW2 1623   3.565   1.074   0.084 -1.8799 -0.6294 -0.0775
  460SOL     OW 1624   3.525   4.317   5.130  0.5250 -0.3489 -0.0524
  460SOL    HW1 1625   3.460   4.344   5.196  1.0775 -0.2638  0.4661
  460SOL    HW2 1626   3.554   4.230   5.159  1.3415  0.0174  0.2604
  461SOL     OW 1627   1.488   1.079   3.489 -0.5928  0.8338 -0.0243
  461SOL    HW1 1628   1.564   1.137   3.481  0.3680 -0.2155  1.1674
  461SOL    HW2 1629   1.480   1.062   3.583  0.4157 -2.5263 -0.4009
  462SOL     OW 1630   0.242   3.193   3.710 -0.1990  0.1407 -0.6706
  462SOL    HW1 1631   0.252   3.136   3.633  4.2383  0.2127 -0.3826
  462SOL    HW2 1632   0.263   3.280   3.678 -1.1365  0.6529  0.0747
  463SOL     OW 1633   1.407   4.962   1.541  0.1639  0.1162 -0.3487
  463SOL    HW1 1634   1.331   4.921   1.581 -0.3819 -0.5983 -1.9956
  463SOL    HW2 1635   1.477   4.953   1.605 -0.5531 -1.3278  0.2579
  464SOL     OW 1636   2.820   5.468   5.494 -0.7991 -0.3286  0.2359
  464SOL    HW1 1637   2.784   5.416   5.423 -1.6113  2.0404 -1.1914
  464SOL    HW2 1638   2.915   5.468   5.479 -0.6215 -2.3450  1.0206
  465SOL     OW 1639   1.543   5.344   1.115  0.2612  0.3981 -0.4371
  465SOL    HW1 1640   1.613   5.296   1.160  1.1536  0.1529 -2.0136
  465SOL    HW2 1641   1.573   5.435   1.114  0.8920  0.1860 -1.6962
  466SOL     OW 1642   5.835   1.219   3.394  0.4505  0.0438  0.6573
  466SOL    HW1 1643   5.815   1.297   3.342  1.9694  0.1099  0.1003
  466SOL    HW2 1644   5.821   1.246   3.484 -0.1168  0.6208  0.4057
  467SOL     OW 1645   4.639   0.262   1.448  0.3572 -0.0252  1.3000
  467SOL    HW1 1646   4.656   0.182   1.497  1.1298 -1.8635 -1.7274
  467SOL    HW2 1647   4.725   0.289   1.416 -0.1016  1.1555  1.0108
  468SOL     OW 1648   4.583   3.561   0.699  0.0425 -0.4437  0.0754
  468SOL    HW1 1649   4.626   3.647   0.697 -1.3221  0.2864 -2.3413
  468SOL    HW2 1650   4.620   3.514   0.624 -0.7085 -1.1491  0.1292
  469SOL     OW 1651   0.577   1.086   3.908  0.1055 -0.1823  0.3987
  469SOL    HW1 1652   0.635   1.157   3.936 -1.2733  0.3359  2.1191
  469SOL    HW2 1653   0.627   1.041   3.839  1.4674  1.7646 -0.0031
  470SOL     OW 1654   1.486   5.908   4.502  0.2554  0.1471 -0.1728
  470SOL    HW1 1655   1.461   5.834   4.448  0.8652 -0.7564  0.7596
  470SOL    HW2 1656   1.405   5.935   4.545  0.2338 -0.7053  0.3444
  471SOL     OW 1657   4.903   5.942   3.104 -0.0805 -0.2081 -0.4885
  471SOL    HW1 1658   4.856   5.994   3.038  1.2071  3.2375  1.0816
  471SOL    HW2 1659   4.994   5.944   3.075  0.0288 -1.5681 -0.3008
  472SOL     OW 1660   2.911   3.926   0.323  0.5836  0.0853 -0.1557
  472SOL    HW1 1661   2.903   3.909   0.229  0.5931 -1.0058  0.0212
  472SOL    HW2 1662   2.979   3.865   0.353  1.1221  0.9447  0.4363
  473SOL     OW 1663   4.448   1.723   0.930  0.0894 -0.2809 -0.2043
  473SOL    HW1 1664   4.481   1.735   1.019  0.7289 -2.3958 -0.0907
  473SOL    HW2 1665   4.374   1.783   0.923  1.8585  2.1782  0.6844
  474SOL     OW 1666   1.323   1.105   0.515 -0.4675 -0.4855  0.1267
  474SOL    HW1 1667   1.260   1.173   0.488 -0.5530 -0.7742 -0.4264
  474SOL    HW2 1668   1.359   1.073   0.432  0.5731 -0.1725  0.4546
  475SOL     OW 1669   4.350   2.532   4.434  0.4006 -0.4633 -0.1251
  475SOL    HW1 1670   4.340   2.437   4.437  0.9863 -0.5020  1.8739
  475SOL    HW2 1671   4.299   2.564   4.508 -0.0400  0.8256 -0.9554
  476SOL     OW 1672   0.252   4.139   0.971  0.3041 -0.6242  0.1262
  476SOL    HW1 1673   0.299   4.059   0.947  0.6774 -0.1091 -0.9406
  476SOL    HW2 1674   0.321   4.199   1.000  0.2208 -0.1464 -0.6448
  477SOL     OW 1675   1.960   3.815   2.214  0.0149  0.0345  0.8170
  477SOL    HW1 1676   1.991   3.851   2.131 -2.3211 -1.0789 -0.6546
  477SOL    HW2 1677   1.887   3.872   2.239 -0.0271 -0.3147  1.4965
  478SOL     OW 1678   3.818   5.863   2.878 -0.4055 -0.2249 -0.4776
  478SOL    HW1 1679   3.802   5.912   2.797  1.2353  0.7109 -0.2724
  478SOL    HW2 1680   3.891   5.908   2.919 -1.0914 -0.8014  1.4635
  479SOL     OW 1681   3.650   4.291   3.486 -0.8524  0.0753 -0.3124
  479SOL    HW1 1682   3.705   4.293   3.564 -0.6969 -2.0984 -0.2900
  479SOL    HW2 1683   3.577   4.349   3.506  0.3104  1.3315  0.5101
  480SOL     OW 1684   1.792   5.264   0.065 -0.6409  0.6894 -0.8832
  480SOL    HW1 1685   1.886   5.283   0.058 -0.6090  0.0681 -2.7311
  480SOL    HW2 1686   1.750   5.347   0.041 -0.6232  1.3019  1.0160
  481SOL     OW 1687   3.058   4.991   5.052  0.7155  0.0447 -0.3239
  481SOL    HW1 1688   3.060   5.078   5.013  1.5586  0.1079 -0.1633
  481SOL    HW2 1689   3.059   5.006   5.146 -0.9904 -0.1164 -0.2551
  482SOL     OW 1690   4.595   1.978   1.390 -0.3619  1.1222 -0.0758
  482SOL    HW1 1691   4.558   1.969   1.478 -3.3470  0.8719 -1.2227
  482SOL    HW2 1692   4.526   2.021   1.340  1.3777  1.5569 -2.2515
  483SOL     OW 1693   4.912   1.140   0.086  0.3349 -0.4432  0.0500
  483SOL    HW1 1694   4.982   1.128   0.022  0.7514  0.7715  0.2441
  483SOL    HW2 1695   4.949   1.109   0.168  0.9111  0.7880  0.2822
  484SOL     OW 1696   5.302   0.338   5.569 -0.0242  0.4119  0.3254
  484SOL    HW1 1697   5.239   0.381   5.511  2.2315  0.1620 -2.5587
  484SOL    HW2 1698   5.304   0.247   5.538  1.6533  0.4064  0.3958
  485SOL     OW 1699   1.708   5.794   3.553 -0.6295 -0.1066  0.0836
  485SOL    HW1 1700   1.768   5.869   3.557  0.0795 -0.6375 -0.4204
  485SOL    HW2 1701   1.726   5.754   3.468 -3.4045  1.1431 -1.2437
  486SOL     OW 1702   1.040   2.148   0.367 -0.5115  0.6167  0.1422
  486SOL    HW1 1703   1.090   2.194   0.300  1.0476 -2.7399 -1.2342
  486SOL    HW2 1704   0.994   2.078   0.320  0.8332 -2.0618  2.4825
  487SOL     OW 1705   5.551   2.797   0.982 -0.3696  0.2202  0.8356
  487SOL    HW1 1706   5.492   2.869   1.006 -0.0201  0.7477  0.1594
  487SOL    HW2 1707   5.546   2.792   0.887  0.2923 -0.0589  0.8084
  488SOL     OW 1708   2.204   4.758   5.300  0.1145 -0.2240  0.2974
  488SOL    HW1 1709   2.239   4.755   5.211  0.2561 -0.4891  0.3612
  488SOL    HW2 1710   2.130   4.697   5.299  0.0284 -0.1197  0.3234
  489SOL     OW 1711   1.861   4.939   0.978  0.0603  0.3061 -0.1691
  489SOL    HW1 1712   1.891   5.023   1.013 -0.4581 -0.0720  1.2686
  489SOL    HW2 1713   1.929   4.877   1.003 -0.9103 -0.2000  1.3662
  490SOL     OW 1714   3.473   4.204   1.056  0.4693 -0.2176 -0.6175
  490SOL    HW1 1715   3.435   4.292   1.052  0.5778 -0.0827  0.8397
  490SOL    HW2 1716   3.516   4.193   0.971  0.1113  0.9744 -0.9798
  491SOL     OW 1717   3.787   2.353   5.505 -0.2881  0.0707 -0.2406
  491SOL    HW1 1718   3.830   2.356   5.590 -0.5603  0.0010 -0.0994
  491SOL    HW2 1719   3.857   2.333   5.443 -0.2476 -0.7971  0.0762
  492SOL     OW 1720   5.778   6.049   1.933  0.4320  0.0429 -0.2914
  492SOL    HW1 1721   5.854   6.037   1.876 -0.8985  0.9524 -2.3581
  492SOL    HW2 1722   5.752   5.960   1.956  2.4492 -0.2800  0.9879
  493SOL     OW 1723   0.973   4.483   5.212  0.0890  0.1378  0.0738
  493SOL    HW1 1724   1.047   4.436   5.251  0.7188  0.9489 -0.1268
  493SOL    HW2 1725   1.002   4.504   5.123 -0.2629  0.7258  0.0926
  494SOL     OW 1726   1.259   3.703   4.447 -0.1405 -0.2112 -1.0270
  494SOL    HW1 1727   1.349   3.708   4.415  0.1225 -1.4927 -0.5187
  494SOL    HW2 1728   1.232   3.613   4.429 -1.1447  0.0169 -0.7050
  495SOL     OW 1729   1.904   5.366   3.370 -0.6969 -0.1364  0.5542
  495SOL    HW1 1730   1.918   5.279   3.333  0.7571 -0.0039  0.7167
  495SOL    HW2 1731   1.812   5.385   3.353 -0.6039 -0.9645 -1.0785
  496SOL     OW 1732   1.306   2.324   0.438  0.6113  0.3543 -0.4446
  496SOL    HW1 1733   1.319   2.323   0.343  2.4585  2.8419 -0.3171
  496SOL    HW2 1734   1.244   2.395   0.453 -0.2888 -0.5402  0.2070
  497SOL     OW 1735   2.771   2.641   5.259  0.4142  0.0262 -0.3281
  497SOL    HW1 1736   2.795   2.600   5.176  0.4716 -0.5945 -0.0137
  497SOL    HW2 1737   2.675   2.641   5.259  0.4092 -0.6457 -0.0783
  498SOL     OW 1738   0.046   0.817   1.237 -0.6421 -0.1557  0.2807
  498SOL    HW1 1739   0.129   0.839   1.195 -0.1166 -0.5099  1.1174
  498SOL    HW2 1740   0.050   0.723   1.252 -1.4006 -0.2591 -0.0916
  499SOL     OW 1741   1.896   3.209   3.574  0.2150 -0.3630 -0.3753
  499SOL    HW1 1742   1.903   3.218   3.479 -1.1799 -0.6568 -0.5342
  499SOL    HW2 1743   1.981   3.174   3.601  1.7366  2.4530 -1.0968
  500SOL     OW 1744   6.134   5.283   0.843  0.3272  0.4070 -0.0661
  500SOL    HW1 1745   6.123   5.378   0.843 -1.3132  0.2496 -0.5280
  500SOL    HW2 1746   6.219   5.268   0.885 -0.8048  1.9037  3.0112
  501SOL     OW 1747   3.140   2.826   1.176  0.0699  0.3356  0.0505
  501SOL    HW1 1748   3.053   2.787   1.164  1.1042 -2.4371  0.8571
  501SOL    HW2 1749   3.145   2.846   1.269  1.0016 -1.5321  0.4458
  502SOL     OW 1750   2.275   2.446   3.620 -0.0322 -0.1335 -0.3351
  502SOL    HW1 1751   2.201   2.387   3.629  0.4061 -1.0663 -2.2462
  502SOL    HW2 1752   2.236   2.530   3.595 -0.5334 -0.1157  0.4859
  503SOL     OW 1753   6.071   4.114   5.504 -0.0431 -0.3413  0.1589
  503SOL    HW1 1754   6.103   4.204   5.514  2.2281 -1.2729  2.2354
  503SOL    HW2 1755   6.092   4.072   5.587 -1.2245 -2.7650 -0.6856
  504SOL     OW 1756   4.578   0.096   3.098  0.1348 -0.1985  0.9147
  504SOL    HW1 1757   4.486   0.084   3.122  0.1037 -0.2097  0.7881
  504SOL    HW2 1758   4.587   0.191   3.086 -0.6965 -0.4196 -2.4270
  505SOL     OW 1759   2.906   5.868   4.026 -0.2169  0.0847  0.4518
  505SOL    HW1 1760   2.821   5.907   4.047 -0.2189  0.3275  0.0064
  505SOL    HW2 1761   2.920   5.889   3.934 -0.2809 -1.0759  0.1581
  506SOL     OW 1762   5.328   3.056   5.473 -0.1091 -0.0463  0.0720
  506SOL    HW1 1763   5.303   3.037   5.383 -1.6303 -3.1595  1.0039
  506SOL    HW2 1764   5.416   3.020   5.482  0.1899  0.5944 -0.2384
  507SOL     OW 1765   3.201   2.127   0.896  0.2056 -0.1845  0.7236
  507SOL    HW1 1766   3.280   2.076   0.883  0.1367 -0.2388  0.5103
  507SOL    HW2 1767   3.202   2.192   0.826 -0.1079 -0.4040  0.5049
  508SOL     OW 1768   5.425   2.413   2.323 -0.3522 -0.4498  0.6847
  508SOL    HW1 1769   5.417   2.503   2.354  0.0855  0.3241 -1.2959
  508SOL    HW2 1770   5.495   2.375   2.377 -0.3132  0.4947  1.3088
  509SOL     OW 1771   5.299   2.644   1.893  0.5047 -0.2788 -0.1699
  509SOL    HW1 1772   5.211   2.678   1.876  0.1712 -0.6126  0.8063
  509SOL    HW2 1773   5.339   2.709   1.951  1.8605  1.1804 -2.5375
  510SOL     OW 1774   5.588   5.236   3.983  0.4029  0.0744  0.4727
  510SOL    HW1 1775   5.496   5.230   3.957  0.3357  0.2436  0.6678
  510SOL    HW2 1776   5.616   5.322   3.953  0.9619 -0.6013 -1.0396
  511SOL     OW 1777   4.212   3.991   4.839  0.0535 -0.2086  0.5463
  511SOL    HW1 1778   4.176   3.938   4.910 -2.2140 -0.6175 -0.7774
  511SOL    HW2 1779   4.153   4.066   4.832  1.3852  0.8501  0.3450
  512SOL     OW 1780   1.950   5.733   3.921  0.6492  0.0865 -0.4795
  512SOL    HW1 1781   1.875   5.792   3.929 -0.0659 -0.2164 -3.5631
  512SOL    HW2 1782   1.913   5.645   3.931  1.2402 -0.0055  1.2987
  513SOL     OW 1783   3.511   3.385   2.635  0.1838  0.0655 -0.1886
  513SOL    HW1 1784   3.533   3.452   2.570 -0.8479  1.8680  1.2120
  513SOL    HW2 1785   3.415   3.384   2.637  0.1832  0.0619  1.2685
  514SOL     OW 1786   0.580   1.743   3.145 -0.2944 -0.0613  0.0574
  514SOL    HW1 1787   0.625   1.678   3.092 -0.0579  0.4736 -0.4068
  514SOL    HW2 1788   0.510   1.694   3.189  0.5330 -0.8339  0.5423
  515SOL     OW 1789   2.536   4.456   1.381  0.2952 -0.4321  0.5418
  515SOL    HW1 1790   2.612   4.403   1.404  0.5940  0.0396  0.6520
  515SOL    HW2 1791   2.507   4.422   1.297 -1.0477 -2.4470  1.7191
  516SOL     OW 1792   1.092   2.604   2.262 -0.0126 -0.0416  0.0020
  516SOL    HW1 1793   1.143   2.655   2.325 -0.2710 -0.0940  0.2569
  516SOL    HW2 1794   1.103   2.513   2.291  2.0042 -0.3617 -1.5488
  517SOL     OW 1795   1.607   0.280   1.667 -0.2138  0.0198 -0.3802
  517SOL    HW1 1796   1.542   0.312   1.729 -0.2719 -1.4402  0.3621
  517SOL    HW2 1797   1.585   0.323   1.584 -0.3236  1.7573  0.5053
  518SOL     OW 1798   0.621   1.258   0.655  0.7811  0.1161 -0.0142
  518SOL    HW1 1799   0.662   1.283   0.738  1.0644 -0.6380  0.0852
  518SOL    HW2 1800   0.529   1.281   0.666  0.7641 -0.2220  0.6154
  519SOL     OW 1801   1.621   5.834   6.089  0.7289  0.7173 -0.8088
  519SOL    HW1 1802   1.615   5.930   6.092 -2.5266  0.6242  1.2920
  519SOL    HW2 1803   1.571   5.809   6.011  0.6135  0.7192 -0.7360
  520SOL     OW 1804   2.606   5.357   5.324  0.0225  0.0549 -0.0525
  520SOL    HW1 1805   2.566   5.274   5.298 -2.6244  1.0644  0.5317
  520SOL    HW2 1806   2.593   5.361   5.419  0.7769  0.8188  0.0324
  521SOL     OW 1807   3.105   2.806   0.081  0.1808  0.0629 -0.2251
  521SOL    HW1 1808   3.170   2.824   0.148 -1.5525  1.5409  1.1708
  521SOL    HW2 1809   3.075   2.717   0.099  1.0477 -0.2300 -0.2223
  522SOL     OW 1810   4.342   5.559   3.870  0.2328  0.2142 -0.3195
  522SOL    HW1 1811   4.315   5.598   3.786 -1.7056 -0.4563 -0.0449
  522SOL    HW2 1812   4.280   5.489   3.885  1.0631 -0.2154  1.3121
  523SOL     OW 1813   4.134   2.382   2.597  0.1949  0.1594 -0.7078
  523SOL    HW1 1814   4.117   2.299   2.643  2.2009 -0.3656 -0.8230
  523SOL    HW2 1815   4.066   2.441   2.629 -1.3485 -1.5480 -0.6825
  524SOL     OW 1816   5.677   0.094   1.547 -0.1042  0.2461  0.4199
  524SOL    HW1 1817   5.600   0.112   1.493 -1.1440 -0.5284  1.6071
  524SOL    HW2 1818   5.667   0.148   1.624 -0.7551 -1.6439  1.7284
  525SOL     OW 1819   4.061   2.248   6.085  0.6463  0.3192 -0.0915
  525SOL    HW1 1820   4.135   2.279   6.032 -1.0668 -0.2194 -3.0033
  525SOL    HW2 1821   4.027   2.173   6.036 -1.4668  0.1666  1.4966
  526SOL     OW 1822   0.078   2.377   3.250 -0.3283  0.6681  0.1493
  526SOL    HW1 1823   0.168   2.358   3.279 -0.2106  0.4084 -0.3698
  526SOL    HW2 1824   0.061   2.312   3.181 -0.9609  0.6364  0.3310
  527SOL     OW 1825   4.233   0.809   0.002  0.2859 -0.1902 -0.2942
  527SOL    HW1 1826   4.256   0.888  -0.048  1.0726  0.6643  1.3126
  527SOL    HW2 1827   4.141   0.793  -0.020 -0.0787  1.5384 -0.2210
  528SOL     OW 1828   2.141   4.549   0.432 -0.0583 -0.1623  0.1917
  528SOL    HW1 1829   2.094   4.481   0.383 -2.3084  0.3768  1.4420
  528SOL    HW2 1830   2.203   4.501   0.487  0.3814 -0.9649 -0.9735
  529SOL     OW 1831   2.292   0.873   5.418  0.9417 -0.8523 -0.3260
  529SOL    HW1 1832   2.198   0.888   5.430  1.0295  0.8742 -1.5922
  529SOL    HW2 1833   2.298   0.780   5.393 -0.3036 -1.2584  0.7624
  530SOL     OW 1834   0.375   4.803   2.671  0.0081  0.4158  0.2472
  530SOL    HW1 1835   0.418   4.757   2.742 -0.7899  0.8784  1.0442
  530SOL    HW2 1836   0.297   4.842   2.710  0.1158  1.5772 -0.6244
  531SOL     OW 1837   1.995   1.194   3.172 -0.1086 -0.6077 -0.9017
  531SOL    HW1 1838   1.909   1.170   3.136 -1.5175  1.1392  1.0082
  531SOL    HW2 1839   1.976   1.268   3.230  2.8748  0.4623 -1.1404
  532SOL     OW 1840   3.206   1.362   5.006  0.1966  0.4033 -0.0278
  532SOL    HW1 1841   3.221   1.332   5.096  0.6965  1.8647  0.4055
  532SOL    HW2 1842   3.121   1.325   4.982  0.6912 -1.1675  0.5195
  533SOL     OW 1843   0.753   1.482   0.555 -0.3193 -0.4844 -0.2705
  533SOL    HW1 1844   0.718   1.393   0.555  0.2658 -0.7265  0.2542
  533SOL    HW2 1845   0.788   1.494   0.466 -1.7521 -0.2063 -0.8278
  534SOL     OW 1846   0.492   2.515   0.782  0.2478 -0.4061 -0.5811
  534SOL    HW1 1847   0.507   2.424   0.808  1.2931 -0.2730 -0.6780
  534SOL    HW2 1848   0.397   2.522   0.774  0.2372 -2.0983 -2.7622
  535SOL     OW 1849   1.727   4.643   4.337  0.0635 -0.6736 -0.6347
  535SOL    HW1 1850   1.699   4.587   4.410  0.2744 -1.1378 -0.9090
  535SOL    HW2 1851   1.651   4.644   4.278 -1.4239  2.3328  1.0642
  536SOL     OW 1852   3.966   2.027   4.325  0.3395  0.3707  0.1315
  536SOL    HW1 1853   3.936   2.091   4.261  0.8307  0.0635 -0.4180
  536SOL    HW2 1854   4.060   2.017   4.308  0.3704 -0.1168  0.5432
  537SOL     OW 1855   0.530   3.376   5.075  0.1904 -0.4561 -0.1458
  537SOL    HW1 1856   0.517   3.450   5.016  0.1684 -2.1171 -2.3308
  537SOL    HW2 1857   0.608   3.331   5.041 -0.4313 -2.0577  0.4417
  538SOL     OW 1858   2.146   2.284   0.539 -0.7737 -0.0911 -1.2667
  538SOL    HW1 1859   2.180   2.372   0.555 -0.6366 -0.2358 -0.7289
  538SOL    HW2 1860   2.154   2.272   0.444  2.0204 -0.6453 -1.0591
  539SOL     OW 1861   2.586   0.044   5.866  0.1955  0.1773 -0.4166
  539SOL    HW1 1862   2.577   0.020   5.958  2.2832  2.1253  0.3881
  539SOL    HW2 1863   2.509   0.099   5.848 -0.2754 -0.3040  0.1289
  540SOL     OW 1864   0.399   0.892   4.384  0.4525 -0.4554  0.2944
  540SOL    HW1 1865   0.311   0.874   4.353 -0.3513  0.7263  1.7805
  540SOL    HW2 1866   0.435   0.954   4.321 -0.2240 -0.0354  0.3114
  541SOL     OW 1867   0.086   3.737   3.649  0.3293  0.1600 -0.5391
  541SOL    HW1 1868   0.058   3.826   3.626  0.1758  0.1507 -0.3877
  541SOL    HW2 1869   0.073   3.687   3.569 -2.8049 -0.5015  0.2629
  542SOL     OW 1870   5.309   1.681   4.599 -0.2810 -0.1542 -0.4873
  542SOL    HW1 1871   5.383   1.634   4.637 -0.3818  0.8932  1.1150
  542SOL    HW2 1872   5.245   1.687   4.670 -0.1063  2.7162 -0.4288
  543SOL     OW 1873   1.703   3.928   0.889  0.0805  0.0151 -0.0948
  543SOL    HW1 1874   1.614   3.900   0.867 -0.0975  1.2872 -1.0939
  543SOL    HW2 1875   1.751   3.923   0.807  1.0191 -0.8681  0.4804
  544SOL     OW 1876   2.623   3.050   0.058  0.6734  1.0380 -0.3051
  544SOL    HW1 1877   2.719   3.044   0.052  0.6632  0.3442  0.1085
  544SOL    HW2 1878   2.599   2.984   0.123 -0.0220  1.7669  0.2060
  545SOL     OW 1879   1.580   3.415   4.464 -0.6259 -0.1497 -1.0543
  545SOL    HW1 1880   1.625   3.492   4.499 -3.3469  1.4086 -0.6645
  545SOL    HW2 1881   1.561   3.362   4.541 -1.7040  0.5194 -0.8315
  546SOL     OW 1882   6.003   4.149   0.570  0.1999 -1.2364 -0.1297
  546SOL    HW1 1883   5.955   4.094   0.631 -1.5405  0.9470  0.6261
  546SOL    HW2 1884   5.992   4.107   0.485 -0.9278 -2.1147  0.4354
  547SOL     OW 1885   0.556   4.301   1.515 -0.2720 -1.0024 -0.3775
  547SOL    HW1 1886   0.519   4.330   1.598 -1.7617  0.0947 -1.3581
  547SOL    HW2 1887   0.546   4.377   1.457  0.7217 -1.7398 -1.5524
  548SOL     OW 1888   1.829   6.008   1.475  0.5755  0.7634 -0.3059
  548SOL    HW1 1889   1.743   6.035   1.508  2.0789  0.4807  4.7097
  548SOL    HW2 1890   1.830   5.913   1.485  0.9448  0.5295 -2.1587
  549SOL     OW 1891   2.891   1.846   2.267 -0.0884 -0.1986  0.5056
  549SOL    HW1 1892   2.962   1.875   2.324  0.3667 -1.0634  0.4018
  549SOL    HW2 1893   2.921   1.867   2.179 -1.2830  2.1947  0.5836
  550SOL     OW 1894   0.179   5.744   2.304 -0.1796 -0.5088 -0.4772
  550SOL    HW1 1895   0.137   5.667   2.343  0.6857 -1.2572 -0.9522
  550SOL    HW2 1896   0.114   5.814   2.310  0.1302 -0.3657  2.9377
  551SOL     OW 1897   2.108   0.661   0.713 -0.0790 -0.4935  0.9351
  551SOL    HW1 1898   2.053   0.731   0.679  2.4069  0.3035 -1.8048
  551SOL    HW2 1899   2.046   0.590   0.732 -2.1216  0.2147 -2.2077
  552SOL     OW 1900   0.338   0.175   1.055  0.3178  0.1589 -0.2003
  552SOL    HW1 1901   0.407   0.174   1.122 -0.3909  0.0477  0.5325
  552SOL    HW2 1902   0.297   0.260   1.064  0.4702  0.2962 -0.7646
  553SOL     OW 1903   1.520   5.587   4.593  0.2236  0.0480  0.0637
  553SOL    HW1 1904   1.530   5.498   4.560  1.0949 -0.0563  0.5820
  553SOL    HW2 1905   1.583   5.639   4.544  0.0662  0.2861  0.1075
  554SOL     OW 1906   1.030   0.678   5.361 -0.5599 -0.3275  0.4904
  554SOL    HW1 1907   0.976   0.749   5.395  0.7219  1.4950 -1.0714
  554SOL    HW2 1908   1.118   0.698   5.393  0.0832 -0.3399 -1.1822
  555SOL     OW 1909   3.821   3.432   2.456 -0.0840 -0.0400  0.4425
  555SOL    HW1 1910   3.844   3.521   2.484 -2.7700  0.7195  0.5292
  555SOL    HW2 1911   3.800   3.386   2.538 -1.5579  0.1819  0.2152
  556SOL     OW 1912   5.847   0.717   3.972  0.1582 -0.4999 -0.3295
  556SOL    HW1 1913   5.826   0.705   4.065 -0.1382 -1.1882 -0.4782
  556SOL    HW2 1914   5.762   0.738   3.931  0.1716 -0.8583 -0.5466
  557SOL     OW 1915   0.962   0.230   3.705 -0.5245 -0.1935 -0.4556
  557SOL    HW1 1916   0.885   0.174   3.716  0.7391 -2.2707 -1.5845
  557SOL    HW2 1917   1.005   0.229   3.790  0.0358 -1.8323 -0.7407
  558SOL     OW 1918   4.239   1.530   5.458 -0.4080 -0.4012 -0.4412
  558SOL    HW1 1919   4.152   1.566   5.473 -0.4718 -0.4351 -0.7137
  558SOL    HW2 1920   4.257   1.475   5.535 -0.3833  0.0658 -0.1132
  559SOL     OW 1921   0.023   0.130   1.830  0.2279  0.3984 -0.1627
  559SOL    HW1 1922   0.100   0.158   1.879 -0.6600  0.0644  1.5153
  559SOL    HW2 1923   0.045   0.147   1.739  0.8039  4.0220  0.4895
  560SOL     OW 1924   3.526   2.227   5.051 -0.0733  0.3639 -0.2820
  560SOL    HW1 1925   3.501   2.135   5.057  0.6464  0.1655 -0.2482
  560SOL    HW2 1926   3.598   2.228   4.988  0.1616  0.8555 -0.0067
  561SOL     OW 1927   3.075   5.460   0.132  0.2381 -0.1442 -0.7123
  561SOL    HW1 1928   3.088   5.491   0.042  0.6675 -1.8552 -1.2863
  561SOL    HW2 1929   2.981   5.440   0.137 -0.2953  2.2456  0.0476
  562SOL     OW 1930   0.338   1.916   2.409 -0.3739  0.6877  0.2701
  562SOL    HW1 1931   0.324   2.000   2.366 -1.3470 -0.1758 -1.2304
  562SOL    HW2 1932   0.408   1.874   2.359 -0.4478  0.2790  0.4984
  563SOL     OW 1933   5.981   1.027   2.057  0.8557 -0.2228 -0.2116
  563SOL    HW1 1934   6.003   0.996   2.145  1.2163 -1.7628 -0.8248
  563SOL    HW2 1935   6.065   1.045   2.016  0.6630  1.6432  0.1189
  564SOL     OW 1936   4.109   2.061   5.037 -0.3712  0.0449 -0.4736
  564SOL    HW1 1937   4.030   2.094   4.994 -0.1444 -1.8921 -2.5685
  564SOL    HW2 1938   4.078   2.019   5.116 -0.9908  2.3380  0.5802
  565SOL     OW 1939   5.234   5.359   5.909  0.1478 -0.1121  0.4770
  565SOL    HW1 1940   5.166   5.391   5.851 -0.3194  0.1098  1.1385
  565SOL    HW2 1941   5.298   5.430   5.913 -0.8384  0.7398  1.8644
  566SOL     OW 1942   5.687   4.002   0.944 -0.1154 -0.1732  0.0880
  566SOL    HW1 1943   5.692   4.010   1.039 -2.2612 -0.0026  0.2362
  566SOL    HW2 1944   5.774   4.026   0.913  0.2332  1.1459  1.9369
  567SOL     OW 1945   5.383   1.194   0.999 -0.0282  0.7487 -0.1773
  567SOL    HW1 1946   5.408   1.127   0.936 -0.7669 -1.0687  1.3586
  567SOL    HW2 1947   5.312   1.242   0.957 -1.2521 -1.1230 -0.3449
  568SOL     OW 1948   0.825   5.510   0.551  0.5592 -0.0163 -0.3075
  568SOL    HW1 1949   0.747   5.495   0.605  1.0917 -1.7494  0.0665
  568SOL    HW2 1950   0.793   5.507   0.461  0.0244  0.4629 -0.1384
  569SOL     OW 1951   2.963   5.761   3.103 -0.3163  0.5825 -0.8111
  569SOL    HW1 1952   2.887   5.735   3.051 -0.3520  0.4758 -0.7046
  569SOL    HW2 1953   2.939   5.740   3.193 -0.1811  0.5991 -0.7715
  570SOL     OW 1954   5.736   0.313   3.025  0.1486  0.5325 -0.2203
  570SOL    HW1 1955   5.824   0.280   3.010 -0.0492  0.2666 -0.8141
  570SOL    HW2 1956   5.678   0.248   2.984 -0.2244  1.9750 -2.1117
  571SOL     OW 1957   5.079   1.032   5.737 -0.4973 -0.1028 -0.4723
  571SOL    HW1 1958   5.166   0.996   5.720  0.0540  1.0730 -0.2721
  571SOL    HW2 1959   5.039   0.971   5.798  0.1451 -0.7120 -0.6473
  572SOL     OW 1960   4.450   1.620   1.576 -0.2300  0.3876 -0.2092
  572SOL    HW1 1961   4.503   1.668   1.639  0.6117  0.9370 -1.2929
  572SOL    HW2 1962   4.378   1.680   1.555 -0.4533  0.2454  0.1392
  573SOL     OW 1963   4.628   5.160   5.088 -0.1245  0.1415  0.2550
  573SOL    HW1 1964   4.666   5.215   5.020 -1.4450 -1.6309 -2.0792
  573SOL    HW2 1965   4.703   5.126   5.136  1.2370 -1.4110 -2.7061
  574SOL     OW 1966   5.154   2.584   0.510 -0.4108 -0.5958  0.0717
  574SOL    HW1 1967   5.113   2.556   0.428 -0.3077 -0.8490  0.1042
  574SOL    HW2 1968   5.170   2.677   0.498  1.1038 -0.9416 -0.8549
  575SOL     OW 1969   1.795   5.023   4.947  0.2842  0.0859  0.5356
  575SOL    HW1 1970   1.743   5.058   4.875 -1.7921 -0.6862  1.5812
  575SOL    HW2 1971   1.856   5.093   4.969 -0.4970  1.1449 -0.5782
  576SOL     OW 1972   4.386   2.143   1.334  0.0469 -0.1572  0.0810
  576SOL    HW1 1973   4.429   2.197   1.267 -0.0587  1.1978  1.0446
  576SOL    HW2 1974   4.326   2.088   1.286 -0.1766  0.9415 -0.9415
  577SOL     OW 1975   0.723   4.050   1.468 -0.1421 -0.1109  0.0099
  577SOL    HW1 1976   0.669   4.125   1.446  0.5683  0.7666  1.1533
  577SOL    HW2 1977   0.758   4.070   1.555  0.2211 -1.6743  0.2535
  578SOL     OW 1978   5.270   1.991   1.702 -0.4550 -0.1647  0.6681
  578SOL    HW1 1979   5.188   1.970   1.747  0.6496 -2.6461  1.7071
  578SOL    HW2 1980   5.262   1.949   1.617  0.3049 -1.8029  1.3662
  579SOL     OW 1981   0.188   1.461   3.250 -0.2087 -0.0472  0.5417
  579SOL    HW1 1982   0.134   1.382   3.251  0.9552 -0.9256 -1.1934
  579SOL    HW2 1983   0.126   1.533   3.239 -1.0463 -1.0491 -1.8708
  580SOL     OW 1984   3.146   2.142   2.762  0.0895 -0.4590 -0.4898
  580SOL    HW1 1985   3.139   2.054   2.724  1.4603 -0.7865 -0.0139
  580SOL    HW2 1986   3.171   2.198   2.689  1.2916 -0.8429 -0.3964
  581SOL     OW 1987   0.830   3.333   0.339  0.6657 -0.2972  0.1042
  581SOL    HW1 1988   0.868   3.421   0.336  0.4682 -0.2034  0.2984
  581SOL    HW2 1989   0.736   3.349   0.347  0.6160 -0.5273 -0.0230
  582SOL     OW 1990   4.980   4.009   3.158  0.0560  0.4528  0.0583
  582SOL    HW1 1991   5.059   4.044   3.118 -1.1156  0.8414 -2.0951
  582SOL    HW2 1992   4.946   4.082   3.211 -0.1997  1.2014 -1.0985
  583SOL     OW 1993   2.758   4.171   4.104 -0.5022 -0.1829  0.1243
  583SOL    HW1 1994   2.785   4.246   4.157 -0.7799 -0.0309  0.0547
  583SOL    HW2 1995   2.824   4.104   4.121  0.8412  0.7235 -1.2751
  584SOL     OW 1996   2.828   2.528   5.489 -0.3765 -0.2843 -0.4187
  584SOL    HW1 1997   2.768   2.567   5.553  0.9011 -0.9719  1.2894
  584SOL    HW2 1998   2.802   2.565   5.405 -1.8836  0.9596  0.5500
  585SOL     OW 1999   3.834   3.145   4.471 -0.3544  0.3794 -0.1640
  585SOL    HW1 2000   3.829   3.052   4.450 -0.2176  0.6729 -1.6005
  585SOL    HW2 2001   3.844   3.148   4.566 -0.8974 -1.0489 -0.0368
  586SOL     OW 2002   5.096   0.908   4.096  0.3468  0.4893 -0.3967
  586SOL    HW1 2003   5.013   0.906   4.049 -0.2467  0.5091  0.6063
  586SOL    HW2 2004   5.087   0.983   4.156 -0.3426 -1.4624  2.1521
  587SOL     OW 2005   2.729   4.684   0.434  0.3630 -0.1809 -0.0699
  587SOL    HW1 2006   2.807   4.647   0.476  0.1761 -0.5285 -0.0278
  587SOL    HW2 2007   2.667   4.611   0.428 -0.0640  0.1558  0.1470
  588SOL     OW 2008   2.011   3.484   2.651 -0.3952 -0.1621 -0.1461
  588SOL    HW1 2009   2.085   3.472   2.592  0.0486  1.0312  0.1376
  588SOL    HW2 2010   1.951   3.413   2.629  0.5265 -0.7530 -0.8429
  589SOL     OW 2011   0.241   0.060   2.763 -0.0396  0.5693  0.4431
  589SOL    HW1 2012   0.268   0.059   2.855  2.3956  0.3940 -0.1940
  589SOL    HW2 2013   0.276   0.143   2.729 -1.6118  1.0208 -0.1913
  590SOL     OW 2014   5.946   2.696   1.499 -0.0215  0.5087  0.1824
  590SOL    HW1 2015   5.853   2.682   1.484 -0.2559  0.5026  1.4925
  590SOL    HW2 2016   5.971   2.628   1.562  0.6841  0.9884  0.4408
  591SOL     OW 2017   5.389   0.536   4.837  0.9925  0.6879  0.6743
  591SOL    HW1 2018   5.366   0.499   4.922 -0.1270 -0.5782 -0.1296
  591SOL    HW2 2019   5.383   0.462   4.776 -1.8268  2.1562 -1.0997
  592SOL     OW 2020   1.239   4.442   5.301  0.1907  0.3216 -0.3382
  592SOL    HW1 2021   1.288   4.361   5.285  1.0864  0.3712  1.8027
  592SOL    HW2 2022   1.289   4.510   5.256  0.2483 -0.0888 -0.9091
  593SOL     OW 2023   2.053   2.449   3.084 -0.2489 -0.5978 -0.2831
  593SOL    HW1 2024   2.005   2.490   3.156 -0.7360 -1.3013 -0.1990
  593SOL    HW2 2025   1.985   2.405   3.032  0.1027 -0.1819 -1.1214
  594SOL     OW 2026   1.902   2.849   2.207 -0.2276  0.0717  0.0882
  594SOL    HW1 2027   1.962   2.805   2.148  1.1239  0.5584  1.0370
  594SOL    HW2 2028   1.907   2.799   2.289 -0.8431  0.3378  0.2991
  595SOL     OW 2029   3.413   1.188   3.021 -0.0978  0.8292  0.2082
  595SOL    HW1 2030   3.492   1.241   3.018 -0.3425  1.2986  1.5746
  595SOL    HW2 2031   3.377   1.194   2.932  2.1260 -0.5869 -0.8823
  596SOL     OW 2032   1.233   5.351   5.438 -0.1299 -0.2869 -0.2943
  596SOL    HW1 2033   1.206   5.350   5.347  0.6872 -0.9130 -0.5483
  596SOL    HW2 2034   1.152   5.341   5.488 -0.9841  3.0047 -0.8001
  597SOL     OW 2035   6.007   0.968   2.361  0.0772  0.4701  0.2424
  597SOL    HW1 2036   6.083   0.920   2.394 -0.5529 -0.4611  0.3741
  597SOL    HW2 2037   5.932   0.931   2.408 -0.4948  1.2053 -0.0571
  598SOL     OW 2038   0.327   5.925   3.188 -0.3501 -0.3796  0.0247
  598SOL    HW1 2039   0.340   5.919   3.283 -1.8682 -2.2653  0.1812
  598SOL    HW2 2040   0.252   5.984   3.178 -0.3263 -0.3504  0.0220
  599SOL     OW 2041   4.269   4.605   4.862 -0.2448  0.7764 -1.1727
  599SOL    HW1 2042   4.281   4.660   4.784 -2.7139  0.1654 -2.0803
  599SOL    HW2 2043   4.189   4.639   4.903  0.4281  0.3924  0.5381
  600SOL     OW 2044   4.451   5.271   1.914  0.0587 -0.1671 -0.1149
  600SOL    HW1 2045   4.391   5.330   1.959 -0.6240  0.5641 -1.9049
  600SOL    HW2 2046   4.407   5.186   1.916 -0.8065  0.2507 -0.9613
  601SOL     OW 2047   0.307   1.147   4.506 -0.1707  0.2157  0.0053
  601SOL    HW1 2048   0.254   1.143   4.426  0.5684 -1.0437 -0.4505
  601SOL    HW2 2049   0.394   1.172   4.475 -0.1094  0.6910  0.5493
  602SOL     OW 2050   0.966   3.052   1.167  0.5476  0.6276 -0.2558
  602SOL    HW1 2051   0.975   2.993   1.093 -0.0872  0.6617 -0.3642
  602SOL    HW2 2052   0.917   3.127   1.133  0.4398  0.7412  0.1401
  603SOL     OW 2053   4.262   3.550   3.090  0.1164 -0.3514  0.2525
  603SOL    HW1 2054   4.351   3.584   3.075  0.7688 -2.5580 -1.4284
  603SOL    HW2 2055   4.258   3.532   3.183  1.7213 -0.9178  0.2387
  604SOL     OW 2056   0.763   2.931   6.044  0.4770  0.3226 -0.0838
  604SOL    HW1 2057   0.810   2.981   6.111  0.0034  0.2603  0.3022
  604SOL    HW2 2058   0.803   2.958   5.961  1.5271 -0.1074  0.2681
  605SOL     OW 2059   3.474   2.216   0.708 -0.2834  0.3695  0.2717
  605SOL    HW1 2060   3.555   2.168   0.727 -0.5779 -0.4168 -0.3701
  605SOL    HW2 2061   3.455   2.194   0.617 -1.9860 -0.6317  0.8182
  606SOL     OW 2062   5.289   1.614   3.520  0.0652 -0.1630 -0.1124
  606SOL    HW1 2063   5.304   1.642   3.429 -0.8499 -0.6111 -0.4205
  606SOL    HW2 2064   5.198   1.639   3.537  0.1597 -0.3031  0.6034
  607SOL     OW 2065   0.428   4.664   5.115  0.2381 -0.1838 -0.1788
  607SOL    HW1 2066   0.471   4.726   5.056 -2.6095  1.2676 -0.8749
  607SOL    HW2 2067   0.425   4.710   5.199 -0.0940 -0.2245 -0.1707
  608SOL     OW 2068   4.370   1.331   4.803 -0.0167  0.5796 -0.6781
  608SOL    HW1 2069   4.431   1.404   4.794 -1.3572  2.0936  1.4474
  608SOL    HW2 2070   4.308   1.342   4.731  0.1770  1.1645 -0.7608
  609SOL     OW 2071   5.939   4.835   3.156  0.6585 -0.5445  0.4405
  609SOL    HW1 2072   6.016   4.855   3.103  0.2746 -0.0556  0.0664
  609SOL    HW2 2073   5.948   4.890   3.233 -0.8064  1.8156 -0.9470
  610SOL     OW 2074   1.671   0.488   2.490 -0.0563  0.3526  0.3157
  610SOL    HW1 2075   1.615   0.565   2.480  0.9183  0.9987 -0.2702
  610SOL    HW2 2076   1.751   0.509   2.443  0.1846 -1.0835  0.0189
  611SOL     OW 2077   3.049   3.316   2.406 -0.1727 -0.2104 -0.0889
  611SOL    HW1 2078   3.015   3.258   2.338  1.6282 -0.2696 -1.0212
  611SOL    HW2 2079   3.140   3.332   2.380  1.6904 -2.7776  3.9648
  612SOL     OW 2080   0.848   4.900   1.577 -0.3301  0.0454 -0.0718
  612SOL    HW1 2081   0.942   4.918   1.580 -0.0400 -1.3678  0.4595
  612SOL    HW2 2082   0.816   4.951   1.503  0.4877  2.0539  0.8827
  613SOL     OW 2083   5.984   5.180   2.175  0.1490  0.8616 -0.4487
  613SOL    HW1 2084   6.006   5.109   2.114  0.2286 -1.2708  1.8620
  613SOL    HW2 2085   6.069   5.208   2.210 -0.0303 -1.1566  1.9146
  614SOL     OW 2086   4.106   4.866   0.244 -0.3432  0.2421 -0.2632
  614SOL    HW1 2087   4.060   4.948   0.224  0.6598  1.0611  0.7000
  614SOL    HW2 2088   4.107   4.819   0.160 -1.2701  1.0320 -0.7426
  615SOL     OW 2089   3.869   4.232   4.171 -0.2372 -0.0391  0.0966
  615SOL    HW1 2090   3.835   4.303   4.116  1.4480  2.3018  1.8714
  615SOL    HW2 2091   3.963   4.230   4.153  0.2976  0.5475  2.4753
  616SOL     OW 2092   2.493   0.903   0.860 -0.4432 -0.1281  0.0711
  616SOL    HW1 2093   2.402   0.925   0.839 -0.7527  1.0633  2.3265
  616SOL    HW2 2094   2.486   0.823   0.912 -0.3483  0.5737  1.2001
  617SOL     OW 2095   3.968   4.471   0.347 -0.6686  0.0240 -0.9617
  617SOL    HW1 2096   3.873   4.461   0.351 -1.0730  2.8106 -1.0662
  617SOL    HW2 2097   3.982   4.522   0.267  0.8886 -0.1453 -0.8168
  618SOL     OW 2098   0.773   6.028   2.076  0.5625  0.0302  0.2556
  618SOL    HW1 2099   0.771   5.935   2.098  0.5287  0.0237  0.2257
  618SOL    HW2 2100   0.769   6.029   1.980  1.1358  0.0383  0.2265
  619SOL     OW 2101   6.005   2.786   2.078 -0.1564  0.1490  0.6479
  619SOL    HW1 2102   6.052   2.762   2.157  1.4162 -0.2211 -0.3680
  619SOL    HW2 2103   6.042   2.871   2.052  0.9964 -0.7858 -0.9164
  620SOL     OW 2104   4.760   4.190   0.437  0.2340  0.1543 -0.1246
  620SOL    HW1 2105   4.758   4.123   0.369 -2.8956  0.2478 -0.2798
  620SOL    HW2 2106   4.735   4.143   0.517  0.8584  0.6397  0.3679
  621SOL     OW 2107   4.972   3.434   6.023 -0.0278 -0.5880 -0.4775
  621SOL    HW1 2108   4.981   3.345   5.988 -1.5818 -1.1976  0.5430
  621SOL    HW2 2109   5.047   3.482   5.987 -1.1156 -1.2923 -4.0777
  622SOL     OW 2110   5.614   0.909   4.477  0.3996  0.3466  0.4640
  622SOL    HW1 2111   5.551   0.839   4.464 -1.3676  1.4280  2.5151
  622SOL    HW2 2112   5.562   0.989   4.479  2.2870  1.7244 -1.2465
  623SOL     OW 2113   4.862   2.352   6.097 -0.3233 -0.1676 -0.2821
  623SOL    HW1 2114   4.899   2.437   6.120  1.2969 -1.2947  1.5729
  623SOL    HW2 2115   4.937   2.301   6.064 -0.3884 -1.9852  2.0473
  624SOL     OW 2116   4.271   4.953   2.760 -0.4405 -0.4062 -0.3167
  624SOL    HW1 2117   4.258   5.009   2.837  1.8421  0.4879 -0.5105
  624SOL    HW2 2118   4.192   4.966   2.707 -0.9509  0.8869  0.7038
  625SOL     OW 2119   3.676   0.963   1.369  0.1910  0.2259 -0.2175
  625SOL    HW1 2120   3.633   1.048   1.354 -0.3373  0.1485  0.8203
  625SOL    HW2 2121   3.665   0.946   1.462  0.1407 -1.0812 -0.4430
  626SOL     OW 2122   4.129   3.939   1.562 -0.3507  0.7613 -0.2962
  626SOL    HW1 2123   4.125   4.026   1.602  0.8336  1.3665 -1.3912
  626SOL    HW2 2124   4.193   3.892   1.615 -0.2134  0.9132 -0.3252
  627SOL     OW 2125   6.111   5.652   2.744  0.6753  0.1032 -0.1717
  627SOL    HW1 2126   6.171   5.726   2.756 -0.4512  1.3885 -2.0561
  627SOL    HW2 2127   6.068   5.643   2.829  1.6467  0.8554  0.4256
  628SOL     OW 2128   1.897   2.901   0.493 -0.2388  0.0275  0.7012
  628SOL    HW1 2129   1.823   2.959   0.510 -0.2851  0.0707  0.3596
  628SOL    HW2 2130   1.930   2.929   0.408 -0.2472 -0.4300  0.5436
  629SOL     OW 2131   3.753   5.065   3.058 -0.9360 -0.2412  0.5529
  629SOL    HW1 2132   3.740   4.970   3.061 -1.5907 -0.1751  0.0872
  629SOL    HW2 2133   3.724   5.096   3.143 -1.1946 -0.4063  0.5260
  630SOL     OW 2134   2.570   0.577   3.495  0.1182 -0.2459 -0.1832
  630SOL    HW1 2135   2.482   0.552   3.522  0.6480 -0.6292  1.3013
  630SOL    HW2 2136   2.618   0.587   3.577  1.8573 -1.5324 -0.9689
  631SOL     OW 2137   5.756   1.246   0.298 -0.0917 -1.2675  0.0740
  631SOL    HW1 2138   5.692   1.178   0.275 -2.4995  1.2210 -1.0741
  631SOL    HW2 2139   5.799   1.267   0.215 -0.4690 -0.3436  0.1064
  632SOL     OW 2140   5.771   1.439   4.227  0.7783  0.1244  0.0068
  632SOL    HW1 2141   5.724   1.484   4.298  1.1292  1.2254 -0.4379
  632SOL    HW2 2142   5.799   1.510   4.169  1.0335 -0.7141 -0.9106
  633SOL     OW 2143   4.355   5.698   1.617  0.0072  0.3917 -0.0674
  633SOL    HW1 2144   4.407   5.763   1.570  0.4353 -0.0056 -0.1614
  633SOL    HW2 2145   4.406   5.617   1.608 -1.0819 -0.2226 -0.9649
  634SOL     OW 2146   3.039   1.175   5.687 -0.2740 -0.0945 -0.3709
  634SOL    HW1 2147   3.003   1.106   5.743  0.6226  0.9158  1.5464
  634SOL    HW2 2148   2.962   1.226   5.661 -0.6223  0.0076  0.8029
  635SOL     OW 2149   5.964   4.183   3.540  0.4515  0.0231 -0.6373
  635SOL    HW1 2150   5.921   4.167   3.456  1.0812  0.3135 -1.0209
  635SOL    HW2 2151   6.025   4.255   3.522  2.4939 -1.6104 -0.5908
  636SOL     OW 2152   3.992   4.578   1.045  0.6906  0.1187 -0.2831
  636SOL    HW1 2153   4.072   4.630   1.035 -0.8213  2.5524 -0.6283
  636SOL    HW2 2154   3.999   4.510   0.979  1.4811  1.7006 -1.9264
  637SOL     OW 2155   4.825   0.500   0.283 -0.2253 -0.0798  0.6682
  637SOL    HW1 2156   4.842   0.419   0.331 -2.1800 -0.6027  0.5514
  637SOL    HW2 2157   4.792   0.472   0.198 -2.8808  0.7335  1.3292
  638SOL     OW 2158   2.554   4.895   4.479 -0.6373  0.6488  0.1352
  638SOL    HW1 2159   2.557   4.981   4.521  1.2580 -0.0487  1.5425
  638SOL    HW2 2160   2.539   4.834   4.551  0.5348 -0.3945 -0.4714
  639SOL     OW 2161   2.066   1.962   4.724 -0.1985  0.1600  0.3704
  639SOL    HW1 2162   2.027   1.935   4.807 -1.0242  1.9651  0.6264
  639SOL    HW2 2163   2.151   1.919   4.722 -1.5267 -2.6798  0.5059
  640SOL     OW 2164   2.715   2.767   3.623  0.1401 -0.1071  0.1518
  640SOL    HW1 2165   2.633   2.783   3.576  1.6337  0.2794 -2.4905
  640SOL    HW2 2166   2.748   2.855   3.643  0.5320 -0.2266  0.0339
  641SOL     OW 2167   2.027   4.538   4.855 -0.2502  0.2730  0.7096
  641SOL    HW1 2168   2.028   4.445   4.879 -1.3370 -0.4095 -1.6370
  641SOL    HW2 2169   1.963   4.544   4.784  1.0077  2.5378 -0.3375
  642SOL     OW 2170   2.631   5.131   1.827 -0.1430 -0.0654  0.4339
  642SOL    HW1 2171   2.590   5.217   1.832  0.4939  0.1887  1.9514
  642SOL    HW2 2172   2.720   5.149   1.795  0.2994 -0.0177  1.6397
  643SOL     OW 2173   2.922   2.292   5.605  0.1668 -0.3214  0.1251
  643SOL    HW1 2174   2.864   2.299   5.681 -1.1363 -1.5778 -0.6838
  643SOL    HW2 2175   2.906   2.372   5.555  1.6846  0.9355  1.5472
  644SOL     OW 2176   0.861   3.216   2.858  0.4077 -0.4077 -0.0351
  644SOL    HW1 2177   0.807   3.157   2.804  0.4016  0.4877 -1.0518
  644SOL    HW2 2178   0.816   3.300   2.852  0.9858 -0.0581  0.5364
  645SOL     OW 2179   2.961   1.027   3.235 -0.1616 -0.3170  0.4167
  645SOL    HW1 2180   2.949   1.113   3.194 -1.5580 -0.3762  0.6562
  645SOL    HW2 2181   2.977   1.046   3.327  1.1919 -0.2612  0.1877
  646SOL     OW 2182   2.503   5.423   4.743 -0.5345  0.7466 -0.1217
  646SOL    HW1 2183   2.505   5.487   4.672  0.2207  0.2406 -0.5835
  646SOL    HW2 2184   2.595   5.395   4.751 -0.3287  1.8645  2.0517
  647SOL     OW 2185   3.168   1.180   0.029  0.3160 -0.3618 -0.1010
  647SOL    HW1 2186   3.181   1.268   0.065  1.1494  0.6404 -2.5998
  647SOL    HW2 2187   3.256   1.150   0.007  0.1059 -2.1562  1.2961
  648SOL     OW 2188   1.133   5.012   1.582  0.0396  0.5123  0.3437
  648SOL    HW1 2189   1.133   5.031   1.676  0.0542  0.4794  0.3504
  648SOL    HW2 2190   1.154   5.095   1.540 -0.9848  0.7776  0.3227
  649SOL     OW 2191   1.571   2.208   0.828  0.3428 -0.1608  0.0402
  649SOL    HW1 2192   1.661   2.190   0.855  0.3588 -0.7084 -0.3511
  649SOL    HW2 2193   1.579   2.278   0.764  0.4427  0.1307  0.3691
  650SOL     OW 2194   2.615   2.662   1.959  0.5424  0.5530  0.1706
  650SOL    HW1 2195   2.679   2.630   1.896  1.8646  1.6453  0.9071
  650SOL    HW2 2196   2.596   2.752   1.931 -0.8656  0.1866 -0.1579
  651SOL     OW 2197   2.881   2.834   5.493 -0.2685 -0.0920 -0.7216
  651SOL    HW1 2198   2.921   2.786   5.421  1.3085 -0.8409  0.5888
  651SOL    HW2 2199   2.805   2.782   5.517 -0.1415 -0.4511 -1.0887
  652SOL     OW 2200   0.460   4.768   1.540 -0.5804  0.3510 -0.3319
  652SOL    HW1 2201   0.455   4.862   1.557 -0.1895  0.3192 -0.0243
  652SOL    HW2 2202   0.464   4.761   1.444 -0.7445  0.6384 -0.3605
  653SOL     OW 2203   0.440   2.625   1.190  1.2581 -0.5271 -0.1265
  653SOL    HW1 2204   0.511   2.575   1.149  1.1212 -0.9573  0.1551
  653SOL    HW2 2205   0.361   2.595   1.146  1.2239 -0.2153 -0.2802
  654SOL     OW 2206   4.661   5.731   3.196 -0.3575  0.3515  0.0436
  654SOL    HW1 2207   4.616   5.648   3.210  0.8358 -0.4082 -0.4972
  654SOL    HW2 2208   4.590   5.795   3.188 -1.3015 -0.6127  0.3573
  655SOL     OW 2209   2.002   5.732   4.259 -0.3004 -0.1259 -0.3425
  655SOL    HW1 2210   2.081   5.689   4.291 -0.0390 -0.6810 -1.6678
  655SOL    HW2 2211   1.945   5.660   4.230 -0.7316  0.3231 -0.6394
  656SOL     OW 2212   0.933   2.796   4.870 -0.3544 -0.2631 -0.1762
  656SOL    HW1 2213   0.956   2.829   4.957  0.1843  0.1061 -0.4533
  656SOL    HW2 2214   0.896   2.709   4.886 -1.6787  0.3937  0.5586
  657SOL     OW 2215   1.094   5.884   1.848 -0.0924 -0.3332  0.2336
  657SOL    HW1 2216   1.126   5.808   1.896  1.2480 -0.5022 -0.8515
  657SOL    HW2 2217   1.146   5.885   1.767  1.0828  2.6116  0.8841
  658SOL     OW 2218   3.569   5.043   3.711 -0.3545  0.2878 -0.5743
  658SOL    HW1 2219   3.655   5.004   3.693 -0.0197  1.0505 -0.6718
  658SOL    HW2 2220   3.573   5.071   3.802 -0.0906  1.3181 -0.8887
  659SOL     OW 2221   0.856   5.589   1.046 -0.2778 -0.3349  0.1256
  659SOL    HW1 2222   0.867   5.495   1.033 -2.0249 -0.7945  1.5182
  659SOL    HW2 2223   0.935   5.628   1.009 -0.7583 -2.0853 -3.1652
  660SOL     OW 2224   1.445   3.993   1.784  0.3455 -0.7896 -0.0312
  660SOL    HW1 2225   1.474   3.925   1.845  0.5653 -0.4205  0.2806
  660SOL    HW2 2226   1.391   3.947   1.720 -0.6209 -1.0333  0.9493
  661SOL     OW 2227   1.923   0.268   5.434 -0.2913 -0.1389  0.1280
  661SOL    HW1 2228   1.906   0.201   5.368 -0.1016  0.1094 -0.1705
  661SOL    HW2 2229   1.980   0.225   5.498 -1.2247 -0.6753  0.6284
  662SOL     OW 2230   3.356   0.440   1.486  0.2501  0.5035  0.3838
  662SOL    HW1 2231   3.274   0.395   1.504  0.1441  0.4885 -0.1212
  662SOL    HW2 2232   3.423   0.374   1.499  0.0254 -0.1051 -1.3645
  663SOL     OW 2233   3.719   0.517   2.318 -0.3212  0.0292  0.1927
  663SOL    HW1 2234   3.711   0.606   2.284 -1.2509  0.0940  0.5301
  663SOL    HW2 2235   3.640   0.473   2.287  1.1410 -1.3428 -1.7967
  664SOL     OW 2236   3.164   1.534   0.604  0.0370  0.2201 -0.0074
  664SOL    HW1 2237   3.217   1.467   0.560  0.3556  2.0597 -2.6527
  664SOL    HW2 2238   3.080   1.532   0.558 -0.6045  0.4432  1.1159
  665SOL     OW 2239   5.613   5.271   3.345 -0.5866  0.5796  0.4461
  665SOL    HW1 2240   5.682   5.251   3.282 -0.0410  0.4091  1.0846
  665SOL    HW2 2241   5.532   5.264   3.296 -0.3701 -2.0611  0.3386
  666SOL     OW 2242   1.598   1.933   4.267  0.0329 -0.1126  0.5928
  666SOL    HW1 2243   1.651   1.853   4.264 -0.0983 -0.2462  1.6103
  666SOL    HW2 2244   1.542   1.923   4.343 -2.9847 -0.8867 -1.5361
  667SOL     OW 2245   5.128   3.639   5.748  0.4418 -0.4280  0.1798
  667SOL    HW1 2246   5.202   3.600   5.702  0.8757  0.0257  0.4844
  667SOL    HW2 2247   5.053   3.625   5.690  1.0056  0.2407 -0.7211
  668SOL     OW 2248   0.934   6.031   3.820  0.2009 -0.5681  0.2612
  668SOL    HW1 2249   0.985   6.018   3.900  2.2312 -0.4237 -0.9212
  668SOL    HW2 2250   1.000   6.033   3.751 -1.2702  1.4579 -1.1894
  669SOL     OW 2251   2.112   0.601   2.524  0.1417 -0.3357 -0.1277
  669SOL    HW1 2252   2.206   0.611   2.537  0.5737 -3.7703  0.3932
  669SOL    HW2 2253   2.075   0.686   2.547  2.9496  0.6175  1.2789
  670SOL     OW 2254   4.114   5.286   2.766  0.5688  0.4780  0.2772
  670SOL    HW1 2255   4.145   5.342   2.695  2.9592 -1.2745 -0.1623
  670SOL    HW2 2256   4.062   5.218   2.722 -1.7709  1.8370  0.7483
  671SOL     OW 2257   4.884   4.098   4.330  0.2004 -1.0926  0.2935
  671SOL    HW1 2258   4.798   4.139   4.324  0.3534 -0.7186  0.5848
  671SOL    HW2 2259   4.921   4.132   4.412 -0.4463 -3.2760  1.5809
  672SOL     OW 2260   2.486   1.542   4.271 -0.0233 -0.4218 -0.1339
  672SOL    HW1 2261   2.403   1.564   4.314  0.4889  1.4060  0.0136
  672SOL    HW2 2262   2.499   1.449   4.288 -0.9661 -0.2488  1.7210
  673SOL     OW 2263   5.572   2.703   1.433 -0.2774  0.4914  0.4315
  673SOL    HW1 2264   5.618   2.619   1.442  0.0862  0.7046  0.5836
  673SOL    HW2 2265   5.572   2.739   1.522  0.3786  1.0790  0.1934
  674SOL     OW 2266   4.957   2.363   2.805 -0.1492 -0.0820  0.2257
  674SOL    HW1 2267   4.906   2.439   2.776 -0.0980 -0.3036 -0.4723
  674SOL    HW2 2268   5.011   2.395   2.877  2.2423  1.3905 -2.0626
  675SOL     OW 2269   2.414   4.748   3.310  0.6052  0.3461  0.4162
  675SOL    HW1 2270   2.392   4.778   3.398  0.6698 -0.3403  0.6655
  675SOL    HW2 2271   2.338   4.699   3.280  0.5746  0.5900  0.0738
  676SOL     OW 2272   1.223   5.732   4.911 -0.3845 -0.5521  0.1962
  676SOL    HW1 2273   1.311   5.713   4.879 -0.2937  2.1492 -1.4610
  676SOL    HW2 2274   1.236   5.754   5.004  0.3463 -2.0151  0.4755
  677SOL     OW 2275   0.948   3.861   3.220 -0.4019  0.2245  0.8110
  677SOL    HW1 2276   0.902   3.877   3.137 -1.5849  0.9727  1.5894
  677SOL    HW2 2277   0.990   3.776   3.207 -1.0626  0.0488 -0.3506
  678SOL     OW 2278   0.396   2.445   5.237  0.4144 -0.3027 -0.0060
  678SOL    HW1 2279   0.372   2.353   5.227 -3.0198  0.3230  0.9348
  678SOL    HW2 2280   0.437   2.450   5.323  1.7299 -1.0670 -0.5578
  679SOL     OW 2281   0.566   1.804   2.245  0.2697 -0.0594  0.5929
  679SOL    HW1 2282   0.594   1.853   2.168 -1.1196  1.1447  0.8118
  679SOL    HW2 2283   0.593   1.858   2.319 -1.8261  0.7561  0.8242
  680SOL     OW 2284   1.528   5.942   4.990  0.2039  0.1648 -0.2161
  680SOL    HW1 2285   1.605   5.948   5.045  0.0586 -1.1787  0.1714
  680SOL    HW2 2286   1.562   5.917   4.904  0.1704 -1.2531  0.1536
  681SOL     OW 2287   6.087   4.901   4.813 -0.1754 -0.2224 -0.2915
  681SOL    HW1 2288   6.025   4.922   4.883  0.4894  3.8453 -0.6959
  681SOL    HW2 2289   6.044   4.928   4.733  1.0219  0.0058 -0.8842
  682SOL     OW 2290   5.509   4.646   5.935  0.5843  0.0966 -0.3537
  682SOL    HW1 2291   5.501   4.705   6.010 -1.7765 -1.6273  0.8899
  682SOL    HW2 2292   5.420   4.635   5.903  1.2816 -0.8545 -2.1501
  683SOL     OW 2293   3.214   3.314   0.338 -0.2061  0.2171 -0.0071
  683SOL    HW1 2294   3.153   3.303   0.411 -0.5034  0.9211 -0.1328
  683SOL    HW2 2295   3.248   3.403   0.349  0.4577 -0.0097 -0.2008
  684SOL     OW 2296   5.249   2.862   0.452 -0.6926  0.1770 -0.2828
  684SOL    HW1 2297   5.270   2.941   0.502 -1.5444  2.0008 -2.6151
  684SOL    HW2 2298   5.310   2.864   0.377  0.1812 -2.1540  0.2839
  685SOL     OW 2299   4.187   3.219   3.263  0.3406  0.1967  0.1476
  685SOL    HW1 2300   4.112   3.279   3.273  0.0873 -0.0825 -0.0621
  685SOL    HW2 2301   4.183   3.191   3.172  0.1978 -0.4864  0.3600
  686SOL     OW 2302   0.100   0.819   0.731 -0.3008  0.4392 -0.1413
  686SOL    HW1 2303   0.011   0.846   0.751  0.0174  1.3144  0.1493
  686SOL    HW2 2304   0.095   0.724   0.721 -1.1277  0.3965  0.5752
  687SOL     OW 2305   0.277   3.939   3.925 -0.1557 -0.1129 -0.2006
  687SOL    HW1 2306   0.307   3.971   3.840  0.7386  2.1394  0.8891
  687SOL    HW2 2307   0.229   4.013   3.963  0.2338 -0.7413  1.6125
  688SOL     OW 2308   5.346   4.424   6.135 -0.1292 -0.1262  0.3638
  688SOL    HW1 2309   5.353   4.481   6.058 -1.6760 -0.1113  0.2108
  688SOL    HW2 2310   5.421   4.449   6.189 -0.5597  1.8455  0.1494
  689SOL     OW 2311   1.358   6.042   6.014  0.0408  0.1502 -0.0152
  689SOL    HW1 2312   1.289   6.092   5.971 -0.2570 -0.1036  0.1597
  689SOL    HW2 2313   1.333   6.042   6.107 -0.1327 -0.5702 -0.0510
  690SOL     OW 2314   0.817   5.533   5.751  0.3814  0.0162 -0.7386
  690SOL    HW1 2315   0.762   5.507   5.677 -0.9286  0.9902 -0.1725
  690SOL    HW2 2316   0.831   5.627   5.738  2.0493 -0.2405 -0.9268
  691SOL     OW 2317   1.768   5.482   2.597 -0.5165 -0.1958 -0.1650
  691SOL    HW1 2318   1.760   5.577   2.582 -0.8061 -0.3159 -0.7711
  691SOL    HW2 2319   1.862   5.465   2.590 -0.3369  0.2173  1.0013
  692SOL     OW 2320   3.758   0.881   5.330  0.3306 -0.3625  1.0089
  692SOL    HW1 2321   3.818   0.889   5.256  0.1954  0.3421  0.9719
  692SOL    HW2 2322   3.814   0.857   5.404  0.4154 -1.4644  0.6056
  693SOL     OW 2323   0.017   5.941   1.965  0.1946 -0.4663 -0.2856
  693SOL    HW1 2324   0.073   5.864   1.970  1.0529  0.1841  0.3918
  693SOL    HW2 2325   0.073   6.014   1.990 -1.2216  0.0649  1.5763
  694SOL     OW 2326   3.594   1.587   2.538  0.5056  0.0273  0.6253
  694SOL    HW1 2327   3.539   1.653   2.497  0.6367 -0.3912 -0.2444
  694SOL    HW2 2328   3.560   1.579   2.627 -1.1029 -0.5170 -0.0116
  695SOL     OW 2329   5.484   4.934   0.314 -0.3306  0.4417  0.2722
  695SOL    HW1 2330   5.456   4.979   0.394 -3.2963  0.4077 -0.6117
  695SOL    HW2 2331   5.485   4.841   0.339 -0.2347  0.5051  0.5122
  696SOL     OW 2332   3.615   1.684   1.864 -0.2562  0.0231 -0.5826
  696SOL    HW1 2333   3.674   1.760   1.862  0.3944 -0.4023  1.0451
  696SOL    HW2 2334   3.663   1.615   1.818 -0.9145  0.6019 -2.2069
  697SOL     OW 2335   4.714   3.009   3.665 -0.3618  0.0247 -0.6947
  697SOL    HW1 2336   4.651   2.970   3.604  1.2000 -1.9229 -1.1777
  697SOL    HW2 2337   4.668   3.011   3.749 -0.7952 -2.3150 -0.8058
  698SOL     OW 2338   2.137   3.816   4.704  0.4819 -0.0962  0.4603
  698SOL    HW1 2339   2.102   3.786   4.620  1.0709 -1.6259  0.7209
  698SOL    HW2 2340   2.061   3.852   4.750 -0.3643 -1.4617  0.2036
  699SOL     OW 2341   3.370   4.391   5.352  0.4612  0.5037  0.3058
  699SOL    HW1 2342   3.405   4.374   5.439 -0.9423  0.4458  0.8865
  699SOL    HW2 2343   3.316   4.470   5.363  0.1942  0.4380 -0.4931
  700SOL     OW 2344   0.152   5.068   3.394 -0.1385  0.5749 -0.0933
  700SOL    HW1 2345   0.224   5.026   3.443 -0.3609  1.4916  1.0712
  700SOL    HW2 2346   0.196   5.118   3.326  0.2294 -0.1327 -0.3888
  701SOL     OW 2347   3.182   1.338   0.972  0.2560 -0.0211 -0.4966
  701SOL    HW1 2348   3.255   1.364   1.027  0.9255 -0.8141 -0.9978
  701SOL    HW2 2349   3.219   1.278   0.908 -1.1538 -1.9711  0.4009
  702SOL     OW 2350   2.864   1.702   1.835 -0.6262  0.1798 -0.1144
  702SOL    HW1 2351   2.780   1.745   1.819  0.0284  1.9434  0.9298
  702SOL    HW2 2352   2.897   1.742   1.915  0.7686 -1.1943  0.0468
  703SOL     OW 2353   3.593   4.874   2.211 -0.6539  0.6125  0.6123
  703SOL    HW1 2354   3.648   4.903   2.284 -1.1385 -2.4811  2.3818
  703SOL    HW2 2355   3.504   4.900   2.237 -0.7864 -0.2099  1.0188
  704SOL     OW 2356   2.370   2.007   0.578 -0.0179 -0.3764  0.0487
  704SOL    HW1 2357   2.348   2.053   0.660  0.6940 -0.1059  0.1001
  704SOL    HW2 2358   2.461   1.981   0.590  0.6845  1.2542 -1.3616
  705SOL     OW 2359   0.751   3.724   1.727 -0.0452 -0.1330  0.0144
  705SOL    HW1 2360   0.833   3.680   1.705  0.8755  1.5717 -0.1361
  705SOL    HW2 2361   0.766   3.761   1.814 -1.6569 -2.0688  1.1875
  706SOL     OW 2362   5.731   5.126   1.254  0.0116  0.0063 -0.0330
  706SOL    HW1 2363   5.740   5.094   1.165 -1.3935 -0.6059  0.0253
  706SOL    HW2 2364   5.636   5.138   1.266  0.3381  4.0104  0.0012
  707SOL     OW 2365   3.241   3.635   4.629 -0.0679  0.1789 -0.0719
  707SOL    HW1 2366   3.305   3.637   4.700 -0.5876 -2.0439  0.5406
  707SOL    HW2 2367   3.255   3.551   4.586 -2.2657 -0.2004 -0.1783
  708SOL     OW 2368   1.591   4.167   3.485  0.0006  0.0118 -0.0991
  708SOL    HW1 2369   1.541   4.190   3.563 -0.4863  0.5912 -0.5745
  708SOL    HW2 2370   1.682   4.186   3.509 -0.0755 -0.3919  0.5299
  709SOL     OW 2371   4.552   1.289   2.514 -0.5538 -0.0180  0.2192
  709SOL    HW1 2372   4.592   1.333   2.589  1.1518 -0.4771 -0.3850
  709SOL    HW2 2373   4.543   1.197   2.542  0.8493 -0.3620 -0.4043
  710SOL     OW 2374   0.971   4.618   4.131  0.4495 -0.6636  1.3789
  710SOL    HW1 2375   0.986   4.589   4.042 -3.2417 -0.6568  0.5828
  710SOL    HW2 2376   1.004   4.547   4.186  1.4741 -1.3173 -0.0328
  711SOL     OW 2377   4.209   1.943   2.841  0.2188 -0.2137  0.3709
  711SOL    HW1 2378   4.207   2.006   2.914  2.3577 -1.4198  1.5948
  711SOL    HW2 2379   4.256   1.989   2.772  0.5122  0.0476  0.7342
  712SOL     OW 2380   0.683   3.375   1.133  0.1493  0.1204  0.8489
  712SOL    HW1 2381   0.603   3.332   1.162  0.1859  1.0852  2.4688
  712SOL    HW2 2382   0.702   3.440   1.200  2.2187  0.0379  0.4212
  713SOL     OW 2383   3.967   6.077   4.761  0.4643  0.0550  0.1219
  713SOL    HW1 2384   3.914   6.021   4.817  2.3948 -2.3947 -0.2927
  713SOL    HW2 2385   3.907   6.105   4.692 -0.0858 -4.3630 -1.5782
  714SOL     OW 2386   2.827   4.761   3.778 -0.2225  0.1952 -0.5253
  714SOL    HW1 2387   2.757   4.718   3.730  0.8449  0.0075 -2.0013
  714SOL    HW2 2388   2.905   4.709   3.760  0.4275  0.7393  0.5678
  715SOL     OW 2389   0.651   3.766   0.824  0.3868 -0.5143  0.0725
  715SOL    HW1 2390   0.647   3.670   0.816  0.0814 -0.5571  0.6761
  715SOL    HW2 2391   0.745   3.786   0.820  0.3700 -0.6625 -1.8142
  716SOL     OW 2392   2.907   0.404   2.232  0.4070  0.2411  0.0365
  716SOL    HW1 2393   2.860   0.410   2.149  1.6257  1.6891 -0.5847
  716SOL    HW2 2394   2.990   0.361   2.209  1.3471  1.9051  0.2019
  717SOL     OW 2395   0.593   2.738   2.542 -0.3753  0.0980  0.3869
  717SOL    HW1 2396   0.680   2.709   2.514 -0.9352 -1.7530  0.3981
  717SOL    HW2 2397   0.557   2.783   2.465 -0.4498 -1.6231 -0.6411
  718SOL     OW 2398   4.535   3.342   2.545 -0.2237  0.3637  0.2533
  718SOL    HW1 2399   4.476   3.334   2.471 -1.5979  0.2614  1.3262
  718SOL    HW2 2400   4.488   3.396   2.609  0.6373 -0.0967  1.3239
  719SOL     OW 2401   1.916   4.086   0.716  0.4535 -0.2765  0.0542
  719SOL    HW1 2402   1.933   4.139   0.794 -1.2336 -0.0240  0.2840
  719SOL    HW2 2403   1.937   4.144   0.643  2.1492 -0.5503  0.2794
  720SOL     OW 2404   4.979   2.392   4.488 -0.2800 -0.0504  0.3839
  720SOL    HW1 2405   4.913   2.419   4.553  1.1900  2.0058  1.1266
  720SOL    HW2 2406   4.928   2.356   4.415 -2.1127 -0.0475  1.6107
  721SOL     OW 2407   0.314   4.540   3.270  0.4278 -0.4817 -0.3928
  721SOL    HW1 2408   0.385   4.524   3.332 -0.3021 -0.1466  0.5389
  721SOL    HW2 2409   0.276   4.453   3.253 -0.3501 -0.3939  0.8237
  722SOL     OW 2410   4.215   1.178   2.500 -0.4691  0.2118 -0.2664
  722SOL    HW1 2411   4.303   1.210   2.481  0.2173 -1.7738 -0.6596
  722SOL    HW2 2412   4.203   1.196   2.594  0.9991 -0.9178  0.1675
  723SOL     OW 2413   1.001   1.616   5.338  0.3028  0.2755 -0.0110
  723SOL    HW1 2414   0.927   1.557   5.348 -1.0885  2.1370  1.7957
  723SOL    HW2 2415   1.077   1.559   5.324 -0.8866 -1.9434  1.9219
  724SOL     OW 2416   2.279   1.744   0.799  0.2594 -0.8658 -0.3689
  724SOL    HW1 2417   2.193   1.785   0.785  0.9282  0.6681 -0.1630
  724SOL    HW2 2418   2.315   1.736   0.711 -0.0869 -1.5003 -0.4550
  725SOL     OW 2419   5.699   3.290   0.656  0.3555  0.1122  0.1992
  725SOL    HW1 2420   5.709   3.380   0.624  0.4941 -0.3450 -1.1040
  725SOL    HW2 2421   5.749   3.237   0.595  0.5754 -0.8300  1.1706
  726SOL     OW 2422   3.225   2.422   4.403  0.0812 -0.0535  0.0172
  726SOL    HW1 2423   3.146   2.401   4.453  0.0547  1.0403  0.4636
  726SOL    HW2 2424   3.217   2.371   4.323 -2.0060  1.3987 -0.8002
  727SOL     OW 2425   1.497   2.783   4.269 -0.3865 -0.3031 -0.6219
  727SOL    HW1 2426   1.508   2.724   4.344 -0.8835  2.2780  1.6603
  727SOL    HW2 2427   1.432   2.739   4.214  0.1063 -2.3953  0.3438
  728SOL     OW 2428   4.467   3.810   0.521 -0.1780  0.4069 -0.1415
  728SOL    HW1 2429   4.553   3.778   0.546  0.0888  0.9096 -0.3904
  728SOL    HW2 2430   4.420   3.820   0.603 -0.3890 -0.9408 -0.0893
  729SOL     OW 2431   0.499   3.272   4.732 -0.2048 -0.4107 -0.2908
  729SOL    HW1 2432   0.463   3.254   4.646 -0.6202 -0.3154 -0.1397
  729SOL    HW2 2433   0.568   3.206   4.744 -0.4038 -0.6649 -0.5379
  730SOL     OW 2434   3.809   0.828   3.617 -0.3620  0.7233 -0.1365
  730SOL    HW1 2435   3.842   0.838   3.527  0.2271 -1.5752 -0.2499
  730SOL    HW2 2436   3.843   0.903   3.664 -0.5757  1.9164 -1.8010
  731SOL     OW 2437   4.855   5.480   5.686 -0.2166 -0.4580 -0.0511
  731SOL    HW1 2438   4.825   5.554   5.634 -0.7202  0.1520  1.0644
  731SOL    HW2 2439   4.784   5.415   5.678 -0.4653 -0.2163  0.1676
  732SOL     OW 2440   2.771   2.391   6.112 -0.0325  0.3762 -0.0290
  732SOL    HW1 2441   2.784   2.392   6.017  0.7557 -0.5862  0.0497
  732SOL    HW2 2442   2.831   2.323   6.143 -0.0340  0.9262  1.1999
  733SOL     OW 2443   1.461   4.839   5.913  0.2640  0.2349 -0.0026
  733SOL    HW1 2444   1.402   4.854   5.839 -0.5485 -0.7640  0.4155
  733SOL    HW2 2445   1.447   4.914   5.970 -1.9949 -0.8030  0.9571
  734SOL     OW 2446   1.461   1.998   1.034 -0.4216  0.3361 -0.1950
  734SOL    HW1 2447   1.523   1.926   1.024 -0.0107  0.6654 -0.0650
  734SOL    HW2 2448   1.486   2.060   0.966 -0.3188  0.6771  0.1507
  735SOL     OW 2449   3.545   3.276   3.250  0.4471  0.4477 -0.1678
  735SOL    HW1 2450   3.510   3.362   3.273  0.2796  0.4149 -0.2988
  735SOL    HW2 2451   3.504   3.216   3.312 -1.6827  0.0320 -1.8381
  736SOL     OW 2452   4.031   5.830   2.365 -0.4396  0.0007 -0.2749
  736SOL    HW1 2453   4.047   5.837   2.459 -0.1085  1.1522 -0.4095
  736SOL    HW2 2454   4.118   5.828   2.325 -0.5819  1.1095 -0.6606
  737SOL     OW 2455   5.601   5.367   6.065  0.0303  0.6867  0.4381
  737SOL    HW1 2456   5.685   5.411   6.073  0.1283  0.4552  0.7159
  737SOL    HW2 2457   5.596   5.310   6.142  0.4795 -0.7321 -0.5397
  738SOL     OW 2458   5.917   5.505   3.881 -0.3124  0.3269 -0.1019
  738SOL    HW1 2459   5.888   5.429   3.831 -0.4308  0.6032 -0.4635
  738SOL    HW2 2460   5.860   5.576   3.852 -1.3791  0.1845  1.5082
  739SOL     OW 2461   3.865   1.173   0.745  0.0034 -0.0707 -0.0712
  739SOL    HW1 2462   3.780   1.141   0.774 -0.6744  0.9674 -0.8189
  739SOL    HW2 2463   3.844   1.242   0.682  1.4046  0.0960 -0.3893
  740SOL     OW 2464   1.596   0.611   4.376  0.2854 -0.6873  0.1758
  740SOL    HW1 2465   1.579   0.637   4.286 -0.3973 -2.2343 -0.1749
  740SOL    HW2 2466   1.685   0.644   4.394  0.7450 -1.0262 -1.3307
  741SOL     OW 2467   1.888   3.914   4.754 -0.0276  0.1294  0.2221
  741SOL    HW1 2468   1.830   3.988   4.770 -0.7426 -0.4174  0.1609
  741SOL    HW2 2469   1.873   3.891   4.662 -0.0236 -0.2834  0.3226
  742SOL     OW 2470   5.729   5.806   2.387  0.4224 -0.0443 -0.3781
  742SOL    HW1 2471   5.777   5.741   2.335  1.2853  1.2226 -1.2184
  742SOL    HW2 2472   5.797   5.867   2.418 -0.1921 -0.2480  1.5015
  743SOL     OW 2473   4.684   2.989   4.367 -0.2516 -0.4068  0.5312
  743SOL    HW1 2474   4.742   2.913   4.371  0.6058  0.2651  4.4923
  743SOL    HW2 2475   4.600   2.954   4.338  0.0947 -2.9587  2.3167
  744SOL     OW 2476   3.060   0.608   5.463  0.7255 -0.2525 -0.1829
  744SOL    HW1 2477   3.094   0.664   5.534  1.3833 -0.6711 -0.1608
  744SOL    HW2 2478   2.970   0.591   5.488  0.4147  1.0480 -0.3413
  745SOL     OW 2479   3.933   3.575   5.131  0.0484 -0.3524  0.9465
  745SOL    HW1 2480   3.852   3.581   5.181  0.1512 -0.6077  1.1507
  745SOL    HW2 2481   3.907   3.584   5.040 -0.1875 -0.2569  1.0241
  746SOL     OW 2482   2.501   2.868   1.802  0.5138  0.6894  0.2506
  746SOL    HW1 2483   2.447   2.909   1.871  1.1785  0.7697  0.7370
  746SOL    HW2 2484   2.544   2.942   1.759 -1.7065  0.8639 -1.8739
  747SOL     OW 2485   3.580   3.573   0.404 -0.2314 -0.0546  0.0176
  747SOL    HW1 2486   3.593   3.652   0.456 -0.4392 -0.2439  0.3656
  747SOL    HW2 2487   3.667   3.549   0.373 -0.3934  1.3889 -1.7157
  748SOL     OW 2488   2.569   6.060   6.113  0.7872 -0.4106 -0.2323
  748SOL    HW1 2489   2.614   6.060   6.198 -0.0762 -1.7640  0.2563
  748SOL    HW2 2490   2.487   6.014   6.129  0.0068  0.4821 -1.5176
  749SOL     OW 2491   0.281   6.037   1.303  0.1196 -0.0457  0.4648
  749SOL    HW1 2492   0.352   6.101   1.295  0.0556 -0.1614 -1.3339
  749SOL    HW2 2493   0.326   5.953   1.312  0.2166 -0.1007 -0.5008
  750SOL     OW 2494   5.037   5.569   4.223 -0.0032 -0.3864  0.4497
  750SOL    HW1 2495   5.088   5.645   4.250  1.1865 -0.6623 -0.8989
  750SOL    HW2 2496   4.946   5.594   4.242  0.4996  0.6484  1.6548
  751SOL     OW 2497   2.898   2.569   0.170  0.2009  0.2385  0.4188
  751SOL    HW1 2498   2.863   2.648   0.130  0.9354  0.3499 -0.0376
  751SOL    HW2 2499   2.851   2.497   0.128  1.4098  0.3211 -1.1734
  752SOL     OW 2500   2.759   0.702   5.195  0.0577 -0.4662 -0.1862
  752SOL    HW1 2501   2.821   0.773   5.175 -1.2247  1.0801  0.9935
  752SOL    HW2 2502   2.791   0.665   5.277 -0.9773  0.9360  0.9138
  753SOL     OW 2503   5.963   1.174   4.208 -0.2471 -0.7408  0.0425
  753SOL    HW1 2504   5.964   1.195   4.115  0.1449  0.3231  0.2693
  753SOL    HW2 2505   5.900   1.103   4.216 -0.8503 -0.3375 -0.9404
  754SOL     OW 2506   4.498   0.457   4.594  0.4179  0.1115  0.2343
  754SOL    HW1 2507   4.512   0.363   4.588  0.0636  0.0531  0.2880
  754SOL    HW2 2508   4.429   0.467   4.659 -1.4303  0.2243 -1.6294
  755SOL     OW 2509   0.314   3.817   1.621  0.3520  0.4197  0.4653
  755SOL    HW1 2510   0.304   3.822   1.717  0.9738 -0.3470  0.5799
  755SOL    HW2 2511   0.339   3.906   1.595  2.0946  0.2078  1.2653
  756SOL     OW 2512   0.865   3.588   0.623 -0.1122  0.0700 -0.0078
  756SOL    HW1 2513   0.940   3.623   0.574  0.0810 -1.7743 -1.1431
  756SOL    HW2 2514   0.792   3.593   0.560 -0.0295 -1.6505 -0.2965
  757SOL     OW 2515   3.519   0.010   3.261 -0.1300 -0.0511 -0.0908
  757SOL    HW1 2516   3.582  -0.051   3.221 -1.2186 -1.7326  0.6219
  757SOL    HW2 2517   3.572   0.069   3.314  0.9601 -0.5568 -0.5848
  758SOL     OW 2518   5.128   1.715   0.327 -0.3433 -0.0008 -0.3636
  758SOL    HW1 2519   5.044   1.760   0.323 -0.5707 -0.2118  1.3491
  758SOL    HW2 2520   5.186   1.773   0.376  0.1907 -0.3323 -0.5810
  759SOL     OW 2521   4.705   1.601   5.486  0.0504  0.1076  0.4873
  759SOL    HW1 2522   4.659   1.633   5.409  0.0854 -1.6063 -0.2910
  759SOL    HW2 2523   4.782   1.658   5.494 -0.7444  1.2580  0.1870
  760SOL     OW 2524   0.067   1.655   0.219 -0.8413 -0.1623 -0.5344
  760SOL    HW1 2525   0.110   1.728   0.175  1.2514  0.1120  1.7835
  760SOL    HW2 2526   0.137   1.611   0.267 -2.7827 -1.0906  1.5923
  761SOL     OW 2527   3.309   2.453   2.230  0.3852 -0.0219 -0.5025
  761SOL    HW1 2528   3.310   2.359   2.246 -2.1046  0.1986  1.5244
  761SOL    HW2 2529   3.394   2.483   2.262  0.4725 -1.3546  0.5959
  762SOL     OW 2530   0.802   4.425   0.396  0.2346  0.1984  0.2283
  762SOL    HW1 2531   0.756   4.501   0.433 -2.4695 -0.4959 -1.3858
  762SOL    HW2 2532   0.773   4.423   0.305  1.7016 -1.7438 -0.2501
  763SOL     OW 2533   3.424   5.068   0.257 -0.5726  0.2433  0.3704
  763SOL    HW1 2534   3.411   5.099   0.347 -0.1343  0.8905  0.2191
  763SOL    HW2 2535   3.362   5.119   0.205 -0.7112 -0.0155  0.2804
  764SOL     OW 2536   6.033   0.335   5.307  0.0772  0.1141 -0.1660
  764SOL    HW1 2537   5.952   0.289   5.288 -0.0851  0.2965  0.0732
  764SOL    HW2 2538   6.102   0.271   5.290 -0.1139 -0.0174 -0.4379
  765SOL     OW 2539   4.683   3.881   2.149 -0.0494  0.3771  0.3162
  765SOL    HW1 2540   4.652   3.966   2.179  2.4296  1.3752  0.2421
  765SOL    HW2 2541   4.674   3.884   2.054 -1.2257 -0.0172  0.3940
  766SOL     OW 2542   0.620   3.086   2.182 -0.7136  0.6285  0.2237
  766SOL    HW1 2543   0.681   3.084   2.108 -0.7202 -1.1790  0.2160
  766SOL    HW2 2544   0.595   3.178   2.190 -0.8575  0.8661 -2.1489
  767SOL     OW 2545   1.850   0.256   2.485  0.0778  0.2698  0.3969
  767SOL    HW1 2546   1.766   0.214   2.507  0.7819 -1.3660  0.0991
  767SOL    HW2 2547   1.825   0.339   2.445 -1.3594  0.5805  1.8283
  768SOL     OW 2548   2.854   0.708   4.001  0.7305 -0.7648 -0.0644
  768SOL    HW1 2549   2.852   0.708   4.097 -0.0604 -0.0130 -0.0760
  768SOL    HW2 2550   2.947   0.719   3.980  0.7008  1.3756  0.6481
  769SOL     OW 2551   1.424   5.046   4.259  0.2701  0.0738  0.3903
  769SOL    HW1 2552   1.412   5.105   4.333 -1.8008  1.7072 -1.1410
  769SOL    HW2 2553   1.336   5.019   4.235  0.8504 -0.1090 -1.7108
  770SOL     OW 2554   1.076   0.086   0.305  0.1622  0.1393  0.6886
  770SOL    HW1 2555   1.171   0.088   0.303  0.1862 -0.9576 -0.3171
  770SOL    HW2 2556   1.054   0.018   0.370  0.1260 -1.2089 -0.6843
  771SOL     OW 2557   3.133   3.893   1.104  0.0336 -0.0283 -0.5543
  771SOL    HW1 2558   3.183   3.962   1.148  1.7737 -1.3123 -0.4180
  771SOL    HW2 2559   3.048   3.892   1.148  0.8853  0.3259  1.1549
  772SOL     OW 2560   3.474   0.395   2.250 -0.2533  0.2557 -0.2048
  772SOL    HW1 2561   3.421   0.404   2.171  0.8089  0.0165 -0.9725
  772SOL    HW2 2562   3.410   0.385   2.321 -1.2263  0.1483 -1.0692
  773SOL     OW 2563   0.379   4.150   1.892  0.2882 -0.5780  0.1078
  773SOL    HW1 2564   0.315   4.111   1.951 -0.0193 -1.0301 -0.5226
  773SOL    HW2 2565   0.415   4.076   1.843  0.2966 -0.1633 -0.5135
  774SOL     OW 2566   0.280   4.906   2.422 -0.1266 -0.3500  0.4264
  774SOL    HW1 2567   0.217   4.843   2.388 -0.5984  1.3483 -2.1955
  774SOL    HW2 2568   0.318   4.864   2.499 -1.9339 -2.8708  0.0583
  775SOL     OW 2569   4.977   5.075   1.288  0.1085 -0.1836 -0.2946
  775SOL    HW1 2570   4.953   4.983   1.288  0.6303 -0.3526  1.0799
  775SOL    HW2 2571   4.936   5.111   1.367  2.5048 -0.0139  0.9796
  776SOL     OW 2572   4.092   3.518   2.209 -0.2040  0.3221 -0.0154
  776SOL    HW1 2573   4.183   3.532   2.238 -0.6180  0.6657  1.1711
  776SOL    HW2 2574   4.085   3.568   2.128  0.9574 -0.5482 -0.6893
  777SOL     OW 2575   4.783   4.532   3.184 -0.3540  0.3807  0.2546
  777SOL    HW1 2576   4.813   4.621   3.163  1.8293 -0.4339 -0.4590
  777SOL    HW2 2577   4.793   4.525   3.279  1.3538  0.3252  0.1039
  778SOL     OW 2578   4.105   0.448   3.464  0.1940 -0.0261  0.3918
  778SOL    HW1 2579   4.167   0.519   3.448  0.8225 -0.7878 -0.6211
  778SOL    HW2 2580   4.094   0.448   3.559  0.8760  0.8358  0.4895
  779SOL     OW 2581   5.216   4.312   5.088 -0.1837  0.4063 -0.2229
  779SOL    HW1 2582   5.268   4.255   5.144 -1.1823  1.4970  1.9595
  779SOL    HW2 2583   5.281   4.367   5.043  0.6598 -0.4522 -0.0798
  780SOL     OW 2584   1.911   3.468   5.592 -0.6647 -0.0862  0.2473
  780SOL    HW1 2585   1.865   3.384   5.587  0.1617 -0.5475  0.2860
  780SOL    HW2 2586   1.851   3.525   5.641 -1.1063 -0.7378  0.4756
  781SOL     OW 2587   4.130   3.769   4.455 -0.3155 -0.1247 -0.0804
  781SOL    HW1 2588   4.176   3.767   4.539  1.6376  0.6694 -1.0670
  781SOL    HW2 2589   4.186   3.718   4.397 -1.4840 -0.4034 -0.9862
  782SOL     OW 2590   3.649   2.505   2.875  0.1022 -0.1373  0.2411
  782SOL    HW1 2591   3.652   2.601   2.880 -1.1091 -0.1029  0.6806
  782SOL    HW2 2592   3.563   2.486   2.839 -0.1800 -1.0825  1.3543
  783SOL     OW 2593   4.214   4.182   1.979  0.4847  0.1375 -0.4356
  783SOL    HW1 2594   4.154   4.134   2.036 -0.1475 -1.1568 -2.1134
  783SOL    HW2 2595   4.219   4.269   2.018 -1.9294  0.0857  0.1765
  784SOL     OW 2596   0.034   5.676   4.164 -0.5612  0.5454 -0.1304
  784SOL    HW1 2597   0.114   5.726   4.179  0.2079 -0.6537 -0.1018
  784SOL    HW2 2598   0.011   5.642   4.251  0.9503 -2.0715 -0.6687
  785SOL     OW 2599   0.636   3.634   0.016  0.0693  0.3075  0.2552
  785SOL    HW1 2600   0.566   3.698   0.032  0.3067  0.5176  0.4735
  785SOL    HW2 2601   0.607   3.555   0.063  0.2560  0.5850  0.8514
  786SOL     OW 2602   6.128   4.390   5.404  0.0295 -0.3929 -0.3467
  786SOL    HW1 2603   6.221   4.402   5.386  0.4708 -0.2791  1.7681
  786SOL    HW2 2604   6.091   4.478   5.400 -0.0499 -0.4706 -1.4450
  787SOL     OW 2605   2.581   0.784   0.331 -0.1913  0.2009 -0.7064
  787SOL    HW1 2606   2.611   0.693   0.336 -0.4416  0.1827  1.1993
  787SOL    HW2 2607   2.637   0.824   0.265  1.2062 -0.8882 -0.2332
  788SOL     OW 2608   4.562   2.248   0.706 -0.3241 -0.8012  0.1349
  788SOL    HW1 2609   4.620   2.318   0.736 -0.6462  0.4788 -1.9480
  788SOL    HW2 2610   4.488   2.295   0.667 -1.4584 -2.3568  0.3653
  789SOL     OW 2611   3.346   0.886   5.574 -0.4067  0.3088 -0.1106
  789SOL    HW1 2612   3.374   0.806   5.529  0.5619 -0.5154  1.8196
  789SOL    HW2 2613   3.255   0.870   5.597  0.4620 -1.4681  2.5552
  790SOL     OW 2614   5.907   3.241   0.088  0.3945  0.1018 -0.0201
  790SOL    HW1 2615   5.909   3.146   0.085  0.6751  0.1209 -0.5357
  790SOL    HW2 2616   5.985   3.269   0.040 -0.2602  0.6015 -0.8404
  791SOL     OW 2617   5.147   4.934   4.348  0.5925  0.9197  0.3393
  791SOL    HW1 2618   5.079   4.980   4.298  0.7219  0.8091  0.0632
  791SOL    HW2 2619   5.229   4.976   4.322  1.1231 -1.4863 -2.3484
  792SOL     OW 2620   3.997   4.711   3.175 -0.1022 -0.1293  0.0029
  792SOL    HW1 2621   3.991   4.791   3.227  0.6217  0.5141 -0.8714
  792SOL    HW2 2622   4.028   4.644   3.237  0.9092  0.6555  0.3535
  793SOL     OW 2623   1.475   3.068   2.665  0.2005  0.0267  0.1394
  793SOL    HW1 2624   1.448   3.044   2.753 -0.1051 -2.0475 -0.4634
  793SOL    HW2 2625   1.395   3.061   2.612 -0.0897  3.1295 -0.0576
  794SOL     OW 2626   4.087   3.316   1.886  0.2857  0.0295 -0.0041
  794SOL    HW1 2627   4.141   3.274   1.953 -0.8182 -1.3125  0.0911
  794SOL    HW2 2628   4.102   3.265   1.807  1.1804  1.2891 -0.6889
  795SOL     OW 2629   0.102   3.030   3.856 -0.2868 -0.0780  0.1553
  795SOL    HW1 2630   0.163   3.099   3.829 -1.0773  0.3793 -0.5072
  795SOL    HW2 2631   0.016   3.063   3.831 -0.6482 -1.4783 -0.5546
  796SOL     OW 2632   5.242   5.985   4.532 -0.9778 -0.2096  0.4411
  796SOL    HW1 2633   5.195   6.065   4.509 -1.5927 -0.5143  0.6255
  796SOL    HW2 2634   5.175   5.917   4.533 -0.7016 -0.4824  1.6245
  797SOL     OW 2635   2.979   0.946   2.969 -0.2575 -0.1156  0.1408
  797SOL    HW1 2636   3.040   0.872   2.961  2.4658  1.9167  0.6358
  797SOL    HW2 2637   2.952   0.946   3.061  0.4514  0.0100  0.3528
  798SOL     OW 2638   4.911   5.617   3.000 -0.3881  0.3901  0.0247
  798SOL    HW1 2639   4.911   5.702   3.045 -0.2688  1.2175 -1.4747
  798SOL    HW2 2640   4.939   5.555   3.066 -0.7270  1.4779  1.2377
  799SOL     OW 2641   2.073   2.157   3.356  0.3181 -0.1879 -0.0750
  799SOL    HW1 2642   1.998   2.163   3.297  0.9965  1.4441 -0.8388
  799SOL    HW2 2643   2.035   2.169   3.443 -0.3486  0.5543 -0.4493
  800SOL     OW 2644   5.329   5.985   2.808 -0.6255  0.0597 -0.4240
  800SOL    HW1 2645   5.293   6.065   2.768 -0.8072  0.2044  0.0292
  800SOL    HW2 2646   5.418   5.980   2.772 -1.0033 -0.1668 -1.3495
  801SOL     OW 2647   2.039   4.714   1.069 -0.5182  0.1697 -0.2269
  801SOL    HW1 2648   1.991   4.669   0.999  0.8039  0.0028 -1.0679
  801SOL    HW2 2649   2.041   4.652   1.141  1.5421 -1.3395 -1.4773
  802SOL     OW 2650   5.920   4.621   4.120  0.0489  0.8135 -0.7429
  802SOL    HW1 2651   5.840   4.616   4.172  0.5212  0.0811 -0.0627
  802SOL    HW2 2652   5.933   4.714   4.104 -0.9619  0.9333 -0.9058
  803SOL     OW 2653   2.189   3.496   5.668  0.1079 -0.3096  0.2058
  803SOL    HW1 2654   2.093   3.496   5.664  0.0527  1.7966  0.5439
  803SOL    HW2 2655   2.216   3.539   5.587  0.8057 -1.0673  0.0188
  804SOL     OW 2656   0.029   5.960   2.350 -0.0594 -0.3602 -0.2967
  804SOL    HW1 2657   0.029   6.026   2.281  0.0054  0.4169  0.4255
  804SOL    HW2 2658   0.085   5.997   2.418 -3.7465  1.1569  2.2367
  805SOL     OW 2659   3.874   2.948   0.402 -0.0598 -0.2650 -0.1749
  805SOL    HW1 2660   3.895   2.972   0.312 -1.9212  1.8072 -0.1375
  805SOL    HW2 2661   3.834   3.026   0.439 -2.3908 -2.0598  1.4280
  806SOL     OW 2662   4.358   2.251   0.121  0.1619  0.3486  0.0275
  806SOL    HW1 2663   4.307   2.288   0.048  0.8073  1.6352  0.2028
  806SOL    HW2 2664   4.448   2.248   0.088  0.1737 -0.8211  0.1306
  807SOL     OW 2665   5.026   2.004   5.788 -0.2986 -0.1871  0.4704
  807SOL    HW1 2666   4.944   1.967   5.821 -1.0178  0.3254 -0.6526
  807SOL    HW2 2667   5.050   2.069   5.854 -1.3375  0.3423  0.3634
  808SOL     OW 2668   3.411   0.903   4.762  0.2896  0.0474  0.4374
  808SOL    HW1 2669   3.324   0.863   4.769  0.7645 -0.9679  0.8703
  808SOL    HW2 2670   3.402   0.969   4.694 -1.6874  2.3744  2.7308
  809SOL     OW 2671   0.334   1.766   0.548 -0.3039 -0.5089  0.3013
  809SOL    HW1 2672   0.424   1.772   0.580 -0.2965 -0.0782  0.2134
  809SOL    HW2 2673   0.333   1.821   0.470 -0.5555 -0.7993  0.0984
  810SOL     OW 2674   2.404   3.439   3.518 -0.1235  0.1234  0.5239
  810SOL    HW1 2675   2.427   3.401   3.433  0.4775 -1.3965  1.3360
  810SOL    HW2 2676   2.316   3.406   3.537 -2.1901  3.8339 -1.3593
  811SOL     OW 2677   4.912   1.345   2.329 -0.6907 -0.0826  0.0534
  811SOL    HW1 2678   4.841   1.330   2.390  0.1804 -1.9190  0.6899
  811SOL    HW2 2679   4.920   1.263   2.281  1.3480 -0.1437  0.4074
  812SOL     OW 2680   2.834   5.132   1.318  0.1375  0.1571  0.0779
  812SOL    HW1 2681   2.770   5.106   1.252  0.3663 -0.9456  0.2637
  812SOL    HW2 2682   2.902   5.178   1.268 -1.4060  2.6281  0.0527
  813SOL     OW 2683   3.163   2.010   0.593 -0.0747  0.3438 -0.2966
  813SOL    HW1 2684   3.118   1.990   0.511  0.0837  1.0984 -0.5731
  813SOL    HW2 2685   3.104   2.070   0.639 -0.2931 -0.2898  0.2777
  814SOL     OW 2686   1.384   1.183   0.916  0.8112 -0.2022  0.0587
  814SOL    HW1 2687   1.326   1.250   0.953  0.5386  0.0841 -0.8682
  814SOL    HW2 2688   1.411   1.218   0.831 -1.5574 -2.4325 -1.7529
  815SOL     OW 2689   1.414   3.540   4.136  0.2708  0.2058  0.4001
  815SOL    HW1 2690   1.395   3.485   4.212  3.0012 -0.1849  0.8964
  815SOL    HW2 2691   1.388   3.487   4.061  0.5818 -0.7604  0.9590
  816SOL     OW 2692   4.727   1.330   4.436  0.0168 -0.1404  0.3316
  816SOL    HW1 2693   4.721   1.408   4.491 -1.9212 -0.1300  0.1696
  816SOL    HW2 2694   4.738   1.364   4.347  1.6763 -0.1400  0.4931
  817SOL     OW 2695   0.872   2.842   1.319  0.2165 -0.3105 -0.3253
  817SOL    HW1 2696   0.894   2.880   1.234  1.2681 -0.9011 -0.3342
  817SOL    HW2 2697   0.879   2.748   1.306  0.2110 -0.4145  0.3743
  818SOL     OW 2698   1.684   3.143   0.386  0.2470  0.1676  0.4665
  818SOL    HW1 2699   1.601   3.098   0.397  0.7439 -1.0730 -0.6135
  818SOL    HW2 2700   1.700   3.185   0.470 -0.8677 -0.6143  1.0894
  819SOL     OW 2701   1.460   4.793   1.130  0.1624  0.1162  0.0708
  819SOL    HW1 2702   1.397   4.821   1.196  1.0385  1.0080  0.5680
  819SOL    HW2 2703   1.472   4.870   1.074  0.4785 -0.1802 -0.2784
  820SOL     OW 2704   1.812   6.090   3.774 -0.5099 -0.1265 -0.0170
  820SOL    HW1 2705   1.884   6.150   3.754  0.6575 -1.2779  0.6514
  820SOL    HW2 2706   1.733   6.145   3.766  0.5078  1.5108  0.5730
  821SOL     OW 2707   2.645   3.548   0.202  0.5184 -0.0993  0.0538
  821SOL    HW1 2708   2.615   3.459   0.184  0.0239  0.1627 -0.4254
  821SOL    HW2 2709   2.737   3.538   0.225  0.5486 -0.7028 -0.3237
  822SOL     OW 2710   3.391   1.087   1.597 -0.2033 -0.2972  0.0203
  822SOL    HW1 2711   3.411   1.035   1.519 -1.4402 -0.6938 -0.0522
  822SOL    HW2 2712   3.371   1.175   1.563  0.8106 -0.0402  0.0487
  823SOL     OW 2713   1.044   3.129   4.153  0.9060  0.1488  0.0976
  823SOL    HW1 2714   1.127   3.087   4.175  0.8874  0.0077 -0.1110
  823SOL    HW2 2715   1.009   3.158   4.238  0.1970 -1.5650  0.4191
  824SOL     OW 2716   3.108   3.933   0.569 -0.1191  0.3952  0.1998
  824SOL    HW1 2717   3.182   3.971   0.617 -1.4425  2.7138  0.5842
  824SOL    HW2 2718   3.130   3.946   0.477  1.0827 -1.3548  0.1867
  825SOL     OW 2719   4.756   5.602   5.460 -0.0258 -0.1915 -0.4180
  825SOL    HW1 2720   4.826   5.624   5.398  0.4849 -0.2785  0.1158
  825SOL    HW2 2721   4.743   5.508   5.449  1.5175 -0.6219  1.0416
  826SOL     OW 2722   2.110   4.889   4.819 -0.3469  0.1509  0.0106
  826SOL    HW1 2723   2.127   4.797   4.836 -1.0403 -0.6015 -2.7996
  826SOL    HW2 2724   2.130   4.933   4.901 -2.0374 -2.7117  2.1244
  827SOL     OW 2725   1.185   3.510   0.801 -0.1885  0.5877 -0.1877
  827SOL    HW1 2726   1.159   3.535   0.713  0.4821 -0.4531 -0.7024
  827SOL    HW2 2727   1.281   3.508   0.798 -0.1885 -1.8992 -0.1788
  828SOL     OW 2728   1.659   5.624   1.108 -0.4005  0.1081 -0.4573
  828SOL    HW1 2729   1.738   5.573   1.121  0.2336  1.1779  0.0638
  828SOL    HW2 2730   1.669   5.663   1.021  0.6204  1.8173  0.3664
  829SOL     OW 2731   4.001   5.492   4.738 -0.5603 -0.1981 -0.2404
  829SOL    HW1 2732   4.012   5.404   4.773 -0.3674 -0.3269 -0.6181
  829SOL    HW2 2733   4.066   5.499   4.669 -1.8385 -0.4611 -1.5261
  830SOL     OW 2734   1.648   2.943   5.218 -0.4366  0.3617 -0.0862
  830SOL    HW1 2735   1.706   2.962   5.145 -1.7554  1.8826 -0.7822
  830SOL    HW2 2736   1.670   3.009   5.284  1.7584 -1.8423  1.6310
  831SOL     OW 2737   5.772   4.574   0.719 -0.1983  0.7248  0.6879
  831SOL    HW1 2738   5.777   4.621   0.636 -0.0518  0.6432  0.6515
  831SOL    HW2 2739   5.854   4.525   0.725 -0.1934  0.7562  0.8961
  832SOL     OW 2740   0.744   5.062   4.891 -0.5347 -0.2218  0.4946
  832SOL    HW1 2741   0.747   5.044   4.985 -0.9029 -0.5170  0.4527
  832SOL    HW2 2742   0.777   5.151   4.883  0.4854 -0.5619  0.7990
  833SOL     OW 2743   3.927   0.471   3.895 -0.3914 -0.1528 -0.2547
  833SOL    HW1 2744   3.999   0.497   3.838  1.8326  1.3919  2.9617
  833SOL    HW2 2745   3.862   0.541   3.884  0.0159  0.1436 -0.8540
  834SOL     OW 2746   5.465   4.826   0.045  0.3005 -0.0283  0.0967
  834SOL    HW1 2747   5.421   4.904   0.011  0.1876  0.8068  1.9973
  834SOL    HW2 2748   5.465   4.838   0.140 -1.4189 -3.2702  0.6417
  835SOL     OW 2749   3.758   4.144   5.096  0.0468 -0.1396  0.3312
  835SOL    HW1 2750   3.821   4.102   5.154 -1.4857 -0.7844  1.5892
  835SOL    HW2 2751   3.800   4.142   5.010  2.7360  1.6013  1.4612
  836SOL     OW 2752   1.218   4.078   5.001  0.1366  0.9129 -0.2359
  836SOL    HW1 2753   1.152   4.009   4.998 -1.2287  2.1177  0.7304
  836SOL    HW2 2754   1.228   4.105   4.910 -0.3456  0.3914 -0.4508
  837SOL     OW 2755   2.778   4.899   0.968 -0.0932 -0.0353  0.2112
  837SOL    HW1 2756   2.836   4.915   0.893 -0.9104  1.0752 -0.1997
  837SOL    HW2 2757   2.692   4.884   0.929 -0.7186  1.4787  0.9343
  838SOL     OW 2758   1.913   1.550   0.941 -0.0701  0.0010 -0.1346
  838SOL    HW1 2759   1.977   1.480   0.954 -0.4276 -0.1537  0.8742
  838SOL    HW2 2760   1.885   1.574   1.029 -2.5986 -1.0719 -0.5394
  839SOL     OW 2761   4.430   5.870   2.851 -0.4056  0.5548  0.2842
  839SOL    HW1 2762   4.345   5.904   2.823 -0.3961 -0.8319 -1.6304
  839SOL    HW2 2763   4.412   5.828   2.935 -1.3710  1.2425  0.4430
  840SOL     OW 2764   3.986   5.160   6.072 -0.2983 -0.6970 -0.1057
  840SOL    HW1 2765   4.063   5.161   6.015 -1.3328  0.7112 -1.5721
  840SOL    HW2 2766   3.930   5.229   6.037 -2.1499 -1.5614  1.0362
  841SOL     OW 2767   4.090   0.220   4.799  0.3213 -0.3589 -0.4263
  841SOL    HW1 2768   4.019   0.272   4.760 -1.3576 -0.5615  2.1210
  841SOL    HW2 2769   4.062   0.129   4.787  0.5421 -0.4717 -0.0701
  842SOL     OW 2770   2.109   4.334   3.742 -0.0747 -0.3793 -0.3193
  842SOL    HW1 2771   2.199   4.356   3.763 -0.0293 -1.3561  0.6104
  842SOL    HW2 2772   2.112   4.241   3.718 -0.6362 -0.0896 -1.5757
  843SOL     OW 2773   0.304   1.065   3.909  0.1793 -0.2351  0.0079
  843SOL    HW1 2774   0.397   1.068   3.885  0.1973 -2.5159 -0.3471
  843SOL    HW2 2775   0.262   1.017   3.838 -0.9702 -0.8416  1.0634
  844SOL     OW 2776   1.584   5.939   5.520  0.3922  0.1483 -0.1744
  844SOL    HW1 2777   1.628   5.856   5.498 -0.0297  0.1049 -0.9013
  844SOL    HW2 2778   1.587   5.989   5.438 -1.5437 -0.1452 -0.4549
  845SOL     OW 2779   3.539   4.587   3.215 -0.2561 -0.2907 -0.0488
  845SOL    HW1 2780   3.485   4.645   3.161 -1.4967 -0.2043  1.2250
  845SOL    HW2 2781   3.488   4.574   3.294  0.7610 -1.7839  0.4028
  846SOL     OW 2782   2.364   1.606   5.743  1.0080 -0.2373 -0.1956
  846SOL    HW1 2783   2.410   1.577   5.821  0.3955  0.8065  0.5866
  846SOL    HW2 2784   2.273   1.619   5.772  0.2683 -1.8999 -1.6021
  847SOL     OW 2785   3.224   4.044   4.613 -0.1203 -0.9804 -0.0924
  847SOL    HW1 2786   3.314   4.035   4.645 -0.1635  1.5847  1.0425
  847SOL    HW2 2787   3.171   4.037   4.692 -0.7474 -0.5705 -0.4721
  848SOL     OW 2788   3.734   1.296   0.200 -0.4957  0.3367  0.5032
  848SOL    HW1 2789   3.705   1.302   0.291  1.0225  0.7738  0.9987
  848SOL    HW2 2790   3.752   1.387   0.175  0.5293  0.0808  0.2810
  849SOL     OW 2791   2.873   4.268   3.193 -0.2530 -0.1822  0.0290
  849SOL    HW1 2792   2.919   4.317   3.261 -0.3141  1.4601 -1.0512
  849SOL    HW2 2793   2.793   4.237   3.236 -0.3614  0.9515  0.6948
  850SOL     OW 2794   5.167   0.964   2.703 -0.1278  0.3691  0.0176
  850SOL    HW1 2795   5.262   0.975   2.696  0.0759 -1.6555 -1.1406
  850SOL    HW2 2796   5.155   0.914   2.784 -0.2553  0.9626  0.3709
  851SOL     OW 2797   2.223   3.906   0.019  0.0438  0.0218  0.2168
  851SOL    HW1 2798   2.280   3.884  -0.054  0.4584 -2.0656  1.1042
  851SOL    HW2 2799   2.282   3.924   0.092 -0.3911  0.1413  0.5451
  852SOL     OW 2800   4.232   1.352   0.494  0.1752 -0.1114 -0.0012
  852SOL    HW1 2801   4.206   1.263   0.470  0.4632 -0.7951  2.0311
  852SOL    HW2 2802   4.322   1.361   0.461  0.5109 -0.9653  0.6452
  853SOL     OW 2803   1.134   0.062   5.945 -0.2023  0.3169  0.1266
  853SOL    HW1 2804   1.127   0.136   5.884 -1.6168 -0.1301 -0.3124
  853SOL    HW2 2805   1.057   0.070   6.001 -0.3763 -0.8040  0.0777
  854SOL     OW 2806   1.303   3.513   1.662  0.0299 -0.0694 -0.0190
  854SOL    HW1 2807   1.375   3.562   1.623 -1.1720  2.4665  0.7422
  854SOL    HW2 2808   1.346   3.439   1.705  1.9902  0.4358 -0.9583
  855SOL     OW 2809   3.931   5.095   4.818  0.0865  0.2093  0.4919
  855SOL    HW1 2810   3.875   5.147   4.760 -0.4333 -1.0793 -0.2066
  855SOL    HW2 2811   3.896   5.111   4.906 -0.6476  0.3188  0.1855
  856SOL     OW 2812   3.113   0.771   5.700 -0.4795  0.3377 -0.2402
  856SOL    HW1 2813   3.134   0.782   5.793 -2.0471 -1.3670  0.3713
  856SOL    HW2 2814   3.044   0.835   5.683  0.4083  1.2478 -0.4751
  857SOL     OW 2815   5.517   1.169   4.536 -0.4951 -0.1823 -0.1044
  857SOL    HW1 2816   5.610   1.175   4.515 -0.3516 -0.9225  0.2843
  857SOL    HW2 2817   5.473   1.216   4.465  0.2029  0.6496  0.0093
  858SOL     OW 2818   0.558   0.876   5.745 -0.1853  0.3482 -0.2311
  858SOL    HW1 2819   0.592   0.838   5.826 -1.1083 -0.1498 -0.0611
  858SOL    HW2 2820   0.550   0.801   5.685  0.6363  0.7351 -0.8408
  859SOL     OW 2821   0.845   0.197   2.479  0.2685 -0.4451  0.2040
  859SOL    HW1 2822   0.851   0.131   2.548 -1.8124 -0.5008  0.4103
  859SOL    HW2 2823   0.836   0.146   2.398  2.8592 -0.3821 -0.2090
  860SOL     OW 2824   2.571   2.087   3.191  0.5781  0.3493  0.1163
  860SOL    HW1 2825   2.604   2.016   3.136  0.2409 -0.8822  1.4352
  860SOL    HW2 2826   2.621   2.079   3.273  0.3773  1.5032  0.3737
  861SOL     OW 2827   1.483   2.281   3.403  0.6459  0.1663  0.1118
  861SOL    HW1 2828   1.436   2.363   3.386  0.8283  0.6551  1.8367
  861SOL    HW2 2829   1.428   2.235   3.467  1.0288 -0.6273 -0.1203
  862SOL     OW 2830   4.900   3.229   5.624  0.4857 -0.1188 -0.2390
  862SOL    HW1 2831   4.962   3.225   5.551 -0.1771 -0.9399 -0.7728
  862SOL    HW2 2832   4.831   3.287   5.593  1.2266  1.2165  0.5575
  863SOL     OW 2833   3.333   5.265   1.221 -0.0465 -0.6009 -0.3469
  863SOL    HW1 2834   3.361   5.337   1.165  2.6981 -1.0946  0.2588
  863SOL    HW2 2835   3.375   5.187   1.184 -0.5780 -1.4206  0.7008
  864SOL     OW 2836   3.704   1.026   4.669 -0.2647 -0.3781 -0.3436
  864SOL    HW1 2837   3.746   1.110   4.691 -0.1317 -0.5489  0.0713
  864SOL    HW2 2838   3.643   1.047   4.599 -0.0744  0.0287 -0.3896
  865SOL     OW 2839   1.427   1.281   5.623  0.1313 -0.1255 -0.1712
  865SOL    HW1 2840   1.355   1.245   5.570 -0.6311 -0.3844  1.0135
  865SOL    HW2 2841   1.506   1.253   5.577 -0.4634 -2.3497  0.0447
  866SOL     OW 2842   5.261   2.272   3.257 -0.3282 -0.4518 -0.3282
  866SOL    HW1 2843   5.333   2.212   3.237 -0.0228  0.1489 -1.0743
  866SOL    HW2 2844   5.191   2.247   3.198 -0.1402  0.0273 -0.7600
  867SOL     OW 2845   5.329   1.038   2.980 -0.0107  0.2082 -0.0113
  867SOL    HW1 2846   5.309   1.080   2.896  2.2581 -0.3057 -0.8662
  867SOL    HW2 2847   5.250   0.989   3.001 -1.6824  2.5439 -0.4071
  868SOL     OW 2848   5.731   2.486   1.484  0.0153 -0.0906  0.0108
  868SOL    HW1 2849   5.716   2.438   1.402  1.6196 -0.6820  0.0290
  868SOL    HW2 2850   5.729   2.419   1.552 -2.1274  0.5066  0.6026
  869SOL     OW 2851   1.400   5.646   5.722 -0.4927  0.0614  0.4755
  869SOL    HW1 2852   1.388   5.740   5.731 -1.2755  0.2048 -1.5972
  869SOL    HW2 2853   1.481   5.628   5.770  0.4817  2.0313 -0.3359
  870SOL     OW 2854   0.393   3.574   1.533  0.1138  0.1059  0.2312
  870SOL    HW1 2855   0.395   3.668   1.516 -0.4926  0.0864  0.0266
  870SOL    HW2 2856   0.359   3.536   1.452  1.6123 -0.4201 -0.1689
  871SOL     OW 2857   1.229   3.625   1.096  0.2199 -0.4600  0.1475
  871SOL    HW1 2858   1.281   3.699   1.063 -0.5529 -0.1960 -0.5156
  871SOL    HW2 2859   1.250   3.553   1.038  0.1594 -0.4660  0.1331
  872SOL     OW 2860   0.696   4.409   0.164 -0.2423 -0.1587 -0.2621
  872SOL    HW1 2861   0.626   4.395   0.100  0.2801  1.3516 -1.2146
  872SOL    HW2 2862   0.777   4.395   0.113  0.2377  2.8689 -0.4962
  873SOL     OW 2863   3.688   0.800   4.253  0.1060  0.2392 -0.5822
  873SOL    HW1 2864   3.770   0.826   4.294  0.4532 -0.9701 -0.4695
  873SOL    HW2 2865   3.643   0.883   4.234  0.3893  0.8795  1.2746
  874SOL     OW 2866   3.316   6.018   1.264 -0.1055 -0.4212  0.4851
  874SOL    HW1 2867   3.265   6.098   1.254  0.6079 -0.0512 -0.2879
  874SOL    HW2 2868   3.400   6.047   1.298  0.2510 -0.8149 -0.0612
  875SOL     OW 2869   5.101   3.681   1.976  0.9099  0.1807 -0.1965
  875SOL    HW1 2870   5.136   3.766   1.951  0.8108  0.1233 -0.5285
  875SOL    HW2 2871   5.009   3.684   1.948  1.3592 -0.7218 -1.9130
  876SOL     OW 2872   2.157   2.502   1.736  0.5116  0.7139 -0.0766
  876SOL    HW1 2873   2.164   2.594   1.762  0.3816  0.1985  1.9661
  876SOL    HW2 2874   2.246   2.468   1.745  0.5538  0.6333 -0.7974
  877SOL     OW 2875   2.328   2.521   4.547  0.4466  0.2266  0.2994
  877SOL    HW1 2876   2.400   2.572   4.509  0.2268  0.0070 -0.4273
  877SOL    HW2 2877   2.346   2.431   4.521 -0.9880  0.3741 -1.3859
  878SOL     OW 2878   0.178   3.065   1.544  0.4808 -0.1554 -0.0692
  878SOL    HW1 2879   0.084   3.079   1.532  0.1587 -0.1437  2.0733
  878SOL    HW2 2880   0.204   3.130   1.610  2.1427  0.2598 -1.0638
  879SOL     OW 2881   1.271   3.320   3.319  0.0386 -0.1473 -0.1634
  879SOL    HW1 2882   1.345   3.262   3.299 -0.9346 -1.0768 -1.1955
  879SOL    HW2 2883   1.278   3.391   3.255  1.3304  1.0266  1.2104
  880SOL     OW 2884   2.800   5.764   0.340  0.3266  0.2084 -0.0150
  880SOL    HW1 2885   2.798   5.820   0.417 -0.1487 -0.5764  0.5606
  880SOL    HW2 2886   2.884   5.718   0.347 -0.2972 -0.8640  0.7943
  881SOL     OW 2887   4.333   5.711   1.990 -0.1095  0.9909  0.4253
  881SOL    HW1 2888   4.324   5.791   2.043 -1.4578  0.8143  0.4954
  881SOL    HW2 2889   4.409   5.667   2.027  1.6445  2.9764 -0.6146
  882SOL     OW 2890   4.088   5.511   2.062 -0.1955 -0.2019  0.1453
  882SOL    HW1 2891   4.147   5.563   2.007  1.1573  0.1381  1.8294
  882SOL    HW2 2892   4.010   5.565   2.073 -0.4040 -0.1874 -1.2204
  883SOL     OW 2893   0.867   3.842   2.368  0.1563  0.3336  0.3340
  883SOL    HW1 2894   0.928   3.893   2.315 -0.4203 -0.0515 -0.7336
  883SOL    HW2 2895   0.789   3.897   2.374  0.6643  0.9510  1.9404
  884SOL     OW 2896   2.903   3.812   2.906  0.4752  0.1925  0.4533
  884SOL    HW1 2897   2.970   3.868   2.944  1.9695 -1.3277  0.1625
  884SOL    HW2 2898   2.902   3.734   2.961 -0.2993 -0.2654 -0.1844
  885SOL     OW 2899   3.681   1.711   2.159  0.7160 -0.7280  0.1549
  885SOL    HW1 2900   3.728   1.771   2.102  1.2176  1.2179  2.4694
  885SOL    HW2 2901   3.589   1.728   2.140  0.8545  0.6164  0.5346
  886SOL     OW 2902   1.151   0.891   0.390 -0.4287 -0.2149  0.5038
  886SOL    HW1 2903   1.219   0.893   0.323 -1.2389  0.9806 -0.3219
  886SOL    HW2 2904   1.074   0.857   0.344 -0.6681 -0.5796  1.1669
  887SOL     OW 2905   3.409   2.436   2.761  0.3674 -0.4001  0.5716
  887SOL    HW1 2906   3.461   2.405   2.687  1.2167 -0.3160  1.1186
  887SOL    HW2 2907   3.336   2.484   2.721 -0.4174 -2.1944 -0.2664
  888SOL     OW 2908   3.718   1.140   2.501  0.0616 -0.9018  0.3125
  888SOL    HW1 2909   3.795   1.095   2.536 -1.0399 -2.9071  0.3026
  888SOL    HW2 2910   3.700   1.097   2.418 -0.8904 -0.2540  0.1637
  889SOL     OW 2911   3.526   1.207   3.317  0.0978 -0.2098 -0.1118
  889SOL    HW1 2912   3.467   1.282   3.313 -1.3092 -1.2638 -0.2766
  889SOL    HW2 2913   3.567   1.212   3.403  0.8207  1.2802 -0.5055
  890SOL     OW 2914   2.500   3.793   0.138 -0.1327 -0.0661  0.0520
  890SOL    HW1 2915   2.560   3.867   0.133  0.6381 -0.5458  1.6860
  890SOL    HW2 2916   2.555   3.716   0.127 -0.6697 -0.4645  0.1121
  891SOL     OW 2917   0.587   1.763   4.304  0.0180 -0.3882 -0.3701
  891SOL    HW1 2918   0.633   1.681   4.288 -0.3359 -0.7760  0.5583
  891SOL    HW2 2919   0.497   1.745   4.275 -0.1956 -0.5195  0.3575
  892SOL     OW 2920   5.713   4.856   2.716  0.4708 -0.0795  0.2823
  892SOL    HW1 2921   5.647   4.924   2.728  0.4852 -0.2015  1.1051
  892SOL    HW2 2922   5.702   4.799   2.791 -1.5839 -2.7473 -1.8267
  893SOL     OW 2923   2.789   3.450   4.013  0.0932 -0.0667 -0.1158
  893SOL    HW1 2924   2.823   3.448   3.924  1.0112 -0.2228  0.2286
  893SOL    HW2 2925   2.786   3.358   4.040  0.4778  0.0235  0.2502
  894SOL     OW 2926   0.674   3.117   2.670  0.8004 -0.3648 -0.3681
  894SOL    HW1 2927   0.727   3.107   2.591  0.4143  0.3921 -0.7389
  894SOL    HW2 2928   0.601   3.056   2.659  2.0475 -2.1237  0.5824
  895SOL     OW 2929   4.368   2.497   5.768  0.2181  0.1772  0.2171
  895SOL    HW1 2930   4.390   2.578   5.722  0.8072  0.6794  1.3570
  895SOL    HW2 2931   4.380   2.428   5.702 -1.5843  1.0988 -1.1758
  896SOL     OW 2932   5.376   2.254   4.324  0.1230  0.8604 -0.4556
  896SOL    HW1 2933   5.294   2.250   4.374 -0.3173 -1.0999 -1.2575
  896SOL    HW2 2934   5.348   2.267   4.233  0.7380  0.6321 -0.6804
  897SOL     OW 2935   0.860   3.749   0.098  0.3328  0.0390  0.2637
  897SOL    HW1 2936   0.847   3.826   0.042 -0.7745 -0.1371  0.2766
  897SOL    HW2 2937   0.785   3.693   0.081  0.4033 -0.3968  1.3195
  898SOL     OW 2938   3.393   3.603   1.001 -0.0688  0.5151 -0.2856
  898SOL    HW1 2939   3.433   3.687   0.977  0.1114  0.2939 -0.7746
  898SOL    HW2 2940   3.302   3.611   0.973 -0.3008  0.9020  0.5428
  899SOL     OW 2941   2.948   2.424   0.393  0.5271  0.1367  0.0024
  899SOL    HW1 2942   2.974   2.458   0.307  2.1130 -0.1204  0.3618
  899SOL    HW2 2943   2.907   2.498   0.437  1.6344  0.8736 -0.1847
  900SOL     OW 2944   2.786   1.713   5.895 -0.1431  0.2528  0.7102
  900SOL    HW1 2945   2.808   1.807   5.889 -0.5260  0.3448  0.7635
  900SOL    HW2 2946   2.842   1.680   5.965  1.9018 -0.1069 -0.9827
  901SOL     OW 2947   1.022   0.512   2.672 -0.4892  0.2808  0.3696
  901SOL    HW1 2948   0.930   0.487   2.682 -0.0887 -0.7935  1.7342
  901SOL    HW2 2949   1.055   0.456   2.601 -0.5906 -0.2731  0.7488
  902SOL     OW 2950   1.562   4.321   3.028  0.0363  0.3265  0.2321
  902SOL    HW1 2951   1.529   4.237   2.996 -1.5612  2.1117 -3.4253
  902SOL    HW2 2952   1.492   4.354   3.084  0.4824 -0.5415  1.3343
  903SOL     OW 2953   4.419   1.303   2.982  0.0865  0.0006 -0.0294
  903SOL    HW1 2954   4.476   1.323   3.056 -0.8597 -2.0724  1.3548
  903SOL    HW2 2955   4.450   1.218   2.950 -2.3827 -1.3788  1.0161
  904SOL     OW 2956   5.269   0.096   0.450 -0.0237 -0.4894  0.1682
  904SOL    HW1 2957   5.236   0.020   0.499 -0.5470 -0.9226 -0.8325
  904SOL    HW2 2958   5.190   0.142   0.422  0.2425 -0.8368 -1.1848
  905SOL     OW 2959   0.655   5.268   0.018  0.5995 -0.6510 -0.4983
  905SOL    HW1 2960   0.704   5.323   0.079  0.4585  1.8302 -2.4816
  905SOL    HW2 2961   0.714   5.257  -0.057 -0.6078 -0.4233 -1.5092
  906SOL     OW 2962   5.358   3.900   0.620 -0.0182  0.4607  0.0969
  906SOL    HW1 2963   5.394   3.931   0.537 -0.3414  2.4966  0.6649
  906SOL    HW2 2964   5.280   3.850   0.595  0.3519  0.3546 -0.8695
  907SOL     OW 2965   1.533   3.302   2.469 -0.0705  0.1343  0.3951
  907SOL    HW1 2966   1.542   3.243   2.544 -1.8841 -1.0625 -0.2320
  907SOL    HW2 2967   1.617   3.296   2.424  0.4883 -0.3855  1.4552
  908SOL     OW 2968   3.615   2.792   0.086  0.6522  0.0498  0.6960
  908SOL    HW1 2969   3.532   2.745   0.095  0.3607  0.5089  0.4533
  908SOL    HW2 2970   3.595   2.881   0.116  0.9512  0.2676  0.2534
  909SOL     OW 2971   0.083   2.051   0.265 -0.0699  0.1165  0.1446
  909SOL    HW1 2972   0.137   2.010   0.332 -0.9123  0.1163  0.8370
  909SOL    HW2 2973   0.103   2.003   0.185  0.4387 -0.3277  0.5313
  910SOL     OW 2974   4.269   1.918   0.861  0.3157 -0.2545  0.1625
  910SOL    HW1 2975   4.303   2.007   0.874  0.2512 -0.3417  0.9433
  910SOL    HW2 2976   4.273   1.905   0.766  4.2263 -0.9180  0.2474
  911SOL     OW 2977   0.233   2.169   0.026  0.0465 -0.0067  0.4369
  911SOL    HW1 2978   0.175   2.116  -0.028  0.1355 -3.0174  3.0331
  911SOL    HW2 2979   0.176   2.236   0.064 -0.4498  0.7234 -1.4729
  912SOL     OW 2980   5.546   1.678   1.526  0.8069 -0.5388 -0.1019
  912SOL    HW1 2981   5.575   1.748   1.584 -1.9411  0.1784  0.5607
  912SOL    HW2 2982   5.563   1.712   1.438 -0.9329  1.3070  0.1820
  913SOL     OW 2983   1.472   3.011   5.865  0.3432  0.1463  0.1695
  913SOL    HW1 2984   1.502   3.072   5.932  1.8615 -1.6785  1.2833
  913SOL    HW2 2985   1.380   2.995   5.886  0.6366  0.0607  1.5052
  914SOL     OW 2986   4.114   5.258   1.861 -0.5258 -0.6073 -0.3534
  914SOL    HW1 2987   4.034   5.206   1.868 -0.9537  0.1616  0.8827
  914SOL    HW2 2988   4.092   5.341   1.904  1.3839 -0.9397  1.4683
  915SOL     OW 2989   2.907   5.905   5.355 -0.1088 -0.0192 -0.0518
  915SOL    HW1 2990   2.887   5.999   5.347  0.6796  0.3374  1.7141
  915SOL    HW2 2991   2.824   5.861   5.341 -0.8133  1.0436  0.6668
  916SOL     OW 2992   0.119   3.208   2.770  0.1367 -0.3213  0.1414
  916SOL    HW1 2993   0.164   3.249   2.844 -0.1325  2.3617 -1.0569
  916SOL    HW2 2994   0.189   3.163   2.722  0.8132  0.2988  0.5188
  917SOL     OW 2995   2.743   0.958   2.302  0.0258 -0.1113  0.2817
  917SOL    HW1 2996   2.722   1.047   2.275  0.4256 -0.7782 -2.5187
  917SOL    HW2 2997   2.764   0.965   2.395  0.8669  2.8395 -0.0499
  918SOL     OW 2998   0.442   0.110   5.214 -0.0396 -0.1053  0.3532
  918SOL    HW1 2999   0.408   0.135   5.300 -0.6478  1.5249 -0.3229
  918SOL    HW2 3000   0.400   0.171   5.153  1.2272 -0.5127 -0.9718
  919SOL     OW 3001   5.947   2.994   3.615 -0.1993 -0.3248  0.5238
  919SOL    HW1 3002   5.986   3.066   3.665 -0.8141 -0.5244  1.3124
  919SOL    HW2 3003   5.883   2.955   3.675  0.1594 -1.5647  0.1261
  920SOL     OW 3004   1.730   4.449   2.810  0.3090 -0.4646  0.5924
  920SOL    HW1 3005   1.741   4.360   2.777  0.1055 -0.1441 -0.3609
  920SOL    HW2 3006   1.700   4.437   2.900 -0.3149 -1.3690  0.2834
  921SOL     OW 3007   0.061   1.420   4.376 -0.1117  0.4047  0.0400
  921SOL    HW1 3008   0.082   1.329   4.358  2.2194  0.9030 -0.1156
  921SOL    HW2 3009  -0.013   1.417   4.436 -1.3002 -1.5059 -1.4146
  922SOL     OW 3010   6.122   3.532   1.863 -0.0231  0.7308 -0.5192
  922SOL    HW1 3011   6.055   3.548   1.796 -0.1893 -0.1825 -0.5787
  922SOL    HW2 3012   6.205   3.554   1.820 -0.1093 -0.0299 -1.1028
  923SOL     OW 3013   0.324   1.662   4.645  0.2754 -1.1213  0.0503
  923SOL    HW1 3014   0.360   1.578   4.617  0.3610 -0.3711 -2.2884
  923SOL    HW2 3015   0.386   1.727   4.611 -0.2737 -0.0675  1.0168
  924SOL     OW 3016   1.604   5.113   5.881 -0.0871  0.0338 -0.0909
  924SOL    HW1 3017   1.682   5.069   5.914 -0.0052  1.3589  1.7094
  924SOL    HW2 3018   1.545   5.116   5.957 -0.6078  1.7500 -0.5132
  925SOL     OW 3019   3.288   5.146   2.086  0.0364  0.4197  0.2644
  925SOL    HW1 3020   3.335   5.159   2.168 -0.2344  2.3983  0.1470
  925SOL    HW2 3021   3.344   5.086   2.036 -0.0516 -1.2330  2.0497
  926SOL     OW 3022   0.735   5.431   1.908 -0.3969  0.3865  0.4709
  926SOL    HW1 3023   0.683   5.417   1.829 -1.5547 -0.8626  1.4068
  926SOL    HW2 3024   0.675   5.473   1.969  0.9819  3.0019  0.1562
  927SOL     OW 3025   0.474   5.056   4.113  0.4104  0.9628 -0.1436
  927SOL    HW1 3026   0.393   5.105   4.130  0.7355  1.3692  0.2515
  927SOL    HW2 3027   0.448   4.988   4.050 -0.4733  0.4078  0.7934
  928SOL     OW 3028   3.373   5.686   5.708  0.0507 -0.3585 -0.2040
  928SOL    HW1 3029   3.302   5.747   5.689  0.3800  0.2589  0.5223
  928SOL    HW2 3030   3.428   5.688   5.631 -0.3313 -0.2972 -0.4773
  929SOL     OW 3031   5.553   2.878   2.309 -0.3627  0.3927 -0.2891
  929SOL    HW1 3032   5.598   2.931   2.376 -0.3468 -1.6279  1.4040
  929SOL    HW2 3033   5.579   2.918   2.226  0.9038  2.0564  0.8248
  930SOL     OW 3034   1.656   3.829   5.791 -0.0212  0.2723 -0.2693
  930SOL    HW1 3035   1.593   3.892   5.826  1.0389  0.5853  1.1951
  930SOL    HW2 3036   1.709   3.880   5.729 -1.0295  0.0601 -1.3386
  931SOL     OW 3037   3.056   3.754   1.603 -0.3673  0.5857 -0.7424
  931SOL    HW1 3038   2.962   3.767   1.598 -0.1544  2.7871  0.1308
  931SOL    HW2 3039   3.079   3.774   1.694  0.7955 -1.2494 -0.5663
  932SOL     OW 3040   5.137   3.209   1.315 -0.5933  0.0285  0.2350
  932SOL    HW1 3041   5.046   3.239   1.310 -1.0056 -1.1667  0.1830
  932SOL    HW2 3042   5.179   3.247   1.238 -0.9120  0.9980  0.5221
  933SOL     OW 3043   2.173   4.347   3.377  0.2604  0.1451  0.2136
  933SOL    HW1 3044   2.189   4.258   3.344  0.6976  0.3121 -0.0386
  933SOL    HW2 3045   2.260   4.378   3.404  0.1792  0.6518 -0.1004
  934SOL     OW 3046   3.010   0.833   1.868 -0.2066  0.0265 -0.1974
  934SOL    HW1 3047   3.000   0.895   1.940 -0.5162  0.9503 -1.0181
  934SOL    HW2 3048   3.063   0.879   1.803  0.2408 -0.8657 -0.4837
  935SOL     OW 3049   2.998   1.881   1.650  0.2168 -0.6063 -0.1150
  935SOL    HW1 3050   2.979   1.856   1.560 -1.5631  0.6509 -0.1588
  935SOL    HW2 3051   2.953   1.816   1.704 -1.0075  0.1280 -0.1994
  936SOL     OW 3052   2.140   0.462   4.725 -0.0711  0.0966 -0.4727
  936SOL    HW1 3053   2.180   0.520   4.790 -1.3313 -0.3490  0.7470
  936SOL    HW2 3054   2.114   0.384   4.775 -1.2652 -0.1700 -1.4683
  937SOL     OW 3055   3.856   3.155   3.446 -0.2742 -0.2769  0.4207
  937SOL    HW1 3056   3.907   3.228   3.411 -0.7974  0.4861  1.1893
  937SOL    HW2 3057   3.919   3.084   3.457  0.4015  0.3075  0.3742
  938SOL     OW 3058   0.426   2.902   5.408  0.9455  0.3270  0.8395
  938SOL    HW1 3059   0.440   2.968   5.340 -0.7255  1.8886  1.8983
  938SOL    HW2 3060   0.427   2.953   5.490  0.8569 -1.1791  1.8098
  939SOL     OW 3061   2.410   0.975   0.111  0.0351 -0.2014 -0.3290
  939SOL    HW1 3062   2.498   0.937   0.107 -0.0762 -0.3556 -3.1754
  939SOL    HW2 3063   2.353   0.907   0.077 -0.8822  0.7073 -0.6570
  940SOL     OW 3064   6.129   4.492   2.593  0.1278 -0.9193 -0.5284
  940SOL    HW1 3065   6.132   4.440   2.673  0.4624  0.2735  0.2495
  940SOL    HW2 3066   6.045   4.538   2.598  0.5620 -0.1263 -0.3919
  941SOL     OW 3067   1.200   5.805   3.482 -0.7403 -0.4771  0.2378
  941SOL    HW1 3068   1.114   5.780   3.516 -1.0350 -0.4982 -0.5029
  941SOL    HW2 3069   1.257   5.730   3.504 -0.4677  0.2405  2.2472
  942SOL     OW 3070   2.184   0.393   5.098 -0.5109  0.0860  0.4453
  942SOL    HW1 3071   2.234   0.389   5.180 -0.8571 -0.6020  0.6316
  942SOL    HW2 3072   2.250   0.407   5.030 -0.1629  0.0822  0.7791
  943SOL     OW 3073   4.211   1.405   1.467 -0.1195 -0.7357 -0.0305
  943SOL    HW1 3074   4.205   1.466   1.394 -0.5211 -1.3105 -0.4884
  943SOL    HW2 3075   4.157   1.444   1.536  1.5275  0.6021  0.5587
  944SOL     OW 3076   2.009   0.909   2.070  0.6855 -0.6122 -0.3383
  944SOL    HW1 3077   2.100   0.903   2.041  1.5174 -1.0760  2.1830
  944SOL    HW2 3078   2.014   0.926   2.164 -1.8544  1.1702 -0.4044
  945SOL     OW 3079   4.283   3.094   4.150  0.2945  0.5517 -0.0712
  945SOL    HW1 3080   4.212   3.157   4.141  0.7781  0.8884 -1.7290
  945SOL    HW2 3081   4.363   3.145   4.140  0.6967 -0.2806 -1.4205
  946SOL     OW 3082   3.154   0.767   4.484 -0.7469  0.3274  0.7584
  946SOL    HW1 3083   3.190   0.767   4.572 -1.4860 -0.3234  1.0683
  946SOL    HW2 3084   3.230   0.776   4.427 -0.2264  0.3375  1.4439
  947SOL     OW 3085   3.644   2.219   2.330  0.2293  0.1398 -0.1113
  947SOL    HW1 3086   3.697   2.146   2.360  1.7507  1.3608  0.3385
  947SOL    HW2 3087   3.632   2.274   2.408 -1.1174  0.2567 -0.3684
  948SOL     OW 3088   4.800   4.773   3.419  0.4028  0.6817 -0.4369
  948SOL    HW1 3089   4.861   4.716   3.465  1.8820  1.7446 -0.9861
  948SOL    HW2 3090   4.722   4.719   3.405  1.4443 -0.9414 -0.2681
  949SOL     OW 3091   3.088   4.168   2.864  0.6007 -0.1726 -0.3891
  949SOL    HW1 3092   3.081   4.150   2.771 -0.5848  0.2796 -0.3988
  949SOL    HW2 3093   3.108   4.262   2.870  3.0244 -0.6380 -0.2297
  950SOL     OW 3094   4.714   2.124   3.569 -0.1105 -0.1808  0.1333
  950SOL    HW1 3095   4.752   2.083   3.492  0.0439  0.4798 -0.1428
  950SOL    HW2 3096   4.737   2.216   3.562  0.7622 -0.2655  1.4810
  951SOL     OW 3097   4.557   5.258   6.112 -0.3274 -0.2811 -0.2947
  951SOL    HW1 3098   4.504   5.219   6.043  0.4222 -0.6433 -0.6798
  951SOL    HW2 3099   4.511   5.339   6.135 -1.0150 -0.5647 -0.6492
  952SOL     OW 3100   4.077   4.776   5.646 -0.4541  0.1776 -0.2974
  952SOL    HW1 3101   4.023   4.791   5.569  0.9476 -0.1345 -1.3663
  952SOL    HW2 3102   4.113   4.862   5.668 -0.7390  0.2393 -0.0516
  953SOL     OW 3103   2.151   1.132   4.958  0.2944 -0.0451  0.0434
  953SOL    HW1 3104   2.177   1.155   4.869  2.1495 -0.4935  0.4343
  953SOL    HW2 3105   2.227   1.154   5.012 -0.5229 -0.4590  1.4210
  954SOL     OW 3106   1.266   0.740   2.290  0.2080 -0.6170 -0.2895
  954SOL    HW1 3107   1.268   0.829   2.326  1.2849 -1.2749  1.3784
  954SOL    HW2 3108   1.358   0.711   2.293 -0.0571 -1.6119 -1.2640
  955SOL     OW 3109   5.351   3.155   2.085  0.5020 -0.0537  0.5356
  955SOL    HW1 3110   5.262   3.181   2.111  1.2438  2.1434  1.0886
  955SOL    HW2 3111   5.404   3.169   2.164  1.8256  1.4373 -0.5612
  956SOL     OW 3112   5.569   3.761   1.815 -0.3728 -0.2068 -0.2054
  956SOL    HW1 3113   5.518   3.682   1.834  0.1050 -1.1496 -2.4829
  956SOL    HW2 3114   5.572   3.766   1.720  1.3681  1.4231 -0.1424
  957SOL     OW 3115   1.195   4.806   2.335 -0.7602  0.1787 -0.6944
  957SOL    HW1 3116   1.120   4.847   2.377 -0.0756  0.0662  0.7137
  957SOL    HW2 3117   1.271   4.848   2.375 -0.0312 -2.0740  0.5015
  958SOL     OW 3118   2.384   0.701   4.152 -0.0365  0.4017 -0.3042
  958SOL    HW1 3119   2.338   0.620   4.176 -0.9262  0.8389 -0.4748
  958SOL    HW2 3120   2.415   0.685   4.062 -0.6575  0.4290 -0.5288
  959SOL     OW 3121   4.591   1.766   5.258  0.2934  0.4314  0.2738
  959SOL    HW1 3122   4.670   1.741   5.211  0.4555  0.3828  0.5688
  959SOL    HW2 3123   4.620   1.833   5.320  0.2003  0.0442  0.7386
  960SOL     OW 3124   4.260   0.896   0.666 -0.5924  0.1394 -0.4087
  960SOL    HW1 3125   4.287   0.822   0.613  0.4626  1.3163 -1.5706
  960SOL    HW2 3126   4.170   0.915   0.637  0.5909  1.9739 -3.3072
  961SOL     OW 3127   4.998   6.126   5.521  0.2196  0.3607 -0.0201
  961SOL    HW1 3128   4.923   6.077   5.486 -0.2136  0.1927  1.1061
  961SOL    HW2 3129   4.980   6.217   5.500  0.8514  0.1252 -1.8091
  962SOL     OW 3130   2.299   2.139   5.222 -0.3863 -0.2259 -0.3675
  962SOL    HW1 3131   2.216   2.144   5.175 -0.3593 -1.4140 -0.5779
  962SOL    HW2 3132   2.340   2.224   5.207 -0.6879 -0.3253 -1.9221
  963SOL     OW 3133   3.576   3.184   5.320 -0.0177 -0.0138 -0.3915
  963SOL    HW1 3134   3.520   3.123   5.369  0.1851 -0.3547 -0.5854
  963SOL    HW2 3135   3.643   3.210   5.383  2.0714 -2.7792 -1.2735
  964SOL     OW 3136   6.120   3.987   1.883 -0.1491 -0.5383  0.0164
  964SOL    HW1 3137   6.130   4.074   1.922  1.7640 -0.1573 -1.1708
  964SOL    HW2 3138   6.028   3.982   1.858 -0.3785  0.9983  0.4455
  965SOL     OW 3139   4.292   1.694   3.940  0.2795  0.0529 -0.4039
  965SOL    HW1 3140   4.249   1.771   3.977 -1.7774 -0.1435 -2.1957
  965SOL    HW2 3141   4.363   1.730   3.887  0.5865  0.5529  0.3186
  966SOL     OW 3142   5.199   3.877   5.021  0.0475  0.4107  0.7150
  966SOL    HW1 3143   5.208   3.924   4.939  0.2498  0.1364  0.5787
  966SOL    HW2 3144   5.269   3.812   5.020 -2.4758 -2.5942 -0.9163
  967SOL     OW 3145   2.400   5.497   0.839 -0.0531  0.1157  0.0925
  967SOL    HW1 3146   2.474   5.451   0.880  0.2566  0.7268  0.2246
  967SOL    HW2 3147   2.416   5.589   0.857 -0.7784  0.2647 -0.0083
  968SOL     OW 3148   0.584   5.024   2.677 -0.6106  0.4061 -0.3513
  968SOL    HW1 3149   0.516   4.974   2.631 -0.7557  0.0137  0.2857
  968SOL    HW2 3150   0.536   5.092   2.724 -0.5788  0.0165  0.2452
  969SOL     OW 3151   4.773   5.359   2.223  0.6224 -0.3058  0.0114
  969SOL    HW1 3152   4.684   5.331   2.243  0.7509  0.8189  2.4989
  969SOL    HW2 3153   4.823   5.278   2.219 -0.4419 -0.9329 -1.2159
  970SOL     OW 3154   4.322   3.743   2.092 -0.2392  0.8181 -0.4317
  970SOL    HW1 3155   4.367   3.810   2.040  1.0824  0.3755  0.0955
  970SOL    HW2 3156   4.300   3.675   2.029  3.6678 -0.9565 -0.1940
  971SOL     OW 3157   5.683   2.166   4.011  0.3109  0.1523  0.6025
  971SOL    HW1 3158   5.618   2.131   4.071 -0.7884 -0.0522 -0.6569
  971SOL    HW2 3159   5.644   2.247   3.977  0.6576 -0.0147 -0.2355
  972SOL     OW 3160   2.750   4.452   0.741  0.2083  0.0210 -0.6456
  972SOL    HW1 3161   2.673   4.399   0.762  0.0347  0.1938 -0.8469
  972SOL    HW2 3162   2.783   4.415   0.659  1.9026 -1.7968  0.7196
  973SOL     OW 3163   4.344   1.660   6.049  0.1566  0.0955 -0.4747
  973SOL    HW1 3164   4.334   1.682   6.142 -0.3527  2.3682 -1.0076
  973SOL    HW2 3165   4.437   1.637   6.040  0.5831  1.4298  0.3164
  974SOL     OW 3166   2.834   5.707   3.338  0.3822 -0.1674 -0.2872
  974SOL    HW1 3167   2.791   5.630   3.300  1.3761 -1.0223  0.2306
  974SOL    HW2 3168   2.917   5.673   3.371 -0.0909  0.6698  1.9338
  975SOL     OW 3169   3.322   5.243   3.119 -0.1531  0.1108  0.2758
  975SOL    HW1 3170   3.356   5.332   3.107  1.9214 -0.5035  1.1818
  975SOL    HW2 3171   3.250   5.254   3.181 -0.3984  1.2372 -0.1746
  976SOL     OW 3172   1.116   4.524   0.758 -0.5526 -0.5927  0.0320
  976SOL    HW1 3173   1.107   4.489   0.670 -0.0808  0.5991 -0.5104
  976SOL    HW2 3174   1.138   4.616   0.745  1.2282 -0.7809  1.3631
  977SOL     OW 3175   3.103   5.500   5.515 -0.1396 -0.5796  0.6174
  977SOL    HW1 3176   3.077   5.563   5.582  3.0608  0.5797  0.9111
  977SOL    HW2 3177   3.139   5.426   5.564  2.4079  0.3617  0.2692
  978SOL     OW 3178   0.599   0.041   3.389  0.5867 -0.2606  0.3903
  978SOL    HW1 3179   0.662  -0.029   3.403 -1.3734 -1.8199  2.0286
  978SOL    HW2 3180   0.546   0.042   3.469 -0.3397  2.1788 -0.1666
  979SOL     OW 3181   5.434   1.946   5.659  0.1053  0.3747 -0.0372
  979SOL    HW1 3182   5.466   2.029   5.624 -0.5184 -0.6898 -3.5422
  979SOL    HW2 3183   5.452   1.950   5.752  1.1237  3.9526 -0.2688
  980SOL     OW 3184   0.520   3.126   5.795  0.0281  0.1055 -0.2931
  980SOL    HW1 3185   0.606   3.083   5.788 -1.3136 -2.5049 -2.4735
  980SOL    HW2 3186   0.531   3.210   5.751  1.5621 -0.0120 -0.1846
  981SOL     OW 3187   4.763   6.084   0.925 -0.2561 -0.1637 -0.0256
  981SOL    HW1 3188   4.801   6.152   0.871 -1.6046  0.4157 -0.2892
  981SOL    HW2 3189   4.674   6.115   0.945 -0.9341 -1.8540 -0.1944
  982SOL     OW 3190   4.004   0.502   5.995  0.2334  0.4654  0.2799
  982SOL    HW1 3191   3.996   0.597   5.984 -2.4907  0.3236  0.1560
  982SOL    HW2 3192   4.013   0.489   6.089 -0.6544  0.8334  0.4278
  983SOL     OW 3193   2.997   1.325   6.013  0.9686  0.0074  0.6388
  983SOL    HW1 3194   3.075   1.286   6.051  0.5922  0.6167  2.1323
  983SOL    HW2 3195   3.007   1.419   6.028 -0.0928  0.0880  0.9725
  984SOL     OW 3196   5.695   4.525   5.788 -0.0901  0.1242  0.3393
  984SOL    HW1 3197   5.773   4.548   5.839 -0.3079  1.1392  0.2282
  984SOL    HW2 3198   5.622   4.554   5.841 -0.2996  3.2475 -1.4120
  985SOL     OW 3199   3.223   1.156   4.351 -0.1868  0.1077 -0.3733
  985SOL    HW1 3200   3.223   1.072   4.305 -2.1521  0.3202 -0.8641
  985SOL    HW2 3201   3.273   1.214   4.294 -1.3140 -0.0147 -1.5531
  986SOL     OW 3202   6.103   4.892   5.956 -0.5474  0.3195 -0.0763
  986SOL    HW1 3203   6.030   4.897   6.018 -1.1757 -1.5431 -0.5994
  986SOL    HW2 3204   6.078   4.952   5.885 -1.7323 -0.4556 -0.3608
  987SOL     OW 3205   4.626   4.813   1.547 -0.0961 -0.1105 -0.1719
  987SOL    HW1 3206   4.566   4.754   1.502 -1.1439 -0.5470  1.6952
  987SOL    HW2 3207   4.595   4.901   1.525 -0.1337 -0.2992 -0.8780
  988SOL     OW 3208   3.136   0.742   1.533 -0.1568 -0.1083  0.2294
  988SOL    HW1 3209   3.093   0.814   1.579 -1.3966 -0.1827 -0.7502
  988SOL    HW2 3210   3.076   0.720   1.462  1.4759 -0.3079 -1.1578
  989SOL     OW 3211   4.977   4.662   2.460  0.2822  0.1321 -0.2436
  989SOL    HW1 3212   4.916   4.600   2.500 -0.4730  0.2921 -1.0961
  989SOL    HW2 3213   5.037   4.607   2.409  0.3886  0.0188  0.0050
  990SOL     OW 3214   1.028   2.797   5.879  0.5387  0.3841  0.1569
  990SOL    HW1 3215   1.066   2.824   5.962 -0.3355  0.8804  0.4111
  990SOL    HW2 3216   0.987   2.877   5.845  0.5781  0.1019 -0.5850
  991SOL     OW 3217   1.182   3.611   2.413 -0.1629 -0.2217 -0.2131
  991SOL    HW1 3218   1.142   3.524   2.409 -2.5517  0.8325 -1.3573
  991SOL    HW2 3219   1.140   3.653   2.488  0.6724  0.0925  0.0841
  992SOL     OW 3220   2.498   0.304   4.066 -0.4592  0.0054  0.2350
  992SOL    HW1 3221   2.562   0.373   4.086 -2.6650  2.2231  0.0952
  992SOL    HW2 3222   2.436   0.308   4.139 -1.9635 -0.1214 -1.0054
  993SOL     OW 3223   0.513   2.912   4.746  0.2413  0.3978  0.0933
  993SOL    HW1 3224   0.422   2.885   4.734 -0.3860  1.7688  1.4648
  993SOL    HW2 3225   0.559   2.832   4.767 -0.8929 -0.1368  0.6351
  994SOL     OW 3226   1.911   2.093   3.964 -0.5693  0.3221 -0.0819
  994SOL    HW1 3227   1.920   1.998   3.959  0.3268  0.3424  0.7483
  994SOL    HW2 3228   1.826   2.107   4.006 -0.9631 -0.0929 -0.7237
  995SOL     OW 3229   2.515   1.543   5.944 -0.2982  0.0700 -0.4690
  995SOL    HW1 3230   2.560   1.460   5.960 -1.6164 -0.4532  0.8051
  995SOL    HW2 3231   2.584   1.610   5.950  1.0159 -0.9647 -2.7596
  996SOL     OW 3232   3.247   5.515   4.787  0.2232 -0.1668  0.2995
  996SOL    HW1 3233   3.301   5.443   4.755 -0.2651 -0.6090  0.4453
  996SOL    HW2 3234   3.173   5.518   4.726  0.5575  0.6304 -0.0782
  997SOL     OW 3235   0.855   5.058   3.228 -0.2948 -0.3027  0.3853
  997SOL    HW1 3236   0.861   5.147   3.264 -0.6012 -0.5817  1.1537
  997SOL    HW2 3237   0.856   5.070   3.133 -0.3824  0.5212  0.4800
  998SOL     OW 3238   1.866   1.142   2.247 -0.1233  0.0481  0.0299
  998SOL    HW1 3239   1.863   1.075   2.178 -0.3362  0.6155 -0.5120
  998SOL    HW2 3240   1.794   1.118   2.306  2.0915 -2.4923  2.0191
  999SOL     OW 3241   0.997   2.413   2.535  0.3250  0.4007 -0.4611
  999SOL    HW1 3242   1.030   2.407   2.445 -1.6593 -0.1834 -1.2083
  999SOL    HW2 3243   0.937   2.338   2.543 -0.7134  1.3321  0.8243
 1000SOL     OW 3244   1.592   5.891   3.246  0.0474 -0.2315  0.1843
 1000SOL    HW1 3245   1.657   5.961   3.234 -0.8154  0.8797  1.7014
 1000SOL    HW2 3246   1.643   5.815   3.272  0.9309  0.0201 -0.7254
 1001SOL     OW 3247   1.028   3.642   1.288  0.4590 -0.1270  0.6754
 1001SOL    HW1 3248   1.025   3.721   1.342 -2.3179  1.0655 -1.0212
 1001SOL    HW2 3249   1.093   3.663   1.220 -0.8264  1.1416 -0.2410
 1002SOL     OW 3250   0.149   5.181   0.289  0.8740 -0.2022  0.2304
 1002SOL    HW1 3251   0.129   5.261   0.240 -0.7102  0.0516  1.2416
 1002SOL    HW2 3252   0.169   5.212   0.377 -0.8849 -0.9702  0.9306
 1003SOL     OW 3253   5.916   2.235   4.399 -0.3273 -0.4316 -0.0687
 1003SOL    HW1 3254   5.850   2.289   4.357 -0.4910 -0.3191  0.3264
 1003SOL    HW2 3255   5.894   2.146   4.373 -0.4822 -0.3717 -0.1440
 1004SOL     OW 3256   1.299   0.156   1.151  0.1520 -0.4112  0.5752
 1004SOL    HW1 3257   1.314   0.191   1.063  1.1549 -1.0791  0.4699
 1004SOL    HW2 3258   1.271   0.066   1.137 -1.0176 -0.1178  0.9051
 1005SOL     OW 3259   5.508   2.340   0.375 -0.0442  0.3568  0.0717
 1005SOL    HW1 3260   5.527   2.247   0.382  0.1021  0.5068  2.7290
 1005SOL    HW2 3261   5.469   2.351   0.288 -0.6811 -2.2721 -0.0380
 1006SOL     OW 3262   2.529   4.423   0.434 -0.4473 -0.6897 -0.0792
 1006SOL    HW1 3263   2.437   4.446   0.439 -0.4033  0.1818 -2.1478
 1006SOL    HW2 3264   2.540   4.350   0.495 -2.5357 -0.9282  0.0652
 1007SOL     OW 3265   4.767   3.032   1.249  0.3985  0.4496  0.0658
 1007SOL    HW1 3266   4.706   3.071   1.188 -1.1870 -1.8131  0.0832
 1007SOL    HW2 3267   4.806   3.106   1.295 -1.6232  2.0260 -0.6217
 1008SOL     OW 3268   3.396   1.580   0.800  0.0794  0.0554 -0.4774
 1008SOL    HW1 3269   3.452   1.502   0.811  0.5202  0.3234 -0.7767
 1008SOL    HW2 3270   3.319   1.548   0.753 -0.2106 -0.3998  0.2910
 1009SOL     OW 3271   1.009   6.104   0.540 -0.4008 -0.3803  0.2615
 1009SOL    HW1 3272   1.077   6.076   0.601 -0.7315  1.2077  1.4089
 1009SOL    HW2 3273   0.930   6.110   0.594 -0.9349  0.0721 -0.5540
 1010SOL     OW 3274   3.322   4.051   4.020  0.0095  0.2485  0.0025
 1010SOL    HW1 3275   3.336   4.036   4.114 -2.8451  1.0748  0.6692
 1010SOL    HW2 3276   3.279   3.971   3.990 -0.5600  0.6144 -0.1846
 1011SOL     OW 3277   4.705   4.220   5.093 -0.3079 -0.5571 -0.1878
 1011SOL    HW1 3278   4.655   4.302   5.098 -0.4952 -0.7457  1.4484
 1011SOL    HW2 3279   4.795   4.248   5.076 -0.7764 -0.1810 -2.3964
 1012SOL     OW 3280   1.931   5.886   6.101  0.4463  0.2654  0.2986
 1012SOL    HW1 3281   1.844   5.906   6.136  0.6738 -0.9346  1.6696
 1012SOL    HW2 3282   1.916   5.863   6.010 -0.8242 -0.7732  0.7428
 1013SOL     OW 3283   5.693   3.302   2.392  0.4223 -0.4647  0.4736
 1013SOL    HW1 3284   5.705   3.244   2.316  0.4304  1.0035 -0.6882
 1013SOL    HW2 3285   5.774   3.292   2.442  1.7299  0.7290 -1.2751
 1014SOL     OW 3286   1.628   3.039   3.991 -0.1043  0.7340 -0.0849
 1014SOL    HW1 3287   1.695   3.049   3.923  1.7472  0.7186  1.6425
 1014SOL    HW2 3288   1.619   3.126   4.030 -0.7343  0.6266  0.0177
 1015SOL     OW 3289   2.565   1.340   1.955 -0.3153 -0.0795 -0.0760
 1015SOL    HW1 3290   2.493   1.345   1.893  0.3438 -0.6507 -0.9197
 1015SOL    HW2 3291   2.629   1.282   1.912 -0.1780 -1.1455  1.4785
 1016SOL     OW 3292   5.850   2.399   5.025  0.6497 -0.0562  0.1388
 1016SOL    HW1 3293   5.900   2.476   4.997 -0.8211  0.6420 -0.7109
 1016SOL    HW2 3294   5.817   2.423   5.112  1.9270 -0.6173  0.8115
 1017SOL     OW 3295   5.764   1.250   2.664  0.1462 -0.7432 -0.0001
 1017SOL    HW1 3296   5.793   1.160   2.675 -2.5009 -1.7300 -0.6023
 1017SOL    HW2 3297   5.756   1.284   2.754 -0.3815 -1.6157  0.2838
 1018SOL     OW 3298   3.786   3.382   3.043 -0.2194  0.2756  0.1527
 1018SOL    HW1 3299   3.758   3.375   2.952 -0.3866 -1.7328  0.3143
 1018SOL    HW2 3300   3.729   3.322   3.091  0.5102  0.5468  1.4395
 1019SOL     OW 3301   1.426   1.075   5.097  0.2953 -0.5542  0.5050
 1019SOL    HW1 3302   1.485   1.008   5.062  0.3801  0.4040 -1.2903
 1019SOL    HW2 3303   1.482   1.150   5.115  0.2380 -0.9785  2.7179
 1020SOL     OW 3304   3.314   1.147   5.656  0.8123 -0.5976  0.4679
 1020SOL    HW1 3305   3.222   1.128   5.677  0.3619 -0.6066 -1.3799
 1020SOL    HW2 3306   3.346   1.066   5.616  1.7337 -0.6832  1.3228
 1021SOL     OW 3307   3.399   3.828   3.302  0.4968 -0.0388 -0.0650
 1021SOL    HW1 3308   3.330   3.805   3.364 -0.1978  0.6664 -0.5575
 1021SOL    HW2 3309   3.383   3.771   3.226  2.3232 -2.0938  0.9702
 1022SOL     OW 3310   5.227   3.044   2.433 -0.5928 -0.4824  0.4806
 1022SOL    HW1 3311   5.260   2.996   2.509 -0.4404 -0.8577  0.1867
 1022SOL    HW2 3312   5.299   3.101   2.408 -0.2427 -1.1219 -0.0106
 1023SOL     OW 3313   2.985   5.283   4.349 -0.4230  0.3797 -0.0411
 1023SOL    HW1 3314   2.896   5.278   4.312 -0.1856 -0.0702 -0.5738
 1023SOL    HW2 3315   3.022   5.197   4.332  0.3600  0.7909 -0.4600
 1024SOL     OW 3316   3.676   0.730   1.193 -0.3727  0.0842 -0.3783
 1024SOL    HW1 3317   3.648   0.785   1.266 -1.2695  0.4485 -0.9697
 1024SOL    HW2 3318   3.769   0.716   1.206 -0.8544 -1.5035  1.9351
 1025SOL     OW 3319   4.462   1.576   4.725 -0.7536  0.3152  0.4301
 1025SOL    HW1 3320   4.519   1.651   4.705  0.2470 -0.8257 -1.2277
 1025SOL    HW2 3321   4.408   1.566   4.647 -0.7255 -0.8184  0.5424
 1026SOL     OW 3322   3.827   3.619   4.849 -0.0233 -0.0877 -0.2425
 1026SOL    HW1 3323   3.808   3.686   4.914  1.4217 -0.0993  0.2147
 1026SOL    HW2 3324   3.762   3.635   4.780  1.1318  2.7276 -0.8287
 1027SOL     OW 3325   3.052   0.146   3.552 -0.2816  0.1942 -0.0233
 1027SOL    HW1 3326   3.125   0.116   3.606 -1.0752 -1.1363  0.3681
 1027SOL    HW2 3327   3.092   0.170   3.468  0.6088 -0.5335  0.1800
 1028SOL     OW 3328   5.499   4.464   4.074  0.5010  0.0870  0.4393
 1028SOL    HW1 3329   5.474   4.555   4.061 -0.7842 -0.4424 -1.3106
 1028SOL    HW2 3330   5.586   4.457   4.036  0.3668  0.4741  0.0519
 1029SOL     OW 3331   2.214   5.285   5.869  0.5082 -0.5183  0.7011
 1029SOL    HW1 3332   2.209   5.190   5.872  0.0110 -0.6573 -2.2814
 1029SOL    HW2 3333   2.124   5.314   5.883  0.5550 -0.4914  0.9626
 1030SOL     OW 3334   0.334   4.784   0.503 -0.1090  0.2420 -0.1534
 1030SOL    HW1 3335   0.358   4.857   0.560 -0.4694  0.9385 -0.8620
 1030SOL    HW2 3336   0.248   4.808   0.469 -0.6357 -0.9481  0.2931
 1031SOL     OW 3337   4.207   2.629   4.626  0.4119  0.1519 -0.4874
 1031SOL    HW1 3338   4.201   2.724   4.617 -0.1905  0.3629  1.5526
 1031SOL    HW2 3339   4.210   2.614   4.721  4.2176 -1.6533 -0.6914
 1032SOL     OW 3340   3.349   4.186   3.748  0.1210 -0.4888  0.1687
 1032SOL    HW1 3341   3.313   4.172   3.835  1.4023 -1.1227  0.6205
 1032SOL    HW2 3342   3.438   4.218   3.764 -0.1372  0.8615 -0.9035
 1033SOL     OW 3343   3.352   4.371   0.635 -0.3810 -0.2310 -0.1491
 1033SOL    HW1 3344   3.308   4.441   0.685 -0.8023 -0.3222 -0.3867
 1033SOL    HW2 3345   3.445   4.385   0.651 -0.5312 -0.8929  1.5320
 1034SOL     OW 3346   1.146   3.919   0.428  0.2893 -0.1063  0.3155
 1034SOL    HW1 3347   1.080   3.974   0.470 -0.6022 -1.8188  1.2485
 1034SOL    HW2 3348   1.161   3.962   0.343 -0.4786  1.4675  0.9285
 1035SOL     OW 3349   4.449   3.417   5.576  0.1801 -0.7198  0.2126
 1035SOL    HW1 3350   4.458   3.350   5.643 -0.1725  0.4027  1.4245
 1035SOL    HW2 3351   4.362   3.455   5.592  0.9435  0.9893  0.5034
 1036SOL     OW 3352   5.821   5.433   4.330 -0.3243 -0.1597  0.4650
 1036SOL    HW1 3353   5.746   5.376   4.311 -1.3265  0.2916  2.7668
 1036SOL    HW2 3354   5.782   5.518   4.352  1.1720  1.9958 -4.0773
 1037SOL     OW 3355   1.279   3.176   3.921  0.3762 -0.9890 -0.1645
 1037SOL    HW1 3356   1.248   3.166   4.012 -2.0347 -2.1722 -1.0297
 1037SOL    HW2 3357   1.281   3.086   3.887  0.4446 -0.4891 -1.5137
 1038SOL     OW 3358   5.170   0.913   1.143 -0.1681 -0.2959 -0.0424
 1038SOL    HW1 3359   5.138   0.992   1.099 -2.7623 -0.8033  0.8183
 1038SOL    HW2 3360   5.197   0.944   1.229  0.8579 -0.0286 -0.4413
 1039SOL     OW 3361   2.507   4.436   5.512 -0.0098 -0.4196  0.0828
 1039SOL    HW1 3362   2.417   4.467   5.523 -0.0678  0.3379 -2.1313
 1039SOL    HW2 3363   2.512   4.407   5.421  2.0602 -0.1489  0.0651
 1040SOL     OW 3364   3.149   1.426   2.494  0.4331 -0.4204 -0.5443
 1040SOL    HW1 3365   3.086   1.354   2.501 -0.3147  0.2642 -0.0255
 1040SOL    HW2 3366   3.161   1.436   2.399 -1.9423  0.8255 -0.7979
 1041SOL     OW 3367   2.179   5.634   3.755 -0.1359 -0.0029 -0.3206
 1041SOL    HW1 3368   2.190   5.561   3.816 -1.1984 -0.6305 -0.8531
 1041SOL    HW2 3369   2.088   5.662   3.767  0.4052  1.6383  0.2836
 1042SOL     OW 3370   0.671   5.331   5.558 -0.0751  0.7576  0.3290
 1042SOL    HW1 3371   0.732   5.258   5.562 -0.4396  0.4181 -0.1345
 1042SOL    HW2 3372   0.668   5.354   5.465 -1.5823 -0.0436  0.1539
 1043SOL     OW 3373   4.202   4.548   5.998 -0.1213  0.0760  0.0881
 1043SOL    HW1 3374   4.146   4.474   6.022  1.0582 -0.4901  1.2093
 1043SOL    HW2 3375   4.275   4.508   5.950  0.6669  0.4571  0.9440
 1044SOL     OW 3376   1.932   0.234   0.995 -0.3153 -0.3780  0.4425
 1044SOL    HW1 3377   1.940   0.143   1.026 -0.1257 -0.0314  1.4526
 1044SOL    HW2 3378   2.010   0.277   1.031 -0.2203  0.1023 -0.3386
 1045SOL     OW 3379   3.818   3.472   0.933 -0.1256 -0.3765  0.0237
 1045SOL    HW1 3380   3.769   3.393   0.952  1.4190 -1.7442 -1.3617
 1045SOL    HW2 3381   3.804   3.488   0.840  2.6078 -1.3056 -0.6330
 1046SOL     OW 3382   4.369   0.479   3.889 -0.6527 -0.1205  0.4978
 1046SOL    HW1 3383   4.392   0.406   3.946 -1.2856  0.0411  0.9698
 1046SOL    HW2 3384   4.392   0.557   3.940 -0.9047  0.0221  0.3940
 1047SOL     OW 3385   1.969   2.900   3.841  0.1402 -0.1023  0.6300
 1047SOL    HW1 3386   2.053   2.872   3.878 -0.0329  1.0185  1.9695
 1047SOL    HW2 3387   1.990   2.974   3.784  0.2323 -0.8909 -0.3889
 1048SOL     OW 3388   1.901   4.059   3.153 -0.3172  0.7719 -0.1341
 1048SOL    HW1 3389   1.896   4.026   3.243  1.2852 -1.6344 -0.8195
 1048SOL    HW2 3390   1.855   3.993   3.101  2.5698 -0.3206 -1.5301
 1049SOL     OW 3391   5.125   1.202   6.012  0.2270  0.1510  0.1950
 1049SOL    HW1 3392   5.079   1.190   5.929 -0.4171  1.5861  0.3161
 1049SOL    HW2 3393   5.134   1.297   6.020 -0.3661  0.0807  2.1064
 1050SOL     OW 3394   0.342   4.780   2.010 -0.0933 -0.0034  0.8579
 1050SOL    HW1 3395   0.416   4.778   1.950  0.2127 -0.0352  1.2389
 1050SOL    HW2 3396   0.366   4.846   2.075 -0.5247  0.1972  0.8183
 1051SOL     OW 3397   2.931   4.172   0.658 -0.2812  0.3717  0.4728
 1051SOL    HW1 3398   3.010   4.120   0.644  0.7479  1.0294  3.1596
 1051SOL    HW2 3399   2.942   4.248   0.600 -0.6884 -1.1557 -1.7322
 1052SOL     OW 3400   1.114   0.508   1.580  0.0636  0.2034  0.4848
 1052SOL    HW1 3401   1.094   0.546   1.665  2.5482 -0.4238  1.4456
 1052SOL    HW2 3402   1.134   0.583   1.524 -0.0316  0.5522  0.9167
 1053SOL     OW 3403   3.084   0.209   5.183 -0.1575  0.8369 -0.1630
 1053SOL    HW1 3404   3.146   0.138   5.164  0.5145  1.1292  0.8463
 1053SOL    HW2 3405   3.139   0.287   5.190 -0.5784  1.0436  1.0926
 1054SOL     OW 3406   0.943   3.120   4.435  0.2227  0.5872  0.2616
 1054SOL    HW1 3407   1.011   3.182   4.463  0.8732  0.6171 -1.2697
 1054SOL    HW2 3408   0.931   3.062   4.510  1.1038  1.3057  0.9786
 1055SOL     OW 3409   4.678   4.899   2.080  0.6478 -0.2751 -0.8462
 1055SOL    HW1 3410   4.597   4.904   2.131  0.3625 -0.9205 -1.2235
 1055SOL    HW2 3411   4.686   4.986   2.041  1.5308  0.6466  1.2400
 1056SOL     OW 3412   5.559   5.667   0.498  0.1506 -0.7006 -0.1256
 1056SOL    HW1 3413   5.525   5.580   0.520  0.7820 -0.9215 -0.0157
 1056SOL    HW2 3414   5.640   5.650   0.450 -0.4699 -0.1956 -1.3993
 1057SOL     OW 3415   3.416   0.683   3.412 -0.6019  0.0102  0.1120
 1057SOL    HW1 3416   3.449   0.772   3.404  0.8680 -0.6750 -2.3465
 1057SOL    HW2 3417   3.344   0.678   3.349 -1.3555 -0.2794  0.9727
 1058SOL     OW 3418   0.520   5.286   2.769 -0.2065  0.3432 -0.2849
 1058SOL    HW1 3419   0.563   5.367   2.799  0.8171 -0.1139 -0.4714
 1058SOL    HW2 3420   0.448   5.317   2.714 -0.1330  1.1402  0.0459
 1059SOL     OW 3421   1.278   4.943   5.513 -0.2777  0.3856  0.2570
 1059SOL    HW1 3422   1.299   4.927   5.421 -2.1461  1.9040 -0.5014
 1059SOL    HW2 3423   1.360   4.976   5.551  0.2490  0.7006 -1.1046
 1060SOL     OW 3424   4.029   2.539   2.999  0.0822 -0.4743 -0.6345
 1060SOL    HW1 3425   4.122   2.553   3.016  0.0647 -1.4196  0.3505
 1060SOL    HW2 3426   3.991   2.521   3.085 -1.1049  0.3197 -0.9570
 1061SOL     OW 3427   3.779   3.083   4.079 -0.7981  0.3359 -0.0749
 1061SOL    HW1 3428   3.866   3.060   4.112 -0.2375 -0.5047 -2.0000
 1061SOL    HW2 3429   3.721   3.069   4.154  0.3406 -1.8238  0.5145
 1062SOL     OW 3430   4.438   3.072   5.507 -0.2380  0.0102 -0.3096
 1062SOL    HW1 3431   4.348   3.086   5.536 -1.0804 -4.8516  0.2775
 1062SOL    HW2 3432   4.484   3.043   5.585  1.5095  0.8496 -0.9613
 1063SOL     OW 3433   1.329   2.093   4.179  0.0236  0.3913 -0.7533
 1063SOL    HW1 3434   1.389   2.082   4.253  2.1307 -0.5563 -2.4793
 1063SOL    HW2 3435   1.267   2.021   4.187  0.4491  0.0864 -0.1297
 1064SOL     OW 3436   5.511   5.158   2.591 -0.6573  0.3604  0.3788
 1064SOL    HW1 3437   5.511   5.109   2.673  0.5387  0.5425  0.4954
 1064SOL    HW2 3438   5.457   5.105   2.532 -1.8492  0.4171  1.3735
 1065SOL     OW 3439   4.157   5.265   4.815  0.3785 -0.1429  0.3651
 1065SOL    HW1 3440   4.083   5.205   4.828  0.0077  0.7030  2.5967
 1065SOL    HW2 3441   4.232   5.220   4.855  0.6958 -0.2533 -0.3423
 1066SOL     OW 3442   4.862   3.002   2.231  0.2058 -0.8333  0.7455
 1066SOL    HW1 3443   4.931   3.045   2.280  1.4301  1.2090 -2.4170
 1066SOL    HW2 3444   4.783   3.052   2.252  0.9595  0.8523 -0.2163
 1067SOL     OW 3445   2.418   0.956   4.726 -0.1952  0.7351 -0.0141
 1067SOL    HW1 3446   2.353   0.894   4.759 -0.7617  2.0988  1.6213
 1067SOL    HW2 3447   2.501   0.921   4.756 -0.4015  0.2085 -0.0464
 1068SOL     OW 3448   4.297   4.084   5.794 -0.0508 -0.4606  0.5602
 1068SOL    HW1 3449   4.391   4.068   5.792 -0.0393 -0.9193 -2.8525
 1068SOL    HW2 3450   4.282   4.134   5.874  3.2542  0.6415  0.6421
 1069SOL     OW 3451   0.186   0.168   3.257  0.8330 -0.5569 -0.1685
 1069SOL    HW1 3452   0.097   0.203   3.259  0.8101 -0.5828 -0.6206
 1069SOL    HW2 3453   0.213   0.166   3.349  0.0219 -1.4294  0.0721
 1070SOL     OW 3454   4.972   3.517   0.538 -0.2490 -0.9711  0.1545
 1070SOL    HW1 3455   5.009   3.433   0.564 -1.0395 -1.9672 -1.7247
 1070SOL    HW2 3456   4.950   3.506   0.446  0.4155  1.6029 -0.3973
 1071SOL     OW 3457   1.948   4.499   3.358 -0.2207  0.4580 -0.6205
 1071SOL    HW1 3458   2.034   4.457   3.360 -1.2545 -1.7412  0.5565
 1071SOL    HW2 3459   1.898   4.449   3.294 -1.4079 -0.0061  0.6251
 1072SOL     OW 3460   0.099   2.712   1.766  0.0117  0.2364 -0.1655
 1072SOL    HW1 3461   0.026   2.671   1.813 -0.6403  1.2117 -0.3020
 1072SOL    HW2 3462   0.177   2.685   1.814 -0.5783  0.6202  1.0536
 1073SOL     OW 3463   0.624   1.752   4.010 -0.3062 -0.7409  0.3414
 1073SOL    HW1 3464   0.591   1.720   3.926 -0.3749 -3.2949  1.2368
 1073SOL    HW2 3465   0.705   1.702   4.023  0.3807  0.5678  1.2195
 1074SOL     OW 3466   5.918   1.158   5.911  0.4371  0.3136  0.2191
 1074SOL    HW1 3467   5.990   1.219   5.892 -0.6972  1.5224 -0.3741
 1074SOL    HW2 3468   5.930   1.086   5.849  1.8281 -0.1346  0.9644
 1075SOL     OW 3469   3.800   4.112   1.641 -0.1496 -0.8990  0.0090
 1075SOL    HW1 3470   3.862   4.061   1.693  1.3501 -0.6670 -1.4445
 1075SOL    HW2 3471   3.810   4.077   1.552  1.1914  2.0631 -1.1221
 1076SOL     OW 3472   0.016   0.682   5.843  0.3798  0.2067 -0.0921
 1076SOL    HW1 3473   0.024   0.588   5.860 -0.6654  0.2457  0.7566
 1076SOL    HW2 3474  -0.055   0.689   5.780  0.9442  0.3869 -0.7104
 1077SOL     OW 3475   4.869   2.915   0.920  0.3878 -0.1265 -0.4672
 1077SOL    HW1 3476   4.781   2.953   0.912  0.2043  0.4398  2.6703
 1077SOL    HW2 3477   4.927   2.983   0.888 -0.2464  0.3196 -0.7014
 1078SOL     OW 3478   4.650   2.600   1.368  0.0036 -0.1127  0.4352
 1078SOL    HW1 3479   4.561   2.634   1.372  0.0514 -0.0503  1.2461
 1078SOL    HW2 3480   4.704   2.670   1.407  0.5674  0.3471 -1.1018
 1079SOL     OW 3481   5.439   4.715   4.010  0.6249  0.3283  0.5748
 1079SOL    HW1 3482   5.504   4.781   3.984  1.2959  1.0401  3.6653
 1079SOL    HW2 3483   5.355   4.752   3.981  1.2891  0.8348 -0.8011
 1080SOL     OW 3484   2.075   6.069   1.652 -0.8630  0.1581  0.2447
 1080SOL    HW1 3485   2.048   6.155   1.683  0.2998  0.1186  1.4717
 1080SOL    HW2 3486   1.996   6.030   1.616 -1.7767  1.0868  1.2104
 1081SOL     OW 3487   1.370   0.417   0.046 -0.0511 -0.2032 -0.0285
 1081SOL    HW1 3488   1.395   0.408  -0.046  0.9544 -0.5565  0.2647
 1081SOL    HW2 3489   1.453   0.430   0.092 -0.4643 -0.8027  0.9108
 1082SOL     OW 3490   5.908   1.688   4.885  0.4543  0.2402  0.4750
 1082SOL    HW1 3491   5.963   1.750   4.836 -0.4981  0.7566  0.0431
 1082SOL    HW2 3492   5.833   1.671   4.828  0.9013 -1.6846  0.3944
 1083SOL     OW 3493   3.677   2.058   0.803 -0.4796 -0.1639 -0.2399
 1083SOL    HW1 3494   3.696   1.967   0.828  1.3937  0.5186  1.0322
 1083SOL    HW2 3495   3.710   2.064   0.713 -0.6148 -0.7323 -0.3370
 1084SOL     OW 3496   0.236   6.086   4.833 -0.5203  0.9775 -0.0082
 1084SOL    HW1 3497   0.144   6.093   4.860 -0.2653  4.0232  0.4884
 1084SOL    HW2 3498   0.268   6.009   4.879 -1.8797  2.0815  3.1445
 1085SOL     OW 3499   4.865   0.940   1.703 -0.1222 -0.3982 -0.4074
 1085SOL    HW1 3500   4.783   0.903   1.736 -0.6416 -0.1156 -1.3554
 1085SOL    HW2 3501   4.844   1.031   1.681  1.0011  0.3583  1.3846
 1086SOL     OW 3502   2.745   5.715   2.946  0.1085 -0.3501  0.1304
 1086SOL    HW1 3503   2.789   5.724   2.862  0.1223  0.8481  0.2555
 1086SOL    HW2 3504   2.727   5.621   2.953 -1.7187 -0.2684 -2.1420
 1087SOL     OW 3505   4.746   3.871   3.925  0.2880 -0.2408 -0.2100
 1087SOL    HW1 3506   4.783   3.858   3.837 -0.7314  0.8907 -0.8333
 1087SOL    HW2 3507   4.793   3.808   3.980  1.6534 -0.2970 -1.3666
 1088SOL     OW 3508   4.109   4.416   0.877 -0.1972  0.0146 -0.0602
 1088SOL    HW1 3509   4.197   4.423   0.915 -0.0276  0.8631 -0.5800
 1088SOL    HW2 3510   4.123   4.427   0.783 -1.0446  2.0622  0.0076
 1089SOL     OW 3511   2.033   0.699   1.453 -0.0711  0.5025  0.1999
 1089SOL    HW1 3512   2.125   0.713   1.474 -0.6672  0.7231  3.1675
 1089SOL    HW2 3513   1.988   0.775   1.492 -1.7114 -0.8973  1.1747
 1090SOL     OW 3514   0.837   0.650   3.063  0.3515 -0.2141  0.2151
 1090SOL    HW1 3515   0.755   0.638   3.015 -0.6947  0.0634  1.8584
 1090SOL    HW2 3516   0.905   0.624   3.001 -0.9504 -0.1439 -1.2981
 1091SOL     OW 3517   3.894   1.436   4.231  0.2595  0.5392 -0.3937
 1091SOL    HW1 3518   3.804   1.463   4.251  0.2824 -0.3632  1.1445
 1091SOL    HW2 3519   3.884   1.374   4.159 -0.4647 -0.1146  0.2369
 1092SOL     OW 3520   3.064   1.526   1.673 -0.2740  0.3009  0.2189
 1092SOL    HW1 3521   3.101   1.534   1.585  2.3956  0.9531  1.2933
 1092SOL    HW2 3522   2.977   1.565   1.666 -1.5996 -2.6526 -2.8218
 1093SOL     OW 3523   0.966   3.199   1.535  0.0127 -0.5298  0.0395
 1093SOL    HW1 3524   0.908   3.250   1.479  0.5219  0.0629  0.0350
 1093SOL    HW2 3525   1.041   3.178   1.478 -0.3906 -1.6809 -0.0931
 1094SOL     OW 3526   1.227   2.963   1.764 -0.2495  0.1524 -0.1022
 1094SOL    HW1 3527   1.226   2.931   1.674 -0.4281 -0.9274  0.2631
 1094SOL    HW2 3528   1.293   2.909   1.808 -1.0941 -0.2477  0.7230
 1095SOL     OW 3529   5.403   5.231   0.512 -0.4171 -0.1316 -0.0238
 1095SOL    HW1 3530   5.429   5.191   0.595 -0.6803 -0.0877  0.0798
 1095SOL    HW2 3531   5.480   5.281   0.485 -0.6598  0.6543  0.6840
 1096SOL     OW 3532   2.062   1.768   2.505 -0.3604 -0.2388  0.0467
 1096SOL    HW1 3533   2.087   1.757   2.597  0.3548 -3.6732 -0.4123
 1096SOL    HW2 3534   1.988   1.828   2.507  0.6777  1.1182  2.6508
 1097SOL     OW 3535   4.375   1.667   0.670  0.6558  0.4669  0.4972
 1097SOL    HW1 3536   4.390   1.574   0.655 -1.3486 -0.2121  2.2298
 1097SOL    HW2 3537   4.403   1.681   0.761  3.7172  2.3062 -0.5666
 1098SOL     OW 3538   4.967   1.177   4.499 -0.6669 -0.4377 -0.0538
 1098SOL    HW1 3539   4.979   1.218   4.585  1.1203 -1.2699  0.1397
 1098SOL    HW2 3540   4.880   1.206   4.471 -1.9337 -1.2394  2.6417
 1099SOL     OW 3541   1.496   4.382   0.777 -0.5148  0.0812  0.1755
 1099SOL    HW1 3542   1.421   4.334   0.813 -0.0527 -0.3333  0.6113
 1099SOL    HW2 3543   1.467   4.472   0.772 -0.6313  0.1504  1.5592
 1100SOL     OW 3544   2.740   1.899   0.770  0.7118 -0.4085 -0.1587
 1100SOL    HW1 3545   2.832   1.880   0.790  0.6644 -1.9445 -1.2126
 1100SOL    HW2 3546   2.704   1.935   0.851  1.8654 -1.2118  0.7352
 1101SOL     OW 3547   5.586   0.863   2.128 -0.3120 -0.0747 -0.1415
 1101SOL    HW1 3548   5.669   0.818   2.144  0.1839  1.4614  2.1151
 1101SOL    HW2 3549   5.599   0.910   2.045  0.1948 -1.6562 -0.9956
 1102SOL     OW 3550   3.450   1.478   4.890 -0.5140  0.3293 -0.2612
 1102SOL    HW1 3551   3.489   1.493   4.976  0.7973  0.1731 -0.8087
 1102SOL    HW2 3552   3.364   1.440   4.909  0.0738 -0.4598  0.9641
 1103SOL     OW 3553   0.942   5.809   3.235  0.2920 -0.0020  0.4483
 1103SOL    HW1 3554   0.859   5.831   3.192  0.7995  0.8187 -0.1371
 1103SOL    HW2 3555   1.004   5.874   3.203  1.1011 -0.4220  1.1137
 1104SOL     OW 3556   3.495   2.438   4.299  0.1576 -0.0678  0.1885
 1104SOL    HW1 3557   3.406   2.452   4.332 -0.3855 -2.1765 -0.2197
 1104SOL    HW2 3558   3.526   2.361   4.347  0.5461 -1.2787 -1.8633
 1105SOL     OW 3559   0.715   1.014   1.422  0.2297 -0.3161  0.0725
 1105SOL    HW1 3560   0.674   1.092   1.384 -1.6197 -1.2652  0.0021
 1105SOL    HW2 3561   0.670   0.940   1.381  2.5598 -1.5048 -0.5680
 1106SOL     OW 3562   0.910   4.415   3.831 -0.2378 -0.0060 -0.8047
 1106SOL    HW1 3563   0.850   4.389   3.900 -0.4179  0.9405 -0.5840
 1106SOL    HW2 3564   0.976   4.345   3.828 -0.5597 -0.3475 -0.0837
 1107SOL     OW 3565   4.349   5.984   5.410  0.7347 -0.7102  0.1007
 1107SOL    HW1 3566   4.353   6.052   5.342 -0.0103  0.1300  0.8612
 1107SOL    HW2 3567   4.421   6.006   5.469  0.2906 -0.3760  0.5230
 1108SOL     OW 3568   0.129   2.171   2.798  0.1932 -0.3106 -0.2312
 1108SOL    HW1 3569   0.067   2.130   2.738  0.8704  0.2393 -1.3587
 1108SOL    HW2 3570   0.215   2.146   2.763  0.6219 -0.6096  0.9751
 1109SOL     OW 3571   2.095   3.016   4.462 -0.0026  0.3235 -0.7253
 1109SOL    HW1 3572   2.097   2.934   4.413 -0.4342  1.0332 -2.0098
 1109SOL    HW2 3573   2.030   3.003   4.530  0.2638 -0.5495 -0.6362
 1110SOL     OW 3574   2.892   5.212   1.757  0.3222 -0.3473  0.0765
 1110SOL    HW1 3575   2.937   5.233   1.675  0.5052 -1.0636 -0.0158
 1110SOL    HW2 3576   2.949   5.148   1.799 -0.4787 -1.0617  0.0935
 1111SOL     OW 3577   1.584   1.088   2.859  0.0284  0.1359  0.2044
 1111SOL    HW1 3578   1.651   1.112   2.794 -0.2446 -0.1531 -0.1850
 1111SOL    HW2 3579   1.509   1.143   2.836 -0.0910 -0.0161  0.2317
 1112SOL     OW 3580   5.879   5.189   1.583  0.5568 -0.1706  0.1009
 1112SOL    HW1 3581   5.819   5.178   1.657  2.2803  0.6983  1.7065
 1112SOL    HW2 3582   5.852   5.271   1.542  2.5485  2.0861  2.8727
 1113SOL     OW 3583   2.060   1.396   3.753 -0.2368 -0.1719  0.1957
 1113SOL    HW1 3584   2.138   1.342   3.739 -1.2028 -2.1050  1.8672
 1113SOL    HW2 3585   2.064   1.461   3.682  2.6507 -0.4247 -0.0174
 1114SOL     OW 3586   1.010   5.167   0.041 -0.0263 -0.8966  0.3221
 1114SOL    HW1 3587   1.049   5.202   0.121 -2.0698  1.6709  0.3141
 1114SOL    HW2 3588   0.930   5.122   0.070  0.0512 -1.3613 -0.1605
 1115SOL     OW 3589   3.545   0.765   0.937  0.0072 -0.3305 -0.4534
 1115SOL    HW1 3590   3.583   0.750   1.024  0.6543 -1.8252 -0.9499
 1115SOL    HW2 3591   3.494   0.686   0.920 -0.9084  0.3751 -1.0454
 1116SOL     OW 3592   1.778   5.857   2.825  0.4479  0.7288  0.1113
 1116SOL    HW1 3593   1.740   5.864   2.738  2.0092 -0.8485 -0.7632
 1116SOL    HW2 3594   1.773   5.764   2.846  4.6793  0.1525 -0.5868
 1117SOL     OW 3595   2.729   5.923   1.592 -1.0489 -0.5652  0.4007
 1117SOL    HW1 3596   2.747   5.893   1.503  0.7342  0.3623  0.3962
 1117SOL    HW2 3597   2.738   5.845   1.646 -0.6153 -0.8477 -0.0735
 1118SOL     OW 3598   3.151   3.077   5.641  0.0252  0.2068 -0.0156
 1118SOL    HW1 3599   3.079   3.132   5.672 -0.0024 -0.3391  0.9081
 1118SOL    HW2 3600   3.131   2.989   5.672  1.3808  0.1476  0.8075
 1119SOL     OW 3601   0.990   1.637   3.654  0.1344  0.5076  0.2393
 1119SOL    HW1 3602   1.006   1.543   3.651 -0.9954  0.3089  0.1322
 1119SOL    HW2 3603   0.983   1.664   3.563 -3.0378  0.0362  0.2437
 1120SOL     OW 3604   5.224   1.081   5.370  0.0298 -0.1271 -0.1195
 1120SOL    HW1 3605   5.218   1.003   5.316 -0.6900 -0.3136  0.2158
 1120SOL    HW2 3606   5.133   1.106   5.386  0.1040 -1.2981  2.7478
 1121SOL     OW 3607   2.109   3.770   2.445  0.0456 -0.2778 -0.2342
 1121SOL    HW1 3608   2.046   3.782   2.374  0.5633  0.5106 -0.5715
 1121SOL    HW2 3609   2.074   3.821   2.518  0.4174  0.3828 -0.5084
 1122SOL     OW 3610   4.955   0.697   2.741  0.4619  0.1266 -0.1370
 1122SOL    HW1 3611   5.027   0.664   2.796  0.3642 -1.3313 -0.8157
 1122SOL    HW2 3612   4.877   0.655   2.777  0.3736 -0.7094 -1.2451
 1123SOL     OW 3613   1.384   3.692   3.677  0.0476  0.3815  0.7706
 1123SOL    HW1 3614   1.324   3.624   3.707 -0.1392 -0.5990 -1.5838
 1123SOL    HW2 3615   1.435   3.650   3.607  0.6169  2.3737 -0.0810
 1124SOL     OW 3616   5.337   2.900   3.321  0.0571  0.3538 -0.1676
 1124SOL    HW1 3617   5.332   2.838   3.394 -1.2551  0.9127  0.2515
 1124SOL    HW2 3618   5.425   2.937   3.326  1.0814 -1.8262 -0.7578
 1125SOL     OW 3619   2.721   2.769   3.907  0.0654  0.1554 -0.0496
 1125SOL    HW1 3620   2.808   2.803   3.930  0.6575 -0.3272 -1.4463
 1125SOL    HW2 3621   2.673   2.846   3.877  0.6026  0.1544 -0.9320
 1126SOL     OW 3622   1.614   1.759   1.067 -0.1687  0.1439 -0.4218
 1126SOL    HW1 3623   1.695   1.809   1.061 -0.1448  0.3252  1.0844
 1126SOL    HW2 3624   1.630   1.694   1.136  0.2189 -2.7992 -3.0462
 1127SOL     OW 3625   4.902   0.190   1.365 -0.3220  0.2107 -0.7369
 1127SOL    HW1 3626   4.969   0.156   1.424 -0.5288  0.2534 -0.4716
 1127SOL    HW2 3627   4.950   0.232   1.295 -0.0513  2.3264  0.6375
 1128SOL     OW 3628   0.459   5.930   0.078  0.3555 -0.0990 -0.1634
 1128SOL    HW1 3629   0.518   5.857   0.098 -0.1391 -0.5126 -0.1908
 1128SOL    HW2 3630   0.433   5.915  -0.013  0.2109  0.0859 -0.1527
 1129SOL     OW 3631   0.167   3.932   0.041 -0.5363  0.3472 -0.2230
 1129SOL    HW1 3632   0.140   3.964  -0.045 -1.7002 -0.1378 -0.0536
 1129SOL    HW2 3633   0.089   3.889   0.077 -0.5263  1.7688  1.6771
 1130SOL     OW 3634   5.414   0.203   3.164  0.5996  0.0167 -0.2166
 1130SOL    HW1 3635   5.326   0.171   3.144  0.0130  1.7861 -0.6725
 1130SOL    HW2 3636   5.458   0.206   3.079  1.3311 -1.4549  0.0918
 1131SOL     OW 3637   2.461   4.693   2.963  0.3766 -0.4220  0.2022
 1131SOL    HW1 3638   2.418   4.652   2.888  0.3252 -0.1919  0.1039
 1131SOL    HW2 3639   2.417   4.777   2.973  0.4018 -0.4407  0.4750
 1132SOL     OW 3640   3.410   4.000   3.085 -0.1799 -0.5930 -0.0573
 1132SOL    HW1 3641   3.390   3.975   3.176 -1.9140 -0.6591 -0.4217
 1132SOL    HW2 3642   3.435   3.917   3.043 -1.0367 -0.8757 -0.0356
 1133SOL     OW 3643   1.146   5.403   2.772  0.0669  0.3789  0.0003
 1133SOL    HW1 3644   1.133   5.489   2.731 -0.8369 -0.3226 -1.2444
 1133SOL    HW2 3645   1.239   5.400   2.792  0.1135  1.6516  0.0755
 1134SOL     OW 3646   0.270   0.706   3.479  0.4520 -0.5481 -0.0832
 1134SOL    HW1 3647   0.346   0.762   3.462 -1.4003  1.3712 -3.1207
 1134SOL    HW2 3648   0.230   0.695   3.392 -3.1042 -0.8628  1.4487
 1135SOL     OW 3649   2.699   4.947   1.636 -0.1229 -0.1134 -0.3521
 1135SOL    HW1 3650   2.657   4.996   1.707  0.4491 -0.1095 -0.0083
 1135SOL    HW2 3651   2.704   5.009   1.564 -0.5955 -0.0769 -0.3589
 1136SOL     OW 3652   5.661   0.620   0.589  0.0618 -0.1372  0.0319
 1136SOL    HW1 3653   5.736   0.621   0.647  1.0053 -1.6491 -1.0973
 1136SOL    HW2 3654   5.589   0.588   0.643  0.9497 -1.6716  0.3658
 1137SOL     OW 3655   2.430   0.606   3.906  0.1331 -0.9296  0.3591
 1137SOL    HW1 3656   2.355   0.554   3.877 -0.1381 -0.4772  0.2416
 1137SOL    HW2 3657   2.506   0.548   3.894  0.1665 -0.4798 -2.0710
 1138SOL     OW 3658   2.180   3.603   4.924 -0.1396  0.2382 -0.6198
 1138SOL    HW1 3659   2.159   3.609   4.831  0.9280  0.5960 -0.8509
 1138SOL    HW2 3660   2.162   3.512   4.947 -0.3858  0.1411 -1.1844
 1139SOL     OW 3661   5.098   4.018   5.220 -0.6923  0.0934  0.2100
 1139SOL    HW1 3662   5.090   3.970   5.137 -0.2886  0.5010 -0.0682
 1139SOL    HW2 3663   5.192   4.033   5.230 -0.9096  2.1706 -0.4920
 1140SOL     OW 3664   6.021   3.071   5.931 -0.4950 -0.6396  0.4615
 1140SOL    HW1 3665   6.058   3.149   5.973  0.3602  0.1665 -1.6240
 1140SOL    HW2 3666   5.927   3.085   5.931 -0.6582 -1.2285  3.0452
 1141SOL     OW 3667   2.079   4.233   2.640 -0.1102 -0.2882  0.3809
 1141SOL    HW1 3668   2.122   4.247   2.725  1.5479  2.7049 -0.7769
 1141SOL    HW2 3669   2.150   4.209   2.581 -0.6570  0.8012 -0.7661
 1142SOL     OW 3670   4.005   2.051   3.787  0.3405  0.0949 -0.1998
 1142SOL    HW1 3671   3.917   2.087   3.780  0.4220  0.5266  0.8768
 1142SOL    HW2 3672   4.014   1.995   3.710 -0.9245 -0.0830 -0.2326
 1143SOL     OW 3673   5.538   0.677   5.707 -0.4411 -0.7510 -0.5188
 1143SOL    HW1 3674   5.559   0.714   5.622 -1.4761  0.9870 -0.0759
 1143SOL    HW2 3675   5.560   0.746   5.770  0.5922 -2.1045  0.6761
 1144SOL     OW 3676   3.913   1.364   3.242  0.2800  0.7219 -0.7060
 1144SOL    HW1 3677   3.920   1.342   3.335 -1.6467 -1.1120 -0.9206
 1144SOL    HW2 3678   3.990   1.324   3.202  0.3462  0.2266 -0.1002
 1145SOL     OW 3679   1.768   3.444   3.718 -0.5888 -0.0497  0.1950
 1145SOL    HW1 3680   1.756   3.409   3.807  1.8459  1.6375  1.2821
 1145SOL    HW2 3681   1.823   3.379   3.674  0.9154  0.6115  1.0323
 1146SOL     OW 3682   5.727   1.422   1.634  0.5310  0.1138 -0.0721
 1146SOL    HW1 3683   5.659   1.489   1.632  0.0536 -0.3466 -1.9460
 1146SOL    HW2 3684   5.700   1.359   1.568  2.7593 -0.0852 -0.9000
 1147SOL     OW 3685   5.699   3.340   3.879 -0.3478 -0.6169  0.2598
 1147SOL    HW1 3686   5.628   3.374   3.825 -0.7361  0.6833  1.5109
 1147SOL    HW2 3687   5.757   3.415   3.891  0.7992 -1.4270 -0.0034
 1148SOL     OW 3688   3.340   4.756   3.698 -0.0762 -0.2785 -0.0202
 1148SOL    HW1 3689   3.417   4.762   3.754  0.6254 -0.1177 -0.9663
 1148SOL    HW2 3690   3.292   4.680   3.730 -0.0980  0.2576  1.2662
 1149SOL     OW 3691   5.429   1.539   0.385 -0.4360  0.9767  0.1457
 1149SOL    HW1 3692   5.484   1.565   0.459  0.7401 -0.1689 -0.3009
 1149SOL    HW2 3693   5.378   1.465   0.418 -0.3699  0.8650 -0.0046
 1150SOL     OW 3694   0.531   4.212   3.834  0.2480 -0.7416  0.1163
 1150SOL    HW1 3695   0.480   4.221   3.754 -1.0283 -1.7636  0.7811
 1150SOL    HW2 3696   0.619   4.188   3.804 -0.2034 -1.0668 -0.9819
 1151SOL     OW 3697   5.725   5.248   0.515 -0.2857  1.0498  0.3522
 1151SOL    HW1 3698   5.820   5.242   0.527 -0.2656 -1.6737 -0.6141
 1151SOL    HW2 3699   5.689   5.178   0.569 -1.5957  0.7998 -0.8003
 1152SOL     OW 3700   1.890   0.643   4.338 -0.0900 -0.0563 -0.5409
 1152SOL    HW1 3701   1.948   0.656   4.413  0.1347 -0.8183 -0.5731
 1152SOL    HW2 3702   1.872   0.731   4.306  0.6288  0.2145 -0.2116
 1153SOL     OW 3703   4.281   0.712   3.554  0.0636 -0.2339  0.0249
 1153SOL    HW1 3704   4.291   0.802   3.524 -0.4544  0.3419  1.4817
 1153SOL    HW2 3705   4.370   0.680   3.564  0.2639  0.3024  0.0029
 1154SOL     OW 3706   4.419   0.451   2.579 -0.0829 -0.0741 -0.4461
 1154SOL    HW1 3707   4.514   0.442   2.579  0.0328  0.8710  0.5213
 1154SOL    HW2 3708   4.389   0.385   2.642  0.1148  0.9211  0.7269
 1155SOL     OW 3709   2.227   1.873   3.803  0.8465  0.2913 -0.4115
 1155SOL    HW1 3710   2.314   1.842   3.777  0.3513 -0.5376 -1.1484
 1155SOL    HW2 3711   2.192   1.803   3.859 -0.1352 -0.3489 -1.7795
 1156SOL     OW 3712   2.599   6.099   0.260  0.7563  0.0105  0.3853
 1156SOL    HW1 3713   2.617   6.089   0.353 -1.7785 -3.0069  0.7073
 1156SOL    HW2 3714   2.504   6.114   0.255  0.2325 -3.0551 -1.6985
 1157SOL     OW 3715   0.861   1.369   0.286  0.3596 -0.4199 -0.9867
 1157SOL    HW1 3716   0.913   1.347   0.208 -1.3255  0.5258 -2.4373
 1157SOL    HW2 3717   0.805   1.293   0.299  1.7126 -1.2590  0.3293
 1158SOL     OW 3718   5.206   5.079   2.946 -0.3152  0.4970 -0.0466
 1158SOL    HW1 3719   5.225   4.997   2.900  0.2884  0.3005  0.5588
 1158SOL    HW2 3720   5.111   5.079   2.956 -0.3117 -0.1605  0.0078
 1159SOL     OW 3721   5.910   3.007   3.904 -0.4380  0.2048  0.2889
 1159SOL    HW1 3722   5.949   3.091   3.881 -0.0869 -0.4677 -1.8982
 1159SOL    HW2 3723   5.817   3.017   3.883 -0.4879  0.2012  0.5079
 1160SOL     OW 3724   2.579   2.560   2.376  0.0901  0.3180 -0.4104
 1160SOL    HW1 3725   2.540   2.594   2.456 -0.9778  0.4434 -0.9697
 1160SOL    HW2 3726   2.651   2.505   2.406 -0.3391  0.3031  0.6372
 1161SOL     OW 3727   1.736   5.950   5.149  0.1340 -0.0209 -0.3404
 1161SOL    HW1 3728   1.746   5.897   5.228 -1.3051  1.7478  1.0891
 1161SOL    HW2 3729   1.825   5.963   5.118  0.8016 -0.0791  1.4501
 1162SOL     OW 3730   3.383   2.899   4.405 -0.2250  0.2397  0.4914
 1162SOL    HW1 3731   3.318   2.832   4.425 -0.5174  0.4120  0.1308
 1162SOL    HW2 3732   3.438   2.903   4.483 -0.0342 -0.6111  0.4059
 1163SOL     OW 3733   2.854   1.011   2.561 -0.0019 -0.2258  0.4660
 1163SOL    HW1 3734   2.807   1.045   2.637 -2.3065  0.8104 -1.2846
 1163SOL    HW2 3735   2.940   1.052   2.566 -0.9509  1.8157  1.2034
 1164SOL     OW 3736   0.723   3.694   2.560 -0.4759  0.1330  0.1876
 1164SOL    HW1 3737   0.768   3.743   2.492  1.1476 -0.3891  0.8426
 1164SOL    HW2 3738   0.791   3.673   2.624 -1.4512 -1.5719  0.7233
 1165SOL     OW 3739   3.240   4.474   4.914  0.2436  0.1907  0.3081
 1165SOL    HW1 3740   3.156   4.432   4.893  0.1775 -0.6236  2.0229
 1165SOL    HW2 3741   3.304   4.404   4.908  0.8008  0.7747 -0.8235
 1166SOL     OW 3742   2.187   3.312   0.964  0.2354  0.2841 -0.5943
 1166SOL    HW1 3743   2.159   3.359   0.886  0.0332  1.8289  0.3667
 1166SOL    HW2 3744   2.277   3.341   0.978  1.0865 -1.7037 -1.4759
 1167SOL     OW 3745   1.946   6.090   2.360 -0.2124  0.1128 -0.3749
 1167SOL    HW1 3746   1.923   6.004   2.325 -1.2154  0.2249 -0.0209
 1167SOL    HW2 3747   1.880   6.150   2.325  0.2406  0.6763 -0.2997
 1168SOL     OW 3748   1.303   0.667   2.676 -0.0779 -0.3289  0.3338
 1168SOL    HW1 3749   1.297   0.763   2.674  2.0961 -0.0544 -3.6858
 1168SOL    HW2 3750   1.382   0.649   2.726  0.0005  0.0520  0.3480
 1169SOL     OW 3751   0.207   1.079   5.792  0.4990 -0.3477 -0.6038
 1169SOL    HW1 3752   0.168   1.040   5.869  1.5126  0.3472  0.3070
 1169SOL    HW2 3753   0.274   1.017   5.764  0.8439 -0.1270 -0.2791
 1170SOL     OW 3754   4.935   3.799   4.585  0.1195 -0.2051  0.1948
 1170SOL    HW1 3755   4.899   3.712   4.601 -0.5430 -0.3352 -1.7401
 1170SOL    HW2 3756   4.858   3.857   4.586  0.0396 -0.1977 -2.0152
 1171SOL     OW 3757   3.632   0.792   0.451 -0.1764  0.1049  0.4122
 1171SOL    HW1 3758   3.612   0.738   0.528 -2.6107  0.4229  0.0831
 1171SOL    HW2 3759   3.610   0.881   0.478  0.7832  0.5078 -0.0739
 1172SOL     OW 3760   4.568   4.621   3.417  0.0087  0.0520 -0.3393
 1172SOL    HW1 3761   4.524   4.588   3.495  0.9072 -1.1758 -0.3152
 1172SOL    HW2 3762   4.545   4.559   3.348  0.7666  0.0379 -0.5879
 1173SOL     OW 3763   0.137   0.186   1.593  0.4192 -0.5202  0.4522
 1173SOL    HW1 3764   0.181   0.231   1.521  1.7495 -1.2059  0.8087
 1173SOL    HW2 3765   0.138   0.094   1.568 -0.4832 -0.6037  0.6607
 1174SOL     OW 3766   0.780   5.084   3.762  0.4899 -0.4038  0.2400
 1174SOL    HW1 3767   0.871   5.057   3.762  0.4495 -0.5427  0.4397
 1174SOL    HW2 3768   0.747   5.057   3.848  0.0683 -0.9852 -0.0991
 1175SOL     OW 3769   1.461   3.576   0.778  0.0547 -0.3657  0.4990
 1175SOL    HW1 3770   1.507   3.529   0.847  0.6837  1.3959  1.3309
 1175SOL    HW2 3771   1.520   3.572   0.703 -0.1853 -1.4155  0.3502
 1176SOL     OW 3772   0.378   0.516   3.271 -0.4411 -0.1586 -0.4127
 1176SOL    HW1 3773   0.296   0.469   3.286 -0.6807  0.0357 -1.0819
 1176SOL    HW2 3774   0.384   0.525   3.176 -0.6198  1.5331 -0.2979
 1177SOL     OW 3775   5.264   3.068   0.676 -0.1898  0.1899 -0.2743
 1177SOL    HW1 3776   5.238   3.029   0.760 -0.6501  0.6647 -0.1882
 1177SOL    HW2 3777   5.211   3.148   0.670  1.0286  1.0386 -0.2373
 1178SOL     OW 3778   5.802   4.695   0.263  0.1582 -0.2975  0.2013
 1178SOL    HW1 3779   5.780   4.727   0.350  0.5038 -0.5127  0.3705
 1178SOL    HW2 3780   5.881   4.743   0.238  1.7352 -2.2030  1.1912
 1179SOL     OW 3781   1.582   4.457   3.980  0.0718  0.3953  0.5378
 1179SOL    HW1 3782   1.627   4.373   3.964 -1.3717 -0.8171  2.4251
 1179SOL    HW2 3783   1.651   4.515   4.013  0.8560 -0.4137  0.3768
 1180SOL     OW 3784   0.413   3.196   4.170  0.7281 -0.2286 -0.1284
 1180SOL    HW1 3785   0.492   3.153   4.137 -0.3347 -1.3732 -1.2704
 1180SOL    HW2 3786   0.346   3.128   4.170 -0.0514  0.4519  1.7970
 1181SOL     OW 3787   0.745   3.567   2.885 -0.6205  0.5390 -0.1856
 1181SOL    HW1 3788   0.723   3.500   2.950 -0.8762 -1.9813 -2.6944
 1181SOL    HW2 3789   0.660   3.599   2.853 -0.4999  1.1096  0.0482
 1182SOL     OW 3790   0.800   3.143   0.714  0.5271 -0.7269  0.0446
 1182SOL    HW1 3791   0.841   3.218   0.670 -1.7578  1.2804  1.0969
 1182SOL    HW2 3792   0.849   3.134   0.796 -0.3232  0.8988  0.7733
 1183SOL     OW 3793   5.678   6.130   0.427  0.4952 -0.0130 -0.1127
 1183SOL    HW1 3794   5.599   6.076   0.428  0.5117 -0.0373 -0.1299
 1183SOL    HW2 3795   5.734   6.090   0.361  1.4918 -1.3684  1.4810
 1184SOL     OW 3796   3.786   5.690   2.358  0.3046  0.1308 -0.3434
 1184SOL    HW1 3797   3.727   5.743   2.411  0.7903  1.2943 -0.9479
 1184SOL    HW2 3798   3.855   5.750   2.330  0.6639 -0.7170 -1.3622
 1185SOL     OW 3799   5.615   0.474   2.454 -0.2395 -0.0361 -0.5079
 1185SOL    HW1 3800   5.691   0.517   2.414  0.1373 -0.8077 -0.6384
 1185SOL    HW2 3801   5.636   0.381   2.452 -0.6444 -0.1708  0.5956
 1186SOL     OW 3802   5.680   2.060   2.077  0.5490  0.4605 -0.8141
 1186SOL    HW1 3803   5.657   2.146   2.112 -3.1711 -1.9146  3.7523
 1186SOL    HW2 3804   5.612   2.042   2.011 -0.8912 -0.1282  0.7404
 1187SOL     OW 3805   1.970   1.572   2.934 -0.5901  0.2611  0.3358
 1187SOL    HW1 3806   2.014   1.656   2.927  0.4158 -0.2289  0.6305
 1187SOL    HW2 3807   1.993   1.526   2.853 -1.7021  0.5081 -0.1510
 1188SOL     OW 3808   5.827   1.300   4.889  0.2593 -0.4905  0.0183
 1188SOL    HW1 3809   5.884   1.226   4.868  1.2012  0.0483  0.5897
 1188SOL    HW2 3810   5.880   1.377   4.869  0.3034  0.0315  1.9239
 1189SOL     OW 3811   4.262   2.669   1.637 -0.7949  0.1981  0.1991
 1189SOL    HW1 3812   4.260   2.576   1.660 -0.7170  0.0980 -0.1848
 1189SOL    HW2 3813   4.353   2.696   1.654 -0.8180  0.2042  0.3136
 1190SOL     OW 3814   3.681   6.106   5.437 -0.4789 -0.3342 -0.4328
 1190SOL    HW1 3815   3.703   6.196   5.414 -0.4731 -0.4965 -1.0804
 1190SOL    HW2 3816   3.617   6.114   5.507  0.2031  0.1613  0.1529
 1191SOL     OW 3817   1.023   3.553   1.718 -0.1753  0.0247  0.0268
 1191SOL    HW1 3818   1.108   3.514   1.694  0.9086  1.4914  1.2813
 1191SOL    HW2 3819   0.974   3.481   1.758  0.3312 -0.9261 -1.0005
 1192SOL     OW 3820   1.240   1.370   0.212  0.0395  0.7505 -0.6669
 1192SOL    HW1 3821   1.238   1.465   0.224 -0.7113  0.6924 -0.3060
 1192SOL    HW2 3822   1.153   1.348   0.178  0.2506  0.2060 -0.8679
 1193SOL     OW 3823   2.144   3.899   1.026 -0.1554  0.2342 -0.5346
 1193SOL    HW1 3824   2.149   3.912   0.931  0.6832  0.5290 -0.4555
 1193SOL    HW2 3825   2.075   3.833   1.037 -0.1995  0.1285 -1.3542
 1194SOL     OW 3826   1.355   1.365   3.547  0.0696  0.7315 -0.6942
 1194SOL    HW1 3827   1.379   1.301   3.614 -1.8905  1.2466  0.6171
 1194SOL    HW2 3828   1.315   1.313   3.478  0.0606  0.3752 -0.4278
 1195SOL     OW 3829   2.192   0.859   6.090  0.1128  0.1826  0.2035
 1195SOL    HW1 3830   2.230   0.840   6.004  1.3216  0.6233  0.6283
 1195SOL    HW2 3831   2.108   0.900   6.070 -0.3648 -1.1879 -0.7515
 1196SOL     OW 3832   5.218   5.028   5.521 -0.3786 -0.0810 -0.2488
 1196SOL    HW1 3833   5.160   5.104   5.531 -0.8166 -0.2699 -1.1768
 1196SOL    HW2 3834   5.281   5.035   5.593 -0.6376  0.9582 -0.1114
 1197SOL     OW 3835   2.720   6.082   4.595  0.0290  0.1166  0.2491
 1197SOL    HW1 3836   2.669   6.013   4.637  0.2104  0.8141  1.6542
 1197SOL    HW2 3837   2.731   6.051   4.505 -1.2605 -0.9246  0.4124
 1198SOL     OW 3838   5.416   5.536   4.231 -0.3340  0.6774 -0.0083
 1198SOL    HW1 3839   5.443   5.628   4.234  0.1426  0.5915 -1.0726
 1198SOL    HW2 3840   5.497   5.487   4.238 -0.3674  0.3852 -1.3635
 1199SOL     OW 3841   5.260   4.689   3.328  0.3468 -1.0410 -0.6364
 1199SOL    HW1 3842   5.243   4.629   3.400 -1.2585 -0.9904 -0.9408
 1199SOL    HW2 3843   5.199   4.761   3.341  0.0398 -1.0239 -2.0309
 1200SOL     OW 3844   2.921   4.333   0.978 -0.4436 -0.7556  0.0572
 1200SOL    HW1 3845   2.886   4.363   0.894  1.0185  2.1559  0.3487
 1200SOL    HW2 3846   2.926   4.413   1.031 -0.1160 -2.2890  2.4801
 1201SOL     OW 3847   1.487   4.243   1.750 -0.6073 -0.5060  0.6723
 1201SOL    HW1 3848   1.480   4.148   1.759  2.6530 -0.7011  2.6469
 1201SOL    HW2 3849   1.411   4.277   1.796 -1.5931 -2.0989  0.3258
 1202SOL     OW 3850   4.951   1.606   5.671 -0.1961 -0.3645 -0.1663
 1202SOL    HW1 3851   4.885   1.555   5.717 -1.1266 -0.2516 -1.3268
 1202SOL    HW2 3852   5.007   1.540   5.629 -0.1523 -0.4466  0.0196
 1203SOL     OW 3853   1.906   1.321   1.276 -0.0529 -0.2100  0.6179
 1203SOL    HW1 3854   1.941   1.404   1.244 -0.9590  0.7763  2.0619
 1203SOL    HW2 3855   1.835   1.300   1.214 -1.8828  1.7424  1.9063
 1204SOL     OW 3856   1.370   1.271   1.333 -0.6376  0.2063 -0.7214
 1204SOL    HW1 3857   1.354   1.187   1.290 -1.3357 -0.0293 -0.0426
 1204SOL    HW2 3858   1.387   1.332   1.262  0.7199 -0.6759 -1.1862
 1205SOL     OW 3859   5.616   0.659   1.033 -0.0616 -0.8715  0.0260
 1205SOL    HW1 3860   5.562   0.582   1.053 -1.8623  0.4037  0.3705
 1205SOL    HW2 3861   5.571   0.702   0.961 -0.4279  1.0558  1.3146
 1206SOL     OW 3862   2.343   5.761   0.301  0.4025 -0.2253 -0.5480
 1206SOL    HW1 3863   2.351   5.792   0.210  0.8290  0.8506 -0.1633
 1206SOL    HW2 3864   2.287   5.826   0.343  1.4594  0.1518  0.3247
 1207SOL     OW 3865   6.114   1.562   4.109 -0.7966 -0.8370  0.0209
 1207SOL    HW1 3866   6.179   1.512   4.059 -1.9218 -1.2509 -1.0867
 1207SOL    HW2 3867   6.108   1.515   4.192 -1.7621 -2.5765 -0.9601
 1208SOL     OW 3868   5.291   5.856   5.358 -0.5455 -0.7832 -0.1050
 1208SOL    HW1 3869   5.224   5.906   5.311 -1.3454 -1.9087 -0.2099
 1208SOL    HW2 3870   5.251   5.770   5.373  0.2724 -0.9558  1.2821
 1209SOL     OW 3871   1.213   4.029   2.926 -0.2179  0.6416  0.0494
 1209SOL    HW1 3872   1.120   4.034   2.950 -0.6378 -1.6961 -0.8292
 1209SOL    HW2 3873   1.215   4.049   2.833  0.2697  1.3089  0.1968
 1210SOL     OW 3874   3.763   4.726   2.749  0.3600  0.3112  0.0620
 1210SOL    HW1 3875   3.690   4.667   2.731  0.9686 -0.0644 -1.3538
 1210SOL    HW2 3876   3.834   4.668   2.777  0.7622  0.4252 -0.6994
 1211SOL     OW 3877   0.657   5.318   5.064  0.8610  0.7623 -0.4608
 1211SOL    HW1 3878   0.580   5.315   5.007  0.0778  0.8804  0.5703
 1211SOL    HW2 3879   0.654   5.236   5.113  0.4418  1.4907  0.7794
 1212SOL     OW 3880   5.376   1.379   3.833  0.4197 -0.0601 -0.1604
 1212SOL    HW1 3881   5.370   1.345   3.923 -3.3542  1.2714  0.2595
 1212SOL    HW2 3882   5.393   1.473   3.844 -0.2977  0.1545 -0.8026
 1213SOL     OW 3883   2.192   1.719   2.268  0.0602 -1.0426  0.1828
 1213SOL    HW1 3884   2.153   1.732   2.355  0.2333 -2.7969  0.5729
 1213SOL    HW2 3885   2.200   1.623   2.260 -0.2654 -0.9309 -1.9129
 1214SOL     OW 3886   6.133   1.127   2.880  0.0289 -0.1975  0.5097
 1214SOL    HW1 3887   6.148   1.037   2.911  1.3517  0.5408  2.2136
 1214SOL    HW2 3888   6.039   1.142   2.894 -0.1473 -1.2102  0.4839
 1215SOL     OW 3889   2.136   0.422   1.075 -0.6469 -0.1627  0.0312
 1215SOL    HW1 3890   2.220   0.391   1.042 -0.8285  0.8270 -1.4654
 1215SOL    HW2 3891   2.144   0.517   1.076 -0.6720 -0.1075  2.9705
 1216SOL     OW 3892   3.559   3.064   3.910 -0.2264  0.0974  0.2497
 1216SOL    HW1 3893   3.581   3.021   3.828 -0.3295 -1.3734  0.9597
 1216SOL    HW2 3894   3.642   3.067   3.959 -0.2690  0.5016  0.3031
 1217SOL     OW 3895   0.484   1.134   5.049 -0.0826 -0.1843 -0.2501
 1217SOL    HW1 3896   0.473   1.040   5.065 -0.1336 -0.0788  0.3413
 1217SOL    HW2 3897   0.578   1.149   5.060  0.0081 -0.2654 -0.8927
 1218SOL     OW 3898   2.264   0.058   0.879  0.3016  0.1770  0.0298
 1218SOL    HW1 3899   2.278   0.005   0.957  2.2756 -0.9171 -0.9867
 1218SOL    HW2 3900   2.247   0.146   0.912 -2.1149 -0.8154  1.7456
 1219SOL     OW 3901   1.905   2.730   5.861  0.2061 -0.0051 -0.3099
 1219SOL    HW1 3902   1.940   2.722   5.772 -0.2314  2.0141 -0.7102
 1219SOL    HW2 3903   1.906   2.824   5.879 -1.0024 -0.2589  1.3083
 1220SOL     OW 3904   3.062   4.956   4.626 -0.2279 -0.4210 -0.2242
 1220SOL    HW1 3905   3.108   4.933   4.707  0.8662 -0.3403 -0.8115
 1220SOL    HW2 3906   3.078   4.883   4.567  0.1973  0.1627 -0.8523
 1221SOL     OW 3907   1.373   5.017   0.473  0.0298 -0.1750 -0.0867
 1221SOL    HW1 3908   1.372   5.063   0.557  1.8390  0.8237 -0.5501
 1221SOL    HW2 3909   1.289   4.972   0.469 -1.2686  2.0157  1.0017
 1222SOL     OW 3910   4.381   5.458   0.044 -0.0461  0.4977  0.3402
 1222SOL    HW1 3911   4.439   5.532   0.024 -0.5418  1.0264  0.8195
 1222SOL    HW2 3912   4.309   5.497   0.093 -1.9677  0.2661 -2.0746
 1223SOL     OW 3913   5.060   6.085   1.228  0.4605  0.2052 -0.3977
 1223SOL    HW1 3914   4.969   6.094   1.254 -0.2172  1.5528 -2.8991
 1223SOL    HW2 3915   5.057   6.040   1.144  2.0146  0.9675 -0.9011
 1224SOL     OW 3916   3.622   4.064   3.351  0.0198 -0.3321 -0.5768
 1224SOL    HW1 3917   3.638   4.157   3.365  0.9998 -0.8861  2.9346
 1224SOL    HW2 3918   3.542   4.045   3.399 -0.8821 -1.1433 -2.3002
 1225SOL     OW 3919   4.482   5.423   5.005  0.2891  0.9422 -0.3640
 1225SOL    HW1 3920   4.544   5.488   5.036 -0.9256  1.4325  1.1678
 1225SOL    HW2 3921   4.504   5.343   5.053  0.7213  0.6828 -0.9902
 1226SOL     OW 3922   5.724   4.056   3.576  0.9144  0.0808 -0.2493
 1226SOL    HW1 3923   5.741   3.963   3.591 -0.0746 -0.2435 -1.0136
 1226SOL    HW2 3924   5.811   4.095   3.572  1.3419 -0.7684  0.2948
 1227SOL     OW 3925   5.370   1.569   1.686 -0.6893  0.4731  0.3205
 1227SOL    HW1 3926   5.437   1.595   1.624 -1.0200  0.3384 -0.0977
 1227SOL    HW2 3927   5.295   1.545   1.632 -0.5297 -0.9591  0.6954
 1228SOL     OW 3928   1.764   3.864   3.020  0.1973 -0.6643 -0.5025
 1228SOL    HW1 3929   1.698   3.846   3.087  0.4726 -3.5639 -0.9105
 1228SOL    HW2 3930   1.714   3.867   2.938  0.1820  0.5393 -0.4749
 1229SOL     OW 3931   0.485   5.891   5.911  0.7344 -0.1364 -0.7931
 1229SOL    HW1 3932   0.425   5.859   5.843 -0.0344 -0.7748  0.1585
 1229SOL    HW2 3933   0.524   5.970   5.874 -1.5070  0.9210 -1.0151
 1230SOL     OW 3934   2.533   4.389   1.953  0.2960 -0.3565  0.2504
 1230SOL    HW1 3935   2.622   4.398   1.986  0.8581 -0.0494 -1.2645
 1230SOL    HW2 3936   2.537   4.425   1.864 -0.8781 -2.1356 -0.5708
 1231SOL     OW 3937   1.372   0.717   0.186  0.2206 -0.0236  0.3031
 1231SOL    HW1 3938   1.304   0.650   0.185 -0.5433  0.7113  0.9088
 1231SOL    HW2 3939   1.421   0.703   0.105 -0.9745 -0.2644 -0.4115
 1232SOL     OW 3940   4.166   2.119   3.437 -0.1586 -0.3213  0.1619
 1232SOL    HW1 3941   4.120   2.193   3.397 -0.7158 -0.0695  1.2183
 1232SOL    HW2 3942   4.253   2.154   3.460 -0.5376  0.1288  0.9675
 1233SOL     OW 3943   1.000   3.222   0.909 -0.0969 -0.0710 -0.7066
 1233SOL    HW1 3944   0.950   3.303   0.914 -0.9425 -0.5959 -0.3565
 1233SOL    HW2 3945   1.082   3.247   0.868  0.1098  1.1720  0.3848
 1234SOL     OW 3946   5.497   0.930   2.646  0.3213  0.4139 -0.1848
 1234SOL    HW1 3947   5.453   0.912   2.563  0.0557 -0.1740  0.0772
 1234SOL    HW2 3948   5.507   1.026   2.648  1.3278  0.3655 -1.3906
 1235SOL     OW 3949   4.612   5.671   2.292 -0.4439  0.3250  0.1058
 1235SOL    HW1 3950   4.699   5.635   2.275 -1.8901 -2.3228 -2.8214
 1235SOL    HW2 3951   4.602   5.666   2.387  2.2955  0.0647  0.4726
 1236SOL     OW 3952   1.198   3.187   1.888 -0.5408  0.1449  0.6023
 1236SOL    HW1 3953   1.202   3.099   1.851 -0.4324  0.6459 -0.6622
 1236SOL    HW2 3954   1.180   3.174   1.981  0.6058 -1.2459  0.6697
 1237SOL     OW 3955   3.232   0.222   2.854  0.4411  0.5249  0.1629
 1237SOL    HW1 3956   3.284   0.202   2.932  1.3172  2.1331  0.0387
 1237SOL    HW2 3957   3.294   0.266   2.795 -0.4115  0.0671 -1.1078
 1238SOL     OW 3958   5.841   0.120   2.652 -0.4577  0.0838 -0.6035
 1238SOL    HW1 3959   5.869   0.207   2.678 -1.3626 -0.3642  2.2586
 1238SOL    HW2 3960   5.914   0.063   2.675 -1.5550 -0.4222  2.1345
 1239SOL     OW 3961   2.674   3.174   1.407 -0.4448 -0.1380 -0.2342
 1239SOL    HW1 3962   2.752   3.187   1.355  0.1228  0.8892  0.8242
 1239SOL    HW2 3963   2.615   3.123   1.351  0.7872 -0.5305 -1.2091
 1240SOL     OW 3964   2.863   4.387   2.599  0.5053 -0.2674 -0.0208
 1240SOL    HW1 3965   2.842   4.371   2.691  0.2296  0.7532  0.0997
 1240SOL    HW2 3966   2.949   4.428   2.601  0.7623 -0.7809 -0.2663
 1241SOL     OW 3967   3.930   4.177   0.177  0.2589 -0.1777  0.1095
 1241SOL    HW1 3968   3.843   4.217   0.176 -0.3346 -1.4113 -0.5034
 1241SOL    HW2 3969   3.983   4.235   0.122  0.1430  1.1917  1.3833
 1242SOL     OW 3970   1.690   1.759   0.441  0.1763 -0.0071  0.0278
 1242SOL    HW1 3971   1.626   1.692   0.465 -2.2376  0.7435 -3.5148
 1242SOL    HW2 3972   1.651   1.841   0.474  0.7377  0.1778  0.2421
 1243SOL     OW 3973   2.772   1.263   2.161 -0.1352 -0.8307  0.3975
 1243SOL    HW1 3974   2.699   1.227   2.110 -0.1333  0.0229 -0.2406
 1243SOL    HW2 3975   2.804   1.336   2.108  1.5523 -1.5361  0.4091
 1244SOL     OW 3976   5.583   3.367   2.992  0.6585 -0.0575 -0.1970
 1244SOL    HW1 3977   5.542   3.452   3.008  1.5306  0.3083  0.1664
 1244SOL    HW2 3978   5.594   3.329   3.079 -0.4728 -0.9219 -0.4044
 1245SOL     OW 3979   2.390   4.805   0.208 -0.3554 -0.7633 -0.4035
 1245SOL    HW1 3980   2.419   4.735   0.150  0.3314 -0.5363 -0.3421
 1245SOL    HW2 3981   2.471   4.841   0.245 -0.7855 -0.9471  0.7569
 1246SOL     OW 3982   3.200   0.844   3.295  0.0399  0.5272 -0.1366
 1246SOL    HW1 3983   3.220   0.931   3.330 -0.7219  0.6910 -0.0890
 1246SOL    HW2 3984   3.120   0.857   3.244 -0.2868 -0.2252  0.1763
 1247SOL     OW 3985   0.682   3.367   4.191  0.0388 -0.5127  0.2652
 1247SOL    HW1 3986   0.619   3.418   4.241  1.3632 -0.9648  2.5632
 1247SOL    HW2 3987   0.643   3.358   4.104 -1.8081  1.4089  0.8118
 1248SOL     OW 3988   2.485   3.039   1.271 -0.0598 -0.4342  0.5307
 1248SOL    HW1 3989   2.423   3.079   1.210  0.9103  0.6516  0.2116
 1248SOL    HW2 3990   2.435   3.028   1.352 -0.5462  0.9405  0.4495
 1249SOL     OW 3991   0.735   3.077   4.742  0.3464  0.2898  0.7324
 1249SOL    HW1 3992   0.813   3.036   4.704  0.4619  0.7315  0.4859
 1249SOL    HW2 3993   0.664   3.015   4.723  0.1919  0.9849 -1.2211
 1250SOL     OW 3994   5.180   0.212   0.198  0.2801 -0.1271  0.0165
 1250SOL    HW1 3995   5.232   0.287   0.227 -0.4018  0.3717  0.0004
 1250SOL    HW2 3996   5.244   0.148   0.168  1.0049 -0.5448  2.2708
 1251SOL     OW 3997   6.018   3.695   5.028 -0.0618  0.6990 -0.7833
 1251SOL    HW1 3998   6.049   3.695   4.938  1.3264 -0.2897 -0.3252
 1251SOL    HW2 3999   5.927   3.727   5.021 -0.5451 -0.8996 -2.7080
 1252SOL     OW 4000   5.940   2.825   3.261  0.0632  0.5809  0.0885
 1252SOL    HW1 4001   6.004   2.761   3.229  0.3504  0.0764  1.6061
 1252SOL    HW2 4002   5.989   2.907   3.267  0.2770  0.4460  0.2061
 1253SOL     OW 4003   0.463   5.898   3.838  0.7427 -0.2655  0.1062
 1253SOL    HW1 4004   0.375   5.869   3.862  0.5124 -0.6895 -1.1854
 1253SOL    HW2 4005   0.522   5.841   3.888  0.2946 -0.2179  0.6994
 1254SOL     OW 4006   4.735   0.580   2.828  0.0662  0.3007  0.2944
 1254SOL    HW1 4007   4.677   0.606   2.899  0.8880  1.8264  0.4575
 1254SOL    HW2 4008   4.788   0.509   2.866 -1.0876 -0.5239  0.4069
 1255SOL     OW 4009   2.630   4.680   5.582  0.2765  0.2264 -0.0337
 1255SOL    HW1 4010   2.610   4.588   5.565  0.2390  0.1185  0.5563
 1255SOL    HW2 4011   2.564   4.728   5.533 -0.8087 -0.1103  1.0387
 1256SOL     OW 4012   0.608   6.071   2.961 -0.4643  0.0030  0.6653
 1256SOL    HW1 4013   0.625   6.125   3.038  0.3725  0.4119  0.2083
 1256SOL    HW2 4014   0.513   6.061   2.960 -0.4618 -0.3264  1.9522
 1257SOL     OW 4015   1.350   1.440   4.117  0.6538 -0.0473 -0.1038
 1257SOL    HW1 4016   1.301   1.474   4.192  1.8954 -1.7349  1.5855
 1257SOL    HW2 4017   1.284   1.428   4.049 -1.0998 -1.0229  1.6378
 1258SOL     OW 4018   5.240   5.499   0.470 -0.0440  0.2835 -0.3379
 1258SOL    HW1 4019   5.289   5.427   0.511 -0.0223  0.2028 -0.5063
 1258SOL    HW2 4020   5.154   5.462   0.452 -0.4274  0.6477  0.6569
 1259SOL     OW 4021   3.723   1.461   3.885 -0.1334  0.2679 -0.5900
 1259SOL    HW1 4022   3.768   1.459   3.801 -0.9402  0.0778 -1.0307
 1259SOL    HW2 4023   3.773   1.401   3.941 -0.3462 -0.6224 -1.3308
 1260SOL     OW 4024   0.877   0.690   4.769  0.8823 -0.3512 -0.4949
 1260SOL    HW1 4025   0.954   0.640   4.797  1.0315 -1.1786 -2.2604
 1260SOL    HW2 4026   0.818   0.623   4.735  0.1393  0.4790 -0.8316
 1261SOL     OW 4027   5.433   4.039   0.887 -0.2499 -0.0622 -0.1987
 1261SOL    HW1 4028   5.524   4.009   0.887 -0.4270 -0.6326 -0.6364
 1261SOL    HW2 4029   5.387   3.974   0.833 -0.8003  0.5636 -0.4909
 1262SOL     OW 4030   3.955   1.705   4.140  0.5859  0.8551 -0.0123
 1262SOL    HW1 4031   3.866   1.735   4.159 -0.5471 -0.9951 -1.9951
 1262SOL    HW2 4032   3.979   1.651   4.215 -0.9148 -0.5221 -0.4776
 1263SOL     OW 4033   2.912   3.538   0.241  0.5622  0.0514  0.2262
 1263SOL    HW1 4034   2.946   3.573   0.324 -0.6826  0.0254  0.7722
 1263SOL    HW2 4035   2.933   3.444   0.245  0.8380  0.1141  0.3317
 1264SOL     OW 4036   0.924   1.209   4.267 -0.5628  0.2535  0.1464
 1264SOL    HW1 4037   0.940   1.223   4.361 -1.5516  0.1139  0.3465
 1264SOL    HW2 4038   0.913   1.115   4.258 -0.6001  0.2805 -0.0875
 1265SOL     OW 4039   6.084   5.812   3.193  0.0494 -0.4302  0.1165
 1265SOL    HW1 4040   6.103   5.726   3.231 -0.5413  0.4531  2.5849
 1265SOL    HW2 4041   5.998   5.835   3.228  0.7316  1.6758  0.5474
 1266SOL     OW 4042   3.441   4.890   5.183  0.1161  0.4965 -0.4949
 1266SOL    HW1 4043   3.506   4.919   5.119  0.8534 -0.3435 -0.1449
 1266SOL    HW2 4044   3.380   4.836   5.132  1.3300 -1.1049 -0.3266
 1267SOL     OW 4045   4.700   2.805   5.930  0.2092 -0.2806  0.2794
 1267SOL    HW1 4046   4.658   2.871   5.986  0.4457 -1.1090  1.4813
 1267SOL    HW2 4047   4.789   2.839   5.916  0.2165 -0.1658  0.5962
 1268SOL     OW 4048   1.252   4.576   1.259 -0.0698 -1.0634 -0.4843
 1268SOL    HW1 4049   1.184   4.541   1.201  0.1341 -1.1517 -0.6719
 1268SOL    HW2 4050   1.316   4.616   1.200  0.0128 -0.9262 -0.3048
 1269SOL     OW 4051   0.601   3.721   5.648 -0.1162  0.6375  0.2336
 1269SOL    HW1 4052   0.663   3.674   5.593 -0.6816 -1.1520  1.0412
 1269SOL    HW2 4053   0.626   3.698   5.737 -1.1419  0.9258  0.6131
 1270SOL     OW 4054   4.474   0.556   1.183  0.2911 -0.7207 -0.3825
 1270SOL    HW1 4055   4.472   0.649   1.164 -1.5200 -0.4343  0.9286
 1270SOL    HW2 4056   4.567   0.532   1.179  0.8958  1.3458  0.2342
 1271SOL     OW 4057   5.091   0.373   5.383  0.0150 -0.1406  0.2157
 1271SOL    HW1 4058   5.103   0.312   5.311 -2.8652  0.1017 -0.5719
 1271SOL    HW2 4059   5.020   0.337   5.435  0.5762  0.8130  1.7297
 1272SOL     OW 4060   4.972   2.878   3.643 -0.2855  0.2662  0.2930
 1272SOL    HW1 4061   4.890   2.925   3.656 -0.7190 -0.2874 -0.4302
 1272SOL    HW2 4062   4.966   2.802   3.701 -0.3510  0.1319  0.1075
 1273SOL     OW 4063   2.407   5.406   4.438  0.0596  0.0842 -0.6571
 1273SOL    HW1 4064   2.491   5.452   4.438  1.4501 -2.2640 -1.0990
 1273SOL    HW2 4065   2.428   5.317   4.467 -2.4658 -0.3416  0.1605
 1274SOL     OW 4066   5.608   5.793   5.748  0.0918  0.1832 -0.3413
 1274SOL    HW1 4067   5.683   5.736   5.730  0.0034 -0.0145 -0.0859
 1274SOL    HW2 4068   5.539   5.760   5.690 -0.8535 -1.7781  1.7291
 1275SOL     OW 4069   3.820   2.500   3.193  0.0541 -0.1194  0.2036
 1275SOL    HW1 4070   3.834   2.552   3.272  2.4443 -1.7222  0.9529
 1275SOL    HW2 4071   3.732   2.523   3.164 -0.3848  1.5127  2.5691
 1276SOL     OW 4072   0.598   1.240   0.381 -0.0111  0.1817  1.0279
 1276SOL    HW1 4073   0.542   1.266   0.453 -0.6935  2.0977 -0.1165
 1276SOL    HW2 4074   0.538   1.230   0.306  0.8858  0.0107  0.3105
 1277SOL     OW 4075   4.643   2.972   3.931  0.1009 -0.4420  0.4557
 1277SOL    HW1 4076   4.571   2.932   3.881  0.1707 -1.7794  1.3712
 1277SOL    HW2 4077   4.710   2.903   3.934  0.7284  0.1879  1.0627
 1278SOL     OW 4078   5.858   2.948   5.343 -0.1034 -0.3078 -0.5298
 1278SOL    HW1 4079   5.928   2.883   5.334  0.7673  0.7210 -1.5463
 1278SOL    HW2 4080   5.856   2.992   5.258 -1.9788 -0.2687 -0.5153
 1279SOL     OW 4081   4.772   5.105   4.438  0.5219 -0.3112 -0.7517
 1279SOL    HW1 4082   4.679   5.082   4.435  0.6009 -1.3770  2.2412
 1279SOL    HW2 4083   4.817   5.022   4.453  1.3808  0.7371  3.6212
 1280SOL     OW 4084   2.518   3.222   0.816  0.8252 -0.2722  0.1027
 1280SOL    HW1 4085   2.546   3.228   0.907  1.2802 -0.6557 -0.0100
 1280SOL    HW2 4086   2.559   3.142   0.783  0.7551 -0.0773 -0.4729
 1281SOL     OW 4087   1.724   1.904   2.804  0.6529  0.2321  0.5289
 1281SOL    HW1 4088   1.762   1.902   2.716 -0.1544 -0.1237  0.1800
 1281SOL    HW2 4089   1.661   1.976   2.801 -1.0730 -1.2371  0.0763
 1282SOL     OW 4090   4.990   1.334   3.579 -0.3804 -0.4144 -0.0991
 1282SOL    HW1 4091   4.999   1.303   3.669 -1.7447  1.1003  0.6122
 1282SOL    HW2 4092   4.975   1.428   3.588  1.0622  0.0636 -2.0113
 1283SOL     OW 4093   3.909   5.467   0.893  0.4305  0.2742  0.1461
 1283SOL    HW1 4094   3.968   5.392   0.884  1.5091  1.2134 -0.9206
 1283SOL    HW2 4095   3.853   5.445   0.968  0.5467 -1.6917 -0.2979
 1284SOL     OW 4096   1.313   5.145   1.052 -0.1091  0.1042  0.2319
 1284SOL    HW1 4097   1.318   5.099   1.136  0.0644 -0.3197 -0.0050
 1284SOL    HW2 4098   1.307   5.075   0.987 -2.2797  0.4513  0.0055
 1285SOL     OW 4099   5.023   2.827   3.341 -0.5426 -0.6028 -0.2734
 1285SOL    HW1 4100   5.116   2.846   3.329 -0.8192  1.0867 -0.0128
 1285SOL    HW2 4101   5.015   2.805   3.434 -0.7304  1.8380  0.3738
 1286SOL     OW 4102   0.838   0.572   3.357 -0.6618 -0.8669 -0.6738
 1286SOL    HW1 4103   0.899   0.595   3.287 -0.8496 -1.4897 -1.0475
 1286SOL    HW2 4104   0.891   0.528   3.423 -0.0595  1.5778  0.6022
 1287SOL     OW 4105   2.448   3.622   4.933  0.3765 -0.0606  0.3769
 1287SOL    HW1 4106   2.352   3.617   4.939  0.4046 -0.0435  0.9686
 1287SOL    HW2 4107   2.467   3.615   4.840 -0.0381 -3.7267  0.4016
 1288SOL     OW 4108   1.744   5.627   0.845  0.0575 -0.0727  0.4694
 1288SOL    HW1 4109   1.774   5.667   0.764 -2.6790 -1.5195 -1.4481
 1288SOL    HW2 4110   1.785   5.540   0.846 -1.0939 -0.6489 -0.2407
 1289SOL     OW 4111   5.239   2.513   5.388 -0.0580 -0.1214 -0.2186
 1289SOL    HW1 4112   5.204   2.551   5.468  1.1505 -0.9218  0.7251
 1289SOL    HW2 4113   5.163   2.508   5.329 -0.6013  2.1369  0.1879
 1290SOL     OW 4114   2.507   4.714   4.681  0.0154 -0.2089  0.6939
 1290SOL    HW1 4115   2.568   4.641   4.684 -0.1319 -0.3452  0.3967
 1290SOL    HW2 4116   2.423   4.676   4.707 -0.3176 -0.4132 -0.6370
 1291SOL     OW 4117   1.004   1.611   2.862 -0.1037 -0.7732  0.3265
 1291SOL    HW1 4118   0.934   1.643   2.918  0.3213 -1.3382  1.2080
 1291SOL    HW2 4119   1.057   1.555   2.919  2.0691  1.0023  0.1736
 1292SOL     OW 4120   0.263   5.346   2.626 -0.1956 -0.2429  0.0489
 1292SOL    HW1 4121   0.220   5.425   2.594  0.0721  0.4191  1.2411
 1292SOL    HW2 4122   0.265   5.287   2.551 -2.3322  0.0501 -0.2908
 1293SOL     OW 4123   3.199   1.847   3.572 -0.1581 -0.0545  0.5191
 1293SOL    HW1 4124   3.275   1.790   3.570 -0.0461  0.1056 -0.6434
 1293SOL    HW2 4125   3.188   1.876   3.481 -1.8746 -0.4400  0.5681
 1294SOL     OW 4126   0.438   5.609   5.097 -0.5016 -0.4159  0.2309
 1294SOL    HW1 4127   0.448   5.565   5.012  0.7581 -0.1392  0.2148
 1294SOL    HW2 4128   0.343   5.620   5.108 -0.6867 -0.5940 -1.0682
 1295SOL     OW 4129   4.151   6.077   3.810  0.0860  0.0359  0.5059
 1295SOL    HW1 4130   4.149   6.094   3.716  0.1873  0.2785  0.5480
 1295SOL    HW2 4131   4.226   6.018   3.821  0.8281  0.9712  0.5887
 1296SOL     OW 4132   0.859   3.533   3.709 -0.1632 -0.3346 -0.1243
 1296SOL    HW1 4133   0.803   3.535   3.787  1.2359  0.4728  0.9203
 1296SOL    HW2 4134   0.921   3.463   3.725  2.4619  2.0872  1.3147
 1297SOL     OW 4135   0.427   1.595   3.347  0.2789 -0.2542 -0.0624
 1297SOL    HW1 4136   0.350   1.546   3.319  0.1134 -0.3508  0.5465
 1297SOL    HW2 4137   0.465   1.542   3.417  0.4469  0.1855  0.1833
 1298SOL     OW 4138   1.993   2.532   6.015 -0.1237  0.1208 -0.0472
 1298SOL    HW1 4139   1.989   2.614   5.967  0.7904 -0.5565 -1.3581
 1298SOL    HW2 4140   2.015   2.466   5.949 -0.5866 -1.1495  0.9995
 1299SOL     OW 4141   5.967   1.823   5.939 -0.4840  0.8039 -0.2316
 1299SOL    HW1 4142   6.039   1.838   5.999 -0.5316  1.5918 -0.3511
 1299SOL    HW2 4143   5.972   1.896   5.877  0.8557 -1.0641 -2.5067
 1300SOL     OW 4144   1.844   5.234   4.095  0.3575 -0.2052  0.3758
 1300SOL    HW1 4145   1.939   5.221   4.092  0.4061 -0.1748  1.3412
 1300SOL    HW2 4146   1.831   5.291   4.171 -0.4802 -0.6358  0.5647
 1301SOL     OW 4147   5.740   2.177   3.223  0.2974 -0.0199  0.0285
 1301SOL    HW1 4148   5.809   2.234   3.258  0.3372 -0.5497  0.8724
 1301SOL    HW2 4149   5.784   2.093   3.209 -0.1190 -0.2974  0.3523
 1302SOL     OW 4150   4.913   0.552   1.989 -0.2569  0.4903 -0.5101
 1302SOL    HW1 4151   4.905   0.539   2.084 -3.0786  0.8225 -0.6289
 1302SOL    HW2 4152   4.842   0.499   1.952  0.6091  0.6149 -2.4270
 1303SOL     OW 4153   5.936   1.342   5.423 -0.1809 -0.1902  0.1001
 1303SOL    HW1 4154   5.884   1.342   5.503 -1.0024  0.4744 -0.4049
 1303SOL    HW2 4155   5.878   1.304   5.357  1.2983 -2.9417  0.2566
 1304SOL     OW 4156   5.525   0.206   0.519 -0.0224  0.3847  0.1592
 1304SOL    HW1 4157   5.432   0.185   0.517 -0.0973  0.7481 -1.2814
 1304SOL    HW2 4158   5.568   0.128   0.484  0.1660  0.4158  0.3219
 1305SOL     OW 4159   2.077   1.322   0.378 -0.1838 -0.0481 -0.2717
 1305SOL    HW1 4160   2.106   1.232   0.368  0.9947  0.2969 -0.1665
 1305SOL    HW2 4161   2.112   1.349   0.464  1.4413  1.1876 -1.2650
 1306SOL     OW 4162   0.019   3.639   5.742 -0.6551 -0.4158 -0.1631
 1306SOL    HW1 4163  -0.056   3.581   5.726 -0.1590 -0.6767 -1.7199
 1306SOL    HW2 4164   0.051   3.661   5.655  2.2647 -1.8517  0.4307
 1307SOL     OW 4165   0.814   1.727   5.724 -0.1675  0.1342  0.2130
 1307SOL    HW1 4166   0.900   1.686   5.712  0.9803  2.7470 -1.5807
 1307SOL    HW2 4167   0.774   1.724   5.637 -0.4929  1.7338  0.2794
 1308SOL     OW 4168   3.632   4.882   4.468  0.1944  0.3345  0.1222
 1308SOL    HW1 4169   3.645   4.872   4.563 -0.1845  1.0313  0.2519
 1308SOL    HW2 4170   3.537   4.890   4.458  0.2768  0.8183 -0.2640
 1309SOL     OW 4171   3.263   2.853   6.014  0.2104 -0.2376  0.0773
 1309SOL    HW1 4172   3.224   2.886   6.095  0.7167 -1.9848  1.0740
 1309SOL    HW2 4173   3.203   2.784   5.985  0.8683 -0.7164 -0.1524
 1310SOL     OW 4174   5.355   4.848   0.634 -0.0600 -0.1152  0.6224
 1310SOL    HW1 4175   5.314   4.787   0.572  0.5766 -0.3764  0.4562
 1310SOL    HW2 4176   5.288   4.862   0.701 -1.5827  1.7767 -1.1465
 1311SOL     OW 4177   5.833   0.894   0.288 -0.0434 -0.4165 -0.3825
 1311SOL    HW1 4178   5.797   0.955   0.223  0.8238 -1.5219 -2.0000
 1311SOL    HW2 4179   5.871   0.824   0.235  1.4127 -0.9957  1.3374
 1312SOL     OW 4180   1.484   1.643   0.856  0.1948 -0.5351 -0.4111
 1312SOL    HW1 4181   1.539   1.684   0.922 -0.0468  0.6969 -0.9405
 1312SOL    HW2 4182   1.540   1.577   0.815  1.1246  0.3211 -0.5674
 1313SOL     OW 4183   0.991   1.778   1.653  0.0757  0.2097  0.3455
 1313SOL    HW1 4184   0.997   1.781   1.557 -0.4774  0.9898  0.3264
 1313SOL    HW2 4185   0.898   1.791   1.672  0.0601 -0.7652  0.9702
 1314SOL     OW 4186   4.550   1.499   2.209 -0.0965 -0.1945  0.0662
 1314SOL    HW1 4187   4.496   1.420   2.215 -1.9271  0.8357 -1.8669
 1314SOL    HW2 4188   4.500   1.565   2.257  0.6046  0.2211  0.2318
 1315SOL     OW 4189   4.999   2.879   1.150  0.2781 -0.0348  0.2237
 1315SOL    HW1 4190   4.946   2.876   1.070  1.9749 -0.5628 -0.9304
 1315SOL    HW2 4191   4.955   2.944   1.205  0.6052  2.5417 -2.3190
 1316SOL     OW 4192   5.089   1.309   5.658 -0.2474 -0.2659  0.5184
 1316SOL    HW1 4193   5.178   1.306   5.623 -0.2620 -0.3620  0.4912
 1316SOL    HW2 4194   5.071   1.220   5.689 -0.3638 -0.2672  0.4500
 1317SOL     OW 4195   2.228   5.895   3.701 -0.2737  0.2250 -0.7830
 1317SOL    HW1 4196   2.238   5.802   3.682 -1.7246  0.1191 -1.0861
 1317SOL    HW2 4197   2.159   5.925   3.641 -1.3563  1.0114  0.7986
 1318SOL     OW 4198   6.138   5.732   0.439 -0.1548 -0.1805 -0.0007
 1318SOL    HW1 4199   6.122   5.649   0.484 -0.3254  0.2875  0.8254
 1318SOL    HW2 4200   6.115   5.715   0.348  1.0885 -1.4055 -0.1106
 1319SOL     OW 4201   5.660   1.637   2.086  0.4415 -0.5833 -0.3713
 1319SOL    HW1 4202   5.657   1.573   2.014  0.0745 -0.2279 -0.6775
 1319SOL    HW2 4203   5.635   1.586   2.163 -0.7082 -0.6369 -0.7517
 1320SOL     OW 4204   4.025   4.271   3.569 -0.3686  0.0543  0.4664
 1320SOL    HW1 4205   4.103   4.326   3.561 -2.0368  2.3664 -1.8148
 1320SOL    HW2 4206   3.999   4.254   3.478 -1.9906 -1.4491  1.1644
 1321SOL     OW 4207   4.641   4.521   5.823 -0.4052 -0.4688  0.1270
 1321SOL    HW1 4208   4.691   4.602   5.821  0.0639 -0.6772  1.7297
 1321SOL    HW2 4209   4.697   4.456   5.781 -0.0745 -0.3127  0.3262
 1322SOL     OW 4210   3.041   0.152   3.142  0.0631 -0.4686 -0.1601
 1322SOL    HW1 4211   2.968   0.121   3.196  0.1633 -3.0131 -1.3613
 1322SOL    HW2 4212   3.002   0.219   3.086 -1.5668 -2.1672 -1.1842
 1323SOL     OW 4213   2.003   5.287   1.316 -0.2390  0.7332  0.0789
 1323SOL    HW1 4214   2.073   5.346   1.342  0.2042  0.5098 -0.6026
 1323SOL    HW2 4215   2.013   5.211   1.374  0.0076  0.7511  0.0604
 1324SOL     OW 4216   4.876   4.828   1.228  0.6644 -0.3090 -0.2478
 1324SOL    HW1 4217   4.876   4.748   1.176 -0.1074 -3.6981  4.2901
 1324SOL    HW2 4218   4.784   4.856   1.228  0.8922  0.5378 -1.6317
 1325SOL     OW 4219   4.858   3.119   2.633  1.1318  0.0241 -0.7603
 1325SOL    HW1 4220   4.788   3.148   2.691  0.6997  0.6028 -1.5571
 1325SOL    HW2 4221   4.825   3.039   2.593  1.5214 -0.5013 -0.0572
 1326SOL     OW 4222   3.222   2.694   4.441 -0.6635 -0.1204  0.2626
 1326SOL    HW1 4223   3.236   2.604   4.413 -0.1706 -0.7484  2.3526
 1326SOL    HW2 4224   3.166   2.687   4.518 -0.5476  1.3537  0.5165
 1327SOL     OW 4225   5.487   1.507   4.063  0.3889  0.1522 -0.1499
 1327SOL    HW1 4226   5.546   1.525   4.136 -2.0937  0.5380  1.9016
 1327SOL    HW2 4227   5.434   1.586   4.054 -2.7155 -1.5892  1.0971
 1328SOL     OW 4228   0.680   4.751   3.953 -0.1278  0.2467 -0.9057
 1328SOL    HW1 4229   0.754   4.702   3.989 -0.6757 -0.2758 -0.4711
 1328SOL    HW2 4230   0.609   4.687   3.946 -0.8453  0.9553 -0.3561
 1329SOL     OW 4231   5.550   3.377   1.161  0.5698  0.3892 -0.3378
 1329SOL    HW1 4232   5.540   3.470   1.137 -0.8894  0.3666  0.0837
 1329SOL    HW2 4233   5.552   3.331   1.077  0.5489  0.7467 -0.5397
 1330SOL     OW 4234   2.921   1.139   0.158  0.1689 -0.2371  0.4347
 1330SOL    HW1 4235   2.898   1.227   0.189 -1.2694 -0.2357 -0.5403
 1330SOL    HW2 4236   2.999   1.152   0.104  0.1623  0.3758  0.5654
 1331SOL     OW 4237   3.748   2.272   3.002 -0.4953 -0.3325  0.2247
 1331SOL    HW1 4238   3.788   2.294   3.086  1.8896 -2.7158 -0.1526
 1331SOL    HW2 4239   3.722   2.356   2.965  3.5183  1.4384  0.9332
 1332SOL     OW 4240   3.346   6.036   3.837 -0.0499  0.2775 -0.6036
 1332SOL    HW1 4241   3.343   5.952   3.882  0.0173  0.1711 -0.7977
 1332SOL    HW2 4242   3.367   6.014   3.746  2.0600  0.6357 -0.2583
 1333SOL     OW 4243   4.178   0.494   1.461 -0.6202  0.7176  0.3861
 1333SOL    HW1 4244   4.181   0.440   1.540  1.1607 -0.4936 -0.4284
 1333SOL    HW2 4245   4.158   0.582   1.493 -0.6020  0.1410  2.1100
 1334SOL     OW 4246   3.421   2.074   5.404  0.0215  0.2762  0.1981
 1334SOL    HW1 4247   3.484   2.136   5.366 -0.3056 -0.7186 -2.1509
 1334SOL    HW2 4248   3.348   2.073   5.342 -0.1558 -2.1395  0.3629
 1335SOL     OW 4249   5.151   4.719   3.886  0.2783  0.3780 -0.4016
 1335SOL    HW1 4250   5.163   4.625   3.891 -1.6972  0.1128  0.2983
 1335SOL    HW2 4251   5.119   4.735   3.797  0.3967  0.3678 -0.4464
 1336SOL     OW 4252   0.689   0.582   2.814 -0.1784 -0.1237  0.3131
 1336SOL    HW1 4253   0.727   0.626   2.738 -2.2668  0.7587 -0.2670
 1336SOL    HW2 4254   0.655   0.499   2.779 -0.6214  0.0176  0.4095
 1337SOL     OW 4255   4.066   0.388   1.211  0.0659  0.2499 -0.5126
 1337SOL    HW1 4256   4.134   0.418   1.270  0.2420 -2.7744  0.9844
 1337SOL    HW2 4257   3.990   0.372   1.267 -0.7529  0.1887 -1.5950
 1338SOL     OW 4258   2.756   0.889   1.786  0.0716 -0.0449  0.1530
 1338SOL    HW1 4259   2.847   0.883   1.815  0.5904  0.2084 -1.3456
 1338SOL    HW2 4260   2.707   0.834   1.848  1.0453  0.7381  1.6848
 1339SOL     OW 4261   5.040   2.710   1.803  0.1699 -0.2692 -0.2779
 1339SOL    HW1 4262   4.985   2.666   1.867 -0.6121  0.3447 -0.5194
 1339SOL    HW2 4263   4.987   2.782   1.770  1.7192  1.4286  0.7362
 1340SOL     OW 4264   2.801   0.569   5.473  0.0334  0.5241 -0.1447
 1340SOL    HW1 4265   2.768   0.595   5.559 -2.6950  1.4416 -1.3868
 1340SOL    HW2 4266   2.801   0.473   5.475 -2.2938  0.4768  0.1306
 1341SOL     OW 4267   0.215   3.554   4.247 -0.3293  0.2693  0.1839
 1341SOL    HW1 4268   0.211   3.461   4.271  2.2321 -0.6406 -2.3233
 1341SOL    HW2 4269   0.245   3.599   4.326 -1.4936 -1.0014  1.4077
 1342SOL     OW 4270   4.900   5.650   0.229  0.1835  0.5992 -0.5517
 1342SOL    HW1 4271   4.858   5.567   0.208  0.1857 -0.0948  1.8122
 1342SOL    HW2 4272   4.830   5.702   0.271  0.6182  1.0790 -0.4070
 1343SOL     OW 4273   1.827   1.815   0.203 -0.5037  0.1049 -0.0486
 1343SOL    HW1 4274   1.916   1.781   0.206 -0.1753  0.9135 -0.2817
 1343SOL    HW2 4275   1.780   1.767   0.271  0.2366  0.0231  0.4118
 1344SOL     OW 4276   4.705   1.244   0.845 -0.0748  0.3028 -0.3485
 1344SOL    HW1 4277   4.785   1.221   0.892  0.8656  0.0040 -2.0401
 1344SOL    HW2 4278   4.682   1.165   0.796 -1.0248  0.6041 -0.4154
 1345SOL     OW 4279   1.657   2.980   2.192 -0.1309  0.3830 -0.0950
 1345SOL    HW1 4280   1.585   2.919   2.209  0.2783 -0.4183 -1.1556
 1345SOL    HW2 4281   1.736   2.926   2.199  0.5124  1.5024  2.3712
 1346SOL     OW 4282   2.488   4.425   5.241 -0.0913 -0.5564  0.2565
 1346SOL    HW1 4283   2.506   4.511   5.202 -0.3600 -1.2786 -1.5791
 1346SOL    HW2 4284   2.428   4.383   5.179 -0.5757 -1.7801  1.5061
 1347SOL     OW 4285   4.760   5.488   4.089  0.1673  0.6465 -0.1418
 1347SOL    HW1 4286   4.764   5.530   4.175  1.0966  0.9657 -0.3362
 1347SOL    HW2 4287   4.767   5.394   4.108  0.6962  0.7336  0.1099
 1348SOL     OW 4288   5.400   1.913   0.650 -0.2019 -0.3929 -0.0459
 1348SOL    HW1 4289   5.334   1.940   0.586 -1.4296 -1.3667  0.7653
 1348SOL    HW2 4290   5.480   1.956   0.621 -0.6173 -1.0893 -2.4617
 1349SOL     OW 4291   2.748   0.640   3.699  0.6458  0.2578 -0.2589
 1349SOL    HW1 4292   2.815   0.581   3.733  1.4851  2.4731  2.2234
 1349SOL    HW2 4293   2.795   0.698   3.640  0.6001  0.7768  0.2087
 1350SOL     OW 4294   0.534   4.875   3.707 -0.5136 -0.0133  0.5590
 1350SOL    HW1 4295   0.534   4.796   3.760 -1.8456 -0.2128  0.2917
 1350SOL    HW2 4296   0.627   4.894   3.692 -0.1276 -0.3863  2.2889
 1351SOL     OW 4297   3.334   1.066   5.032 -0.0981  0.2231  0.5310
 1351SOL    HW1 4298   3.428   1.047   5.029 -0.2797 -0.8575  0.9917
 1351SOL    HW2 4299   3.317   1.117   4.954  0.7475 -0.2238  0.0364
 1352SOL     OW 4300   2.787   2.069   4.146 -0.5356  0.2626 -0.2329
 1352SOL    HW1 4301   2.697   2.101   4.150 -1.0597 -1.2467  2.9859
 1352SOL    HW2 4302   2.823   2.085   4.233  1.4495 -1.5011 -0.6321
 1353SOL     OW 4303   1.443   5.581   1.510  0.1853 -0.1297  0.1803
 1353SOL    HW1 4304   1.451   5.664   1.464  0.4600  0.5347  1.3918
 1353SOL    HW2 4305   1.392   5.525   1.451 -0.5751  1.1164 -0.3697
 1354SOL     OW 4306   4.549   0.904   5.947 -0.2621 -0.4028 -0.2068
 1354SOL    HW1 4307   4.456   0.913   5.924 -0.1390  0.0274 -0.5553
 1354SOL    HW2 4308   4.549   0.888   6.041 -0.6085  1.3886  0.1273
 1355SOL     OW 4309   5.361   2.510   4.531 -0.8586 -0.1671 -0.8738
 1355SOL    HW1 4310   5.356   2.420   4.562  1.2213  0.1259  0.5117
 1355SOL    HW2 4311   5.375   2.562   4.611 -0.7069  1.2327 -1.7754
 1356SOL     OW 4312   1.294   2.898   2.175  0.1245 -0.1839 -0.4793
 1356SOL    HW1 4313   1.284   2.829   2.240  0.6512 -0.7048 -0.9400
 1356SOL    HW2 4314   1.351   2.860   2.108 -0.6110  0.2490 -1.3734
 1357SOL     OW 4315   4.281   2.832   5.111  0.1173 -0.2131  0.0420
 1357SOL    HW1 4316   4.236   2.772   5.051  2.2399 -0.6174 -1.2616
 1357SOL    HW2 4317   4.303   2.778   5.187 -1.7920  0.0738  0.8565
 1358SOL     OW 4318   0.813   1.357   4.712  0.2699  0.5448 -0.4134
 1358SOL    HW1 4319   0.785   1.296   4.644 -0.2733  2.0534 -1.6219
 1358SOL    HW2 4320   0.906   1.338   4.725 -0.1983 -1.4875  0.3297
 1359SOL     OW 4321   4.852   3.287   1.354  0.5908  0.2091 -0.4950
 1359SOL    HW1 4322   4.901   3.348   1.410  3.0124 -0.2698 -1.9260
 1359SOL    HW2 4323   4.774   3.336   1.327 -0.4070  0.6081  2.7834
 1360SOL     OW 4324   2.690   0.666   5.694  0.1315  0.4332 -0.0449
 1360SOL    HW1 4325   2.699   0.687   5.787 -0.2803 -2.2593  0.6957
 1360SOL    HW2 4326   2.628   0.731   5.660  0.8418  1.9148  1.3502
 1361SOL     OW 4327   2.972   1.792   4.163 -0.3731 -0.4944 -0.0789
 1361SOL    HW1 4328   2.993   1.834   4.079 -1.5598 -1.1310 -0.7117
 1361SOL    HW2 4329   3.014   1.848   4.228  1.0834 -0.3096 -1.1212
 1362SOL     OW 4330   1.354   4.305   3.266 -0.6300  0.1994 -0.1288
 1362SOL    HW1 4331   1.304   4.301   3.347 -0.9310 -0.4794 -0.3345
 1362SOL    HW2 4332   1.441   4.333   3.292 -0.8056  0.2641  0.3910
 1363SOL     OW 4333   3.083   0.280   4.820  0.3335 -0.2631  0.7351
 1363SOL    HW1 4334   3.131   0.200   4.799  0.4874  0.0733 -0.2289
 1363SOL    HW2 4335   3.064   0.272   4.913  0.6913 -1.2381  0.7400
 1364SOL     OW 4336   2.279   2.860   5.886 -0.1322 -0.1581  0.8876
 1364SOL    HW1 4337   2.284   2.955   5.896 -0.7185 -0.1246  0.9304
 1364SOL    HW2 4338   2.198   2.846   5.837 -0.3374 -0.6621  1.3606
 1365SOL     OW 4339   0.052   3.369   3.962  0.1545 -0.2403 -0.0174
 1365SOL    HW1 4340   0.105   3.424   3.904  1.3627  0.8173  1.9938
 1365SOL    HW2 4341   0.092   3.378   4.048 -0.7325 -2.8622  0.7706
 1366SOL     OW 4342   3.173   5.458   4.256 -0.4253  0.0131 -0.0035
 1366SOL    HW1 4343   3.259   5.426   4.283 -0.2984  0.8247  0.5893
 1366SOL    HW2 4344   3.112   5.393   4.291 -0.1176 -0.0102  0.5051
 1367SOL     OW 4345   5.078   0.663   2.456 -0.0759  0.3170  0.2574
 1367SOL    HW1 4346   5.033   0.686   2.537 -0.1623  0.3383  0.2034
 1367SOL    HW2 4347   5.157   0.617   2.484 -1.5791 -2.3939  0.3070
 1368SOL     OW 4348   5.335   4.196   4.684 -0.3463 -0.4450  0.2641
 1368SOL    HW1 4349   5.378   4.123   4.640 -0.3199  0.8876 -2.1071
 1368SOL    HW2 4350   5.257   4.157   4.724 -0.2347 -1.8174 -0.7755
 1369SOL     OW 4351   3.066   4.762   5.744  0.4964  0.0391  0.5236
 1369SOL    HW1 4352   3.119   4.682   5.750 -0.9765 -0.9904  0.5590
 1369SOL    HW2 4353   3.084   4.809   5.825  0.4163 -0.9251  1.1228
 1370SOL     OW 4354   4.339   5.238   1.261  0.3157 -0.0300  0.2217
 1370SOL    HW1 4355   4.424   5.222   1.221  0.3437  0.2417  0.1705
 1370SOL    HW2 4356   4.319   5.329   1.241  0.3742  0.1368  0.8985
 1371SOL     OW 4357   5.623   0.757   5.145  0.3055 -0.2054 -0.0395
 1371SOL    HW1 4358   5.682   0.833   5.148 -0.8317  0.7256 -0.2994
 1371SOL    HW2 4359   5.666   0.696   5.085  0.4535  0.9599 -1.1815
 1372SOL     OW 4360   5.253   2.637   1.373 -0.2669  0.2117 -0.4779
 1372SOL    HW1 4361   5.258   2.708   1.437 -2.3340  1.3424 -1.4629
 1372SOL    HW2 4362   5.310   2.665   1.302  0.5901 -0.1574  0.0578
 1373SOL     OW 4363   4.337   5.320   4.121 -0.3272 -0.2014 -0.2951
 1373SOL    HW1 4364   4.286   5.312   4.202  2.1243  0.3529  1.3999
 1373SOL    HW2 4365   4.395   5.245   4.122 -1.0767 -0.8552 -2.2324
 1374SOL     OW 4366   4.428   3.731   0.176 -0.0601 -0.1579 -0.1848
 1374SOL    HW1 4367   4.480   3.743   0.256 -0.8897  0.3184  0.2946
 1374SOL    HW2 4368   4.487   3.758   0.105  0.3298  0.4670  0.3573
 1375SOL     OW 4369   5.060   4.586   1.665 -0.4407  0.3811 -0.1023
 1375SOL    HW1 4370   5.140   4.569   1.615 -0.9698  0.1056 -0.8675
 1375SOL    HW2 4371   4.991   4.594   1.599 -0.9831  1.0333  0.5248
 1376SOL     OW 4372   3.786   5.926   0.086 -0.1724  0.2214  0.2291
 1376SOL    HW1 4373   3.755   5.920  -0.005 -0.4007 -0.8321  0.3633
 1376SOL    HW2 4374   3.870   5.972   0.079  0.1622 -0.4827 -0.6156
 1377SOL     OW 4375   4.486   0.720   2.641  0.0942 -0.1939  0.3231
 1377SOL    HW1 4376   4.453   0.632   2.626 -1.7167  0.3482  0.8737
 1377SOL    HW2 4377   4.578   0.717   2.614 -0.2740 -1.9074 -0.8431
 1378SOL     OW 4378   2.511   3.634   0.410  0.5019  0.1036 -0.6823
 1378SOL    HW1 4379   2.532   3.624   0.317  0.2152 -0.4807 -0.6910
 1378SOL    HW2 4380   2.577   3.582   0.455 -0.6785 -1.4965 -0.6948
 1379SOL     OW 4381   0.740   0.935   4.673 -0.1587  0.7205 -0.7822
 1379SOL    HW1 4382   0.791   0.866   4.715 -1.5631  1.0189  1.5714
 1379SOL    HW2 4383   0.655   0.895   4.655 -1.3727  2.0281  1.5989
 1380SOL     OW 4384   0.228   0.422   0.756 -1.0469 -0.4037  0.2528
 1380SOL    HW1 4385   0.215   0.327   0.764 -0.2916 -0.5060  0.3575
 1380SOL    HW2 4386   0.189   0.444   0.671 -0.5204 -0.9482 -0.1397
 1381SOL     OW 4387   0.972   0.500   4.203 -0.1175 -0.8003  0.2007
 1381SOL    HW1 4388   1.055   0.461   4.229  0.4765 -1.0298 -1.8757
 1381SOL    HW2 4389   0.995   0.589   4.174 -0.7366 -0.5592  0.4200
 1382SOL     OW 4390   4.258   1.910   4.808  0.4365 -0.9546  0.3980
 1382SOL    HW1 4391   4.214   1.947   4.883  1.0805 -0.7039  0.6558
 1382SOL    HW2 4392   4.335   1.865   4.844  1.6696  0.5482 -0.2318
 1383SOL     OW 4393   5.299   5.201   2.040 -0.2176  0.2323 -0.5281
 1383SOL    HW1 4394   5.289   5.146   1.963  0.1042  0.0956 -0.4754
 1383SOL    HW2 4395   5.394   5.209   2.051 -0.2145  2.1139 -1.4781
 1384SOL     OW 4396   5.997   5.566   0.833  0.1256 -0.1705 -0.0443
 1384SOL    HW1 4397   6.011   5.648   0.880 -0.0173 -0.2367  0.1142
 1384SOL    HW2 4398   5.904   5.547   0.844  0.1018 -0.2161 -0.3074
 1385SOL     OW 4399   3.914   4.059   5.297 -0.4298  0.0818  0.1876
 1385SOL    HW1 4400   4.009   4.050   5.283 -0.5478  0.7225 -1.2035
 1385SOL    HW2 4401   3.889   3.979   5.342  0.6771 -0.3740  0.0292
 1386SOL     OW 4402   3.730   4.639   6.074 -0.1091  0.1987 -0.5613
 1386SOL    HW1 4403   3.782   4.644   6.154 -0.3706  1.2834 -0.4367
 1386SOL    HW2 4404   3.778   4.693   6.011 -1.3567  1.7269 -0.2613
 1387SOL     OW 4405   6.073   4.134   4.325  0.6482  0.6131  0.3728
 1387SOL    HW1 4406   6.058   4.143   4.419  0.1798  1.5250  0.2271
 1387SOL    HW2 4407   6.019   4.203   4.286  0.4779 -0.0592 -0.5961
 1388SOL     OW 4408   3.337   0.338   2.497  0.3700  0.1119  0.0992
 1388SOL    HW1 4409   3.295   0.411   2.541 -0.4565 -1.9645  3.0216
 1388SOL    HW2 4410   3.420   0.325   2.544 -0.0695 -1.5680  0.4866
 1389SOL     OW 4411   4.489   4.308   3.254 -0.1126  0.1436  0.0859
 1389SOL    HW1 4412   4.449   4.254   3.186 -0.5455  0.8996 -0.2687
 1389SOL    HW2 4413   4.480   4.398   3.222 -0.9343  0.5726  1.4334
 1390SOL     OW 4414   4.859   1.898   3.059  0.1742 -0.4679  0.2630
 1390SOL    HW1 4415   4.843   1.990   3.039  0.1037 -0.7892 -1.2275
 1390SOL    HW2 4416   4.949   1.882   3.029 -0.0853 -1.0781 -0.2016
 1391SOL     OW 4417   5.376   2.759   0.753 -0.8471 -0.3773 -0.0990
 1391SOL    HW1 4418   5.305   2.750   0.816 -2.4556 -0.6381 -1.8327
 1391SOL    HW2 4419   5.379   2.853   0.734  1.3511  0.0804  2.1518
 1392SOL     OW 4420   5.738   1.544   3.722 -0.3541  0.3563 -0.6940
 1392SOL    HW1 4421   5.650   1.576   3.744  0.3359  1.3722  0.7548
 1392SOL    HW2 4422   5.793   1.622   3.726  1.0312 -0.6402  0.8370
 1393SOL     OW 4423   5.829   5.969   0.182  0.2663 -0.0105 -0.1214
 1393SOL    HW1 4424   5.758   5.994   0.124 -0.1351 -1.7478 -0.4529
 1393SOL    HW2 4425   5.908   6.001   0.139 -0.2086  0.8357 -0.3862
 1394SOL     OW 4426   0.090   3.537   5.429 -0.1681  0.0467  0.2552
 1394SOL    HW1 4427   0.097   3.512   5.337 -2.6188  0.8739 -0.2259
 1394SOL    HW2 4428   0.149   3.612   5.437  0.8165 -0.6314 -0.3714
 1395SOL     OW 4429   4.638   4.955   1.248  0.1799  0.0136  0.4684
 1395SOL    HW1 4430   4.609   5.023   1.188 -1.4501 -1.3505 -0.3997
 1395SOL    HW2 4431   4.582   4.966   1.326  1.3177  0.8935  1.1960
 1396SOL     OW 4432   0.657   0.725   0.557 -0.2154 -0.7587 -0.0148
 1396SOL    HW1 4433   0.576   0.698   0.600  0.0969  0.0943  1.1761
 1396SOL    HW2 4434   0.628   0.770   0.477 -1.0702  1.0938  1.2490
 1397SOL     OW 4435   5.712   1.075   4.005 -0.3068 -0.1993  0.2559
 1397SOL    HW1 4436   5.797   1.118   4.008  0.7010 -1.5585 -3.2673
 1397SOL    HW2 4437   5.652   1.140   3.970 -0.3346  0.2356  1.0953
 1398SOL     OW 4438   5.611   1.444   1.916 -0.2029 -0.6030  0.4515
 1398SOL    HW1 4439   5.528   1.397   1.913  0.0784 -1.2215  1.6095
 1398SOL    HW2 4440   5.662   1.407   1.843 -1.1244  0.1788 -0.6088
 1399SOL     OW 4441   0.242   0.749   2.705  0.2267  0.0036 -0.1387
 1399SOL    HW1 4442   0.227   0.655   2.710 -0.4994  0.1254  0.1109
 1399SOL    HW2 4443   0.237   0.779   2.796  2.5403  0.0031  0.0631
 1400SOL     OW 4444   3.601   5.236   1.965 -0.4330 -0.3681  0.4174
 1400SOL    HW1 4445   3.545   5.301   1.923  0.0994  0.8071  1.4717
 1400SOL    HW2 4446   3.541   5.176   2.007 -1.0323 -1.9452 -2.4015
 1401SOL     OW 4447   0.294   2.422   5.888 -0.1608 -0.1861 -0.2212
 1401SOL    HW1 4448   0.265   2.437   5.978 -1.4829  1.4523 -0.8594
 1401SOL    HW2 4449   0.387   2.446   5.889  0.2439 -1.6636  0.9980
 1402SOL     OW 4450   6.059   1.782   3.675  0.6055  0.2523  0.0659
 1402SOL    HW1 4451   6.095   1.696   3.697  0.9064  0.2548 -0.3987
 1402SOL    HW2 4452   5.980   1.789   3.728 -0.8047 -1.3625 -1.6750
 1403SOL     OW 4453   2.087   1.201   4.134  0.6291  0.1141 -0.3695
 1403SOL    HW1 4454   2.162   1.190   4.075 -0.8152  0.6490 -2.4066
 1403SOL    HW2 4455   2.011   1.200   4.077 -1.0083 -0.9742  1.6848
 1404SOL     OW 4456   2.279   4.956   2.390  0.4183 -0.3926  0.5091
 1404SOL    HW1 4457   2.363   5.002   2.385  1.2176 -1.8647 -0.1123
 1404SOL    HW2 4458   2.217   5.024   2.416  1.8207  0.6936  1.2093
 1405SOL     OW 4459   4.888   1.319   5.142  0.9551  0.2851 -0.0043
 1405SOL    HW1 4460   4.905   1.239   5.092 -0.2823  1.1677 -1.9312
 1405SOL    HW2 4461   4.803   1.349   5.112  0.1039  0.8737  2.7285
 1406SOL     OW 4462   0.936   1.616   2.246 -0.1236 -0.0044 -0.0264
 1406SOL    HW1 4463   0.870   1.671   2.206 -0.0214 -0.7377 -1.2753
 1406SOL    HW2 4464   0.892   1.574   2.320 -1.1790 -0.7226 -1.0221
 1407SOL     OW 4465   4.168   3.861   2.274  0.1261  0.5098 -0.3853
 1407SOL    HW1 4466   4.184   3.819   2.358 -0.4895 -1.6379 -1.2589
 1407SOL    HW2 4467   4.230   3.818   2.214 -0.6612  0.6933 -1.3632
 1408SOL     OW 4468   6.126   5.915   3.577  0.4305  0.0097  0.1397
 1408SOL    HW1 4469   6.049   5.867   3.547 -1.0003  2.1925  0.0607
 1408SOL    HW2 4470   6.198   5.852   3.572 -1.3545 -2.1688  0.3770
 1409SOL     OW 4471   4.164   3.753   0.771 -0.2678  0.0718 -0.7659
 1409SOL    HW1 4472   4.102   3.796   0.713 -1.4798 -0.6315 -0.0150
 1409SOL    HW2 4473   4.154   3.660   0.752  0.1433 -0.0868 -0.2180
 1410SOL     OW 4474   1.089   3.926   0.933 -0.8045 -0.2193  0.1373
 1410SOL    HW1 4475   1.117   3.944   1.023 -2.7579  1.3253  0.4968
 1410SOL    HW2 4476   1.018   3.863   0.942  1.3241 -2.9460 -0.6657
 1411SOL     OW 4477   2.853   0.343   1.942 -0.4144 -0.0616  0.0606
 1411SOL    HW1 4478   2.898   0.260   1.956  0.1251  0.2995  0.5336
 1411SOL    HW2 4479   2.922   0.409   1.944 -0.9710  0.5200  0.9517
 1412SOL     OW 4480   5.500   5.997   0.955 -0.0218  0.2809  0.0912
 1412SOL    HW1 4481   5.457   6.082   0.951  1.5221  1.1629  1.3030
 1412SOL    HW2 4482   5.537   5.985   0.868 -1.5552  0.0997 -0.5679
 1413SOL     OW 4483   1.317   3.282   5.749  0.1436 -0.0906 -0.4045
 1413SOL    HW1 4484   1.284   3.346   5.686  0.3877  0.2264 -0.2120
 1413SOL    HW2 4485   1.246   3.219   5.757 -0.7903  1.0339  0.6455
 1414SOL     OW 4486   4.779   2.493   3.882  0.3636  0.4388  0.0322
 1414SOL    HW1 4487   4.855   2.479   3.940 -0.6669 -0.9197  1.1168
 1414SOL    HW2 4488   4.707   2.450   3.927 -0.5935 -0.2562 -2.0815
 1415SOL     OW 4489   3.902   3.174   0.787  0.1544  0.0437  0.2387
 1415SOL    HW1 4490   3.859   3.113   0.727 -2.6068  1.4324  0.6551
 1415SOL    HW2 4491   3.841   3.182   0.861 -0.1100  3.9371 -0.2258
 1416SOL     OW 4492   2.950   1.811   1.400 -0.1644  0.2461 -0.0130
 1416SOL    HW1 4493   3.007   1.777   1.331 -0.7555 -2.5520  0.7733
 1416SOL    HW2 4494   2.888   1.868   1.354 -0.5725 -1.5734 -1.8478
 1417SOL     OW 4495   5.468   0.471   4.187 -0.1072 -0.2225  1.0368
 1417SOL    HW1 4496   5.564   0.471   4.187 -0.1028  0.2314  1.4950
 1417SOL    HW2 4497   5.444   0.398   4.243 -0.0353 -0.5594  0.6345
 1418SOL     OW 4498   1.451   0.488   5.055  0.0073  0.3589  0.1732
 1418SOL    HW1 4499   1.368   0.444   5.073 -0.3439  0.3356 -1.3439
 1418SOL    HW2 4500   1.430   0.551   4.986  0.6117  2.5895  1.9310
 1419SOL     OW 4501   3.481   0.962   4.125 -0.7779 -0.2222 -0.3599
 1419SOL    HW1 4502   3.535   0.967   4.046 -0.0452 -0.0746  0.1393
 1419SOL    HW2 4503   3.431   0.882   4.115 -1.4384  0.3036 -1.4413
 1420SOL     OW 4504   4.252   1.774   1.269  0.0298 -0.5478  0.3729
 1420SOL    HW1 4505   4.196   1.697   1.274 -0.5175 -0.1089  1.2135
 1420SOL    HW2 4506   4.257   1.806   1.359  0.0996  0.4944  0.0128
 1421SOL     OW 4507   0.509   0.168   5.926 -0.4395  0.1124 -0.2646
 1421SOL    HW1 4508   0.578   0.213   5.974 -0.2068 -1.9279  1.4825
 1421SOL    HW2 4509   0.555   0.112   5.863 -0.6690  1.2425 -1.4652
 1422SOL     OW 4510   3.700   4.743   1.473  0.0348 -0.5948 -0.0879
 1422SOL    HW1 4511   3.650   4.783   1.401  0.3979  1.2341  0.6080
 1422SOL    HW2 4512   3.661   4.780   1.552  0.4378 -1.6255  0.6057
 1423SOL     OW 4513   3.117   5.948   0.636 -0.2831 -0.0042 -0.0528
 1423SOL    HW1 4514   3.136   5.855   0.621 -2.6610 -0.7502  0.9953
 1423SOL    HW2 4515   3.202   5.989   0.646  0.8242 -2.1775 -0.0069
 1424SOL     OW 4516   4.614   2.528   3.040 -0.5805 -0.2245  0.7211
 1424SOL    HW1 4517   4.560   2.452   3.018 -0.6681 -0.2746  1.1039
 1424SOL    HW2 4518   4.661   2.502   3.120  1.7642 -1.0599 -0.8059
 1425SOL     OW 4519   1.557   4.930   5.082  0.1574 -0.5949 -0.0606
 1425SOL    HW1 4520   1.643   4.945   5.045  0.5213 -0.6481  0.7373
 1425SOL    HW2 4521   1.572   4.922   5.176 -0.7490 -0.3442  0.1228
 1426SOL     OW 4522   3.783   5.252   2.369  0.2084  0.0626 -0.7883
 1426SOL    HW1 4523   3.717   5.320   2.355  0.2650  0.6331  1.3377
 1426SOL    HW2 4524   3.862   5.301   2.395 -0.2569 -0.7766  2.6397
 1427SOL     OW 4525   5.926   5.623   2.287  0.0677  0.6132  0.5636
 1427SOL    HW1 4526   5.909   5.548   2.230  0.3469  1.1560 -0.2520
 1427SOL    HW2 4527   5.986   5.590   2.353  0.5674  0.2299 -0.0673
 1428SOL     OW 4528   4.812   5.879   2.533 -0.4667  0.0621  0.1899
 1428SOL    HW1 4529   4.772   5.794   2.555 -0.0920  0.3475  2.1697
 1428SOL    HW2 4530   4.776   5.940   2.597  0.3718  1.0996 -0.2941
 1429SOL     OW 4531   1.292   4.921   5.177  0.4236 -0.5122  0.4277
 1429SOL    HW1 4532   1.360   4.982   5.151  0.3043 -1.2187 -1.7357
 1429SOL    HW2 4533   1.217   4.943   5.122  0.9531 -3.6766 -1.8538
 1430SOL     OW 4534   5.932   2.771   4.575 -0.4148 -0.0952  0.2698
 1430SOL    HW1 4535   5.878   2.711   4.627  1.2696 -1.6084  0.3958
 1430SOL    HW2 4536   6.006   2.717   4.547  0.3886  1.5642 -0.9487
 1431SOL     OW 4537   4.104   5.668   1.461 -0.1752 -0.2786 -0.3591
 1431SOL    HW1 4538   4.161   5.723   1.514  1.9827 -2.9327  0.2964
 1431SOL    HW2 4539   4.035   5.726   1.432  2.2777  2.9359 -0.3160
 1432SOL     OW 4540   0.145   1.975   4.603 -0.2194  0.3886 -0.0829
 1432SOL    HW1 4541   0.157   1.969   4.508  2.5303  1.4791  0.1088
 1432SOL    HW2 4542   0.110   2.063   4.617 -1.5019 -0.0958 -0.1044
 1433SOL     OW 4543   0.175   3.593   1.705  0.3872 -0.2477  0.5060
 1433SOL    HW1 4544   0.181   3.683   1.673 -1.1084 -0.8582 -1.6521
 1433SOL    HW2 4545   0.266   3.565   1.712  0.8458  0.6892 -1.0893
 1434SOL     OW 4546   0.767   2.185   4.660 -0.3179 -0.8311  0.1279
 1434SOL    HW1 4547   0.775   2.093   4.633  0.1758 -1.1220  1.1987
 1434SOL    HW2 4548   0.751   2.232   4.578  2.2500 -1.5035 -0.8973
 1435SOL     OW 4549   0.077   3.248   3.433 -0.6212 -0.3130 -0.5139
 1435SOL    HW1 4550   0.081   3.317   3.500  0.8782  1.2008 -2.0623
 1435SOL    HW2 4551   0.137   3.181   3.464 -2.1367 -1.0327  1.0443
 1436SOL     OW 4552   0.220   1.118   3.298  0.3575  0.1171 -0.9856
 1436SOL    HW1 4553   0.302   1.140   3.343  0.4994 -0.4755 -0.9458
 1436SOL    HW2 4554   0.217   1.023   3.300  0.0221  0.1101 -1.6373
 1437SOL     OW 4555   5.190   5.006   1.147 -0.3098  0.7496  0.0068
 1437SOL    HW1 4556   5.170   5.035   1.058 -1.3815 -0.3156 -0.1358
 1437SOL    HW2 4557   5.112   5.031   1.198 -0.8034 -0.8279  0.0917
 1438SOL     OW 4558   2.386   1.140   5.932 -0.3464  0.2526  0.0521
 1438SOL    HW1 4559   2.340   1.191   5.999  1.0515 -0.2813  1.4601
 1438SOL    HW2 4560   2.477   1.141   5.958  0.0871 -0.8861 -1.2682
 1439SOL     OW 4561   0.268   3.503   3.869 -0.4698  0.0142  0.1464
 1439SOL    HW1 4562   0.351   3.548   3.851 -0.4638 -0.8735 -2.5343
 1439SOL    HW2 4563   0.281   3.462   3.954  1.4968  0.6997  0.2382
 1440SOL     OW 4564   3.934   1.880   0.389  0.0305 -0.1848  0.0130
 1440SOL    HW1 4565   4.004   1.820   0.415  0.1056 -0.5074 -0.8844
 1440SOL    HW2 4566   3.897   1.911   0.471 -0.9132 -2.5268  0.5585
 1441SOL     OW 4567   5.032   1.283   2.682  0.0492  0.0715 -0.1631
 1441SOL    HW1 4568   5.084   1.249   2.610  0.6276  0.2440  0.1687
 1441SOL    HW2 4569   5.091   1.284   2.757  0.0091  1.6084 -0.1086
 1442SOL     OW 4570   2.454   5.673   5.619  0.1892  0.2647  0.4379
 1442SOL    HW1 4571   2.475   5.714   5.703 -0.7401 -1.5318  1.6148
 1442SOL    HW2 4572   2.382   5.614   5.639 -0.8841  0.6818 -1.9071
 1443SOL     OW 4573   2.444   4.597   0.874  0.3023  0.0161 -0.0558
 1443SOL    HW1 4574   2.359   4.553   0.870  0.3606  0.0065 -1.4579
 1443SOL    HW2 4575   2.497   4.554   0.807  1.1532  0.5814  0.2336
 1444SOL     OW 4576   2.005   4.010   1.260  0.0789  0.1672 -0.2575
 1444SOL    HW1 4577   2.056   4.003   1.180  2.8413 -0.6525  1.4310
 1444SOL    HW2 4578   1.960   3.926   1.267 -1.8637  0.9900 -1.8925
 1445SOL     OW 4579   1.093   5.794   5.443  0.3746  0.4785  0.3488
 1445SOL    HW1 4580   1.064   5.752   5.362 -0.6711 -2.3994  2.0865
 1445SOL    HW2 4581   1.170   5.744   5.470  1.6917  2.4095  0.4110
 1446SOL     OW 4582   3.201   3.921   2.311  0.0297  0.6538 -0.2536
 1446SOL    HW1 4583   3.241   3.965   2.237 -1.4409  2.1799 -0.1838
 1446SOL    HW2 4584   3.148   3.852   2.272  2.6058 -1.4509 -0.3470
 1447SOL     OW 4585   4.658   3.226   5.908 -0.5527 -0.3154  0.6031
 1447SOL    HW1 4586   4.708   3.305   5.887  0.1915 -0.6293  1.1580
 1447SOL    HW2 4587   4.666   3.171   5.830 -2.1073  0.6432 -0.2889
 1448SOL     OW 4588   3.160   5.034   1.500  0.5841  0.2834 -0.4417
 1448SOL    HW1 4589   3.100   5.108   1.513 -0.7838 -0.7785 -0.4435
 1448SOL    HW2 4590   3.230   5.048   1.563  0.3136  1.5536 -0.4041
 1449SOL     OW 4591   3.080   5.750   4.195  0.1188  1.1022 -0.2970
 1449SOL    HW1 4592   3.077   5.655   4.181  0.3616  0.3529  3.6001
 1449SOL    HW2 4593   3.001   5.783   4.153 -1.3486 -1.2526  0.4213
 1450SOL     OW 4594   1.763   4.188   4.788  0.1457  0.0479 -0.2544
 1450SOL    HW1 4595   1.684   4.236   4.811 -0.2195 -0.0167 -1.3261
 1450SOL    HW2 4596   1.767   4.192   4.693  1.1929 -0.3359 -0.2398
 1451SOL     OW 4597   1.790   0.165   1.342 -0.0396  0.3412  0.4969
 1451SOL    HW1 4598   1.872   0.116   1.350  0.1078  0.8728  3.0684
 1451SOL    HW2 4599   1.767   0.188   1.432 -2.5991  0.9243 -0.2191
 1452SOL     OW 4600   4.137   0.745   1.552  0.5544  0.0447  0.1304
 1452SOL    HW1 4601   4.160   0.802   1.625 -0.9444  0.0429  0.6253
 1452SOL    HW2 4602   4.093   0.802   1.489  3.1458  0.3877 -1.5353
 1453SOL     OW 4603   0.650   4.334   5.847  0.0911  0.2709 -0.4050
 1453SOL    HW1 4604   0.617   4.297   5.765 -0.2346  0.2606 -0.2726
 1453SOL    HW2 4605   0.674   4.424   5.825 -0.2137  0.3405 -0.4595
 1454SOL     OW 4606   4.266   5.499   3.347  0.8392  0.2005 -0.3940
 1454SOL    HW1 4607   4.192   5.549   3.312  0.4110 -0.8582 -1.0404
 1454SOL    HW2 4608   4.230   5.412   3.362  2.0196 -0.3929 -0.9462
 1455SOL     OW 4609   0.595   3.199   0.920 -0.2351 -0.0245 -0.0976
 1455SOL    HW1 4610   0.626   3.271   0.975 -1.5057  0.8921 -0.5192
 1455SOL    HW2 4611   0.630   3.218   0.834  1.0579 -1.0055  0.1861
 1456SOL     OW 4612   5.645   4.326   1.431  0.2024 -0.4465 -0.1726
 1456SOL    HW1 4613   5.614   4.376   1.507 -1.2525  0.3507 -1.2299
 1456SOL    HW2 4614   5.733   4.361   1.413  0.1351  0.1018  0.5189
 1457SOL     OW 4615   4.030   4.240   4.826  0.7958 -0.1848  0.0237
 1457SOL    HW1 4616   4.029   4.307   4.894  1.7143 -0.2246  0.0978
 1457SOL    HW2 4617   3.941   4.206   4.823  0.7208 -0.0937  1.1145
 1458SOL     OW 4618   2.794   5.671   1.662 -0.4389 -0.1826 -0.6203
 1458SOL    HW1 4619   2.731   5.642   1.597  0.9522 -0.1420 -2.0334
 1458SOL    HW2 4620   2.877   5.677   1.615 -0.0575  3.4421  0.2015
 1459SOL     OW 4621   4.562   4.840   5.342 -0.8344  0.5886  0.3974
 1459SOL    HW1 4622   4.559   4.764   5.401  0.4385  1.9108  2.2744
 1459SOL    HW2 4623   4.479   4.885   5.357 -0.3750  1.1026  1.4916
 1460SOL     OW 4624   1.536   5.409   3.501  0.6900  0.0961 -0.0878
 1460SOL    HW1 4625   1.501   5.356   3.429 -0.4408 -0.4410  0.8228
 1460SOL    HW2 4626   1.614   5.362   3.530  1.3240  0.4733 -1.1380
 1461SOL     OW 4627   1.171   5.977   3.257 -0.3619 -0.4987 -0.0014
 1461SOL    HW1 4628   1.192   5.927   3.337  0.3037 -2.5259 -1.3520
 1461SOL    HW2 4629   1.226   6.055   3.263  0.6640 -1.2539  0.9154
 1462SOL     OW 4630   0.164   5.570   1.403  0.0582 -0.1952  0.6834
 1462SOL    HW1 4631   0.111   5.638   1.362  0.2368 -1.5279 -2.0237
 1462SOL    HW2 4632   0.136   5.568   1.494 -0.4691  2.9356  0.6916
 1463SOL     OW 4633   2.376   5.542   0.577 -0.2445 -0.2870 -0.1320
 1463SOL    HW1 4634   2.387   5.518   0.669 -2.7127 -1.0622  0.0568
 1463SOL    HW2 4635   2.445   5.605   0.559  0.8272 -0.7832  2.0013
 1464SOL     OW 4636   1.036   0.356   3.282 -0.2840  0.1056 -0.4245
 1464SOL    HW1 4637   1.041   0.359   3.187  1.1509 -2.1793 -0.4933
 1464SOL    HW2 4638   0.977   0.283   3.301 -0.0330  0.1148  0.4399
 1465SOL     OW 4639   2.190   0.025   3.974 -0.0572 -0.2049 -0.1423
 1465SOL    HW1 4640   2.116   0.082   3.953  1.2161  1.5053 -0.1271
 1465SOL    HW2 4641   2.153  -0.041   4.032 -1.6564  0.3500 -0.4637
 1466SOL     OW 4642   2.641   0.694   4.204  0.3619 -0.2279  0.4145
 1466SOL    HW1 4643   2.676   0.760   4.264  0.3544  0.5292 -0.3968
 1466SOL    HW2 4644   2.547   0.694   4.219  0.3418  0.0766  0.2971
 1467SOL     OW 4645   4.964   2.552   3.618  0.0155 -0.7347  0.1706
 1467SOL    HW1 4646   5.039   2.564   3.560  0.3266  0.4455  0.7856
 1467SOL    HW2 4647   4.983   2.606   3.695 -0.7812 -1.5940  1.0053
 1468SOL     OW 4648   2.765   3.777   4.387 -0.5483  0.6915 -0.5301
 1468SOL    HW1 4649   2.672   3.776   4.362 -0.1220  0.9576 -2.2623
 1468SOL    HW2 4650   2.811   3.739   4.312  0.8321  1.4969 -0.1351
 1469SOL     OW 4651   4.861   0.019   6.134  0.0268 -0.2095 -0.4532
 1469SOL    HW1 4652   4.944   0.057   6.105  0.5919 -0.7379  0.4177
 1469SOL    HW2 4653   4.887  -0.060   6.181 -1.0044 -0.5770 -0.4911
 1470SOL     OW 4654   4.290   2.656   3.488 -0.5424 -0.2246 -0.3991
 1470SOL    HW1 4655   4.372   2.645   3.536 -0.6233 -2.3325 -0.6307
 1470SOL    HW2 4656   4.231   2.699   3.549  0.6265  1.0709 -0.1369
 1471SOL     OW 4657   0.240   4.319   2.187  0.8463 -0.1254  0.3788
 1471SOL    HW1 4658   0.212   4.367   2.109  2.6074  1.4677  0.6371
 1471SOL    HW2 4659   0.186   4.354   2.257  1.4095  0.7793  0.3813
 1472SOL     OW 4660   0.073   3.586   1.202 -0.0832 -0.6275  0.0054
 1472SOL    HW1 4661   0.069   3.592   1.297  0.4228  2.5423 -0.0727
 1472SOL    HW2 4662   0.163   3.559   1.183  0.3073  0.3467  0.4213
 1473SOL     OW 4663   2.646   3.189   3.645  0.0966 -0.2377 -0.0837
 1473SOL    HW1 4664   2.569   3.206   3.698  0.6491 -0.4540  0.8014
 1473SOL    HW2 4665   2.670   3.274   3.609 -1.8421 -0.4938 -2.2051
 1474SOL     OW 4666   1.410   0.287   2.619 -0.1122  0.3488 -0.4355
 1474SOL    HW1 4667   1.404   0.347   2.545 -0.2539  0.2719 -0.4870
 1474SOL    HW2 4668   1.478   0.223   2.593  0.3451  0.7314 -0.2018
 1475SOL     OW 4669   6.083   3.029   1.976 -0.0196 -0.4075 -0.5333
 1475SOL    HW1 4670   6.138   3.103   2.002 -1.7231  0.8480 -0.3130
 1475SOL    HW2 4671   6.073   3.039   1.881  0.5137 -0.9299 -0.6520
 1476SOL     OW 4672   2.745   0.341   3.411  0.0555 -0.5658  0.5160
 1476SOL    HW1 4673   2.684   0.405   3.447 -0.3479 -0.9718  0.5525
 1476SOL    HW2 4674   2.813   0.395   3.369 -1.3436 -0.0758 -1.2912
 1477SOL     OW 4675   5.125   3.110   1.570 -0.5274  0.0974 -0.5557
 1477SOL    HW1 4676   5.122   3.140   1.479  0.0667  1.6189 -0.1109
 1477SOL    HW2 4677   5.191   3.166   1.611  2.6761 -3.5625 -0.2219
 1478SOL     OW 4678   5.872   0.386   4.761 -0.2280  0.5542  0.3428
 1478SOL    HW1 4679   5.918   0.316   4.808 -0.0301  0.5412  0.1342
 1478SOL    HW2 4680   5.932   0.410   4.690 -0.6247  0.4129 -0.0447
 1479SOL     OW 4681   5.909   5.908   2.722  0.5724 -0.0973  0.1336
 1479SOL    HW1 4682   5.998   5.879   2.741  0.8108  0.7508  0.3463
 1479SOL    HW2 4683   5.883   5.959   2.798 -0.8569 -1.9541  0.9794
 1480SOL     OW 4684   2.398   3.050   3.309  0.0713 -0.1984  0.1242
 1480SOL    HW1 4685   2.377   3.002   3.229  0.8230  1.4268 -1.0856
 1480SOL    HW2 4686   2.388   3.142   3.286  1.3299  0.3530  1.6003
 1481SOL     OW 4687   5.575   0.377   0.718  0.3658  0.3031 -0.0337
 1481SOL    HW1 4688   5.573   0.310   0.650 -0.1609  1.4811 -1.2176
 1481SOL    HW2 4689   5.531   0.336   0.793 -0.4776 -0.4598 -0.9243
 1482SOL     OW 4690   3.011   5.350   1.254 -0.3150  0.0355  0.2685
 1482SOL    HW1 4691   2.959   5.423   1.221 -0.1699 -0.0596 -0.1772
 1482SOL    HW2 4692   3.098   5.363   1.216  0.0321  0.2703  1.1174
 1483SOL     OW 4693   2.968   0.011   0.930  0.4022  0.8996  0.1337
 1483SOL    HW1 4694   2.964  -0.006   0.836 -0.0383 -0.7236  0.4143
 1483SOL    HW2 4695   3.057  -0.010   0.955 -0.5350 -3.0208  0.7627
 1484SOL     OW 4696   0.277   5.019   5.548  0.1478  0.0621  0.2630
 1484SOL    HW1 4697   0.224   5.089   5.510  0.9798  0.4500 -0.2238
 1484SOL    HW2 4698   0.350   5.065   5.590  0.0024 -0.4488  1.0908
 1485SOL     OW 4699   4.453   1.018   1.528 -0.2833  0.0054  0.3776
 1485SOL    HW1 4700   4.435   0.931   1.494  2.9566 -0.6485  0.0377
 1485SOL    HW2 4701   4.470   1.004   1.621 -0.5178  0.3922  0.4794
 1486SOL     OW 4702   0.490   2.936   5.060  0.2921  0.2375 -0.0359
 1486SOL    HW1 4703   0.514   2.965   4.972  0.4799 -0.5983 -0.2649
 1486SOL    HW2 4704   0.430   2.863   5.047  2.8876 -2.1403  0.4395
 1487SOL     OW 4705   2.727   1.485   4.509  0.1742 -0.0420 -0.4188
 1487SOL    HW1 4706   2.695   1.501   4.420 -2.5220 -1.0164  0.2709
 1487SOL    HW2 4707   2.721   1.570   4.553 -1.2981 -0.1265 -0.4062
 1488SOL     OW 4708   3.517   1.179   1.270  0.2027  0.5915 -0.1134
 1488SOL    HW1 4709   3.491   1.183   1.178  1.9961  3.6912 -0.6130
 1488SOL    HW2 4710   3.446   1.222   1.317  0.2561  0.8963 -0.3116
 1489SOL     OW 4711   3.704   5.111   3.966 -0.3252  0.2116  0.2191
 1489SOL    HW1 4712   3.672   5.104   4.056 -1.0674  1.1831  0.0385
 1489SOL    HW2 4713   3.773   5.044   3.960 -2.0860 -1.7396  0.7019
 1490SOL     OW 4714   1.808   5.891   5.866 -0.4053  0.2192 -0.0962
 1490SOL    HW1 4715   1.716   5.898   5.840 -0.2420 -1.3409 -1.1796
 1490SOL    HW2 4716   1.840   5.982   5.867 -1.9749  0.7967  0.4533
 1491SOL     OW 4717   3.378   4.745   3.030  0.2418  0.5116  0.4549
 1491SOL    HW1 4718   3.358   4.833   3.000 -0.5271 -0.1553 -1.1332
 1491SOL    HW2 4719   3.353   4.689   2.956  0.7732 -1.0235  1.4000
 1492SOL     OW 4720   4.361   3.545   2.316  0.1835 -0.2330 -0.1676
 1492SOL    HW1 4721   4.441   3.581   2.278 -1.2347  1.6929 -1.5294
 1492SOL    HW2 4722   4.320   3.619   2.360 -1.7934 -0.6621 -1.1716
 1493SOL     OW 4723   4.543   2.106   2.799 -0.2594 -0.2309 -0.7559
 1493SOL    HW1 4724   4.589   2.049   2.738 -0.7742 -2.7075  1.0088
 1493SOL    HW2 4725   4.455   2.113   2.763  0.4567  1.6376 -2.3017
 1494SOL     OW 4726   0.913   5.625   2.983 -0.3077  0.7921 -0.6048
 1494SOL    HW1 4727   0.967   5.558   3.026  0.0844  0.2362 -1.9080
 1494SOL    HW2 4728   0.973   5.699   2.970 -0.8862  1.6751  1.3479
 1495SOL     OW 4729   0.027   5.776   1.589  0.1244 -0.3164 -0.0603
 1495SOL    HW1 4730   0.024   5.743   1.678 -1.9771  0.9756  0.4319
 1495SOL    HW2 4731  -0.059   5.755   1.553  0.5561  0.1485 -1.4127
 1496SOL     OW 4732   2.008   6.121   1.294 -0.0529 -0.3038 -0.0570
 1496SOL    HW1 4733   2.086   6.075   1.325  0.5778  0.3452 -0.6253
 1496SOL    HW2 4734   1.935   6.080   1.340  0.8282  0.7119  2.4170
 1497SOL     OW 4735   1.669   2.122   4.091  0.1143 -0.2908 -0.1052
 1497SOL    HW1 4736   1.642   2.045   4.141 -1.7594  0.0756 -0.4663
 1497SOL    HW2 4737   1.656   2.195   4.151 -1.8147  0.1128 -0.9338
 1498SOL     OW 4738   2.024   5.654   1.956  0.3681 -0.3848 -0.1795
 1498SOL    HW1 4739   2.068   5.616   1.880  0.8675 -1.8364  0.8058
 1498SOL    HW2 4740   2.088   5.648   2.027 -0.8177 -0.9806  0.8674
 1499SOL     OW 4741   1.049   5.545   0.800  0.0374 -0.2904 -0.0914
 1499SOL    HW1 4742   1.098   5.584   0.728  1.0654 -3.3636 -1.2226
 1499SOL    HW2 4743   0.970   5.598   0.808  1.1432  1.7144 -1.6820
 1500SOL     OW 4744   3.339   0.910   1.407 -0.4229 -0.3348 -0.5577
 1500SOL    HW1 4745   3.280   0.848   1.451  0.2815 -0.7167 -0.1244
 1500SOL    HW2 4746   3.393   0.854   1.351  0.0601 -0.0810 -0.3441
 1501SOL     OW 4747   4.210   0.149   1.302  0.4658  0.5009  0.0205
 1501SOL    HW1 4748   4.152   0.220   1.330  0.4130  0.1509  0.8454
 1501SOL    HW2 4749   4.277   0.145   1.371  0.8604  0.2110 -0.3784
 1502SOL     OW 4750   5.393   4.095   1.161  0.0392 -0.2891  0.4472
 1502SOL    HW1 4751   5.303   4.119   1.181  0.0606  0.9076 -0.7392
 1502SOL    HW2 4752   5.396   4.091   1.066  0.9931 -1.3860  0.4969
 1503SOL     OW 4753   3.233   4.522   3.789 -0.0691  0.2465  0.2280
 1503SOL    HW1 4754   3.259   4.542   3.879 -1.0541 -1.2758  0.9070
 1503SOL    HW2 4755   3.209   4.429   3.792 -0.7720  0.3476 -1.4536
 1504SOL     OW 4756   4.348   0.392   3.164  0.0674 -0.3977 -0.1425
 1504SOL    HW1 4757   4.437   0.373   3.137 -0.5469 -2.0843 -1.1358
 1504SOL    HW2 4758   4.341   0.357   3.253  0.1988 -0.9436 -0.3415
 1505SOL     OW 4759   5.012   0.403   1.226  0.5893  0.0996  0.3510
 1505SOL    HW1 4760   5.015   0.407   1.130  1.8913  2.0291  0.4075
 1505SOL    HW2 4761   5.055   0.484   1.254 -1.7312  0.6735  2.5765
 1506SOL     OW 4762   3.975   2.034   0.945 -0.4021 -0.4415 -0.0968
 1506SOL    HW1 4763   3.913   2.106   0.934 -0.8491 -0.6621  0.8852
 1506SOL    HW2 4764   4.022   2.030   0.862 -0.5004  0.8589 -0.2304
 1507SOL     OW 4765   2.952   0.794   3.568  0.4052  0.4913  0.3084
 1507SOL    HW1 4766   2.993   0.724   3.519 -1.2071  0.4818 -1.1386
 1507SOL    HW2 4767   2.984   0.784   3.658  2.1328 -0.5247 -0.3920
 1508SOL     OW 4768   5.951   5.060   4.640 -0.1329  0.4980  0.6305
 1508SOL    HW1 4769   5.939   5.152   4.615  0.4865  0.6914  1.0332
 1508SOL    HW2 4770   5.915   5.011   4.566 -3.4527  0.9942  1.7448
 1509SOL     OW 4771   3.747   1.351   4.724 -0.3479  0.3287  0.6662
 1509SOL    HW1 4772   3.653   1.349   4.709 -0.1436 -0.5072 -0.6889
 1509SOL    HW2 4773   3.783   1.391   4.644  0.6074 -1.5844  0.0655
 1510SOL     OW 4774   0.191   3.848   4.436 -0.0569  0.0346 -0.1214
 1510SOL    HW1 4775   0.105   3.822   4.468 -0.8345  1.9008 -0.5666
 1510SOL    HW2 4776   0.249   3.840   4.512 -0.4636 -1.7833  0.0384
 1511SOL     OW 4777   0.761   1.031   0.551 -0.3401  0.6284 -0.7158
 1511SOL    HW1 4778   0.735   0.978   0.627  1.1024  0.0917 -0.5737
 1511SOL    HW2 4779   0.695   1.100   0.547 -0.5625  0.5441  0.9011
 1512SOL     OW 4780   0.268   3.031   4.443 -0.1400  0.2668  0.8329
 1512SOL    HW1 4781   0.221   2.949   4.463 -1.8352  0.6450 -1.2121
 1512SOL    HW2 4782   0.199   3.097   4.437  0.8639  1.2514 -0.3728
 1513SOL     OW 4783   1.356   0.411   1.701 -0.0244 -0.9669 -0.1433
 1513SOL    HW1 4784   1.290   0.456   1.648 -0.4126 -0.3491  0.8385
 1513SOL    HW2 4785   1.305   0.348   1.754 -0.2412  1.1530  2.3987
 1514SOL     OW 4786   4.779   0.973   3.364 -0.0620  0.2155  0.0242
 1514SOL    HW1 4787   4.871   0.959   3.385 -0.2969  0.2197  1.0789
 1514SOL    HW2 4788   4.733   0.899   3.405 -0.6855  0.9895  0.7427
 1515SOL     OW 4789   3.706   0.849   3.209  0.7414 -0.3965  0.0258
 1515SOL    HW1 4790   3.765   0.874   3.138 -0.0329  1.9928  0.1325
 1515SOL    HW2 4791   3.764   0.828   3.282  1.5060  0.8323 -0.2011
 1516SOL     OW 4792   3.161   3.234   3.096 -0.0800 -0.7152  0.2314
 1516SOL    HW1 4793   3.096   3.212   3.030 -0.1139 -0.4972  0.1885
 1516SOL    HW2 4794   3.135   3.322   3.126 -0.5820 -1.1763  1.1710
 1517SOL     OW 4795   3.815   5.416   5.236 -0.0664  0.0457 -0.2010
 1517SOL    HW1 4796   3.898   5.435   5.280  0.0961 -2.4548  0.7516
 1517SOL    HW2 4797   3.764   5.368   5.301 -1.5439 -0.0125 -1.3542
 1518SOL     OW 4798   3.510   3.038   1.217 -0.5920 -1.1316 -0.0486
 1518SOL    HW1 4799   3.471   2.981   1.284 -1.7022 -2.9100 -2.0720
 1518SOL    HW2 4800   3.455   3.025   1.140  0.0881  1.5226 -1.1033
 1519SOL     OW 4801   3.246   2.776   2.890 -0.2217 -0.6168 -0.3168
 1519SOL    HW1 4802   3.164   2.741   2.855  0.1707 -0.6524 -1.2347
 1519SOL    HW2 4803   3.283   2.703   2.940 -0.0024 -1.1260 -1.1970
 1520SOL     OW 4804   3.376   3.213   4.051 -0.5330  0.2165 -0.1111
 1520SOL    HW1 4805   3.380   3.222   4.146  0.1495  0.6905 -0.1780
 1520SOL    HW2 4806   3.449   3.155   4.030 -0.3545  0.5463 -0.3973
 1521SOL     OW 4807   0.629   4.630   0.986  0.1457  0.2567 -0.1659
 1521SOL    HW1 4808   0.677   4.566   0.932 -0.1916 -0.3863  0.2813
 1521SOL    HW2 4809   0.622   4.708   0.931  0.4167 -0.1536 -0.7879
 1522SOL     OW 4810   0.313   4.409   4.537  0.2952  0.2556  0.0919
 1522SOL    HW1 4811   0.238   4.354   4.561  0.7459 -0.1699  0.5800
 1522SOL    HW2 4812   0.344   4.445   4.620  1.6535 -0.9282  0.1447
 1523SOL     OW 4813   0.547   4.082   0.291  0.4113 -0.9294  0.1597
 1523SOL    HW1 4814   0.547   4.110   0.200  0.0820  1.6298  0.8734
 1523SOL    HW2 4815   0.478   4.016   0.296  0.7706 -1.4816 -1.5038
 1524SOL     OW 4816   2.686   0.334   0.208 -0.4470  0.5255  0.0493
 1524SOL    HW1 4817   2.715   0.332   0.117  1.1811 -0.3571  0.5425
 1524SOL    HW2 4818   2.762   0.366   0.256 -0.9942  0.1337  1.2090
 1525SOL     OW 4819   0.885   5.931   4.424 -0.1127 -0.0798 -0.4527
 1525SOL    HW1 4820   0.815   5.962   4.365 -0.5888  0.9513  0.6120
 1525SOL    HW2 4821   0.940   6.009   4.438 -0.1524 -0.2389  0.6503
 1526SOL     OW 4822   4.861   4.596   0.675  0.1401 -0.2583  0.4989
 1526SOL    HW1 4823   4.807   4.595   0.596  0.7565  1.2727  0.0210
 1526SOL    HW2 4824   4.893   4.506   0.683  1.7014 -0.0352 -2.1762
 1527SOL     OW 4825   4.841   1.046   1.276 -0.5969  0.2444  0.5621
 1527SOL    HW1 4826   4.785   1.095   1.336 -1.8274 -0.2478 -0.1612
 1527SOL    HW2 4827   4.784   1.020   1.204  0.3750 -0.9465  0.1770
 1528SOL     OW 4828   1.959   3.215   1.902  0.9571 -0.4700  0.0816
 1528SOL    HW1 4829   1.884   3.176   1.855  0.1121 -1.4667  2.1020
 1528SOL    HW2 4830   1.928   3.301   1.930  0.8879 -0.5196  0.1579
 1529SOL     OW 4831   0.062   2.989   1.225  0.1221  0.5609  0.2667
 1529SOL    HW1 4832   0.031   3.077   1.204  0.4160  0.4807 -0.4956
 1529SOL    HW2 4833  -0.004   2.956   1.286 -0.5173  0.9448 -0.1990
 1530SOL     OW 4834   4.752   1.261   5.617 -0.2593  0.0644  0.2303
 1530SOL    HW1 4835   4.714   1.296   5.537  0.0339  0.0278  0.0747
 1530SOL    HW2 4836   4.846   1.258   5.600 -0.2590 -0.6034  0.3126
 1531SOL     OW 4837   3.603   2.326   0.175  0.4089 -0.1181  0.3715
 1531SOL    HW1 4838   3.618   2.345   0.082 -0.3256  2.5084  0.7071
 1531SOL    HW2 4839   3.691   2.331   0.214  0.4054  1.8345  0.2447
 1532SOL     OW 4840   2.539   2.192   2.510 -0.3009  0.3122  0.2142
 1532SOL    HW1 4841   2.527   2.098   2.520  1.8279 -0.1113 -0.6193
 1532SOL    HW2 4842   2.533   2.228   2.598 -1.2726 -0.5674  0.5160
 1533SOL     OW 4843   0.695   5.518   4.409 -0.2024  0.1369  0.2287
 1533SOL    HW1 4844   0.677   5.605   4.444 -1.4050  0.3429 -0.8297
 1533SOL    HW2 4845   0.742   5.535   4.327  0.9638 -0.2749  0.7945
 1534SOL     OW 4846   5.111   4.237   3.584  0.1336 -0.3618 -0.8098
 1534SOL    HW1 4847   5.045   4.180   3.544  0.9546 -1.7132 -0.2945
 1534SOL    HW2 4848   5.086   4.242   3.676 -0.4543  0.8908 -1.0146
 1535SOL     OW 4849   4.651   1.613   4.127 -0.1165  0.1491 -0.1016
 1535SOL    HW1 4850   4.731   1.572   4.160  0.1991  1.1690  0.4745
 1535SOL    HW2 4851   4.632   1.567   4.046  1.8514  0.7550 -0.9946
 1536SOL     OW 4852   4.290   2.703   0.206 -0.3794  0.6552  0.6894
 1536SOL    HW1 4853   4.198   2.724   0.191 -0.5654  2.4557  3.4826
 1536SOL    HW2 4854   4.338   2.751   0.139 -1.4081 -0.5582 -0.9972
 1537SOL     OW 4855   2.142   3.264   4.706  0.0230  0.2297 -0.4164
 1537SOL    HW1 4856   2.143   3.280   4.800 -2.6260 -1.5468  0.0173
 1537SOL    HW2 4857   2.049   3.255   4.684  0.4373  1.7504 -3.4621
 1538SOL     OW 4858   2.233   4.787   5.832 -0.2041 -0.4020  0.0201
 1538SOL    HW1 4859   2.184   4.858   5.873  0.3355  0.8831 -1.4883
 1538SOL    HW2 4860   2.169   4.742   5.777 -0.7207 -1.5919  1.5227
 1539SOL     OW 4861   5.097   1.646   0.062  0.6557 -0.2112  0.9342
 1539SOL    HW1 4862   5.117   1.642   0.156  0.0265  0.0832  1.0842
 1539SOL    HW2 4863   5.068   1.736   0.047 -1.4226 -0.8304  0.9184
 1540SOL     OW 4864   1.289   0.817   5.038  0.3040  0.3936 -1.1559
 1540SOL    HW1 4865   1.279   0.910   5.059  1.8581 -0.1615  2.9743
 1540SOL    HW2 4866   1.380   0.808   5.009  0.2168  0.1098 -1.3475
 1541SOL     OW 4867   1.466   4.455   2.047  0.8016 -0.3762 -0.8789
 1541SOL    HW1 4868   1.379   4.432   2.015  1.4647 -1.4054 -2.0514
 1541SOL    HW2 4869   1.505   4.372   2.072  1.6367  0.0011 -0.8893
 1542SOL     OW 4870   4.006   4.725   4.184 -0.0932 -0.2153 -0.0534
 1542SOL    HW1 4871   3.920   4.691   4.211 -1.1659  3.2953  1.5659
 1542SOL    HW2 4872   4.058   4.724   4.264  1.0235 -1.1452 -0.7556
 1543SOL     OW 4873   5.190   5.384   0.206 -0.2919 -0.6385  0.1766
 1543SOL    HW1 4874   5.139   5.394   0.126 -1.5623  1.2738  1.1655
 1543SOL    HW2 4875   5.204   5.289   0.213 -1.7272 -1.0171 -1.3383
 1544SOL     OW 4876   5.376   0.451   0.233 -0.5088  0.4766  0.5617
 1544SOL    HW1 4877   5.337   0.530   0.271  2.1807  2.0209  0.3748
 1544SOL    HW2 4878   5.456   0.437   0.282 -0.7815 -2.0828  0.4252
 1545SOL     OW 4879   2.576   3.225   2.343 -0.2965 -0.0252 -0.1477
 1545SOL    HW1 4880   2.642   3.258   2.404 -1.8137  1.5801  0.7010
 1545SOL    HW2 4881   2.499   3.208   2.398 -0.4530 -2.4807 -1.0029
 1546SOL     OW 4882   2.405   5.070   2.820 -0.3904 -0.2730 -0.3968
 1546SOL    HW1 4883   2.499   5.059   2.831 -0.7503 -2.9394  0.9848
 1546SOL    HW2 4884   2.366   5.009   2.884 -3.1133  2.8641  1.2492
 1547SOL     OW 4885   3.925   3.493   1.165 -0.2360 -0.1027 -0.2961
 1547SOL    HW1 4886   3.887   3.473   1.080  0.6908  1.5129 -1.1341
 1547SOL    HW2 4887   3.860   3.550   1.207 -0.4705 -0.5010 -0.1115
 1548SOL     OW 4888   3.568   4.375   1.359 -0.1236 -0.4318  0.2414
 1548SOL    HW1 4889   3.614   4.447   1.317  0.8681 -1.6725 -0.9130
 1548SOL    HW2 4890   3.489   4.364   1.307  0.5301 -1.2058 -0.6266
 1549SOL     OW 4891   3.440   0.678   5.419  0.1287 -0.0177 -0.0598
 1549SOL    HW1 4892   3.427   0.584   5.407  3.6539 -0.7663  0.6650
 1549SOL    HW2 4893   3.474   0.708   5.334  1.3885 -0.0117  0.4158
 1550SOL     OW 4894   3.565   3.853   5.164 -0.2409 -0.1688 -0.1820
 1550SOL    HW1 4895   3.515   3.916   5.216  0.0310 -0.6877  0.7284
 1550SOL    HW2 4896   3.621   3.807   5.228 -0.1383 -1.0510 -0.8784
 1551SOL     OW 4897   4.196   0.634   5.523 -0.2418 -1.0352  0.0061
 1551SOL    HW1 4898   4.212   0.718   5.481 -1.7139 -1.0384 -0.6283
 1551SOL    HW2 4899   4.222   0.646   5.614  0.4421 -0.1918 -0.2946
 1552SOL     OW 4900   2.449   3.604   5.965  0.2398 -0.2027 -0.0904
 1552SOL    HW1 4901   2.538   3.600   6.000 -0.8059 -0.9667  2.7215
 1552SOL    HW2 4902   2.446   3.687   5.917  2.0370  0.6176  1.0938
 1553SOL     OW 4903   1.185   3.224   4.558 -0.4436  0.0134  0.1772
 1553SOL    HW1 4904   1.183   3.227   4.654 -0.1238 -1.3994  0.2531
 1553SOL    HW2 4905   1.229   3.142   4.538  2.3798  1.7157 -1.2030
 1554SOL     OW 4906   2.555   5.175   3.508  0.1437 -0.1634 -0.5452
 1554SOL    HW1 4907   2.634   5.229   3.518 -0.1901 -0.0365  1.8402
 1554SOL    HW2 4908   2.547   5.127   3.590 -1.5364 -1.1994 -1.2544
 1555SOL     OW 4909   0.943   1.182   0.802 -0.5049 -0.3234  0.4615
 1555SOL    HW1 4910   1.002   1.140   0.740  0.7548  2.0430 -0.0933
 1555SOL    HW2 4911   1.001   1.232   0.860 -1.8263 -0.2799  1.8223
 1556SOL     OW 4912   5.295   3.982   4.289  0.1850  0.0422 -0.6442
 1556SOL    HW1 4913   5.205   3.955   4.305 -0.3686  1.5365 -0.9776
 1556SOL    HW2 4914   5.326   3.923   4.220 -0.0050 -1.4391  0.4968
 1557SOL     OW 4915   0.802   1.335   3.490 -0.3036  0.0464  0.2870
 1557SOL    HW1 4916   0.751   1.254   3.488 -1.2102  0.5365  1.5719
 1557SOL    HW2 4917   0.770   1.385   3.416  0.3300 -0.7983 -0.5747
 1558SOL     OW 4918   3.048   2.368   5.105 -0.5398 -0.5262  0.2262
 1558SOL    HW1 4919   3.135   2.399   5.080 -0.9133 -1.0499 -1.9571
 1558SOL    HW2 4920   3.031   2.409   5.190  1.2418  0.7363  0.0302
 1559SOL     OW 4921   0.667   6.008   4.276  0.2489  0.2471  0.1817
 1559SOL    HW1 4922   0.666   6.084   4.335  0.0833  0.9777 -0.7438
 1559SOL    HW2 4923   0.620   6.038   4.198  0.0371 -0.8657 -0.1315
 1560SOL     OW 4924   5.402   4.085   0.241  0.4138 -0.1398  0.1260
 1560SOL    HW1 4925   5.471   4.150   0.239 -0.0919  0.4296  0.7452
 1560SOL    HW2 4926   5.336   4.121   0.300 -0.0763 -1.0067  0.1346
 1561SOL     OW 4927   2.833   2.905   1.531  0.3256  0.1454 -0.2071
 1561SOL    HW1 4928   2.745   2.939   1.540  0.2698  0.0719 -0.4696
 1561SOL    HW2 4929   2.890   2.982   1.538  0.2409  0.1932 -0.0488
 1562SOL     OW 4930   0.785   1.015   5.295 -0.1390  0.3498 -0.1190
 1562SOL    HW1 4931   0.789   0.984   5.205  2.0166  1.4164 -0.4579
 1562SOL    HW2 4932   0.862   0.977   5.337 -0.8098  0.3221  1.1150
 1563SOL     OW 4933   2.253   5.164   3.450 -0.0912  0.1633  0.0800
 1563SOL    HW1 4934   2.333   5.111   3.453 -0.5297 -0.4930  2.9875
 1563SOL    HW2 4935   2.283   5.254   3.440  0.8826 -0.2518 -0.8605
 1564SOL     OW 4936   1.797   0.909   3.139  0.4847  0.2261  0.7297
 1564SOL    HW1 4937   1.724   0.968   3.119 -1.3910 -1.7102  1.5430
 1564SOL    HW2 4938   1.796   0.844   3.069 -0.8896 -1.8314  2.5366
 1565SOL     OW 4939   0.803   2.366   0.241 -0.3035  0.5106  0.1931
 1565SOL    HW1 4940   0.844   2.329   0.319  1.4510 -1.3019 -1.4886
 1565SOL    HW2 4941   0.739   2.300   0.214 -0.8343  1.0851  0.0279
 1566SOL     OW 4942   4.603   3.253   4.531 -0.7014  0.1066  0.5855
 1566SOL    HW1 4943   4.603   3.165   4.493  2.4524 -0.8998  2.5624
 1566SOL    HW2 4944   4.646   3.307   4.465 -0.5675 -0.3356  0.3052
 1567SOL     OW 4945   0.068   0.614   4.397 -0.1270  0.1176  0.0498
 1567SOL    HW1 4946   0.005   0.685   4.385 -0.2458 -0.0747 -0.4855
 1567SOL    HW2 4947   0.042   0.573   4.479 -0.2282  0.5218  0.2211
 1568SOL     OW 4948   1.006   3.705   2.633  0.4108  0.1600  0.8316
 1568SOL    HW1 4949   1.038   3.789   2.598  1.4653 -0.7938 -0.6469
 1568SOL    HW2 4950   1.071   3.680   2.698  0.6971 -0.0115  0.4865
 1569SOL     OW 4951   3.491   1.926   4.459 -0.4664  0.1734  0.0775
 1569SOL    HW1 4952   3.543   1.853   4.493 -0.9996 -0.6474 -0.8414
 1569SOL    HW2 4953   3.423   1.885   4.406 -0.2257  1.3748 -1.2037
 1570SOL     OW 4954   3.408   2.710   5.209  0.3872  0.1531  0.2967
 1570SOL    HW1 4955   3.327   2.728   5.160 -0.3250 -1.1867  0.9165
 1570SOL    HW2 4956   3.461   2.658   5.149  0.2855  0.0302  0.3132
 1571SOL     OW 4957   5.795   4.339   3.720  0.1202 -0.3384  0.0139
 1571SOL    HW1 4958   5.858   4.297   3.661  1.0166 -1.5435  1.7294
 1571SOL    HW2 4959   5.843   4.413   3.757  0.1924 -0.6359  0.5325
 1572SOL     OW 4960   3.488   1.568   5.406 -0.3495  0.4146 -0.3241
 1572SOL    HW1 4961   3.556   1.503   5.425  0.9303  0.9343 -2.7678
 1572SOL    HW2 4962   3.407   1.527   5.437  0.5665 -1.8885 -0.7539
 1573SOL     OW 4963   1.670   1.157   4.793  0.4724  0.1233 -0.3219
 1573SOL    HW1 4964   1.737   1.096   4.761  0.4338 -1.2021  1.9620
 1573SOL    HW2 4965   1.712   1.202   4.866 -1.2368 -1.1345  1.5244
 1574SOL     OW 4966   5.248   6.045   5.590 -0.0374 -0.0183 -0.4018
 1574SOL    HW1 4967   5.263   5.966   5.538 -1.2581  0.0966 -0.9530
 1574SOL    HW2 4968   5.156   6.067   5.576 -0.1530  0.5711  1.0461
 1575SOL     OW 4969   3.248   3.189   3.817 -0.0662 -0.5747  0.6971
 1575SOL    HW1 4970   3.301   3.180   3.896  0.7080 -0.6207  0.1878
 1575SOL    HW2 4971   3.295   3.254   3.764  0.6881 -2.1883 -0.7175
 1576SOL     OW 4972   5.150   5.372   1.454 -0.0314 -0.3008  0.2205
 1576SOL    HW1 4973   5.183   5.460   1.437 -0.8669  0.5951  2.7849
 1576SOL    HW2 4974   5.214   5.333   1.512 -0.3215 -0.9168  0.1393
 1577SOL     OW 4975   1.986   1.312   0.122 -0.1727  0.2354 -0.0704
 1577SOL    HW1 4976   2.029   1.316   0.036  0.5411  1.4844  0.3223
 1577SOL    HW2 4977   2.055   1.335   0.184 -0.8595  0.0266  0.7866
 1578SOL     OW 4978   5.095   1.132   3.399  0.0277 -0.3162  0.7192
 1578SOL    HW1 4979   5.086   1.202   3.464  0.8497 -0.6982  1.2637
 1578SOL    HW2 4980   5.090   1.177   3.314  1.7492  0.5911  1.0620
 1579SOL     OW 4981   4.348   6.083   1.858 -0.0216  0.8280  0.2501
 1579SOL    HW1 4982   4.437   6.054   1.840 -1.0017 -1.4235 -1.4935
 1579SOL    HW2 4983   4.306   6.085   1.772 -2.3199 -0.7158  1.2257
 1580SOL     OW 4984   0.101   0.938   2.038 -0.1888 -0.1430  0.5070
 1580SOL    HW1 4985   0.119   0.845   2.048 -0.2229 -0.0175  1.8909
 1580SOL    HW2 4986   0.181   0.974   2.000 -1.3269 -1.2235 -3.4163
 1581SOL     OW 4987   2.928   2.607   3.789  0.3370  0.2957  0.3415
 1581SOL    HW1 4988   2.997   2.601   3.723  1.3170  0.3543  1.3409
 1581SOL    HW2 4989   2.973   2.633   3.869 -0.6224 -1.1141  1.3819
 1582SOL     OW 4990   0.472   1.404   3.557  0.1803  0.1873  0.2427
 1582SOL    HW1 4991   0.452   1.311   3.563 -0.1985  0.2467 -0.0721
 1582SOL    HW2 4992   0.390   1.448   3.580  0.1734  0.4398 -0.2540
 1583SOL     OW 4993   0.810   3.664   4.994  0.3183  0.5263  0.3348
 1583SOL    HW1 4994   0.732   3.695   4.949  0.1336  1.3868  1.2299
 1583SOL    HW2 4995   0.779   3.635   5.080  0.7864 -0.3847  0.2105
 1584SOL     OW 4996   1.064   3.359   3.862 -0.6622 -0.0602  0.1102
 1584SOL    HW1 4997   1.023   3.406   3.934 -2.0257 -1.1334  0.0669
 1584SOL    HW2 4998   1.113   3.289   3.904 -1.2817 -0.5559  0.0123
 1585SOL     OW 4999   4.863   3.239   0.862 -0.0254  0.2238 -0.4367
 1585SOL    HW1 5000   4.789   3.191   0.826 -0.4802  0.2880  0.3813
 1585SOL    HW2 5001   4.836   3.330   0.863 -1.0123 -0.0009  2.2314
 1586SOL     OW 5002   5.832   2.991   1.728  0.3054 -0.2616 -0.1141
 1586SOL    HW1 5003   5.762   2.933   1.696 -0.9892  1.8292 -1.3361
 1586SOL    HW2 5004   5.912   2.955   1.690 -0.3947 -1.4814 -0.4872
 1587SOL     OW 5005   1.678   1.367   1.042 -0.4863  0.1201  0.6611
 1587SOL    HW1 5006   1.609   1.422   1.080  0.6031  2.8062 -1.0039
 1587SOL    HW2 5007   1.683   1.394   0.951  2.3507 -0.3894  0.5685
 1588SOL     OW 5008   0.640   2.677   4.852 -0.3869 -0.2807  0.0227
 1588SOL    HW1 5009   0.698   2.646   4.783 -1.2190 -1.8464 -0.0252
 1588SOL    HW2 5010   0.686   2.658   4.933 -0.0768  0.1289 -0.0546
 1589SOL     OW 5011   3.504   0.253   1.639  0.8330 -0.5071  0.0934
 1589SOL    HW1 5012   3.522   0.159   1.630 -0.6767 -0.8856  0.7193
 1589SOL    HW2 5013   3.584   0.289   1.678  1.5975 -1.4436 -0.5508
 1590SOL     OW 5014   5.965   2.294   3.269  0.0392 -0.5575 -0.2046
 1590SOL    HW1 5015   6.035   2.332   3.322 -0.3183 -1.0701  0.6430
 1590SOL    HW2 5016   6.010   2.258   3.192  0.5465  0.2793 -0.3136
 1591SOL     OW 5017   5.208   4.043   2.659 -0.3639 -0.2317 -0.2072
 1591SOL    HW1 5018   5.199   3.966   2.715 -0.7073 -0.2672 -0.3121
 1591SOL    HW2 5019   5.172   4.016   2.574 -0.1932 -0.0572 -0.3385
 1592SOL     OW 5020   2.001   2.470   1.271  0.2662  0.0966 -0.3108
 1592SOL    HW1 5021   1.954   2.420   1.205  0.4201  1.7572 -1.7416
 1592SOL    HW2 5022   1.942   2.474   1.346 -1.8425  1.8741 -1.9530
 1593SOL     OW 5023   3.593   3.341   1.101  0.3344 -0.6703  0.1718
 1593SOL    HW1 5024   3.595   3.432   1.129 -1.9849 -0.6963  0.5937
 1593SOL    HW2 5025   3.543   3.296   1.169 -2.1916 -1.4588 -2.0244
 1594SOL     OW 5026   4.953   4.555   3.476  0.1209 -0.5800 -0.5083
 1594SOL    HW1 5027   4.907   4.482   3.517  0.2242  0.0808  0.8115
 1594SOL    HW2 5028   5.046   4.537   3.493  0.0746  0.9001  1.7235
 1595SOL     OW 5029   2.934   1.864   0.484  0.6617 -0.3426 -1.0193
 1595SOL    HW1 5030   2.865   1.908   0.533  2.3008  1.4558 -0.2106
 1595SOL    HW2 5031   2.917   1.887   0.392  1.6943  2.5382 -0.6071
 1596SOL     OW 5032   2.928   2.258   3.270 -0.4958 -0.1945 -0.1984
 1596SOL    HW1 5033   2.910   2.250   3.364  0.1903  0.2152 -0.0276
 1596SOL    HW2 5034   2.865   2.322   3.239  0.7582  1.4076  0.4400
 1597SOL     OW 5035   5.024   5.778   5.746 -0.1481 -0.0640  0.6583
 1597SOL    HW1 5036   5.049   5.855   5.798  1.6290 -0.5568  0.5860
 1597SOL    HW2 5037   5.096   5.716   5.758 -0.5177 -0.8693 -1.0122
 1598SOL     OW 5038   4.938   1.449   0.387  0.5245 -0.5856 -0.6236
 1598SOL    HW1 5039   4.992   1.504   0.330 -1.5702 -0.0923 -2.2998
 1598SOL    HW2 5040   4.993   1.432   0.463  2.8069  0.2881 -1.9543
 1599SOL     OW 5041   5.403   0.137   2.668 -0.4982  0.2821 -0.5486
 1599SOL    HW1 5042   5.407   0.231   2.653 -0.9763  0.2862 -0.6980
 1599SOL    HW2 5043   5.314   0.113   2.641  0.1732 -0.5070 -2.2169
 1600SOL     OW 5044   3.596   0.201   4.453  0.4289  0.0476 -0.3581
 1600SOL    HW1 5045   3.586   0.292   4.484 -0.0348  0.2288 -1.0219
 1600SOL    HW2 5046   3.512   0.160   4.474  0.1657  0.1293 -1.2229
 1601SOL     OW 5047   3.849   1.788   1.743 -0.4262  1.0401  0.2820
 1601SOL    HW1 5048   3.859   1.883   1.747 -0.3278  1.1330 -1.4207
 1601SOL    HW2 5049   3.866   1.766   1.652 -1.5168 -0.4952  0.4076
 1602SOL     OW 5050   5.964   2.884   2.710 -0.3983  0.4155  0.1378
 1602SOL    HW1 5051   5.883   2.928   2.737 -2.1177 -2.1829 -0.4769
 1602SOL    HW2 5052   6.014   2.874   2.791 -0.1932  2.8464  0.3958
 1603SOL     OW 5053   2.906   5.453   4.945  0.2796 -0.1371  0.3973
 1603SOL    HW1 5054   2.993   5.460   4.984 -0.5435  1.5356  2.1331
 1603SOL    HW2 5055   2.858   5.394   5.002  0.2061 -0.9430 -0.4719
 1604SOL     OW 5056   3.775   3.951   0.864  0.1759 -0.6851  0.2489
 1604SOL    HW1 5057   3.749   3.865   0.897  0.4635 -0.1960  1.8448
 1604SOL    HW2 5058   3.860   3.967   0.906 -0.8037  1.2344  1.6496
 1605SOL     OW 5059   5.782   5.741   2.954  0.1915 -0.1671 -0.1707
 1605SOL    HW1 5060   5.724   5.817   2.953  0.8761  0.3777  0.3030
 1605SOL    HW2 5061   5.768   5.698   2.870  2.6572  2.7073 -2.2836
 1606SOL     OW 5062   5.183   3.496   1.237 -0.2690 -0.3180 -0.5564
 1606SOL    HW1 5063   5.107   3.455   1.196 -0.0429 -1.1333 -0.1819
 1606SOL    HW2 5064   5.241   3.519   1.164 -1.3175  1.2863 -0.9343
 1607SOL     OW 5065   0.749   6.089   0.221  0.0186 -0.1858  0.2529
 1607SOL    HW1 5066   0.710   6.032   0.154  1.5633  0.3305 -1.1789
 1607SOL    HW2 5067   0.769   6.031   0.294 -1.0691 -0.9135 -0.0125
 1608SOL     OW 5068   0.421   2.267   3.680  0.5710 -0.1687 -0.5441
 1608SOL    HW1 5069   0.426   2.198   3.614  0.0045 -0.5136 -0.2382
 1608SOL    HW2 5070   0.383   2.224   3.757  0.1944  0.4790 -0.3558
 1609SOL     OW 5071   0.683   2.690   0.001 -0.0352  0.1270 -0.0329
 1609SOL    HW1 5072   0.706   2.765  -0.054 -3.0116 -0.5609 -2.4706
 1609SOL    HW2 5073   0.762   2.635   0.001  0.2120  0.3060 -3.4870
 1610SOL     OW 5074   1.305   4.974   1.270 -0.6859 -0.1330 -0.4027
 1610SOL    HW1 5075   1.212   4.954   1.283 -0.2643 -0.8208  1.9003
 1610SOL    HW2 5076   1.338   4.995   1.357  1.7878 -1.8812 -0.8152
 1611SOL     OW 5077   5.082   0.372   2.604  0.0532  0.0772  0.3458
 1611SOL    HW1 5078   5.033   0.342   2.680 -0.7094 -0.5059 -0.3691
 1611SOL    HW2 5079   5.039   0.331   2.529 -0.8318  2.6238 -0.6560
 1612SOL     OW 5080   2.291   0.768   3.477  0.7054  0.3111  0.1636
 1612SOL    HW1 5081   2.254   0.733   3.396 -0.1433  0.7505  0.3478
 1612SOL    HW2 5082   2.315   0.690   3.527 -1.7553 -0.1004  0.8471
 1613SOL     OW 5083   4.780   4.693   2.831  0.3177 -0.5616  0.1883
 1613SOL    HW1 5084   4.772   4.714   2.924  0.9229 -0.1668  0.1589
 1613SOL    HW2 5085   4.756   4.775   2.786  0.4453 -0.6214  0.0092
 1614SOL     OW 5086   4.646   3.145   0.215  1.0401 -0.2792  0.5178
 1614SOL    HW1 5087   4.631   3.237   0.234  1.5066 -0.2872  0.9510
 1614SOL    HW2 5088   4.718   3.120   0.273  0.4972 -1.0841  0.8531
 1615SOL     OW 5089   2.004   1.878   4.976  0.1335  0.5828 -0.4812
 1615SOL    HW1 5090   1.944   1.826   5.030  0.5217 -0.5471 -1.1120
 1615SOL    HW2 5091   2.086   1.829   4.975  0.3939  1.0003 -1.4086
 1616SOL     OW 5092   1.122   4.895   0.332 -0.1943  0.3614 -0.1826
 1616SOL    HW1 5093   1.180   4.820   0.317  0.1724  0.4960  0.4979
 1616SOL    HW2 5094   1.072   4.903   0.251  0.2127 -0.2213 -0.5049
 1617SOL     OW 5095   1.458   3.489   2.015  0.0672 -0.4620 -0.1878
 1617SOL    HW1 5096   1.530   3.551   2.027 -0.7282  0.2637  1.0342
 1617SOL    HW2 5097   1.500   3.409   1.983  1.3686  0.0543  0.1725
 1618SOL     OW 5098   1.283   0.503   0.509 -0.1415  0.0626 -0.3422
 1618SOL    HW1 5099   1.220   0.467   0.447  0.0975 -0.2707 -0.3928
 1618SOL    HW2 5100   1.365   0.460   0.488  0.0424  0.2832 -0.0879
 1619SOL     OW 5101   5.823   0.270   4.089 -0.7054 -0.2978  0.5792
 1619SOL    HW1 5102   5.874   0.347   4.114 -1.3273  0.8290 -1.4444
 1619SOL    HW2 5103   5.861   0.242   4.006 -4.1335  1.5316 -1.8713
 1620SOL     OW 5104   0.904   1.752   2.639  0.3285 -0.2911 -0.0461
 1620SOL    HW1 5105   0.941   1.687   2.699 -1.1011 -1.5002 -0.4074
 1620SOL    HW2 5106   0.817   1.770   2.673  0.0292  0.0746 -0.9631
 1621SOL     OW 5107   1.421   1.057   2.545 -0.1745 -0.5833 -0.4889
 1621SOL    HW1 5108   1.377   1.017   2.471 -0.2998  0.3451 -0.9343
 1621SOL    HW2 5109   1.500   1.096   2.508  0.1872 -0.8239  0.0142
 1622SOL     OW 5110   5.618   0.884   1.201  0.0339  0.1973 -0.0736
 1622SOL    HW1 5111   5.574   0.944   1.141 -0.9744 -0.5467 -0.1028
 1622SOL    HW2 5112   5.621   0.801   1.154 -0.9005 -0.4311  0.9315
 1623SOL     OW 5113   0.136   0.023   0.448  0.7686 -0.1872 -0.1515
 1623SOL    HW1 5114   0.163  -0.054   0.398 -1.8239 -0.6427 -0.9885
 1623SOL    HW2 5115   0.169   0.097   0.398  2.1810 -0.6790 -0.0121
 1624SOL     OW 5116   2.972   2.213   0.577 -0.0510  0.2981  0.1669
 1624SOL    HW1 5117   2.955   2.249   0.665  3.0178  1.1071  0.5408
 1624SOL    HW2 5118   2.984   2.290   0.522 -0.1288 -0.2132 -0.5786
 1625SOL     OW 5119   3.458   4.961   4.168  0.8300 -0.0740  0.9117
 1625SOL    HW1 5120   3.432   4.960   4.076  0.8637 -0.4428  0.9022
 1625SOL    HW2 5121   3.454   4.869   4.195 -1.0925  0.2454  1.8371
 1626SOL     OW 5122   0.018   3.809   5.226  0.1090 -0.2670 -0.5079
 1626SOL    HW1 5123  -0.031   3.764   5.157 -0.4328  0.5901 -0.6957
 1626SOL    HW2 5124  -0.050   3.845   5.283  0.5479 -0.7233  0.3174
 1627SOL     OW 5125   2.668   2.021   4.522  0.1825 -0.5440 -0.1944
 1627SOL    HW1 5126   2.602   1.998   4.457 -0.1424 -0.1438 -0.0150
 1627SOL    HW2 5127   2.686   2.114   4.505 -0.8541 -0.0787  1.0960
 1628SOL     OW 5128   3.179   1.869   3.302 -0.2719  0.3466 -0.0544
 1628SOL    HW1 5129   3.234   1.840   3.230 -0.2151 -0.4715  0.3064
 1628SOL    HW2 5130   3.120   1.933   3.263  0.4568  0.7123 -0.5963
 1629SOL     OW 5131   3.631   4.734   4.708  0.5005  0.1896  0.3842
 1629SOL    HW1 5132   3.686   4.737   4.786 -0.7747 -1.2623  1.4134
 1629SOL    HW2 5133   3.661   4.656   4.661 -0.0345 -0.0816  0.4807
 1630SOL     OW 5134   2.410   2.687   2.552  0.0247 -0.4104 -0.3021
 1630SOL    HW1 5135   2.381   2.602   2.586 -2.5828  0.5845  0.2163
 1630SOL    HW2 5136   2.372   2.691   2.464  0.0269  0.2473 -0.2741
 1631SOL     OW 5137   3.947   4.448   2.481  0.0491 -1.2577  0.4303
 1631SOL    HW1 5138   3.862   4.426   2.519  0.0134  1.0191  1.7926
 1631SOL    HW2 5139   4.007   4.448   2.555  0.7998 -0.7018 -0.1739
 1632SOL     OW 5140   3.602   5.145   1.713  0.1420 -0.3546 -0.2387
 1632SOL    HW1 5141   3.651   5.163   1.632 -0.8858  0.0415 -0.7867
 1632SOL    HW2 5142   3.664   5.164   1.783  0.6794  0.4406 -0.9108
 1633SOL     OW 5143   0.968   3.510   0.988  0.0628 -0.2091 -0.3644
 1633SOL    HW1 5144   1.044   3.515   0.931  0.5803 -1.1291  0.2283
 1633SOL    HW2 5145   0.994   3.554   1.068 -0.4674  0.5797 -0.6165
 1634SOL     OW 5146   2.608   1.537   2.415 -0.1671 -0.3733  0.8313
 1634SOL    HW1 5147   2.594   1.537   2.320  0.3306  0.1332  0.7505
 1634SOL    HW2 5148   2.702   1.557   2.425 -0.6401  1.8097  1.4828
 1635SOL     OW 5149   0.027   1.706   3.218 -0.2083  0.2940  0.3645
 1635SOL    HW1 5150   0.048   1.757   3.139  1.3982  1.8318  1.6916
 1635SOL    HW2 5151  -0.032   1.763   3.268 -1.5623 -0.8514  0.1074
 1636SOL     OW 5152   4.429   4.825   3.273  0.0815 -0.1554 -0.1559
 1636SOL    HW1 5153   4.456   4.733   3.274  0.4668 -0.0486 -0.2576
 1636SOL    HW2 5154   4.412   4.846   3.365  0.5802 -0.1669 -0.0577
 1637SOL     OW 5155   4.356   3.404   6.022 -0.4257  0.0998 -0.5723
 1637SOL    HW1 5156   4.362   3.345   6.098  1.5385 -0.0401 -0.7773
 1637SOL    HW2 5157   4.277   3.455   6.038 -0.8732 -0.9528  0.8219
 1638SOL     OW 5158   4.332   1.284   4.214  0.0044  0.2898 -0.4288
 1638SOL    HW1 5159   4.409   1.228   4.215 -0.2269 -0.0527 -1.0503
 1638SOL    HW2 5160   4.367   1.373   4.223  0.3435  0.0407  0.9555
 1639SOL     OW 5161   5.765   1.968   5.764 -0.3457  0.1885  0.2848
 1639SOL    HW1 5162   5.848   1.977   5.717 -0.6483 -1.5958 -0.6530
 1639SOL    HW2 5163   5.714   2.044   5.736  1.7630  2.7456  2.7720
 1640SOL     OW 5164   3.049   4.567   2.669  0.6748 -0.0484 -0.2451
 1640SOL    HW1 5165   3.120   4.585   2.607  0.5182 -0.5925 -0.5834
 1640SOL    HW2 5166   3.023   4.654   2.701  0.0291  0.3505 -1.7549
 1641SOL     OW 5167   0.131   0.945   4.123 -0.1779  0.5110 -0.4327
 1641SOL    HW1 5168   0.077   0.869   4.102 -2.2719  1.7936 -0.0457
 1641SOL    HW2 5169   0.142   0.989   4.039 -1.1128  1.0577 -0.2873
 1642SOL     OW 5170   2.475   3.419   1.761 -0.1596 -0.1085  0.0865
 1642SOL    HW1 5171   2.529   3.498   1.759 -0.5122  0.1253 -1.0041
 1642SOL    HW2 5172   2.388   3.450   1.785  0.0201 -0.3762  1.0927
 1643SOL     OW 5173   5.327   2.614   2.996 -0.0367 -0.4846  0.4372
 1643SOL    HW1 5174   5.311   2.706   3.017  0.2482 -0.4908  0.6891
 1643SOL    HW2 5175   5.421   2.610   2.977 -0.2842 -0.4556 -0.9465
 1644SOL     OW 5176   3.438   0.329   5.938  0.2436 -0.5365  0.0524
 1644SOL    HW1 5177   3.421   0.284   6.021  0.3683 -0.0942  0.3194
 1644SOL    HW2 5178   3.454   0.420   5.963 -1.3649 -0.0416 -0.5957
 1645SOL     OW 5179   5.336   0.228   4.899  0.1882 -0.8573 -0.1159
 1645SOL    HW1 5180   5.258   0.276   4.926  0.9670  0.6163 -0.3253
 1645SOL    HW2 5181   5.333   0.228   4.804  1.2251  0.6790 -0.1903
 1646SOL     OW 5182   1.078   5.940   4.061  0.4011  0.3857 -0.0317
 1646SOL    HW1 5183   1.138   5.866   4.056  0.8387  0.7928 -1.8809
 1646SOL    HW2 5184   1.124   6.005   4.114  1.2206  0.3298 -0.6450
 1647SOL     OW 5185   6.108   0.534   0.648  0.0214  0.5952  0.4395
 1647SOL    HW1 5186   6.187   0.524   0.596 -0.7598  1.3713 -0.9800
 1647SOL    HW2 5187   6.083   0.445   0.672 -0.1797  0.0977 -1.4822
 1648SOL     OW 5188   5.045   4.236   5.990 -0.4234  0.1887 -0.0088
 1648SOL    HW1 5189   5.084   4.322   6.004  1.1947 -0.7030  1.3557
 1648SOL    HW2 5190   5.060   4.218   5.897 -0.3429  1.1695 -0.1926
 1649SOL     OW 5191   4.737   0.556   1.615 -0.1736  0.4343 -0.1496
 1649SOL    HW1 5192   4.678   0.520   1.549  0.3859  0.5454 -0.7300
 1649SOL    HW2 5193   4.823   0.554   1.573  0.2339  0.2986  0.6637
 1650SOL     OW 5194   1.406   1.336   2.234 -0.0007  0.4437 -0.2104
 1650SOL    HW1 5195   1.351   1.371   2.304 -0.7613  0.8719 -1.0020
 1650SOL    HW2 5196   1.348   1.330   2.158  0.5798 -0.8105 -0.5965
 1651SOL     OW 5197   1.899   5.474   1.601 -0.3015 -0.2303  0.2726
 1651SOL    HW1 5198   1.849   5.397   1.575  0.3876 -0.9089  0.8917
 1651SOL    HW2 5199   1.984   5.439   1.628  0.3277  0.8405 -0.2604
 1652SOL     OW 5200   2.626   4.714   1.196 -0.4259  0.2143 -0.6286
 1652SOL    HW1 5201   2.628   4.749   1.107 -0.7448  0.4403 -0.5478
 1652SOL    HW2 5202   2.660   4.785   1.251  2.2618 -0.7964 -0.8375
 1653SOL     OW 5203   0.768   4.576   4.699  0.6637  0.0753  0.1892
 1653SOL    HW1 5204   0.693   4.518   4.712  0.4999  0.2681  0.1035
 1653SOL    HW2 5205   0.842   4.528   4.737  1.2532 -1.7641 -2.9393
 1654SOL     OW 5206   4.298   2.127   3.167  0.1299 -0.0049 -0.0018
 1654SOL    HW1 5207   4.227   2.124   3.231  0.0534 -0.6171 -0.1014
 1654SOL    HW2 5208   4.260   2.167   3.089 -0.2121 -0.6424 -0.1713
 1655SOL     OW 5209   4.190   1.152   1.229 -0.4044 -0.0649  0.1074
 1655SOL    HW1 5210   4.112   1.208   1.221 -0.4480 -0.3620 -2.1022
 1655SOL    HW2 5211   4.225   1.173   1.316 -2.0337  1.2618  0.5069
 1656SOL     OW 5212   0.101   4.244   0.471  0.3352  0.2041 -0.1800
 1656SOL    HW1 5213   0.009   4.220   0.474  0.3922 -0.0896  3.8395
 1656SOL    HW2 5214   0.145   4.180   0.526  2.7425  1.1741 -0.8272
 1657SOL     OW 5215   2.034   5.112   5.372 -0.1006 -0.0045 -0.1349
 1657SOL    HW1 5216   2.052   5.049   5.303  0.2285  1.0928 -1.0854
 1657SOL    HW2 5217   2.120   5.149   5.394 -0.2288 -0.1974  0.7207
 1658SOL     OW 5218   5.758   1.807   2.496  0.1738  0.1172 -0.1800
 1658SOL    HW1 5219   5.770   1.829   2.404  0.2372 -0.3719 -0.2944
 1658SOL    HW2 5220   5.846   1.792   2.529  0.2065  0.9846  0.1440
 1659SOL     OW 5221   1.776   1.341   1.978  0.6253  0.0319  0.2043
 1659SOL    HW1 5222   1.869   1.316   1.973  0.5517 -0.4888  1.1293
 1659SOL    HW2 5223   1.777   1.426   2.021  0.6222 -0.5251  1.3461
 1660SOL     OW 5224   3.477   2.736   4.821 -0.0403  0.1290 -0.2437
 1660SOL    HW1 5225   3.514   2.799   4.883  0.6896  0.8547 -1.3822
 1660SOL    HW2 5226   3.437   2.670   4.876  2.0198 -0.1304  1.0581
 1661SOL     OW 5227   3.386   5.860   3.266  0.2194 -0.2415 -0.2391
 1661SOL    HW1 5228   3.451   5.922   3.299  1.2622 -1.1556 -0.4906
 1661SOL    HW2 5229   3.416   5.775   3.297 -0.2080 -0.8169 -1.3259
 1662SOL     OW 5230   0.522   1.614   0.791 -0.1637 -0.1412  0.0582
 1662SOL    HW1 5231   0.576   1.607   0.713  0.9036 -0.5293  0.8108
 1662SOL    HW2 5232   0.549   1.697   0.832 -1.8667  0.8945 -0.7963
 1663SOL     OW 5233   2.842   4.310   2.915 -0.5101 -0.4946 -0.3205
 1663SOL    HW1 5234   2.819   4.351   2.998 -1.2420 -0.4558 -0.5316
 1663SOL    HW2 5235   2.929   4.272   2.929 -0.7253 -0.6827  0.5227
 1664SOL     OW 5236   5.382   2.899   1.986  0.4648  0.1222 -0.2393
 1664SOL    HW1 5237   5.478   2.899   1.976  0.7600  0.2739  2.0287
 1664SOL    HW2 5238   5.360   2.992   1.996  0.2744 -0.0102  0.6262
 1665SOL     OW 5239   5.480   5.497   0.697  0.4888 -0.1762 -0.0859
 1665SOL    HW1 5240   5.501   5.414   0.740  1.0782  0.7984  1.5530
 1665SOL    HW2 5241   5.466   5.559   0.768  2.2979  1.6944 -1.2680
 1666SOL     OW 5242   2.795   5.336   3.523  0.0838 -0.1394  0.5265
 1666SOL    HW1 5243   2.775   5.411   3.579 -0.9351  0.5740 -0.7446
 1666SOL    HW2 5244   2.862   5.288   3.571  0.0676  1.0608  1.8181
 1667SOL     OW 5245   5.595   5.794   1.936 -0.1186  0.2924  0.0233
 1667SOL    HW1 5246   5.615   5.753   2.021  0.2220 -0.4988 -0.4284
 1667SOL    HW2 5247   5.502   5.814   1.940 -0.0806  0.3714  0.6316
 1668SOL     OW 5248   3.282   3.664   1.305  0.0028 -0.2209 -0.0393
 1668SOL    HW1 5249   3.232   3.743   1.280 -0.1463 -0.0108  0.9134
 1668SOL    HW2 5250   3.261   3.650   1.397 -1.2913 -2.3495 -0.5823
 1669SOL     OW 5251   3.124   1.100   2.622 -0.0069 -0.3151 -0.2254
 1669SOL    HW1 5252   3.171   1.169   2.575  2.5919 -1.5822  0.2945
 1669SOL    HW2 5253   3.189   1.030   2.631 -1.3829 -1.3680  2.4735
 1670SOL     OW 5254   1.462   1.583   4.956  0.3864 -0.0654  0.3602
 1670SOL    HW1 5255   1.553   1.613   4.954  0.6066 -0.6903  0.8724
 1670SOL    HW2 5256   1.439   1.584   5.049 -0.1478  0.1347  0.2264
 1671SOL     OW 5257   5.675   3.563   2.450 -0.8570  0.4111  0.1394
 1671SOL    HW1 5258   5.752   3.618   2.431 -1.8853  1.5372 -0.9489
 1671SOL    HW2 5259   5.703   3.475   2.426  0.7177  0.4658  1.5698
 1672SOL     OW 5260   1.060   3.241   3.033 -0.1430 -0.2100 -0.2015
 1672SOL    HW1 5261   0.992   3.225   2.967 -0.6134 -0.1259  0.2596
 1672SOL    HW2 5262   1.013   3.278   3.108  0.5421  0.7111 -0.2146
 1673SOL     OW 5263   3.672   2.646   0.801  0.0160  0.2844  0.2412
 1673SOL    HW1 5264   3.693   2.555   0.823  0.5569  0.4417  0.4007
 1673SOL    HW2 5265   3.681   2.650   0.706 -1.2653 -0.1363  0.0899
 1674SOL     OW 5266   1.453   0.292   3.219  0.0010 -0.5359 -0.3917
 1674SOL    HW1 5267   1.542   0.261   3.236  0.2433 -0.9802 -2.2862
 1674SOL    HW2 5268   1.464   0.382   3.188 -0.1135 -0.9069 -1.5412
 1675SOL     OW 5269   2.759   5.287   5.100  0.1550 -0.0106 -0.0637
 1675SOL    HW1 5270   2.683   5.314   5.151 -0.1652 -0.2144 -0.4251
 1675SOL    HW2 5271   2.749   5.192   5.092 -0.7772  0.1991 -2.0191
 1676SOL     OW 5272   3.648   2.974   3.395 -0.0411  0.0963  0.2178
 1676SOL    HW1 5273   3.693   3.056   3.411 -0.6245  0.7071 -1.1254
 1676SOL    HW2 5274   3.648   2.964   3.300  2.4919 -2.8977  0.3697
 1677SOL     OW 5275   0.635   0.210   1.043 -0.2773 -0.5348  0.0243
 1677SOL    HW1 5276   0.677   0.184   1.125 -0.1324  0.3368  0.2371
 1677SOL    HW2 5277   0.688   0.171   0.975 -0.2280 -1.0244  0.3364
 1678SOL     OW 5278   4.524   4.728   3.825  0.1240  0.2907  0.0843
 1678SOL    HW1 5279   4.560   4.787   3.891 -0.9877  0.6800  0.3707
 1678SOL    HW2 5280   4.441   4.768   3.800  0.0346 -0.4050 -0.7883
 1679SOL     OW 5281   2.696   4.646   3.440  0.8261 -0.0568  0.4305
 1679SOL    HW1 5282   2.621   4.681   3.391  1.7873  1.8543  0.2299
 1679SOL    HW2 5283   2.755   4.614   3.372  2.1754  2.6265  0.2337
 1680SOL     OW 5284   1.974   1.666   4.560 -0.3569 -0.3591 -0.4395
 1680SOL    HW1 5285   2.013   1.753   4.565 -3.4652  1.2386 -1.4296
 1680SOL    HW2 5286   1.994   1.626   4.645  3.2151  0.2476 -0.8493
 1681SOL     OW 5287   4.224   2.088   1.883  0.0716 -0.6208  0.0567
 1681SOL    HW1 5288   4.285   2.030   1.837 -2.2306 -2.1799 -1.2561
 1681SOL    HW2 5289   4.199   2.152   1.817  1.5024  1.0798  1.0892
 1682SOL     OW 5290   4.161   2.173   5.648  0.4505 -0.3925  0.8182
 1682SOL    HW1 5291   4.190   2.101   5.704  0.0854 -0.2466  1.1987
 1682SOL    HW2 5292   4.072   2.149   5.623  0.4061 -0.1715  0.7678
 1683SOL     OW 5293   4.996   3.763   3.280 -0.5632  0.0296 -0.5237
 1683SOL    HW1 5294   5.003   3.849   3.241  1.5029 -0.2485 -0.8956
 1683SOL    HW2 5295   4.903   3.753   3.302 -0.9327  2.0822 -1.0021
 1684SOL     OW 5296   4.665   4.541   0.902 -0.2473 -0.0956  0.2965
 1684SOL    HW1 5297   4.636   4.524   0.812 -1.8230 -0.0984  0.7619
 1684SOL    HW2 5298   4.647   4.634   0.916 -1.6227 -0.4551  1.1173
 1685SOL     OW 5299   1.466   6.020   3.502  0.0219  0.6902  0.5961
 1685SOL    HW1 5300   1.497   5.945   3.451 -2.1771  0.1828 -0.1154
 1685SOL    HW2 5301   1.429   5.981   3.581 -2.4040  0.7971 -0.4008
 1686SOL     OW 5302   0.362   1.978   0.377  0.5567  0.2341  0.7030
 1686SOL    HW1 5303   0.412   2.057   0.398 -1.3955  2.1165 -1.1803
 1686SOL    HW2 5304   0.389   1.956   0.288  1.0694 -1.2582  1.2099
 1687SOL     OW 5305   2.470   2.382   1.071  0.0278 -0.5422 -0.1954
 1687SOL    HW1 5306   2.422   2.356   0.992 -1.9116 -0.1965  0.8207
 1687SOL    HW2 5307   2.411   2.441   1.117  2.1563  1.3577  0.2802
 1688SOL     OW 5308   5.130   2.512   3.380 -0.0528 -0.0554 -0.2099
 1688SOL    HW1 5309   5.188   2.439   3.358  1.4183  1.1074 -0.4073
 1688SOL    HW2 5310   5.058   2.505   3.317  1.4158  0.1474 -2.0199
 1689SOL     OW 5311   4.765   0.895   4.962  0.1063 -0.6686  0.3371
 1689SOL    HW1 5312   4.762   0.990   4.972 -0.3988 -0.2253 -2.8098
 1689SOL    HW2 5313   4.677   0.865   4.985 -0.1501 -0.1795  0.0031
 1690SOL     OW 5314   3.459   6.005   0.365 -0.5473  0.4211  0.0883
 1690SOL    HW1 5315   3.364   6.012   0.368 -0.6018  0.0522 -0.5919
 1690SOL    HW2 5316   3.490   6.094   0.380 -1.0138  0.6536 -0.3218
 1691SOL     OW 5317   5.182   4.775   4.700 -0.5081 -0.0095 -0.2258
 1691SOL    HW1 5318   5.188   4.845   4.765  0.2249 -0.5415  0.3024
 1691SOL    HW2 5319   5.231   4.808   4.625  0.4356 -0.2207  0.2818
 1692SOL     OW 5320   0.906   3.422   4.927 -0.4755  0.1150 -0.3023
 1692SOL    HW1 5321   0.834   3.360   4.926  0.7981 -1.4974  1.2587
 1692SOL    HW2 5322   0.866   3.505   4.955 -1.7547 -0.6871  0.3397
 1693SOL     OW 5323   2.336   0.608   1.690  0.5981  0.1842 -0.4342
 1693SOL    HW1 5324   2.394   0.534   1.671 -0.9844 -0.5647 -2.8063
 1693SOL    HW2 5325   2.355   0.672   1.621 -2.8625 -1.0713 -2.8281
 1694SOL     OW 5326   5.692   3.713   0.240 -0.3576  0.6828  0.2130
 1694SOL    HW1 5327   5.669   3.662   0.162 -1.4803  0.5320  0.6244
 1694SOL    HW2 5328   5.609   3.748   0.271  0.2469  1.8230  0.6091
 1695SOL     OW 5329   4.585   2.261   4.457 -0.4209  0.8787 -0.0079
 1695SOL    HW1 5330   4.594   2.338   4.513 -0.1294  0.2985  0.7606
 1695SOL    HW2 5331   4.491   2.255   4.440 -0.3119  2.1872 -1.2206
 1696SOL     OW 5332   6.113   1.275   2.642 -0.0157 -0.1072 -0.0843
 1696SOL    HW1 5333   6.033   1.323   2.659 -0.2039 -0.4364 -0.0368
 1696SOL    HW2 5334   6.128   1.224   2.722 -0.6259 -1.2685 -0.6801
 1697SOL     OW 5335   5.754   3.120   0.968  0.6946 -0.2155 -0.3090
 1697SOL    HW1 5336   5.828   3.174   0.941 -0.0958  0.1668 -1.7891
 1697SOL    HW2 5337   5.678   3.177   0.955 -0.0499 -1.3169 -0.8561
 1698SOL     OW 5338   5.346   3.357   4.976 -0.1896 -0.7659  0.0009
 1698SOL    HW1 5339   5.381   3.404   5.051  1.6186  0.3819 -1.4745
 1698SOL    HW2 5340   5.408   3.287   4.959  0.8641  0.5316 -1.8922
 1699SOL     OW 5341   5.836   0.511   0.764 -0.1411  0.3599  0.0517
 1699SOL    HW1 5342   5.769   0.450   0.734  0.7888 -1.0080  0.6877
 1699SOL    HW2 5343   5.919   0.468   0.744  0.5345  1.1017  1.1219
 1700SOL     OW 5344   0.178   0.487   2.733  0.0241 -0.3308  0.2404
 1700SOL    HW1 5345   0.103   0.466   2.678 -0.9619 -0.1944  1.5003
 1700SOL    HW2 5346   0.243   0.420   2.711 -0.8592 -1.0916 -0.1091
 1701SOL     OW 5347   3.003   0.249   4.153 -0.1614  0.2515  0.6050
 1701SOL    HW1 5348   3.045   0.331   4.179  1.3093 -0.3891  0.3699
 1701SOL    HW2 5349   3.055   0.217   4.080  0.1280 -1.5361  1.5207
 1702SOL     OW 5350   2.900   5.172   4.645  0.1420  0.4312 -0.0145
 1702SOL    HW1 5351   2.945   5.088   4.658  0.3849  0.4969 -0.4360
 1702SOL    HW2 5352   2.968   5.233   4.618 -0.5597 -0.1823 -3.7745
 1703SOL     OW 5353   1.934   1.604   6.067 -0.2754 -0.3633  0.3401
 1703SOL    HW1 5354   1.991   1.673   6.033 -0.2213  0.7612  2.5467
 1703SOL    HW2 5355   1.846   1.629   6.038 -0.1084 -0.0765  0.0776
 1704SOL     OW 5356   1.325   1.901   0.390 -0.0003  0.2843 -0.8127
 1704SOL    HW1 5357   1.346   1.964   0.459  2.1700  1.2071 -2.2098
 1704SOL    HW2 5358   1.230   1.894   0.392 -0.1654  2.1245  0.6593
 1705SOL     OW 5359   2.491   0.611   1.208  0.1390 -0.1571 -0.3054
 1705SOL    HW1 5360   2.535   0.693   1.232  1.3559 -0.6374 -0.8359
 1705SOL    HW2 5361   2.429   0.595   1.280 -0.6612  1.6042 -0.5566
 1706SOL     OW 5362   3.773   3.467   1.851 -0.1904  0.1681  0.2415
 1706SOL    HW1 5363   3.863   3.447   1.824 -0.6592 -1.2627 -0.3901
 1706SOL    HW2 5364   3.750   3.397   1.912 -0.5540  1.0745  1.1679
 1707SOL     OW 5365   2.983   3.532   1.229  0.3722 -0.2749 -0.4022
 1707SOL    HW1 5366   3.009   3.551   1.139 -1.4297 -0.5042 -1.0155
 1707SOL    HW2 5367   2.974   3.618   1.270  0.5972 -0.1496 -0.6125
 1708SOL     OW 5368   3.556   0.668   3.663 -0.1017 -0.0928  0.2002
 1708SOL    HW1 5369   3.643   0.703   3.646 -0.3505  0.8087  0.7246
 1708SOL    HW2 5370   3.513   0.667   3.577  0.2274  0.0136  0.0355
 1709SOL     OW 5371   3.186   4.034   0.324  0.1718 -0.1271  0.1289
 1709SOL    HW1 5372   3.093   4.046   0.302  0.3286 -0.6783 -0.8548
 1709SOL    HW2 5373   3.219   4.123   0.336 -0.6014  0.0560  1.0212
 1710SOL     OW 5374   1.627   2.232   4.970 -0.5047  0.2524  0.0107
 1710SOL    HW1 5375   1.623   2.255   4.877  0.5829 -0.6130 -0.2780
 1710SOL    HW2 5376   1.536   2.214   4.994 -1.0139  2.0375 -0.4474
 1711SOL     OW 5377   2.958   4.781   4.190  0.1245 -0.0075  0.3624
 1711SOL    HW1 5378   2.976   4.723   4.117 -0.5657 -0.2448  0.3755
 1711SOL    HW2 5379   2.871   4.818   4.171  0.5814  1.0846  0.3096
 1712SOL     OW 5380   1.847   0.017   5.871  0.3761 -0.5208 -0.4467
 1712SOL    HW1 5381   1.762   0.058   5.887  0.3226 -0.1868 -1.5031
 1712SOL    HW2 5382   1.865   0.034   5.779  1.0576 -1.5758 -0.5308
 1713SOL     OW 5383   2.594   4.128   4.904  0.0331  0.0691 -0.9460
 1713SOL    HW1 5384   2.619   4.036   4.903  0.7832  0.2720 -0.9214
 1713SOL    HW2 5385   2.563   4.144   4.994  0.3169 -0.0448 -0.8294
 1714SOL     OW 5386   3.395   1.650   3.508 -0.5091 -0.5457  0.6334
 1714SOL    HW1 5387   3.362   1.573   3.461  0.6176 -0.3425 -0.5677
 1714SOL    HW2 5388   3.463   1.615   3.565 -1.2582 -0.6708  1.4645
 1715SOL     OW 5389   0.473   2.445   2.055  0.0377 -0.3909 -0.3372
 1715SOL    HW1 5390   0.407   2.450   2.124  0.0254 -0.8617 -0.3086
 1715SOL    HW2 5391   0.542   2.389   2.091  1.4199  1.6922  0.3994
 1716SOL     OW 5392   3.986   4.999   3.267  0.4437 -0.3686 -0.3499
 1716SOL    HW1 5393   3.913   5.031   3.213 -1.6192 -1.8020  1.4118
 1716SOL    HW2 5394   4.005   5.072   3.326 -0.7020 -0.5010  0.2217
 1717SOL     OW 5395   0.366   3.880   0.301  0.4547 -0.0346  0.8117
 1717SOL    HW1 5396   0.367   3.826   0.380  1.2248 -0.0244  0.8151
 1717SOL    HW2 5397   0.273   3.895   0.284  0.2406 -1.0980  0.9773
 1718SOL     OW 5398   1.395   2.516   1.103 -0.5143  0.1178  0.2981
 1718SOL    HW1 5399   1.359   2.476   1.023 -2.4673 -1.7452  1.9958
 1718SOL    HW2 5400   1.348   2.600   1.110  0.2078  0.6470 -0.8426
 1719SOL     OW 5401   2.531   0.551   4.703  0.8371  0.2408  0.3488
 1719SOL    HW1 5402   2.566   0.535   4.615  0.5916  2.5154 -0.2121
 1719SOL    HW2 5403   2.607   0.574   4.755  0.7632  0.6563  0.2760
 1720SOL     OW 5404   6.107   5.788   0.154  0.4242  0.0013 -0.2841
 1720SOL    HW1 5405   6.173   5.742   0.101  0.7742 -1.0408  1.0026
 1720SOL    HW2 5406   6.046   5.823   0.090  0.7411 -1.3626 -1.3947
 1721SOL     OW 5407   0.985   5.184   1.321  0.4881  0.3916 -0.1056
 1721SOL    HW1 5408   1.040   5.184   1.399  0.4298 -2.7366  0.0329
 1721SOL    HW2 5409   0.902   5.223   1.350  0.5093 -0.5962  1.3872
 1722SOL     OW 5410   2.569   5.094   0.097 -1.4014  0.6853  0.2031
 1722SOL    HW1 5411   2.619   5.017   0.123 -0.9868  0.8827  0.0020
 1722SOL    HW2 5412   2.527   5.069   0.015  1.6773  1.8510 -1.8917
 1723SOL     OW 5413   0.595   1.731   5.894  0.2898  0.8144  0.1126
 1723SOL    HW1 5414   0.671   1.768   5.849 -0.5223  2.4738  0.0196
 1723SOL    HW2 5415   0.570   1.656   5.841  1.3662  0.7404 -0.3179
 1724SOL     OW 5416   3.133   2.570   4.686  0.1802  0.4001  0.5231
 1724SOL    HW1 5417   3.106   2.502   4.625  0.4337  1.2038 -0.4959
 1724SOL    HW2 5418   3.052   2.597   4.729 -0.2255  0.8579 -0.5162
 1725SOL     OW 5419   1.258   1.673   3.287  0.1555 -0.3871  0.1240
 1725SOL    HW1 5420   1.281   1.692   3.196  0.8967 -0.4728  0.2914
 1725SOL    HW2 5421   1.340   1.648   3.328 -0.1941 -0.4493  0.7980
 1726SOL     OW 5422   4.912   1.973   5.111  0.4495  0.1146  0.1591
 1726SOL    HW1 5423   4.995   1.925   5.104 -0.6769 -1.8015 -0.9689
 1726SOL    HW2 5424   4.882   1.955   5.200 -0.5056 -2.3847 -0.5835
 1727SOL     OW 5425   4.448   4.845   2.596 -0.0702 -0.2219 -0.4360
 1727SOL    HW1 5426   4.530   4.895   2.596 -0.0871 -0.1900 -0.7442
 1727SOL    HW2 5427   4.391   4.893   2.656  0.0232 -0.0553 -0.4784
 1728SOL     OW 5428   4.604   4.732   1.853  0.5178  0.1829 -0.2939
 1728SOL    HW1 5429   4.595   4.759   1.762 -3.0130 -0.6158 -0.3367
 1728SOL    HW2 5430   4.642   4.808   1.897  0.7823  1.1741 -2.1546
 1729SOL     OW 5431   3.084   4.006   3.465  0.3132 -0.6427 -0.1518
 1729SOL    HW1 5432   3.032   3.997   3.386 -0.7151 -1.0721  0.5607
 1729SOL    HW2 5433   3.048   3.941   3.526  0.7447  0.0217  0.8421
 1730SOL     OW 5434   0.323   5.330   4.495 -0.4051  0.8663  0.2074
 1730SOL    HW1 5435   0.237   5.367   4.511  0.7954  3.1579  2.0040
 1730SOL    HW2 5436   0.343   5.280   4.574 -0.4816 -0.6008 -0.6567
 1731SOL     OW 5437   0.187   4.096   5.088 -0.6892 -0.3022 -0.4442
 1731SOL    HW1 5438   0.279   4.071   5.076 -0.8970 -1.3424 -0.0232
 1731SOL    HW2 5439   0.140   4.013   5.084 -1.4194 -0.0023  1.1235
 1732SOL     OW 5440   5.520   5.765   3.721  0.2382  0.0214 -0.1375
 1732SOL    HW1 5441   5.526   5.845   3.669  1.3721  1.0158  1.4481
 1732SOL    HW2 5442   5.545   5.695   3.661 -1.6526  0.6899 -1.8150
 1733SOL     OW 5443   2.540   2.443   5.707  0.1763 -0.3983  0.5441
 1733SOL    HW1 5444   2.473   2.423   5.772 -0.7496  0.0985 -0.2260
 1733SOL    HW2 5445   2.601   2.369   5.712 -1.0774 -1.4877  0.4394
 1734SOL     OW 5446   3.155   4.815   5.497  0.5096  0.6670  0.2503
 1734SOL    HW1 5447   3.122   4.799   5.585 -0.3515  2.6972  0.3431
 1734SOL    HW2 5448   3.245   4.844   5.510  0.8698 -0.4421  0.3297
 1735SOL     OW 5449   2.003   1.188   2.514  0.1047  0.7061 -0.1581
 1735SOL    HW1 5450   2.096   1.207   2.528  0.1249  0.4395  0.0752
 1735SOL    HW2 5451   1.961   1.274   2.513  0.1693  0.7664  1.0743
 1736SOL     OW 5452   2.329   0.098   3.718  0.5744  0.0085 -0.1317
 1736SOL    HW1 5453   2.280   0.061   3.791 -3.2925  0.2672 -2.3284
 1736SOL    HW2 5454   2.374   0.174   3.755 -1.3345  0.2108  1.9795
 1737SOL     OW 5455   1.863   5.844   5.410 -0.2461 -0.0476 -0.3055
 1737SOL    HW1 5456   1.842   5.758   5.447 -0.5162 -0.0955 -0.5754
 1737SOL    HW2 5457   1.922   5.883   5.475 -2.1172  0.5990  1.0892
 1738SOL     OW 5458   5.361   0.621   3.774  0.2530  0.5619 -0.0643
 1738SOL    HW1 5459   5.332   0.530   3.767 -0.6986  0.8796 -0.4366
 1738SOL    HW2 5460   5.296   0.662   3.830 -0.3108  1.4027 -1.2826
 1739SOL     OW 5461   3.827   0.099   1.645 -0.4537 -0.3999  0.6778
 1739SOL    HW1 5462   3.760   0.070   1.707 -0.8434 -1.4906 -0.2284
 1739SOL    HW2 5463   3.843   0.023   1.589  0.5977  0.2572  0.0521
 1740SOL     OW 5464   0.070   5.896   0.678 -0.6434 -0.2483  0.2256
 1740SOL    HW1 5465   0.007   5.847   0.731 -0.5859  0.2680  0.7822
 1740SOL    HW2 5466   0.068   5.853   0.593  0.6007 -2.2694  1.1448
 1741SOL     OW 5467   2.610   1.871   3.836 -0.0232 -0.3438 -0.5632
 1741SOL    HW1 5468   2.663   1.802   3.796 -0.9613 -1.4077 -0.0148
 1741SOL    HW2 5469   2.617   1.945   3.775  0.3994 -1.1644 -1.5394
 1742SOL     OW 5470   5.632   3.810   5.564  0.1080 -0.4037 -0.1508
 1742SOL    HW1 5471   5.608   3.746   5.631  1.5395 -2.4557 -1.4885
 1742SOL    HW2 5472   5.711   3.852   5.597  0.6556 -1.2190 -0.3896
 1743SOL     OW 5473   3.289   3.463   4.419 -0.3353 -0.1307 -0.1817
 1743SOL    HW1 5474   3.334   3.383   4.444  0.0445 -0.1427 -0.8906
 1743SOL    HW2 5475   3.326   3.487   4.334  0.2940  1.3553  0.4776
 1744SOL     OW 5476   4.863   0.224   5.483 -0.6075 -0.4640  0.3863
 1744SOL    HW1 5477   4.840   0.248   5.393  1.5419  1.9280  0.3630
 1744SOL    HW2 5478   4.782   0.236   5.532 -0.8903  2.3209 -0.5823
 1745SOL     OW 5479   0.910   0.772   1.748  0.7197  0.3554  0.0402
 1745SOL    HW1 5480   0.997   0.745   1.778 -0.3792 -0.9895  2.2448
 1745SOL    HW2 5481   0.878   0.698   1.696 -0.2738 -0.5063  1.8083
 1746SOL     OW 5482   4.795   0.564   4.062 -0.3761  0.0205  0.1317
 1746SOL    HW1 5483   4.791   0.654   4.030 -2.5948  0.7578  2.2159
 1746SOL    HW2 5484   4.801   0.572   4.157 -0.6004 -2.0325  0.3705
 1747SOL     OW 5485   5.029   5.984   0.980 -0.5300 -0.0469 -0.1270
 1747SOL    HW1 5486   5.028   6.012   0.889 -0.9981  0.2504 -0.0339
 1747SOL    HW2 5487   4.938   5.961   0.999 -0.1344 -1.9768 -0.2997
 1748SOL     OW 5488   0.455   3.864   4.587 -0.1252  0.6824 -0.1399
 1748SOL    HW1 5489   0.539   3.820   4.599 -0.0404  1.0116  0.5095
 1748SOL    HW2 5490   0.456   3.894   4.496 -0.9804 -2.3282 -1.2553
 1749SOL     OW 5491   2.098   4.596   2.631 -0.1362 -0.9524 -0.0922
 1749SOL    HW1 5492   2.125   4.543   2.706  2.1681 -1.7478 -1.3590
 1749SOL    HW2 5493   2.178   4.639   2.602 -1.6976  2.4700  0.1750
 1750SOL     OW 5494   5.089   3.305   0.652  0.0212 -0.1256  0.0276
 1750SOL    HW1 5495   5.006   3.294   0.698 -0.8675  1.6353 -1.0408
 1750SOL    HW2 5496   5.144   3.353   0.714 -1.2506  2.4486 -0.7184
 1751SOL     OW 5497   1.803   1.397   1.669  0.3878 -0.2612 -0.2176
 1751SOL    HW1 5498   1.879   1.428   1.719  0.7270  0.1351 -0.9550
 1751SOL    HW2 5499   1.729   1.406   1.729  0.9660 -0.9634  0.6209
 1752SOL     OW 5500   3.799   0.259   2.390  0.2177 -0.1268 -0.7945
 1752SOL    HW1 5501   3.782   0.352   2.404  0.1186 -0.0626 -1.3472
 1752SOL    HW2 5502   3.885   0.256   2.349  0.9137 -0.3709  0.6308
 1753SOL     OW 5503   5.219   3.535   1.488 -0.2046  0.0116 -0.0759
 1753SOL    HW1 5504   5.151   3.477   1.521  0.3687 -0.6322  0.0004
 1753SOL    HW2 5505   5.209   3.532   1.393 -0.5925  0.3064 -0.0454
 1754SOL     OW 5506   5.097   0.086   4.448 -0.0280 -0.2983 -0.4737
 1754SOL    HW1 5507   5.060   0.015   4.395  0.4260 -0.3314 -0.7503
 1754SOL    HW2 5508   5.125   0.152   4.385  3.2696 -1.6047 -0.5520
 1755SOL     OW 5509   1.133   2.260   3.634 -0.1502  0.5787 -0.0080
 1755SOL    HW1 5510   1.111   2.229   3.722  0.6537 -1.4894 -0.4769
 1755SOL    HW2 5511   1.227   2.242   3.625 -0.3941 -0.1143 -1.5833
 1756SOL     OW 5512   3.812   2.580   2.218 -0.1522 -0.0466  0.5265
 1756SOL    HW1 5513   3.869   2.571   2.294 -0.2983  0.4673  0.7023
 1756SOL    HW2 5514   3.861   2.542   2.146  1.6785  2.8920  0.0549
 1757SOL     OW 5515   1.625   0.200   3.739  0.4109  0.0015 -0.1077
 1757SOL    HW1 5516   1.557   0.133   3.745  0.1753  0.2419 -0.0801
 1757SOL    HW2 5517   1.669   0.181   3.656  1.2268 -1.0116  0.5236
 1758SOL     OW 5518   4.382   4.509   0.925 -0.3251 -0.2313  0.4620
 1758SOL    HW1 5519   4.472   4.481   0.941 -0.0382  1.7027  2.6931
 1758SOL    HW2 5520   4.388   4.569   0.851  0.4846  0.9135  1.4183
 1759SOL     OW 5521   0.887   1.081   5.671  0.5971 -0.1122 -0.0041
 1759SOL    HW1 5522   0.854   1.116   5.753  0.8748  0.2315 -0.0388
 1759SOL    HW2 5523   0.983   1.088   5.678  0.5745  2.0807 -1.2872
 1760SOL     OW 5524   1.800   3.062   1.720 -0.3540 -0.2159 -0.0321
 1760SOL    HW1 5525   1.735   2.997   1.694  0.9933 -1.6822  0.1429
 1760SOL    HW2 5526   1.855   3.074   1.642 -0.4112  0.5123  0.0286
 1761SOL     OW 5527   1.518   0.886   1.744 -0.3594 -0.5272  0.2561
 1761SOL    HW1 5528   1.508   0.973   1.705  1.7059  0.0598  0.9052
 1761SOL    HW2 5529   1.499   0.826   1.673 -0.9529  0.4698 -0.4534
 1762SOL     OW 5530   2.246   1.321   3.385 -0.3188 -0.6728  0.0357
 1762SOL    HW1 5531   2.185   1.338   3.313  0.4439 -1.2516 -0.7598
 1762SOL    HW2 5532   2.319   1.381   3.368 -0.9787  0.5975  1.4249
 1763SOL     OW 5533   3.164   0.286   1.751 -0.1638  0.5146 -0.2056
 1763SOL    HW1 5534   3.254   0.261   1.731  0.5856  0.6274  2.5644
 1763SOL    HW2 5535   3.110   0.223   1.704  1.4083 -0.4800 -0.7487
 1764SOL     OW 5536   3.326   5.433   1.005  0.1588  0.0793 -0.4996
 1764SOL    HW1 5537   3.268   5.400   0.936  1.9070 -1.7858 -1.1879
 1764SOL    HW2 5538   3.402   5.465   0.957  1.5646 -1.5800  0.5201
 1765SOL     OW 5539   4.561   0.010   0.392  0.0359  0.4855  0.1612
 1765SOL    HW1 5540   4.613   0.012   0.312  1.6722 -0.0030  1.1737
 1765SOL    HW2 5541   4.501  -0.063   0.380  1.0987 -0.3633 -0.1493
 1766SOL     OW 5542   1.575   0.895   4.525  0.4715  0.6041  0.1120
 1766SOL    HW1 5543   1.643   0.838   4.561 -0.1110 -0.9766 -1.1775
 1766SOL    HW2 5544   1.624   0.971   4.492  1.1214  1.5759  3.0423
 1767SOL     OW 5545   1.030   5.416   4.377 -0.4306  0.1119 -0.0603
 1767SOL    HW1 5546   1.075   5.462   4.306 -0.8118 -1.3289 -1.3087
 1767SOL    HW2 5547   0.984   5.344   4.333 -1.8419  0.0026  1.4931
 1768SOL     OW 5548   2.241   5.744   1.693  0.3199  0.4203 -0.1386
 1768SOL    HW1 5549   2.284   5.830   1.694  2.1798 -0.4505 -0.1434
 1768SOL    HW2 5550   2.275   5.700   1.771  0.1836 -0.6758 -0.6830
 1769SOL     OW 5551   3.329   6.056   3.539  0.0443 -0.5372 -0.2972
 1769SOL    HW1 5552   3.424   6.049   3.540  0.2455  1.2383 -1.8747
 1769SOL    HW2 5553   3.311   6.132   3.484 -2.2688 -0.3199  0.6460
 1770SOL     OW 5554   3.366   2.645   0.151 -0.2041 -0.4181  0.2343
 1770SOL    HW1 5555   3.350   2.630   0.057 -0.3190  0.1766  0.1565
 1770SOL    HW2 5556   3.381   2.557   0.186 -1.1178 -0.7553 -0.1698
 1771SOL     OW 5557   5.910   2.768   4.022  0.8132  0.3185  0.2786
 1771SOL    HW1 5558   5.906   2.850   3.973  0.1273  0.1049 -0.0445
 1771SOL    HW2 5559   6.003   2.744   4.022  0.9775  0.9378  0.1207
 1772SOL     OW 5560   3.054   4.500   5.990 -0.0299 -0.3883  0.0952
 1772SOL    HW1 5561   3.077   4.591   6.006  1.4208 -0.3666 -1.7368
 1772SOL    HW2 5562   2.975   4.486   6.041 -0.0576  1.7735  0.7498
 1773SOL     OW 5563   4.213   2.382   4.081 -0.0741 -0.4619  0.1022
 1773SOL    HW1 5564   4.309   2.376   4.073 -0.0300 -0.5682  0.6719
 1773SOL    HW2 5565   4.180   2.343   4.000  0.3393 -1.9322  0.6011
 1774SOL     OW 5566   2.167   1.363   4.700 -0.3278  0.3458 -0.3237
 1774SOL    HW1 5567   2.257   1.343   4.724 -0.5255  0.3652  0.4839
 1774SOL    HW2 5568   2.152   1.315   4.619  0.1648 -0.3151 -0.0379
 1775SOL     OW 5569   5.931   3.287   0.876  0.1862 -0.7213  0.1801
 1775SOL    HW1 5570   5.887   3.323   0.798 -0.4143 -1.7735  0.0173
 1775SOL    HW2 5571   6.023   3.280   0.851  0.1301 -0.3082 -0.1532
 1776SOL     OW 5572   5.073   5.937   2.577 -0.1764  0.5784 -0.1546
 1776SOL    HW1 5573   5.118   5.865   2.622 -0.7263  1.0823  1.2514
 1776SOL    HW2 5574   4.982   5.908   2.571 -0.4862  1.3335  0.8102
 1777SOL     OW 5575   0.578   1.365   3.150 -0.1034 -0.4399  0.5012
 1777SOL    HW1 5576   0.605   1.287   3.198  0.8667 -0.0892  0.5436
 1777SOL    HW2 5577   0.608   1.439   3.204 -1.4071 -0.0229  0.6895
 1778SOL     OW 5578   0.343   4.690   1.062 -0.4608  0.4349 -0.1865
 1778SOL    HW1 5579   0.267   4.644   1.027  0.7245 -1.0190 -0.9603
 1778SOL    HW2 5580   0.406   4.691   0.989  0.9784 -0.1354  0.9902
 1779SOL     OW 5581   4.509   1.607   3.288  0.1382  0.2976 -0.3386
 1779SOL    HW1 5582   4.417   1.591   3.308  0.4304 -0.0591  0.8239
 1779SOL    HW2 5583   4.509   1.641   3.199 -0.9808 -1.2240 -0.9584
 1780SOL     OW 5584   3.110   5.887   1.507 -0.0772  0.4328  0.0264
 1780SOL    HW1 5585   3.064   5.905   1.589 -0.5282 -2.8373  0.6070
 1780SOL    HW2 5586   3.054   5.928   1.440 -1.1059  0.8960  1.1174
 1781SOL     OW 5587   4.453   5.266   2.562 -0.4669  0.6023 -0.8188
 1781SOL    HW1 5588   4.441   5.183   2.608  2.6001  0.3619 -0.2228
 1781SOL    HW2 5589   4.463   5.241   2.470  0.9077  0.1941 -0.5874
 1782SOL     OW 5590   3.284   5.668   2.942  1.0322  0.2577  0.2754
 1782SOL    HW1 5591   3.235   5.662   2.859 -0.6118 -0.8780  1.2687
 1782SOL    HW2 5592   3.251   5.747   2.983  0.4923 -0.1586  0.6527
 1783SOL     OW 5593   5.174   1.424   5.189 -0.1738 -0.1611  0.3131
 1783SOL    HW1 5594   5.231   1.383   5.123  3.3657  0.7946  2.4969
 1783SOL    HW2 5595   5.095   1.370   5.189  0.2896 -1.1909 -3.4638
 1784SOL     OW 5596   4.811   4.639   2.224 -0.0577  0.2936 -0.6902
 1784SOL    HW1 5597   4.897   4.680   2.232 -0.3053  0.7794 -0.4376
 1784SOL    HW2 5598   4.770   4.685   2.151  0.1632 -0.4279 -1.2741
 1785SOL     OW 5599   5.492   3.613   0.687  0.1283  0.2003 -0.2367
 1785SOL    HW1 5600   5.574   3.628   0.734 -0.8262 -0.4877  1.7943
 1785SOL    HW2 5601   5.476   3.694   0.640  2.2767  0.1111 -1.2331
 1786SOL     OW 5602   3.467   1.786   4.836 -0.2672 -0.1572 -0.4540
 1786SOL    HW1 5603   3.413   1.710   4.816 -1.0686  0.2910 -0.0128
 1786SOL    HW2 5604   3.470   1.790   4.931 -2.2236  1.7152 -0.3897
 1787SOL     OW 5605   4.730   0.943   4.317 -0.0551  0.2491 -0.3016
 1787SOL    HW1 5606   4.810   0.932   4.370 -1.6390  0.1569  2.2345
 1787SOL    HW2 5607   4.758   0.924   4.227  2.4826 -1.0993  0.6687
 1788SOL     OW 5608   5.347   4.548   1.540  0.3718 -0.0495  0.3224
 1788SOL    HW1 5609   5.433   4.534   1.578  0.0344  0.1411  1.1767
 1788SOL    HW2 5610   5.350   4.637   1.505  1.2759 -0.8391 -1.7616
 1789SOL     OW 5611   4.617   0.706   0.681  0.2343  0.2055 -0.4174
 1789SOL    HW1 5612   4.555   0.710   0.753  0.0002  2.2512 -0.6712
 1789SOL    HW2 5613   4.563   0.688   0.604  0.1231  0.6723 -0.4506
 1790SOL     OW 5614   3.985   4.916   1.334  0.1318 -0.0628  0.2852
 1790SOL    HW1 5615   3.989   4.947   1.425  0.2713 -0.9206  0.5790
 1790SOL    HW2 5616   4.056   4.963   1.290  0.4079 -0.0423  0.7454
 1791SOL     OW 5617   5.726   3.600   6.121  0.7563 -0.6468  0.4733
 1791SOL    HW1 5618   5.740   3.668   6.055  1.5807 -0.7498  0.5260
 1791SOL    HW2 5619   5.814   3.579   6.152  0.3179  0.8528  3.0512
 1792SOL     OW 5620   3.695   4.108   2.817 -0.3646 -0.3859  0.1535
 1792SOL    HW1 5621   3.744   4.063   2.886  1.3713 -0.0285 -0.7748
 1792SOL    HW2 5622   3.747   4.094   2.738 -1.8064  0.0165 -0.9131
 1793SOL     OW 5623   0.612   2.964   1.326 -0.0283 -0.2501 -0.5105
 1793SOL    HW1 5624   0.678   2.896   1.313 -1.3040 -1.3429 -1.5465
 1793SOL    HW2 5625   0.597   3.001   1.239  1.0253  1.7894  0.1087
 1794SOL     OW 5626   1.411   3.425   3.867 -0.1829  0.3488  0.1108
 1794SOL    HW1 5627   1.430   3.431   3.773  2.0576  1.8157  0.5699
 1794SOL    HW2 5628   1.367   3.341   3.877 -0.2748  0.0489 -2.2126
 1795SOL     OW 5629   4.381   4.754   1.133 -0.3141 -0.3209 -0.1861
 1795SOL    HW1 5630   4.309   4.744   1.070 -1.2875 -0.6801  0.9499
 1795SOL    HW2 5631   4.350   4.822   1.193  0.0916 -0.8017  0.5785
 1796SOL     OW 5632   4.370   1.641   2.339 -0.1563 -0.5278  0.0311
 1796SOL    HW1 5633   4.409   1.650   2.426  0.2602 -3.0345  0.1790
 1796SOL    HW2 5634   4.284   1.603   2.355 -0.4755 -0.1016 -0.6123
 1797SOL     OW 5635   1.099   5.650   2.685  0.5341  0.5092 -0.3358
 1797SOL    HW1 5636   1.085   5.705   2.762 -1.1756  0.1624 -0.3470
 1797SOL    HW2 5637   1.060   5.699   2.612  2.3249  0.9365 -1.0709
 1798SOL     OW 5638   0.050   3.625   2.136  0.7030 -0.8362  0.2491
 1798SOL    HW1 5639   0.089   3.656   2.054 -3.9996  2.7208 -1.1626
 1798SOL    HW2 5640  -0.028   3.577   2.108  0.0340 -1.2993  2.6799
 1799SOL     OW 5641   1.196   1.649   1.128  0.0087  0.1166 -0.4544
 1799SOL    HW1 5642   1.239   1.580   1.076 -1.5673 -1.3711  0.1330
 1799SOL    HW2 5643   1.114   1.610   1.157 -0.9168  2.2448 -0.0173
 1800SOL     OW 5644   3.503   1.016   4.461  0.5602  0.0124 -0.0496
 1800SOL    HW1 5645   3.445   1.034   4.535  1.5915 -1.6265  1.2405
 1800SOL    HW2 5646   3.495   1.092   4.405 -0.1112  1.4298  1.8596
 1801SOL     OW 5647   1.831   2.366   2.285  0.1233  0.1037 -0.1560
 1801SOL    HW1 5648   1.762   2.331   2.341  0.8267 -2.5587 -0.7804
 1801SOL    HW2 5649   1.912   2.331   2.323  1.1054  2.3778  0.0152
 1802SOL     OW 5650   5.866   5.728   1.311  0.2520 -0.4780 -0.0669
 1802SOL    HW1 5651   5.775   5.737   1.338  0.0874 -1.5174 -0.2477
 1802SOL    HW2 5652   5.914   5.788   1.368 -0.5818  0.3305 -0.1969
 1803SOL     OW 5653   3.151   5.750   4.929 -0.1080 -0.0548  0.1005
 1803SOL    HW1 5654   3.061   5.734   4.957  0.1418 -1.6594  0.0838
 1803SOL    HW2 5655   3.182   5.665   4.898  0.9279  0.8017 -1.3234
 1804SOL     OW 5656   4.824   2.436   1.234 -0.3574  0.1155  0.0939
 1804SOL    HW1 5657   4.824   2.343   1.259 -1.0777 -0.0753 -0.5620
 1804SOL    HW2 5658   4.753   2.474   1.286 -1.7628 -0.2519 -1.4688
 1805SOL     OW 5659   1.374   4.177   0.234 -0.0265  0.0409  0.6279
 1805SOL    HW1 5660   1.370   4.154   0.327  1.1190  0.8092  0.8861
 1805SOL    HW2 5661   1.433   4.112   0.196  0.0699  0.1633  0.5706
 1806SOL     OW 5662   3.642   3.357   2.263 -0.0368  0.7424 -0.0420
 1806SOL    HW1 5663   3.636   3.279   2.318  1.0816  0.9365  0.3891
 1806SOL    HW2 5664   3.703   3.415   2.310 -0.7434  1.8224 -0.4189
 1807SOL     OW 5665   0.797   0.294   4.230  0.7277 -0.3796  0.3561
 1807SOL    HW1 5666   0.792   0.301   4.135 -2.1586 -1.9576  0.2767
 1807SOL    HW2 5667   0.853   0.367   4.257  0.6003  0.8696 -2.4320
 1808SOL     OW 5668   0.406   2.984   0.086 -0.0070  0.3601  0.1421
 1808SOL    HW1 5669   0.425   2.913   0.024 -0.9883 -0.5989  0.8881
 1808SOL    HW2 5670   0.484   2.987   0.142 -0.4944 -1.1084  0.9642
 1809SOL     OW 5671   3.716   0.917   0.142  0.4049  0.2085 -0.0841
 1809SOL    HW1 5672   3.634   0.868   0.142  0.7483 -0.5413 -2.5993
 1809SOL    HW2 5673   3.779   0.858   0.185  0.2623 -0.5367 -0.8678
 1810SOL     OW 5674   3.890   3.882   2.943 -0.4246  0.3482  0.0834
 1810SOL    HW1 5675   3.978   3.849   2.962 -0.5377  1.2004  2.4897
 1810SOL    HW2 5676   3.893   3.908   2.851  1.1464 -1.6561 -0.5004
 1811SOL     OW 5677   3.921   2.497   2.746 -0.1079  0.3373  0.1884
 1811SOL    HW1 5678   3.960   2.521   2.830 -0.4308  0.5470  0.2833
 1811SOL    HW2 5679   3.849   2.438   2.770 -0.3970  0.6441  0.0866
 1812SOL     OW 5680   1.409   4.846   4.864 -0.1231  0.1477  0.2925
 1812SOL    HW1 5681   1.463   4.881   4.793 -0.4940  2.0894  0.8993
 1812SOL    HW2 5682   1.454   4.873   4.944 -1.1022  0.3612  0.7923
 1813SOL     OW 5683   3.999   2.126   2.703 -0.4424  0.2485 -0.0988
 1813SOL    HW1 5684   3.967   2.097   2.788  0.1819 -0.3254 -0.0425
 1813SOL    HW2 5685   3.975   2.055   2.643 -3.1740  1.7872 -0.9474
 1814SOL     OW 5686   5.307   5.007   1.835 -0.3381 -0.3268 -0.1997
 1814SOL    HW1 5687   5.233   4.964   1.791 -0.5252  0.1431 -0.3494
 1814SOL    HW2 5688   5.338   5.073   1.773  0.5332 -0.8528 -0.3396
 1815SOL     OW 5689   4.517   5.511   3.228 -1.0679 -0.6237  0.4657
 1815SOL    HW1 5690   4.431   5.522   3.270 -1.0499 -1.0038  0.6042
 1815SOL    HW2 5691   4.504   5.441   3.165 -1.6097  1.2164 -1.5991
 1816SOL     OW 5692   4.784   3.480   0.901 -0.6642  0.2026  0.1579
 1816SOL    HW1 5693   4.801   3.541   0.829  0.0213  1.4014  1.3010
 1816SOL    HW2 5694   4.709   3.518   0.947 -0.1748  0.2434  0.9351
 1817SOL     OW 5695   2.589   3.068   5.375  0.2630  0.3133 -0.0111
 1817SOL    HW1 5696   2.515   3.120   5.343 -0.7535 -0.3839  1.1466
 1817SOL    HW2 5697   2.614   3.110   5.457  0.3831 -0.1501  0.1940
 1818SOL     OW 5698   6.034   5.287   4.234 -0.5933 -0.3978  0.0833
 1818SOL    HW1 5699   6.113   5.340   4.245 -0.2696 -1.2574  2.6681
 1818SOL    HW2 5700   5.962   5.345   4.258 -0.7588  0.2449 -1.8162
 1819SOL     OW 5701   3.630   3.480   1.569 -0.3837  0.2984  0.0478
 1819SOL    HW1 5702   3.646   3.510   1.659 -1.3858  0.0212  0.3271
 1819SOL    HW2 5703   3.567   3.409   1.578 -2.1501  1.6520 -1.0113
 1820SOL     OW 5704   3.435   4.873   0.995 -0.1870  0.0986  0.4415
 1820SOL    HW1 5705   3.466   4.927   0.922  0.1661 -1.4357 -0.6199
 1820SOL    HW2 5706   3.475   4.787   0.978  0.5988 -0.1086  2.9191
 1821SOL     OW 5707   5.362   2.009   5.151  0.6596  0.3550  0.4691
 1821SOL    HW1 5708   5.353   1.957   5.071 -0.4349 -0.8724  1.3451
 1821SOL    HW2 5709   5.444   2.057   5.140 -0.1635  1.3339 -2.0012
 1822SOL     OW 5710   3.240   0.011   4.112  0.5487  0.2330 -0.7797
 1822SOL    HW1 5711   3.219  -0.082   4.103  0.2222  0.2797 -0.4915
 1822SOL    HW2 5712   3.334   0.013   4.133  0.2560 -0.0956  0.6225
 1823SOL     OW 5713   2.050   3.537   0.762 -0.4742 -0.0451  0.1260
 1823SOL    HW1 5714   2.014   3.531   0.673  0.0864  1.2784 -0.2017
 1823SOL    HW2 5715   2.135   3.578   0.751 -0.0228 -0.6579  1.1974
 1824SOL     OW 5716   0.997   3.392   2.472  0.1252  0.2263 -0.1097
 1824SOL    HW1 5717   0.995   3.404   2.567  2.2951  0.7235 -0.0838
 1824SOL    HW2 5718   0.905   3.393   2.446 -0.6809 -1.9986  2.2057
 1825SOL     OW 5719   4.129   4.803   6.095 -0.2224  0.0997  0.4622
 1825SOL    HW1 5720   4.141   4.722   6.045  0.6497  0.9605 -0.8070
 1825SOL    HW2 5721   4.079   4.860   6.036 -0.5592  0.5953  1.2137
 1826SOL     OW 5722   1.085   5.400   1.210  0.4755  0.1713 -0.1210
 1826SOL    HW1 5723   1.090   5.472   1.272  1.6881 -1.3433  1.6321
 1826SOL    HW2 5724   1.055   5.325   1.262  0.7601 -0.9751 -1.5323
 1827SOL     OW 5725   2.229   5.957   2.022  0.0540  0.2288  0.1323
 1827SOL    HW1 5726   2.302   6.013   1.997  1.2030 -1.2038  0.1746
 1827SOL    HW2 5727   2.265   5.899   2.089 -1.4505  0.2715  1.0132
 1828SOL     OW 5728   4.462   3.927   5.139 -0.3671  0.1087 -0.1668
 1828SOL    HW1 5729   4.386   3.984   5.143 -0.2000  0.3759 -0.7640
 1828SOL    HW2 5730   4.488   3.915   5.230 -1.6276 -0.6741  0.1228
 1829SOL     OW 5731   5.773   2.997   4.825 -0.4418  0.5446 -0.3135
 1829SOL    HW1 5732   5.759   3.027   4.915  0.2979 -0.9483  0.3292
 1829SOL    HW2 5733   5.866   3.010   4.810  0.1161 -2.1324  0.3235
 1830SOL     OW 5734   3.654   0.297   4.200  0.0352  0.1169 -0.3827
 1830SOL    HW1 5735   3.640   0.212   4.158  0.2622  0.9700 -2.2585
 1830SOL    HW2 5736   3.616   0.287   4.287 -0.4325 -1.7300 -0.7635
 1831SOL     OW 5737   1.496   3.716   3.191  0.6166  0.2600 -0.1960
 1831SOL    HW1 5738   1.402   3.735   3.191  0.2110 -1.4882 -0.9973
 1831SOL    HW2 5739   1.535   3.788   3.241 -1.1966  0.7327  0.6444
 1832SOL     OW 5740   1.604   1.278   5.115 -0.4279 -0.0603  0.1274
 1832SOL    HW1 5741   1.669   1.216   5.147 -0.8631 -1.3238 -1.3250
 1832SOL    HW2 5742   1.645   1.363   5.125  0.6936 -0.6755  0.9751
 1833SOL     OW 5743   5.506   4.902   2.188  0.0260  0.1003  0.0679
 1833SOL    HW1 5744   5.593   4.926   2.156 -0.3799 -0.7535 -1.8137
 1833SOL    HW2 5745   5.516   4.812   2.220  0.0469  0.3784  0.8886
 1834SOL     OW 5746   0.869   4.076   2.035  0.0046 -0.3423 -0.3595
 1834SOL    HW1 5747   0.897   4.137   2.103  0.9479 -0.9634 -0.1736
 1834SOL    HW2 5748   0.778   4.055   2.057 -0.1200  0.4809 -0.0582
 1835SOL     OW 5749   1.223   2.702   4.703  0.1205 -0.1928  0.2492
 1835SOL    HW1 5750   1.303   2.750   4.723 -0.5858  1.9924 -1.7103
 1835SOL    HW2 5751   1.156   2.741   4.759 -0.1547  0.0408 -0.2372
 1836SOL     OW 5752   5.599   0.448   0.395 -0.3359  0.1388  0.1947
 1836SOL    HW1 5753   5.601   0.363   0.439  0.3741 -0.2260 -0.5091
 1836SOL    HW2 5754   5.605   0.512   0.465 -1.0119 -0.3861  0.7448
 1837SOL     OW 5755   0.332   1.099   5.402 -0.0217 -0.0182  0.0289
 1837SOL    HW1 5756   0.283   1.159   5.346  1.0285  1.8796  1.0621
 1837SOL    HW2 5757   0.367   1.154   5.472  0.9837 -1.8511  1.0453
 1838SOL     OW 5758   3.868   0.253   4.615  0.3691 -0.1715  0.0811
 1838SOL    HW1 5759   3.788   0.211   4.584  1.0265 -0.8184 -0.8176
 1838SOL    HW2 5760   3.915   0.276   4.534  1.8472 -1.3281  0.5715
 1839SOL     OW 5761   1.637   4.592   1.062 -0.6572  0.0517 -0.2678
 1839SOL    HW1 5762   1.689   4.596   1.142 -1.2302  0.7590  0.0840
 1839SOL    HW2 5763   1.575   4.664   1.071 -0.0633  0.8038 -1.8028
 1840SOL     OW 5764   5.712   5.129   2.276  0.0377 -0.0930  0.0665
 1840SOL    HW1 5765   5.717   5.052   2.333 -0.3924  0.9850  1.6237
 1840SOL    HW2 5766   5.793   5.176   2.294 -0.3149  0.4890  0.1530
 1841SOL     OW 5767   1.856   3.822   5.017 -0.5032 -0.2708  1.0553
 1841SOL    HW1 5768   1.806   3.902   5.035 -1.4891 -0.7380  0.4722
 1841SOL    HW2 5769   1.867   3.822   4.922  0.2331 -0.4027  1.1381
 1842SOL     OW 5770   6.112   2.610   1.108 -0.9068 -0.2617 -0.2001
 1842SOL    HW1 5771   6.128   2.525   1.149  2.1382  0.2488 -0.0782
 1842SOL    HW2 5772   6.046   2.651   1.163 -2.4809 -2.5022 -0.2756
 1843SOL     OW 5773   4.906   0.306   0.487  0.7876 -0.6566  0.2606
 1843SOL    HW1 5774   4.999   0.329   0.481  0.4374  0.9536  0.4647
 1843SOL    HW2 5775   4.871   0.366   0.553 -0.7535  0.0192 -1.1072
 1844SOL     OW 5776   4.256   4.991   3.102 -0.8676  0.1303  0.7326
 1844SOL    HW1 5777   4.289   4.912   3.145 -1.6962 -1.8477 -2.0101
 1844SOL    HW2 5778   4.162   4.976   3.093 -1.0230  1.3926  0.0449
 1845SOL     OW 5779   1.826   5.714   0.189  1.2580  0.0050 -0.2804
 1845SOL    HW1 5780   1.900   5.682   0.240  1.8041  2.3439  0.5095
 1845SOL    HW2 5781   1.866   5.765   0.118  0.4337  1.0657 -0.0083
 1846SOL     OW 5782   3.313   2.378   5.100 -0.5608 -0.4440 -0.5431
 1846SOL    HW1 5783   3.383   2.313   5.101  1.1019  1.2719  0.3447
 1846SOL    HW2 5784   3.342   2.443   5.036 -2.2967 -0.6348 -1.5781
 1847SOL     OW 5785   5.082   4.164   4.830  0.1074 -0.3843  0.3155
 1847SOL    HW1 5786   4.987   4.158   4.839  0.0218  0.0429 -0.2448
 1847SOL    HW2 5787   5.112   4.208   4.909 -0.2444  0.1466  0.1576
 1848SOL     OW 5788   2.868   5.835   0.093  0.6510 -0.1656  0.0293
 1848SOL    HW1 5789   2.800   5.805   0.031  0.1110 -0.1154  0.5877
 1848SOL    HW2 5790   2.845   5.792   0.175  0.4054  1.0492  0.6157
 1849SOL     OW 5791   2.243   1.688   4.974 -0.0650  0.7875  0.3008
 1849SOL    HW1 5792   2.301   1.650   4.908 -0.5196  1.1334 -0.3056
 1849SOL    HW2 5793   2.298   1.751   5.021 -0.0638  1.5085 -0.6220
 1850SOL     OW 5794   3.386   3.216   3.494 -0.2532 -1.3374 -0.0722
 1850SOL    HW1 5795   3.398   3.133   3.541  1.4731 -1.0216  0.1214
 1850SOL    HW2 5796   3.424   3.282   3.553 -1.1619 -0.4493 -0.4376
 1851SOL     OW 5797   4.133   5.133   2.324  0.5883  0.2435 -0.3503
 1851SOL    HW1 5798   4.136   5.037   2.317  0.6323  0.1991  0.1720
 1851SOL    HW2 5799   4.093   5.162   2.243 -0.7270 -0.3150  0.0740
 1852SOL     OW 5800   1.198   0.854   3.713 -0.2333 -0.1042 -0.5702
 1852SOL    HW1 5801   1.237   0.788   3.655 -0.1416  0.9311 -1.7158
 1852SOL    HW2 5802   1.258   0.859   3.787  1.3210  0.7317 -1.8272
 1853SOL     OW 5803   6.000   5.883   0.882 -0.3004 -0.1725  0.0623
 1853SOL    HW1 5804   5.935   5.844   0.940 -0.4370  1.1362  0.8422
 1853SOL    HW2 5805   6.014   5.971   0.918  1.8186 -0.3626 -0.1413
 1854SOL     OW 5806   3.645   1.904   5.332 -0.1091 -0.2904 -0.9881
 1854SOL    HW1 5807   3.573   1.909   5.395  0.3574  0.0099 -0.4632
 1854SOL    HW2 5808   3.678   1.815   5.340  0.1729 -0.1491 -0.5471
 1855SOL     OW 5809   0.141   4.869   3.852  0.0497 -0.1038 -0.5016
 1855SOL    HW1 5810   0.066   4.929   3.851  0.4465  0.4103 -0.1548
 1855SOL    HW2 5811   0.106   4.786   3.819 -1.0505 -0.3089  1.0365
 1856SOL     OW 5812   2.370   1.189   0.712 -0.1059  0.1337  0.1429
 1856SOL    HW1 5813   2.458   1.207   0.744 -1.1925  1.1643  2.8567
 1856SOL    HW2 5814   2.343   1.110   0.758 -1.0492  0.5653  0.3590
 1857SOL     OW 5815   2.253   3.945   3.523 -0.3994 -0.2300 -0.5027
 1857SOL    HW1 5816   2.251   4.008   3.451  0.1014 -1.4194 -1.6006
 1857SOL    HW2 5817   2.242   3.860   3.481  2.7709 -1.2413  0.4190
 1858SOL     OW 5818   2.616   1.855   2.285 -0.0255  0.3056 -0.3794
 1858SOL    HW1 5819   2.585   1.778   2.237 -1.4788  0.4006  0.3669
 1858SOL    HW2 5820   2.711   1.855   2.271 -0.0429 -1.3901 -0.7173
 1859SOL     OW 5821   2.459   6.092   2.339 -0.8759 -0.2430  1.0139
 1859SOL    HW1 5822   2.423   6.180   2.351 -0.8932 -0.0052 -0.5259
 1859SOL    HW2 5823   2.506   6.097   2.255 -0.8502 -1.6981  0.9201
 1860SOL     OW 5824   4.368   3.213   5.285 -0.1874  0.6223 -0.2510
 1860SOL    HW1 5825   4.420   3.293   5.280  0.7568 -0.0345 -2.5609
 1860SOL    HW2 5826   4.400   3.169   5.364  0.5235  1.7063  0.0905
 1861SOL     OW 5827   3.765   4.604   4.223 -0.6290 -0.3083 -0.2298
 1861SOL    HW1 5828   3.703   4.645   4.163 -0.8055  0.9097  0.7412
 1861SOL    HW2 5829   3.712   4.576   4.297 -0.1782 -0.2606  0.1157
 1862SOL     OW 5830   4.891   0.049   5.786  0.0599  0.1655  0.7016
 1862SOL    HW1 5831   4.925  -0.033   5.821 -0.2126 -0.3673 -0.2334
 1862SOL    HW2 5832   4.909   0.044   5.692 -1.7694  0.2469  0.2971
 1863SOL     OW 5833   0.990   1.997   3.309 -0.0819 -0.1609 -0.0864
 1863SOL    HW1 5834   1.000   2.093   3.309 -0.0270 -0.1648  0.4133
 1863SOL    HW2 5835   1.016   1.971   3.220 -1.4136  0.4182 -0.6797
 1864SOL     OW 5836   4.432   5.435   1.632 -0.2037  0.1882  0.8482
 1864SOL    HW1 5837   4.460   5.346   1.608  2.7881  0.8403  1.4630
 1864SOL    HW2 5838   4.398   5.426   1.721 -1.5092 -0.5790  0.2915
 1865SOL     OW 5839   5.083   5.299   3.455 -0.3768  0.4156  0.2313
 1865SOL    HW1 5840   5.093   5.204   3.463  0.7462  0.5805  1.0261
 1865SOL    HW2 5841   4.997   5.318   3.493 -2.0700 -0.5945 -2.7576
 1866SOL     OW 5842   0.618   0.147   2.776 -0.3040 -0.1261 -0.0811
 1866SOL    HW1 5843   0.703   0.190   2.764  0.0690 -0.5768  0.8985
 1866SOL    HW2 5844   0.633   0.082   2.844 -1.2261 -0.8271 -0.5309
 1867SOL     OW 5845   4.777   4.416   1.536 -0.7397 -0.4726 -0.1626
 1867SOL    HW1 5846   4.827   4.354   1.589  0.7993 -0.0474 -1.0745
 1867SOL    HW2 5847   4.827   4.497   1.538 -1.5457  0.0704 -0.8618
 1868SOL     OW 5848   3.004   1.471   2.203 -0.1853 -0.1558 -0.1810
 1868SOL    HW1 5849   2.977   1.476   2.111 -0.1095  1.8426 -0.1220
 1868SOL    HW2 5850   3.089   1.427   2.200 -1.4629 -2.8179 -0.7305
 1869SOL     OW 5851   1.702   5.233   1.641 -0.0002 -0.2848 -0.9164
 1869SOL    HW1 5852   1.712   5.181   1.562  0.2340 -2.3940  0.4403
 1869SOL    HW2 5853   1.671   5.172   1.707 -2.0255  1.8079  0.1972
 1870SOL     OW 5854   5.036   0.320   1.754 -0.3867 -0.1796 -0.0565
 1870SOL    HW1 5855   5.023   0.358   1.668  1.3923  0.6846  0.0126
 1870SOL    HW2 5856   5.080   0.389   1.805  0.0851 -1.2401  1.0308
 1871SOL     OW 5857   5.333   5.015   6.044 -0.1046 -0.8951 -0.4309
 1871SOL    HW1 5858   5.240   5.001   6.026 -0.0829 -0.4496 -0.9269
 1871SOL    HW2 5859   5.364   5.066   5.968  0.2065  0.2608  0.4484
 1872SOL     OW 5860   5.272   2.893   4.397 -0.2619 -0.8315 -0.1784
 1872SOL    HW1 5861   5.199   2.854   4.348 -0.7640 -1.1705  0.8271
 1872SOL    HW2 5862   5.261   2.861   4.486  0.4490  0.0657  0.2394
 1873SOL     OW 5863   1.132   0.305   5.702 -0.0690  0.3021 -0.4232
 1873SOL    HW1 5864   1.135   0.398   5.679  0.5008  0.9353  1.9683
 1873SOL    HW2 5865   1.048   0.293   5.747  0.4617  0.0036  0.5212
 1874SOL     OW 5866   4.716   2.052   0.553  0.1867 -0.0057  0.4486
 1874SOL    HW1 5867   4.662   2.121   0.592  0.5541  2.6595 -3.2087
 1874SOL    HW2 5868   4.653   1.992   0.513 -0.1094 -1.5715  3.0263
 1875SOL     OW 5869   2.188   4.575   2.099 -0.1682  0.6229  0.5209
 1875SOL    HW1 5870   2.258   4.607   2.043  0.2057 -0.5751  0.2962
 1875SOL    HW2 5871   2.226   4.501   2.146 -1.2152  0.0930  0.5603
 1876SOL     OW 5872   5.445   3.252   4.099 -0.0174  0.3074  0.1644
 1876SOL    HW1 5873   5.408   3.250   4.187 -1.9688 -1.0102 -0.6079
 1876SOL    HW2 5874   5.529   3.206   4.107  1.6029  3.2610  1.9469
 1877SOL     OW 5875   0.336   5.970   3.467 -0.6377  0.0260 -0.3347
 1877SOL    HW1 5876   0.288   5.895   3.503  0.1666 -0.3351  0.0120
 1877SOL    HW2 5877   0.404   5.988   3.532 -0.3726  0.5991 -0.7671
 1878SOL     OW 5878   1.954   2.355   0.128 -0.0712 -0.2432 -0.3915
 1878SOL    HW1 5879   2.001   2.331   0.208  0.7184  1.4440 -0.2989
 1878SOL    HW2 5880   1.946   2.273   0.080  3.1538 -0.6540 -0.4587
 1879SOL     OW 5881   2.672   4.657   2.069 -0.5218  0.2167  0.0317
 1879SOL    HW1 5882   2.634   4.644   1.982 -0.0236  0.1615 -0.1765
 1879SOL    HW2 5883   2.702   4.748   2.068  0.5626 -0.1332 -0.2755
 1880SOL     OW 5884   3.853   3.743   5.720 -0.2064  0.2835  0.0971
 1880SOL    HW1 5885   3.834   3.684   5.648  0.7773  0.6307 -0.4698
 1880SOL    HW2 5886   3.769   3.757   5.764 -0.7632 -0.1269 -0.8310
 1881SOL     OW 5887   0.985   4.594   2.644  0.5050  0.1870  0.1833
 1881SOL    HW1 5888   0.954   4.576   2.733 -0.1021  0.5479  0.0448
 1881SOL    HW2 5889   1.015   4.509   2.611 -0.9602 -0.3040  0.0753
 1882SOL     OW 5890   0.879   2.643   0.217 -0.8217  0.1411 -0.0347
 1882SOL    HW1 5891   0.831   2.562   0.234 -0.8931  0.2798  0.4320
 1882SOL    HW2 5892   0.813   2.711   0.216 -0.7796  0.1837 -0.5672
 1883SOL     OW 5893   3.429   2.982   1.752 -0.1355  0.4480  0.2994
 1883SOL    HW1 5894   3.454   2.992   1.844 -1.0802  1.8392  0.4273
 1883SOL    HW2 5895   3.358   2.918   1.753  1.7688 -1.8044  0.1719
 1884SOL     OW 5896   1.124   2.541   3.607  0.2400 -0.1899 -0.0542
 1884SOL    HW1 5897   1.142   2.451   3.633 -0.8409 -0.2544  0.5295
 1884SOL    HW2 5898   1.078   2.579   3.682  1.7114  1.2264  0.1940
 1885SOL     OW 5899   0.858   1.414   5.623  0.2017 -0.2155 -0.0818
 1885SOL    HW1 5900   0.838   1.446   5.711 -1.1940  1.4477 -0.9302
 1885SOL    HW2 5901   0.774   1.415   5.578  0.9941 -0.3688 -1.6385
 1886SOL     OW 5902   1.838   2.179   3.161  0.2755 -0.0400 -0.3268
 1886SOL    HW1 5903   1.841   2.252   3.099  0.5848 -0.1928 -0.4904
 1886SOL    HW2 5904   1.744   2.163   3.173  0.0461  2.4163  2.1021
 1887SOL     OW 5905   5.982   0.691   5.641 -0.4332 -0.0374 -0.4970
 1887SOL    HW1 5906   5.929   0.616   5.669 -0.0220 -0.4062 -0.6846
 1887SOL    HW2 5907   6.041   0.655   5.575  0.0636  0.3610 -0.2775
 1888SOL     OW 5908   3.575   3.780   3.515  0.4699  0.0320  0.1785
 1888SOL    HW1 5909   3.504   3.808   3.457  0.0930 -2.1205 -0.5026
 1888SOL    HW2 5910   3.581   3.849   3.581 -1.6148  0.7410 -0.2943
 1889SOL     OW 5911   5.149   3.747   0.552  0.4874  0.8280 -0.3142
 1889SOL    HW1 5912   5.065   3.717   0.518 -0.0291  1.6464  0.1945
 1889SOL    HW2 5913   5.166   3.693   0.629  2.1976 -1.8067 -2.3488
 1890SOL     OW 5914   5.769   5.562   3.358 -0.1018 -0.4957  0.1449
 1890SOL    HW1 5915   5.742   5.498   3.423  0.1321 -0.8710 -0.1249
 1890SOL    HW2 5916   5.743   5.523   3.274 -1.4417  0.4747  0.0624
 1891SOL     OW 5917   4.793   2.346   4.709  0.7067  0.1841 -0.1854
 1891SOL    HW1 5918   4.724   2.282   4.726  1.3106 -0.7678 -1.1847
 1891SOL    HW2 5919   4.747   2.420   4.668  0.3420 -0.7272 -1.4954
 1892SOL     OW 5920   6.129   2.729   2.317  0.3029  0.3925  0.2675
 1892SOL    HW1 5921   6.142   2.634   2.326 -0.9633  0.2904  1.3585
 1892SOL    HW2 5922   6.209   2.768   2.352  0.0711 -0.2685  1.5993
 1893SOL     OW 5923   1.083   0.263   1.465 -0.3673 -0.4346 -0.3801
 1893SOL    HW1 5924   1.152   0.275   1.400 -0.7001  1.2201 -0.4895
 1893SOL    HW2 5925   1.080   0.347   1.512  0.0307 -1.6572  1.9464
 1894SOL     OW 5926   3.010   3.755   2.196 -0.2097  0.0842 -0.4960
 1894SOL    HW1 5927   2.992   3.662   2.206  3.7913 -0.7117  0.7015
 1894SOL    HW2 5928   2.926   3.798   2.216 -1.7702 -3.1453  0.4881
 1895SOL     OW 5929   1.798   3.015   4.450 -0.1716  0.1761 -0.3139
 1895SOL    HW1 5930   1.800   3.037   4.543  0.5083  1.7260 -0.6545
 1895SOL    HW2 5931   1.729   3.071   4.414  0.0409  0.0985 -0.8445
 1896SOL     OW 5932   0.037   2.987   0.826 -0.2911  0.6965 -0.1041
 1896SOL    HW1 5933   0.075   3.074   0.834  0.7327  0.1619  1.1045
 1896SOL    HW2 5934  -0.047   2.993   0.873 -0.7277  1.2894 -0.9271
 1897SOL     OW 5935   0.504   4.385   6.077  0.5290  0.4172 -0.2624
 1897SOL    HW1 5936   0.439   4.437   6.029 -0.7794 -1.8306 -1.0328
 1897SOL    HW2 5937   0.558   4.345   6.008  0.6633 -0.3086  0.2605
 1898SOL     OW 5938   3.958   1.960   0.113 -0.4190  0.3191  0.1959
 1898SOL    HW1 5939   4.047   1.947   0.081 -0.5945  1.0255 -0.6218
 1898SOL    HW2 5940   3.956   1.913   0.197  0.3842 -0.6444 -0.2916
 1899SOL     OW 5941   0.356   1.492   0.498  0.5437  0.2238 -0.2071
 1899SOL    HW1 5942   0.351   1.426   0.567 -2.4175  0.0985 -0.4262
 1899SOL    HW2 5943   0.337   1.574   0.542 -1.1534  0.1702 -0.7481
 1900SOL     OW 5944   1.007   5.721   4.533  0.3980  0.5109 -0.2589
 1900SOL    HW1 5945   1.078   5.678   4.485 -1.0052 -0.5005 -1.5502
 1900SOL    HW2 5946   0.982   5.794   4.477  0.6681  1.1071  0.3878
 1901SOL     OW 5947   6.128   2.817   5.843 -0.1079  0.1584 -0.4188
 1901SOL    HW1 5948   6.065   2.889   5.847  1.0932  1.1880  1.0244
 1901SOL    HW2 5949   6.164   2.812   5.931 -1.0686 -3.1105 -0.0655
 1902SOL     OW 5950   3.438   3.882   1.832  0.2023 -1.1066  0.1864
 1902SOL    HW1 5951   3.469   3.868   1.743  1.5407 -0.1643  0.4774
 1902SOL    HW2 5952   3.480   3.963   1.860 -1.0425 -0.8007  1.3054
 1903SOL     OW 5953   1.643   3.593   0.579  0.0168  0.0498  0.0257
 1903SOL    HW1 5954   1.707   3.657   0.549  0.5619  0.9128  2.7317
 1903SOL    HW2 5955   1.687   3.545   0.649 -1.6724 -0.5766  0.7354
 1904SOL     OW 5956   2.325   5.877   5.863 -0.3346 -0.3484 -0.0996
 1904SOL    HW1 5957   2.421   5.871   5.860 -0.3459 -0.6105 -3.1000
 1904SOL    HW2 5958   2.308   5.972   5.866  0.0447 -0.2481 -0.8323
 1905SOL     OW 5959   2.166   5.724   2.894  0.3702 -0.2351  0.2366
 1905SOL    HW1 5960   2.140   5.788   2.827 -1.3802 -0.8702  0.2571
 1905SOL    HW2 5961   2.241   5.679   2.856 -0.8813 -0.9229 -1.5538
 1906SOL     OW 5962   4.286   2.101   4.601  0.0922  0.3228 -0.2720
 1906SOL    HW1 5963   4.250   2.047   4.671 -1.2304  0.1689 -1.0259
 1906SOL    HW2 5964   4.236   2.183   4.606 -0.2875  0.1699 -1.2457
 1907SOL     OW 5965   5.059   4.613   1.066  0.3351 -0.5149 -0.0450
 1907SOL    HW1 5966   4.999   4.661   1.009  0.1246 -0.9902 -0.2303
 1907SOL    HW2 5967   5.005   4.544   1.104  0.4859 -0.2384  0.6894
 1908SOL     OW 5968   3.894   4.705   0.120 -0.6122  0.3150  0.1223
 1908SOL    HW1 5969   3.970   4.723   0.064 -1.0683  1.1594 -0.2428
 1908SOL    HW2 5970   3.866   4.791   0.150 -1.1983 -0.0275  0.5619
 1909SOL     OW 5971   2.694   3.560   2.445 -0.8594 -0.0395  0.0995
 1909SOL    HW1 5972   2.731   3.482   2.484  2.6151  1.6134  0.4900
 1909SOL    HW2 5973   2.636   3.595   2.512  0.7025 -0.2037  1.6139
 1910SOL     OW 5974   2.889   0.082   3.342  0.1986 -0.2002  0.2720
 1910SOL    HW1 5975   2.808   0.134   3.345  1.6594  2.2615 -0.1487
 1910SOL    HW2 5976   2.924   0.089   3.431  0.6405 -0.0638  0.0867
 1911SOL     OW 5977   5.435   5.408   3.156  0.0480 -0.0787 -0.3904
 1911SOL    HW1 5978   5.388   5.481   3.116  0.7490  1.1948  1.0046
 1911SOL    HW2 5979   5.527   5.430   3.145  0.2817 -1.0037 -0.3589
 1912SOL     OW 5980   1.986   0.741   1.803 -0.3185  0.3353  0.0665
 1912SOL    HW1 5981   1.919   0.807   1.824  0.5155  1.0121  0.6452
 1912SOL    HW2 5982   1.937   0.670   1.761 -1.8061 -0.3008  2.6695
 1913SOL     OW 5983   0.232   3.050   6.001 -0.0530 -0.0316 -0.0058
 1913SOL    HW1 5984   0.287   3.018   6.072 -0.1257 -2.0026 -0.7776
 1913SOL    HW2 5985   0.287   3.045   5.923 -0.4924  0.5494 -0.3631
 1914SOL     OW 5986   0.485   0.330   4.625 -0.2862 -0.4351  0.1738
 1914SOL    HW1 5987   0.546   0.337   4.698 -2.0110  2.2230  1.5425
 1914SOL    HW2 5988   0.414   0.276   4.659 -0.7308  0.1638  0.2109
 1915SOL     OW 5989   2.538   4.024   0.959  0.2461 -0.1222 -0.0964
 1915SOL    HW1 5990   2.510   3.977   0.880  0.7005 -2.1193  0.8715
 1915SOL    HW2 5991   2.621   4.065   0.934  0.8401 -1.4823 -0.4241
 1916SOL     OW 5992   0.792   5.750   5.328 -0.4879  0.7921 -0.6257
 1916SOL    HW1 5993   0.859   5.682   5.323 -0.7573  0.2412  1.9316
 1916SOL    HW2 5994   0.728   5.727   5.260 -1.0785 -2.1121  0.7799
 1917SOL     OW 5995   5.781   5.408   1.415  0.1092 -0.9253  0.3427
 1917SOL    HW1 5996   5.845   5.427   1.347  1.2382 -2.7491  0.8370
 1917SOL    HW2 5997   5.735   5.330   1.383 -1.3935 -0.0731  0.3425
 1918SOL     OW 5998   2.440   4.134   1.858 -0.1337 -0.1213 -0.2566
 1918SOL    HW1 5999   2.510   4.071   1.847 -1.1985 -1.2316 -0.9185
 1918SOL    HW2 6000   2.484   4.215   1.883  1.6632  0.0351 -3.4461
 1919SOL     OW 6001   0.774   0.532   4.461 -0.1335 -0.0475  0.0190
 1919SOL    HW1 6002   0.868   0.528   4.476  0.1265  1.4622 -0.9803
 1919SOL    HW2 6003   0.762   0.608   4.405 -2.0074  0.0467  0.4840
 1920SOL     OW 6004   2.830   4.332   1.437  0.3283 -0.1056 -0.3105
 1920SOL    HW1 6005   2.874   4.293   1.362  0.6304 -0.3781  0.0053
 1920SOL    HW2 6006   2.896   4.390   1.476  0.1330  0.1294 -0.3323
 1921SOL     OW 6007   4.666   2.578   5.220  0.0211  0.6645 -1.0875
 1921SOL    HW1 6008   4.677   2.614   5.132  0.6491  1.5867 -0.6482
 1921SOL    HW2 6009   4.616   2.498   5.207 -1.9298  1.9754 -2.0370
 1922SOL     OW 6010   5.636   4.199   5.224 -0.0908 -0.0924  0.5948
 1922SOL    HW1 6011   5.718   4.181   5.269 -1.4935 -3.0184  2.3150
 1922SOL    HW2 6012   5.661   4.250   5.147  3.0145  0.9644  2.1374
 1923SOL     OW 6013   0.593   2.492   3.597 -0.5381  0.1263  0.2801
 1923SOL    HW1 6014   0.680   2.451   3.601 -1.2344 -1.4730 -0.2620
 1923SOL    HW2 6015   0.550   2.465   3.679 -0.7089  0.5113  0.3218
 1924SOL     OW 6016   1.360   1.973   5.133 -0.1769  0.2016 -0.5374
 1924SOL    HW1 6017   1.315   1.920   5.067 -0.5407 -0.9502  0.5794
 1924SOL    HW2 6018   1.369   1.914   5.208 -0.7065  1.7675  0.8139
 1925SOL     OW 6019   0.071   5.953   1.124 -0.4916  0.0107  0.1398
 1925SOL    HW1 6020   0.092   5.972   1.032 -1.4036 -0.5041 -0.1971
 1925SOL    HW2 6021   0.139   5.996   1.174 -0.3011  0.7934 -0.7646
 1926SOL     OW 6022   3.179   3.130   1.170 -0.6569 -0.0579  0.2935
 1926SOL    HW1 6023   3.263   3.172   1.190 -0.9868  0.6125  0.2819
 1926SOL    HW2 6024   3.161   3.074   1.246 -0.2203 -0.1796  0.3111
 1927SOL     OW 6025   4.166   3.079   3.709  0.2675  0.0100 -0.2358
 1927SOL    HW1 6026   4.089   3.060   3.762  0.0670  0.6905 -0.2705
 1927SOL    HW2 6027   4.240   3.058   3.766  0.0573  1.4607  0.6109
 1928SOL     OW 6028   0.779   0.113   1.276  0.1358 -0.1478 -0.0386
 1928SOL    HW1 6029   0.826   0.181   1.228 -0.8349  0.8998  0.4410
 1928SOL    HW2 6030   0.840   0.087   1.346  1.0294 -0.7434 -1.0191
 1929SOL     OW 6031   3.333   1.168   0.352 -0.1427  0.5159 -0.1522
 1929SOL    HW1 6032   3.376   1.148   0.269 -0.2352 -1.5397  0.2656
 1929SOL    HW2 6033   3.240   1.164   0.333 -0.1850 -1.0710  0.2522
 1930SOL     OW 6034   4.979   0.297   0.022  0.3100 -0.4573 -0.0890
 1930SOL    HW1 6035   4.969   0.272  -0.070 -1.7597  0.5743 -0.2017
 1930SOL    HW2 6036   5.045   0.237   0.056  0.8606 -1.1027 -2.1478
 1931SOL     OW 6037   2.061   5.373   0.323 -0.2610 -0.3278 -0.3804
 1931SOL    HW1 6038   2.093   5.308   0.385  0.6333  0.9440  0.5306
 1931SOL    HW2 6039   2.064   5.329   0.238  0.3808 -1.4465  0.2042
 1932SOL     OW 6040   0.933   4.856   2.790  0.0574 -0.5287  0.5267
 1932SOL    HW1 6041   0.896   4.790   2.732  1.0277 -0.8987  0.3135
 1932SOL    HW2 6042   0.905   4.940   2.752 -0.3942 -0.7913  0.2690
 1933SOL     OW 6043   5.553   2.969   4.675 -0.4932 -0.3259  0.3571
 1933SOL    HW1 6044   5.599   2.941   4.596  0.2184 -1.3573  1.1020
 1933SOL    HW2 6045   5.617   2.955   4.745 -1.5287 -0.6232  1.2686
 1934SOL     OW 6046   3.680   1.793   4.657  0.0606  0.6895 -0.1506
 1934SOL    HW1 6047   3.636   1.788   4.742 -1.4520 -0.1535 -0.9439
 1934SOL    HW2 6048   3.755   1.850   4.673  2.7242 -3.1723  2.9478
 1935SOL     OW 6049   3.484   2.450   1.072  0.2965  0.2158  0.5100
 1935SOL    HW1 6050   3.455   2.451   1.163  0.2676  0.3058  0.4999
 1935SOL    HW2 6051   3.535   2.370   1.063  1.9035  1.1140  1.1081
 1936SOL     OW 6052   1.819   0.879   4.196 -0.8105 -0.3824  0.2323
 1936SOL    HW1 6053   1.843   0.939   4.266  0.1175 -1.0172  0.4827
 1936SOL    HW2 6054   1.845   0.924   4.115 -1.5916  0.2135  0.3035
 1937SOL     OW 6055   5.550   5.017   3.667 -0.3018 -0.3160 -0.4096
 1937SOL    HW1 6056   5.476   5.078   3.657 -0.1731 -0.0704  0.0905
 1937SOL    HW2 6057   5.533   4.948   3.604 -1.4151 -0.6964  0.2743
 1938SOL     OW 6058   4.297   1.560   5.714  0.1746  0.3981 -0.0475
 1938SOL    HW1 6059   4.227   1.618   5.744  0.8080  0.4338  1.4722
 1938SOL    HW2 6060   4.364   1.566   5.782  1.3206 -0.2452 -1.0702
 1939SOL     OW 6061   3.949   3.041   0.138 -0.3310  0.0258  0.2516
 1939SOL    HW1 6062   3.884   3.105   0.110 -0.7431 -0.4100  0.1916
 1939SOL    HW2 6063   4.033   3.083   0.122 -0.5935  0.4987  0.0953
 1940SOL     OW 6064   4.677   4.850   4.007 -0.6818  0.1827  0.8344
 1940SOL    HW1 6065   4.657   4.766   4.049  0.2858 -0.6601 -0.2981
 1940SOL    HW2 6066   4.773   4.856   4.011 -0.6851  0.8228  0.1617
 1941SOL     OW 6067   2.466   0.278   0.488 -0.1444 -0.1201  0.0937
 1941SOL    HW1 6068   2.507   0.363   0.475 -1.2317  0.2592 -1.1248
 1941SOL    HW2 6069   2.494   0.250   0.575  0.6715  1.2210  0.2853
 1942SOL     OW 6070   4.770   4.997   5.278  0.7595  0.3082  0.7650
 1942SOL    HW1 6071   4.842   4.954   5.231 -0.6528 -1.2976 -0.0186
 1942SOL    HW2 6072   4.701   4.931   5.282 -0.5223  1.6489  1.9093
 1943SOL     OW 6073   2.206   3.371   4.451 -0.4227  0.4542 -0.5223
 1943SOL    HW1 6074   2.261   3.345   4.524 -1.4189  2.2282  0.9711
 1943SOL    HW2 6075   2.128   3.408   4.493 -2.7572 -1.8803 -2.5252
 1944SOL     OW 6076   4.372   1.612   1.938  0.2495  0.0220  0.1426
 1944SOL    HW1 6077   4.316   1.689   1.946  1.2388  0.7828 -0.0229
 1944SOL    HW2 6078   4.404   1.596   2.027  0.7131  0.3322  0.0365
 1945SOL     OW 6079   0.535   3.862   2.494  0.6248  0.2336  0.7613
 1945SOL    HW1 6080   0.494   3.891   2.575 -0.6803  0.2953  0.0964
 1945SOL    HW2 6081   0.580   3.781   2.518 -0.1920 -0.0299  1.4437
 1946SOL     OW 6082   0.497   5.805   5.458  0.6751 -0.8452  0.3024
 1946SOL    HW1 6083   0.447   5.827   5.379 -0.8354 -0.0674  1.4045
 1946SOL    HW2 6084   0.588   5.813   5.431  0.2313 -1.6059 -1.6171
 1947SOL     OW 6085   4.486   3.256   3.614 -0.3513  0.0218  0.0279
 1947SOL    HW1 6086   4.427   3.200   3.564 -1.6471  1.4087 -0.0431
 1947SOL    HW2 6087   4.557   3.277   3.552 -0.8623  0.0380 -0.5618
 1948SOL     OW 6088   3.965   3.338   5.324  0.5969  0.2236  0.0334
 1948SOL    HW1 6089   3.890   3.398   5.316 -0.2027 -0.7608 -0.0992
 1948SOL    HW2 6090   4.015   3.351   5.243 -0.1153  0.0094 -0.4529
 1949SOL     OW 6091   3.632   0.338   3.759  0.0631  0.4166  0.1681
 1949SOL    HW1 6092   3.679   0.421   3.747 -2.0213  1.6648  0.1926
 1949SOL    HW2 6093   3.614   0.335   3.853  0.9746 -0.5978  0.3343
 1950SOL     OW 6094   0.635   2.065   1.046  0.1088  0.4689 -0.2851
 1950SOL    HW1 6095   0.577   2.119   1.101 -0.9956 -0.7607 -0.2044
 1950SOL    HW2 6096   0.721   2.072   1.088 -0.3028  1.0923  0.4838
 1951SOL     OW 6097   3.015   4.310   4.842  0.5609  0.1328  0.0070
 1951SOL    HW1 6098   2.940   4.322   4.783  0.7058  0.6002 -0.0821
 1951SOL    HW2 6099   3.020   4.215   4.853 -0.8433  0.1376  1.0359
 1952SOL     OW 6100   0.965   5.587   4.943 -0.3812  0.0350  0.2111
 1952SOL    HW1 6101   1.054   5.598   4.911 -0.2992  1.8618  0.9114
 1952SOL    HW2 6102   0.911   5.638   4.883 -0.7146  0.3428  0.7570
 1953SOL     OW 6103   1.366   1.876   4.004 -0.4019  0.0183 -0.0188
 1953SOL    HW1 6104   1.387   1.920   4.087  1.9742  0.8469 -0.9854
 1953SOL    HW2 6105   1.442   1.893   3.948 -1.5974 -1.1964 -2.1151
 1954SOL     OW 6106   4.553   4.505   2.727  0.0195  0.5125  0.5904
 1954SOL    HW1 6107   4.521   4.538   2.811  0.6450  1.6874  0.3906
 1954SOL    HW2 6108   4.632   4.556   2.710 -0.5285  0.8623 -1.0880
 1955SOL     OW 6109   2.650   0.281   6.044 -0.0291  0.2280 -0.0829
 1955SOL    HW1 6110   2.705   0.206   6.019  0.2336  0.0639  0.9259
 1955SOL    HW2 6111   2.563   0.242   6.060  0.4097 -0.1136  1.7007
 1956SOL     OW 6112   3.584   5.923   4.057  0.1921  0.1982 -0.8487
 1956SOL    HW1 6113   3.648   5.855   4.036 -0.2264 -0.3187 -0.4881
 1956SOL    HW2 6114   3.500   5.877   4.058  0.0320  0.4722  0.5758
 1957SOL     OW 6115   4.292   0.102   0.794 -0.1021 -0.2890 -0.3717
 1957SOL    HW1 6116   4.239   0.129   0.869  2.0151 -0.2522  1.2083
 1957SOL    HW2 6117   4.278   0.170   0.728 -0.5451  0.7150  0.7300
 1958SOL     OW 6118   2.057   1.617   3.590 -0.1030 -0.0559 -0.3447
 1958SOL    HW1 6119   2.038   1.665   3.509 -1.6937  0.0472  0.0579
 1958SOL    HW2 6120   2.129   1.666   3.631  1.2318 -0.5193 -2.0073
 1959SOL     OW 6121   1.272   1.785   4.968  0.0377  0.2852  0.2099
 1959SOL    HW1 6122   1.191   1.739   4.989  1.1945 -1.1174  1.8806
 1959SOL    HW2 6123   1.316   1.728   4.904  0.4135  0.2363  0.5090
 1960SOL     OW 6124   1.484   4.759   1.993  1.1692  0.1805 -0.5034
 1960SOL    HW1 6125   1.485   4.776   1.899  2.4640  1.0883 -0.3662
 1960SOL    HW2 6126   1.498   4.665   2.001  0.6784  0.0430 -1.2266
 1961SOL     OW 6127   2.061   0.505   3.385 -0.1410 -0.4252  0.5417
 1961SOL    HW1 6128   2.020   0.441   3.326  0.9134  0.1272 -0.8199
 1961SOL    HW2 6129   2.019   0.588   3.363  0.4871 -0.1590  0.3460
 1962SOL     OW 6130   1.849   5.462   1.193  0.1599 -0.2232 -0.2537
 1962SOL    HW1 6131   1.807   5.508   1.266 -1.4531 -0.8634 -0.7219
 1962SOL    HW2 6132   1.885   5.383   1.233  0.3242  0.0013  0.0457
 1963SOL     OW 6133   1.303   0.357   1.327  0.1930  0.1798  0.6464
 1963SOL    HW1 6134   1.306   0.289   1.259 -1.4818 -0.1414  0.8417
 1963SOL    HW2 6135   1.274   0.435   1.280  1.3578  0.5791  0.5689
 1964SOL     OW 6136   2.838   4.095   2.328 -0.3488 -0.0514 -0.0740
 1964SOL    HW1 6137   2.846   4.093   2.424 -2.9175  2.3293  0.3179
 1964SOL    HW2 6138   2.805   4.008   2.306 -1.5549 -0.0616  1.5104
 1965SOL     OW 6139   1.528   5.553   2.376  0.3958 -0.0150 -0.1536
 1965SOL    HW1 6140   1.570   5.505   2.304  1.2151  0.7892 -0.2229
 1965SOL    HW2 6141   1.534   5.645   2.351 -2.9242  0.1235 -1.0001
 1966SOL     OW 6142   5.870   5.043   4.363  0.7384 -0.2165 -0.6770
 1966SOL    HW1 6143   5.929   5.111   4.329 -0.9056  1.0617 -1.1100
 1966SOL    HW2 6144   5.827   5.008   4.285 -0.3021  0.0821 -0.2574
 1967SOL     OW 6145   1.644   2.771   5.437  0.7312 -0.0724 -0.7016
 1967SOL    HW1 6146   1.568   2.805   5.484 -0.9423 -3.1862 -0.9715
 1967SOL    HW2 6147   1.640   2.814   5.351 -0.4232  0.2072 -0.5258
 1968SOL     OW 6148   2.650   3.852   4.887 -0.1015  0.0319  0.1169
 1968SOL    HW1 6149   2.583   3.784   4.894  0.5678 -0.7171 -0.5562
 1968SOL    HW2 6150   2.706   3.823   4.815  1.7895 -0.1131  1.5772
 1969SOL     OW 6151   0.881   0.275   2.810  0.6832 -0.1303  0.1658
 1969SOL    HW1 6152   0.914   0.185   2.807 -0.8070 -0.6968 -0.3139
 1969SOL    HW2 6153   0.868   0.293   2.903  2.6204  0.2508  0.3998
 1970SOL     OW 6154   5.909   2.191   2.438 -0.6063 -0.0903  0.0992
 1970SOL    HW1 6155   5.910   2.253   2.511  3.5154  0.5170 -0.2554
 1970SOL    HW2 6156   5.871   2.241   2.366  1.7973  1.9297  0.0575
 1971SOL     OW 6157   4.665   0.556   2.463  0.0638 -0.7650 -0.2481
 1971SOL    HW1 6158   4.676   0.509   2.380  0.1432 -0.6184 -0.3225
 1971SOL    HW2 6159   4.692   0.494   2.530 -1.6654 -1.5138 -0.1882
 1972SOL     OW 6160   1.288   2.766   2.900 -0.1907 -0.0553 -0.1414
 1972SOL    HW1 6161   1.200   2.803   2.892 -1.2663 -1.9948  1.6170
 1972SOL    HW2 6162   1.287   2.720   2.984  2.2104 -0.9672 -0.5235
 1973SOL     OW 6163   4.407   2.499   0.663  0.8503  0.2022 -0.1470
 1973SOL    HW1 6164   4.338   2.522   0.601  1.1497  1.1060 -0.1686
 1973SOL    HW2 6165   4.367   2.511   0.749  1.2272  1.6363 -0.1444
 1974SOL     OW 6166   5.644   1.110   5.906  0.0114 -0.5126 -0.5179
 1974SOL    HW1 6167   5.599   1.192   5.885 -0.4461  0.4468  3.3085
 1974SOL    HW2 6168   5.734   1.124   5.878  0.0021  1.5004  0.2492
 1975SOL     OW 6169   1.498   0.654   1.598 -0.0541  0.0454 -0.3247
 1975SOL    HW1 6170   1.487   0.647   1.693 -3.4424 -2.2889 -0.7070
 1975SOL    HW2 6171   1.489   0.565   1.565  0.3318  0.8550 -2.9106
 1976SOL     OW 6172   1.146   5.593   1.843 -0.8816 -0.2229 -0.0408
 1976SOL    HW1 6173   1.240   5.586   1.827 -0.4538  3.4737 -0.1187
 1976SOL    HW2 6174   1.108   5.517   1.799  1.9555 -1.2207 -0.9752
 1977SOL     OW 6175   4.041   2.326   3.351  0.1594 -0.1978 -0.1235
 1977SOL    HW1 6176   4.040   2.395   3.284 -0.9402  0.3994  0.4819
 1977SOL    HW2 6177   4.017   2.371   3.432 -0.0791 -1.2119  0.3836
 1978SOL     OW 6178   2.209   0.070   0.084  0.1776 -0.2277  0.5435
 1978SOL    HW1 6179   2.126   0.092   0.126 -0.1053 -1.6655  0.7844
 1978SOL    HW2 6180   2.275   0.113   0.139 -0.2322 -1.4886  2.0824
 1979SOL     OW 6181   4.777   5.611   4.330  0.0291 -0.9751  0.3589
 1979SOL    HW1 6182   4.683   5.622   4.338  0.3009  0.7988  1.6127
 1979SOL    HW2 6183   4.806   5.588   4.418  1.0297  0.9171  0.5598
 1980SOL     OW 6184   1.494   3.200   0.841  0.1877 -0.0008  0.0872
 1980SOL    HW1 6185   1.501   3.242   0.926 -0.1550 -0.9215  0.5922
 1980SOL    HW2 6186   1.516   3.108   0.858  0.1410 -0.1916 -0.8201
 1981SOL     OW 6187   1.551   5.098   1.876 -0.0556  0.1174 -0.4225
 1981SOL    HW1 6188   1.603   5.123   1.952  2.6322  1.1405 -2.4228
 1981SOL    HW2 6189   1.465   5.140   1.891  0.6445  0.9664  1.6244
 1982SOL     OW 6190   1.223   3.618   5.055 -0.3051 -0.0186  0.5805
 1982SOL    HW1 6191   1.225   3.685   5.124  0.1611 -0.8613  1.4075
 1982SOL    HW2 6192   1.314   3.594   5.042 -0.2955  0.7787 -1.0066
 1983SOL     OW 6193   5.545   2.634   4.322 -0.5113  0.3300  0.5962
 1983SOL    HW1 6194   5.516   2.724   4.309  0.3502  0.5759  0.3492
 1983SOL    HW2 6195   5.472   2.592   4.367 -1.7353  0.6221 -1.0517
 1984SOL     OW 6196   5.025   0.802   1.509  0.1566  0.4300  0.0697
 1984SOL    HW1 6197   4.950   0.822   1.564 -0.8099 -1.1554 -0.6147
 1984SOL    HW2 6198   5.055   0.887   1.478 -0.1636  1.2430  1.8448
 1985SOL     OW 6199   6.046   3.388   1.452  0.1259  0.2558  0.5172
 1985SOL    HW1 6200   5.959   3.423   1.431 -0.2665 -0.9687  0.0143
 1985SOL    HW2 6201   6.030   3.326   1.523  0.4116 -0.8418 -0.3640
 1986SOL     OW 6202   0.836   4.090   1.712  0.3122 -0.3205 -0.0450
 1986SOL    HW1 6203   0.838   4.156   1.782  0.0010 -1.1541  0.7826
 1986SOL    HW2 6204   0.910   4.033   1.732 -0.7062 -1.4786  0.5423
 1987SOL     OW 6205   3.057   4.670   3.088  0.2841  0.4633 -0.3045
 1987SOL    HW1 6206   3.106   4.590   3.107  0.4263  0.4430 -0.7514
 1987SOL    HW2 6207   3.105   4.740   3.131 -0.1502  0.2328  0.5670
 1988SOL     OW 6208   0.410   5.509   5.533  0.5347  0.0442 -0.2889
 1988SOL    HW1 6209   0.434   5.495   5.441  0.1510  2.1058 -0.7540
 1988SOL    HW2 6210   0.441   5.598   5.552  0.8844 -0.4582  1.6958
 1989SOL     OW 6211   0.587   5.172   3.421  0.3764 -0.4163 -0.0085
 1989SOL    HW1 6212   0.613   5.208   3.337 -0.0846  1.3672  0.5773
 1989SOL    HW2 6213   0.496   5.144   3.408 -0.3102  1.4900  0.3210
 1990SOL     OW 6214   2.560   4.735   4.026 -0.0482 -0.0783 -0.4006
 1990SOL    HW1 6215   2.501   4.722   4.101  0.7242  2.0483  0.6620
 1990SOL    HW2 6216   2.590   4.647   4.004 -1.1145 -0.8759  1.1116
 1991SOL     OW 6217   3.666   0.364   4.776 -0.2361  0.0564 -0.1708
 1991SOL    HW1 6218   3.638   0.273   4.779  3.0467 -1.0666  1.2496
 1991SOL    HW2 6219   3.748   0.363   4.728  0.5948  2.0262  1.0650
 1992SOL     OW 6220   3.262   3.714   3.543 -0.1372 -0.0726 -0.3781
 1992SOL    HW1 6221   3.262   3.743   3.634  1.5986  0.1611 -0.4205
 1992SOL    HW2 6222   3.178   3.669   3.532 -0.2561 -0.3545  1.4145
 1993SOL     OW 6223   5.400   4.179   5.976 -0.0396  0.1941  0.0805
 1993SOL    HW1 6224   5.367   4.239   6.043 -0.9420  0.3413 -0.4845
 1993SOL    HW2 6225   5.322   4.141   5.936  0.4604  0.4038 -1.1531
 1994SOL     OW 6226   5.011   1.541   1.848  0.3427  0.3854 -0.1303
 1994SOL    HW1 6227   5.029   1.586   1.931 -2.0012  0.4359  0.3981
 1994SOL    HW2 6228   5.035   1.449   1.866  1.6340  0.7084 -0.0484
 1995SOL     OW 6229   0.021   3.276   3.089  0.3545 -0.0982 -0.0132
 1995SOL    HW1 6230  -0.006   3.330   3.163 -2.2073  1.0295 -1.6424
 1995SOL    HW2 6231  -0.039   3.300   3.018  2.9318 -0.7609 -2.6428
 1996SOL     OW 6232   2.400   3.850   2.496  0.4274 -0.2424 -0.3648
 1996SOL    HW1 6233   2.426   3.874   2.585 -0.4025  1.9477 -0.6600
 1996SOL    HW2 6234   2.305   3.844   2.499  0.2769  1.1764 -1.3677
 1997SOL     OW 6235   2.298   0.963   3.199  0.0376  0.2909  0.0564
 1997SOL    HW1 6236   2.275   0.975   3.291  1.2711  2.8462  0.1343
 1997SOL    HW2 6237   2.377   0.909   3.201  0.6747  1.2020  0.6185
 1998SOL     OW 6238   5.581   4.883   1.522  0.1891  0.2657  0.1878
 1998SOL    HW1 6239   5.533   4.821   1.468  0.1347  0.5620 -0.1047
 1998SOL    HW2 6240   5.654   4.912   1.467  0.3470  0.2849  0.4052
 1999SOL     OW 6241   1.472   4.085   2.971 -0.1745 -0.5637  0.5701
 1999SOL    HW1 6242   1.529   4.016   2.938  0.0995 -0.8080  1.5138
 1999SOL    HW2 6243   1.384   4.058   2.947  0.0249 -0.6564 -0.0743
 2000SOL     OW 6244   3.899   2.981   3.777 -0.4871  0.1594 -0.3267
 2000SOL    HW1 6245   3.878   2.915   3.842  0.7562  0.1770  0.1136
 2000SOL    HW2 6246   3.853   2.953   3.698 -1.2194 -0.3795  0.2793
 2001SOL     OW 6247   3.191   2.242   2.482  0.3360  0.0039 -0.6059
 2001SOL    HW1 6248   3.182   2.337   2.487  0.8741  0.0176  0.5795
 2001SOL    HW2 6249   3.134   2.216   2.410 -0.1383  1.1875 -0.6816
 2002SOL     OW 6250   5.450   2.621   4.762  0.0219 -0.2050  0.3995
 2002SOL    HW1 6251   5.539   2.588   4.774 -0.2656 -1.2034 -0.1341
 2002SOL    HW2 6252   5.404   2.600   4.843 -0.1670 -1.1566  0.0515
 2003SOL     OW 6253   2.731   5.409   1.061 -0.2457  0.1356  0.6975
 2003SOL    HW1 6254   2.641   5.382   1.042  0.2783 -0.0532 -1.9936
 2003SOL    HW2 6255   2.784   5.333   1.037  0.7621  1.1011 -0.2814
 2004SOL     OW 6256   4.445   5.946   4.089 -0.2312  0.2959  0.1151
 2004SOL    HW1 6257   4.458   5.851   4.087 -2.5935 -0.1223  1.1771
 2004SOL    HW2 6258   4.526   5.982   4.052  1.4857 -2.0405  1.3231
 2005SOL     OW 6259   2.160   4.141   2.885 -0.7328  0.5583 -0.1492
 2005SOL    HW1 6260   2.251   4.143   2.915 -0.5795  0.4702 -0.6093
 2005SOL    HW2 6261   2.124   4.060   2.920 -0.7892  0.8507  0.4823
 2006SOL     OW 6262   5.667   2.149   4.569 -0.3614  0.2854  0.2997
 2006SOL    HW1 6263   5.696   2.232   4.531 -1.0934  0.4482  0.0683
 2006SOL    HW2 6264   5.693   2.083   4.506  0.9378  0.2316  0.8538
 2007SOL     OW 6265   5.921   5.090   0.809  0.2005  0.1288 -0.0393
 2007SOL    HW1 6266   5.986   5.156   0.831  0.1519 -0.3969  1.9413
 2007SOL    HW2 6267   5.891   5.057   0.894 -1.8215 -0.4543 -0.9088
 2008SOL     OW 6268   5.720   5.173   3.092  0.2407 -0.2192  0.0804
 2008SOL    HW1 6269   5.781   5.099   3.100 -1.4453 -1.7674 -0.5779
 2008SOL    HW2 6270   5.693   5.171   3.000 -0.4445  0.7346  0.2526
 2009SOL     OW 6271   3.945   4.447   4.008 -0.1445  0.2740 -0.2466
 2009SOL    HW1 6272   3.924   4.531   3.967  1.6198  0.2703 -1.2265
 2009SOL    HW2 6273   3.973   4.470   4.097  1.1599  0.8419 -0.7799
 2010SOL     OW 6274   0.561   5.337   2.247 -0.1887 -0.0340  0.2232
 2010SOL    HW1 6275   0.534   5.283   2.174 -2.3396 -0.0805  0.9937
 2010SOL    HW2 6276   0.593   5.275   2.313  1.1561 -0.0303 -0.3827
 2011SOL     OW 6277   4.558   3.946   5.382  0.1484  0.0903 -0.0668
 2011SOL    HW1 6278   4.640   3.985   5.410  0.5551 -1.0331  0.3511
 2011SOL    HW2 6279   4.501   3.951   5.459 -0.9890  2.8198 -0.9347
 2012SOL     OW 6280   5.938   5.847   2.059  0.0026  0.3950 -0.9291
 2012SOL    HW1 6281   5.969   5.777   2.116 -0.4814  1.0514  0.1724
 2012SOL    HW2 6282   6.018   5.881   2.018  0.3348 -0.2310 -0.8091
 2013SOL     OW 6283   4.643   1.417   2.807  0.0377 -0.2374  0.3274
 2013SOL    HW1 6284   4.650   1.502   2.762  0.6069 -1.3052 -1.7329
 2013SOL    HW2 6285   4.558   1.419   2.849 -0.3605  0.9994 -0.4724
 2014SOL     OW 6286   0.568   1.447   5.915 -0.4381 -0.0640  0.0643
 2014SOL    HW1 6287   0.550   1.436   5.822 -0.7579  0.1966  0.0940
 2014SOL    HW2 6288   0.663   1.435   5.922 -0.6428 -2.0730 -0.0023
 2015SOL     OW 6289   1.662   4.719   0.190  0.3746 -0.9129  0.3624
 2015SOL    HW1 6290   1.572   4.706   0.220  0.0807  0.9882  0.4395
 2015SOL    HW2 6291   1.657   4.709   0.095  0.0431 -0.7158  0.3541
 2016SOL     OW 6292   2.342   2.362   4.805 -0.0510  0.3660  0.2568
 2016SOL    HW1 6293   2.350   2.267   4.806 -1.0744  0.2665 -0.0198
 2016SOL    HW2 6294   2.293   2.381   4.725 -0.0649  1.1034  0.4365
 2017SOL     OW 6295   3.629   2.341   2.563 -0.2699  0.3758  0.5427
 2017SOL    HW1 6296   3.633   2.269   2.626 -0.7231  0.3446  0.5400
 2017SOL    HW2 6297   3.700   2.400   2.589  1.1555 -0.8421 -0.4182
 2018SOL     OW 6298   2.808   3.331   5.960  0.0544  0.3399 -0.2031
 2018SOL    HW1 6299   2.857   3.314   6.041  0.0602  0.4889 -0.1731
 2018SOL    HW2 6300   2.753   3.407   5.982 -0.4447 -0.0394 -0.1273
 2019SOL     OW 6301   2.653   3.152   5.027 -0.3942 -0.4135 -0.1889
 2019SOL    HW1 6302   2.683   3.068   5.062 -0.1847  0.0125  0.6792
 2019SOL    HW2 6303   2.724   3.213   5.046  0.2948 -0.4010 -2.5130
 2020SOL     OW 6304   2.598   1.324   0.339  0.0171  0.3180 -0.3859
 2020SOL    HW1 6305   2.510   1.360   0.347 -0.5457 -0.9494 -0.7508
 2020SOL    HW2 6306   2.598   1.246   0.395  0.2219 -0.9235 -2.0534
 2021SOL     OW 6307   0.896   4.691   0.173 -0.0709 -0.1385 -0.0370
 2021SOL    HW1 6308   0.826   4.629   0.193  0.3751 -0.0735  1.9459
 2021SOL    HW2 6309   0.977   4.643   0.189  0.2910  1.0402  2.1548
 2022SOL     OW 6310   0.925   2.475   5.005 -0.0270 -0.8953  0.1174
 2022SOL    HW1 6311   0.916   2.386   4.971 -0.0450 -0.7124 -0.3741
 2022SOL    HW2 6312   1.014   2.479   5.041  0.2701 -0.8709 -0.6025
 2023SOL     OW 6313   5.785   5.548   0.044  0.1437  0.5528 -0.5793
 2023SOL    HW1 6314   5.855   5.523   0.104  0.3624  0.4643 -0.8661
 2023SOL    HW2 6315   5.722   5.596   0.098  0.1723  0.1829 -0.2137
 2024SOL     OW 6316   1.113   2.560   5.256 -0.0147 -0.0463  0.0927
 2024SOL    HW1 6317   1.125   2.587   5.347  0.5082  0.1648 -0.0365
 2024SOL    HW2 6318   1.133   2.467   5.256 -0.6363 -0.1876  0.3086
 2025SOL     OW 6319   3.395   3.489   3.313  0.1459  0.1768  0.0834
 2025SOL    HW1 6320   3.428   3.509   3.401 -0.5110 -1.0746  0.6258
 2025SOL    HW2 6321   3.300   3.497   3.320 -0.2493 -3.4067  0.4798
 2026SOL     OW 6322   2.174   0.957   1.710  0.4684  0.2125 -0.4900
 2026SOL    HW1 6323   2.257   0.920   1.681  0.0745 -0.6857 -0.5170
 2026SOL    HW2 6324   2.109   0.889   1.690 -0.1313  0.5001  0.4089
 2027SOL     OW 6325   4.448   2.862   3.760  0.1259  0.2356 -0.5265
 2027SOL    HW1 6326   4.483   2.774   3.760  0.6110  0.4263 -0.5511
 2027SOL    HW2 6327   4.449   2.889   3.668 -1.2618 -0.2149 -0.6936
 2028SOL     OW 6328   2.598   2.926   4.679  0.8728  0.6870  0.2706
 2028SOL    HW1 6329   2.606   2.891   4.768  1.3825  0.5906  0.1926
 2028SOL    HW2 6330   2.581   3.019   4.692  0.0206  0.5103  0.4753
 2029SOL     OW 6331   3.792   1.624   0.590 -0.1533 -0.3712  0.3738
 2029SOL    HW1 6332   3.882   1.598   0.610 -0.0060 -0.1860 -0.0296
 2029SOL    HW2 6333   3.758   1.553   0.536  0.2109  0.1976 -0.6305
 2030SOL     OW 6334   1.344   5.414   0.135  0.7175  0.0184  0.1125
 2030SOL    HW1 6335   1.262   5.370   0.153  0.2215  1.0149  0.3715
 2030SOL    HW2 6336   1.344   5.429   0.041 -0.6883  2.3962  0.4089
 2031SOL     OW 6337   0.443   1.906   5.161  0.4789  0.5406 -0.8088
 2031SOL    HW1 6338   0.527   1.926   5.120 -0.2103  1.1429 -1.9775
 2031SOL    HW2 6339   0.381   1.897   5.088 -0.6727  1.1016  0.0510
 2032SOL     OW 6340   4.593   3.047   2.867  0.7831  0.1017  0.7513
 2032SOL    HW1 6341   4.597   2.956   2.836 -1.0770 -0.4121  1.8681
 2032SOL    HW2 6342   4.649   3.048   2.944  0.8845 -0.0713  0.6824
 2033SOL     OW 6343   3.039   4.377   3.380 -0.7690  0.4999  0.0019
 2033SOL    HW1 6344   3.111   4.377   3.317  0.3314  0.4491  1.2056
 2033SOL    HW2 6345   3.032   4.469   3.407  0.5633  0.1695  1.7003
 2034SOL     OW 6346   5.207   5.604   3.145  0.6091  0.4095  0.0189
 2034SOL    HW1 6347   5.147   5.535   3.173 -0.0121  0.4235 -1.2122
 2034SOL    HW2 6348   5.168   5.638   3.064  0.7900  2.3332  0.6894
 2035SOL     OW 6349   0.835   2.519   3.345 -0.1739 -0.2202 -0.6183
 2035SOL    HW1 6350   0.845   2.516   3.440 -0.8535 -0.1117 -0.5424
 2035SOL    HW2 6351   0.918   2.557   3.314 -0.3733  0.7789  0.0164
 2036SOL     OW 6352   1.642   2.808   1.031 -0.0041 -0.6550  0.6656
 2036SOL    HW1 6353   1.612   2.724   0.996 -1.1141  0.4447 -1.1735
 2036SOL    HW2 6354   1.707   2.838   0.968 -1.4689  1.0147 -0.1180
 2037SOL     OW 6355   1.997   3.814   0.131 -0.2669 -0.1518 -0.2473
 2037SOL    HW1 6356   2.073   3.838   0.079  0.2189 -0.4201  0.3203
 2037SOL    HW2 6357   1.922   3.845   0.081  0.2523  0.7857 -0.4650
 2038SOL     OW 6358   4.124   1.596   1.672  0.3976  0.7419  0.0423
 2038SOL    HW1 6359   4.165   1.680   1.651 -0.8771  1.5965  0.8227
 2038SOL    HW2 6360   4.136   1.588   1.767  1.5904 -0.5830 -0.1841
 2039SOL     OW 6361   3.578   4.841   1.249 -0.3661  0.1916  0.1676
 2039SOL    HW1 6362   3.662   4.886   1.240  0.0474 -0.8604 -1.5452
 2039SOL    HW2 6363   3.547   4.829   1.160 -0.9225 -2.0050  0.5958
 2040SOL     OW 6364   0.841   2.917   0.448 -0.0922 -0.2604 -0.2371
 2040SOL    HW1 6365   0.783   2.944   0.519 -0.3003  0.8918 -0.8136
 2040SOL    HW2 6366   0.793   2.847   0.403 -1.5864  1.4123 -1.3669
 2041SOL     OW 6367   3.579   5.863   2.191 -0.2497 -0.0465 -0.4950
 2041SOL    HW1 6368   3.575   5.886   2.099 -2.7691 -1.3391 -0.7956
 2041SOL    HW2 6369   3.553   5.771   2.194 -0.2672 -0.0248  1.5077
 2042SOL     OW 6370   5.473   4.559   2.662  0.3794  0.6520  0.2256
 2042SOL    HW1 6371   5.499   4.645   2.628 -0.7588  0.9848  0.1377
 2042SOL    HW2 6372   5.377   4.557   2.651  0.4916 -1.0594 -0.8009
 2043SOL     OW 6373   0.544   3.790   5.269 -0.1183  0.3600 -0.2124
 2043SOL    HW1 6374   0.586   3.708   5.294  0.5324  0.9252  0.6381
 2043SOL    HW2 6375   0.454   3.766   5.250 -0.1229 -0.4484  0.7171
 2044SOL     OW 6376   2.386   5.402   0.023  0.1534 -0.2080 -0.0684
 2044SOL    HW1 6377   2.328   5.327   0.008 -1.2148  0.7891  0.1366
 2044SOL    HW2 6378   2.414   5.392   0.114  1.5680 -1.5177 -0.5960
 2045SOL     OW 6379   0.042   5.718   5.592  0.2411 -0.1738 -0.5528
 2045SOL    HW1 6380  -0.005   5.650   5.545 -1.1117 -0.8150  1.5995
 2045SOL    HW2 6381   0.029   5.697   5.684 -1.1041  3.5016  0.2673
 2046SOL     OW 6382   3.162   0.426   5.930 -0.2008 -0.5752 -0.3369
 2046SOL    HW1 6383   3.247   0.382   5.921 -1.3231 -3.4340  1.5425
 2046SOL    HW2 6384   3.123   0.421   5.843  0.9135 -0.6410 -0.8530
 2047SOL     OW 6385   1.749   1.713   5.898 -0.5662  0.4971 -0.0059
 2047SOL    HW1 6386   1.794   1.671   5.824 -1.8301 -1.8160  0.4664
 2047SOL    HW2 6387   1.716   1.795   5.861 -2.9957 -1.5215 -2.7307
 2048SOL     OW 6388   3.261   4.310   2.471 -0.0457 -0.5171  0.3067
 2048SOL    HW1 6389   3.333   4.310   2.535 -0.9857 -0.0787  1.3877
 2048SOL    HW2 6390   3.248   4.402   2.449  0.5411 -0.6893 -0.8641
 2049SOL     OW 6391   1.407   2.474   5.801  0.0621  0.5946 -0.2960
 2049SOL    HW1 6392   1.417   2.560   5.758 -0.8349  1.4718  1.1697
 2049SOL    HW2 6393   1.323   2.479   5.845  0.1625 -0.9289  0.1098
 2050SOL     OW 6394   5.925   5.174   5.909 -0.1149 -0.4475  0.0677
 2050SOL    HW1 6395   5.859   5.164   5.841  1.0465 -1.6696 -0.9151
 2050SOL    HW2 6396   5.997   5.220   5.867  0.4227 -0.7799  0.5996
 2051SOL     OW 6397   1.509   1.267   0.650  0.2251 -0.3406 -0.7506
 2051SOL    HW1 6398   1.435   1.215   0.619  0.0698 -1.2819  1.0822
 2051SOL    HW2 6399   1.584   1.209   0.642  0.2555 -0.4339  0.1679
 2052SOL     OW 6400   4.005   4.146   0.898 -0.0982  0.4218 -0.1948
 2052SOL    HW1 6401   3.956   4.144   0.980  1.4659 -1.0958  0.7642
 2052SOL    HW2 6402   4.049   4.231   0.899 -1.1166  0.9649 -0.1288
 2053SOL     OW 6403   2.700   0.209   0.948 -0.0815 -0.6320  0.0379
 2053SOL    HW1 6404   2.789   0.200   0.981  1.0284  0.8729 -2.2161
 2053SOL    HW2 6405   2.651   0.246   1.021  1.3455 -0.7004  1.0760
 2054SOL     OW 6406   4.817   0.224   3.435 -0.0062  0.3165 -0.3299
 2054SOL    HW1 6407   4.876   0.259   3.369  1.1890  0.1027  0.5876
 2054SOL    HW2 6408   4.792   0.138   3.402  1.5672 -0.3120  0.0486
 2055SOL     OW 6409   5.957   1.524   5.684  0.1738 -0.3466 -0.0129
 2055SOL    HW1 6410   6.023   1.593   5.683  0.1808 -0.3537 -0.6721
 2055SOL    HW2 6411   6.007   1.444   5.700  0.3456 -0.3624 -0.5932
 2056SOL     OW 6412   1.801   4.324   3.179 -0.1084  0.2296  0.4104
 2056SOL    HW1 6413   1.716   4.310   3.138 -0.3437  1.0576  0.6050
 2056SOL    HW2 6414   1.836   4.236   3.192 -0.8405 -0.1083  0.1318
 2057SOL     OW 6415   3.451   5.632   5.450 -0.0450  0.1614  0.1362
 2057SOL    HW1 6416   3.487   5.718   5.429 -0.9949  0.9097  1.4444
 2057SOL    HW2 6417   3.357   5.641   5.437 -0.1508 -0.6894  0.2557
 2058SOL     OW 6418   6.032   5.039   3.352 -0.1361  0.0113 -0.2164
 2058SOL    HW1 6419   5.989   5.124   3.341  1.2064  0.5556 -1.8359
 2058SOL    HW2 6420   6.125   5.059   3.345  0.2108 -1.5789 -0.4983
 2059SOL     OW 6421   0.778   0.754   2.588 -0.3916  0.6722  0.5353
 2059SOL    HW1 6422   0.873   0.758   2.596 -0.3424 -0.1440  0.4344
 2059SOL    HW2 6423   0.762   0.691   2.518 -0.9983  1.2886  0.1053
 2060SOL     OW 6424   0.700   0.499   4.712 -0.4690  0.5574 -0.8156
 2060SOL    HW1 6425   0.607   0.508   4.734 -0.6917 -0.4293 -1.3209
 2060SOL    HW2 6426   0.702   0.501   4.617  0.0157  0.4143 -0.8079
 2061SOL     OW 6427   4.191   4.772   1.483 -1.0977 -0.3397  0.4262
 2061SOL    HW1 6428   4.149   4.833   1.544 -0.4983  1.7133 -1.0828
 2061SOL    HW2 6429   4.137   4.776   1.404  0.4974  0.4757 -0.6817
 2062SOL     OW 6430   4.531   0.972   5.623 -0.2304 -0.5285  0.3406
 2062SOL    HW1 6431   4.623   0.978   5.649 -0.7716 -0.0550  2.2703
 2062SOL    HW2 6432   4.496   0.899   5.674 -0.6332 -1.6371 -1.4347
 2063SOL     OW 6433   1.722   0.808   1.313  0.4995  0.6807 -0.2498
 2063SOL    HW1 6434   1.815   0.827   1.326  0.8402 -0.6311 -0.6019
 2063SOL    HW2 6435   1.720   0.716   1.286 -1.0326  0.1477  1.4657
 2064SOL     OW 6436   0.390   1.320   4.883 -0.3626 -0.1475 -0.7748
 2064SOL    HW1 6437   0.455   1.388   4.902  0.1913 -0.6850 -0.7097
 2064SOL    HW2 6438   0.417   1.245   4.936 -2.4002  0.3628  1.1088
 2065SOL     OW 6439   5.921   0.198   1.470 -0.0782 -0.0748 -0.1154
 2065SOL    HW1 6440   5.837   0.154   1.478 -0.0196  0.0816  1.7103
 2065SOL    HW2 6441   5.965   0.153   1.398 -2.6727  1.5126 -2.9428
 2066SOL     OW 6442   5.860   2.370   2.246  0.0138 -0.5879 -0.1543
 2066SOL    HW1 6443   5.873   2.457   2.283 -0.2111 -0.5090 -0.2617
 2066SOL    HW2 6444   5.774   2.373   2.204  0.6890 -0.3609 -1.5854
 2067SOL     OW 6445   3.655   1.910   2.353 -0.2924  0.3009  0.5633
 2067SOL    HW1 6446   3.675   1.830   2.306 -0.9182  0.2311  0.4024
 2067SOL    HW2 6447   3.650   1.884   2.445 -0.4817  0.1556  0.5124
 2068SOL     OW 6448   2.011   3.968   2.626 -0.3804 -0.1273  0.1905
 2068SOL    HW1 6449   2.025   4.063   2.629 -2.0515  0.1670 -0.5553
 2068SOL    HW2 6450   2.050   3.936   2.708  0.7439  1.1028  0.1766
 2069SOL     OW 6451   0.536   2.289   3.097  0.8297  0.3903  0.2265
 2069SOL    HW1 6452   0.583   2.369   3.119  2.1708 -0.7971  1.9637
 2069SOL    HW2 6453   0.601   2.233   3.055  0.1916 -0.2026 -0.0071
 2070SOL     OW 6454   5.156   0.606   1.747 -0.0343  0.7561 -0.1104
 2070SOL    HW1 6455   5.244   0.618   1.713  0.7237  1.2247  1.8920
 2070SOL    HW2 6456   5.102   0.589   1.669  1.7289  0.8515 -1.4040
 2071SOL     OW 6457   2.051   2.769   4.320  0.1940 -0.1212  0.2019
 2071SOL    HW1 6458   2.000   2.747   4.242 -1.4589 -2.4624  1.7971
 2071SOL    HW2 6459   2.122   2.704   4.322  2.6211  2.2675 -1.2597
 2072SOL     OW 6460   1.045   0.489   4.876  0.3922 -0.1912  0.9326
 2072SOL    HW1 6461   1.091   0.547   4.937  1.1328 -0.8128  0.9656
 2072SOL    HW2 6462   1.113   0.454   4.819 -0.2840  0.3537 -0.2492
 2073SOL     OW 6463   0.669   2.696   0.404  0.0848  0.5363 -0.1315
 2073SOL    HW1 6464   0.586   2.716   0.447 -1.7323 -0.9228 -2.6674
 2073SOL    HW2 6465   0.718   2.645   0.469 -2.3146 -1.1851  0.4886
 2074SOL     OW 6466   2.061   1.590   4.175  0.2418 -0.2364  0.0514
 2074SOL    HW1 6467   2.104   1.591   4.090  0.1010 -0.5787 -0.0279
 2074SOL    HW2 6468   1.969   1.571   4.155 -0.1618  1.5318  0.1284
 2075SOL     OW 6469   4.882   5.948   4.533  0.5001 -0.0382 -0.1620
 2075SOL    HW1 6470   4.854   5.871   4.583  2.2817 -0.3182  0.4687
 2075SOL    HW2 6471   4.886   6.018   4.597  1.0961  0.0156 -0.2481
 2076SOL     OW 6472   0.143   5.675   6.104 -0.1133  0.5600 -0.0120
 2076SOL    HW1 6473   0.201   5.679   6.027 -0.8284 -2.1965 -0.7997
 2076SOL    HW2 6474   0.202   5.653   6.177  0.1081 -0.5471 -0.4979
 2077SOL     OW 6475   4.755   1.923   4.853 -0.1672  0.4046 -0.1175
 2077SOL    HW1 6476   4.837   1.915   4.804 -0.7544 -0.1730 -1.0523
 2077SOL    HW2 6477   4.781   1.923   4.945  0.9110  0.6841 -0.4074
 2078SOL     OW 6478   3.910   4.617   1.824  0.2768 -0.3483  0.1401
 2078SOL    HW1 6479   3.961   4.697   1.833  1.4621 -1.1824  1.2545
 2078SOL    HW2 6480   3.912   4.577   1.911 -0.2801 -1.5909 -0.3909
 2079SOL     OW 6481   4.651   5.258   4.657  0.2419 -0.2622 -0.1956
 2079SOL    HW1 6482   4.612   5.264   4.570  1.4914 -0.7434 -0.8142
 2079SOL    HW2 6483   4.600   5.319   4.711 -1.1917 -0.6939 -1.0027
 2080SOL     OW 6484   4.562   2.872   0.917  0.5996  0.1116  0.2525
 2080SOL    HW1 6485   4.515   2.862   0.834  1.5195  0.7664 -0.3727
 2080SOL    HW2 6486   4.554   2.787   0.960  0.4737 -0.3656 -0.7031
 2081SOL     OW 6487   3.916   3.632   2.667 -0.7275  0.1915  0.4255
 2081SOL    HW1 6488   3.949   3.642   2.577 -1.9754 -0.6292 -0.1583
 2081SOL    HW2 6489   3.987   3.587   2.713  0.2862  1.4028  0.1130
 2082SOL     OW 6490   0.337   0.129   3.757  0.5603 -0.5142  0.1456
 2082SOL    HW1 6491   0.384   0.046   3.748  1.0126 -0.1856 -0.6041
 2082SOL    HW2 6492   0.284   0.135   3.677 -0.7767 -0.8803  0.9810
 2083SOL     OW 6493   4.474   0.179   3.682  0.5481 -0.5863 -0.2866
 2083SOL    HW1 6494   4.513   0.092   3.671 -1.7438 -1.6030 -1.0616
 2083SOL    HW2 6495   4.414   0.169   3.756 -2.0682 -0.6416 -2.2806
 2084SOL     OW 6496   0.010   4.489   4.086 -0.6314  0.7278  0.6697
 2084SOL    HW1 6497  -0.072   4.522   4.123  0.4069  2.3204  1.6410
 2084SOL    HW2 6498   0.069   4.481   4.161  0.4192  0.5610 -0.1481
 2085SOL     OW 6499   4.093   5.293   0.906 -0.1729 -0.0542 -0.5438
 2085SOL    HW1 6500   4.132   5.206   0.896  0.8954 -0.3864  4.1434
 2085SOL    HW2 6501   4.166   5.353   0.892 -0.7238  0.1711 -2.9183
 2086SOL     OW 6502   5.486   5.739   3.323  0.3515  0.3088  0.5557
 2086SOL    HW1 6503   5.558   5.681   3.350  2.2001  1.7771 -0.9842
 2086SOL    HW2 6504   5.480   5.804   3.393  1.7691  1.2147 -0.1304
 2087SOL     OW 6505   4.514   3.633   2.993 -0.0656 -0.2171 -0.3831
 2087SOL    HW1 6506   4.561   3.716   2.998  0.0209 -0.2604 -0.4804
 2087SOL    HW2 6507   4.567   3.571   3.043  1.5370 -1.0016 -2.8740
 2088SOL     OW 6508   2.839   1.378   0.223 -0.7036 -0.4740  0.1936
 2088SOL    HW1 6509   2.759   1.371   0.274 -0.1522 -0.1329  1.1389
 2088SOL    HW2 6510   2.830   1.461   0.175 -0.3513  0.2672  1.3546
 2089SOL     OW 6511   3.117   3.647   4.269 -0.1139  0.0687 -0.2711
 2089SOL    HW1 6512   3.133   3.584   4.339  1.4648  0.5347 -0.1790
 2089SOL    HW2 6513   3.099   3.729   4.315 -1.0334 -0.0324 -0.4141
 2090SOL     OW 6514   2.108   2.047   2.150 -0.6040  0.0467  0.1226
 2090SOL    HW1 6515   2.030   1.997   2.174 -0.1389  0.0224  1.7152
 2090SOL    HW2 6516   2.166   2.039   2.226  1.5578 -1.1054 -1.5396
 2091SOL     OW 6517   1.912   3.231   2.537 -0.1701  0.2594  0.1222
 2091SOL    HW1 6518   1.970   3.155   2.540 -0.5409 -0.0283 -0.0377
 2091SOL    HW2 6519   1.860   3.226   2.617 -0.5934  0.0270 -0.1622
 2092SOL     OW 6520   4.625   0.879   0.077 -0.2164  0.4424  0.1538
 2092SOL    HW1 6521   4.721   0.876   0.084 -0.3127  0.0442  1.7023
 2092SOL    HW2 6522   4.600   0.954   0.132 -0.8175  0.2707  0.1161
 2093SOL     OW 6523   0.160   1.876   0.057 -0.0143 -0.1293  0.1803
 2093SOL    HW1 6524   0.115   1.932  -0.006 -0.7235  1.1046  1.7177
 2093SOL    HW2 6525   0.234   1.840   0.008 -1.5372 -0.6601 -1.8511
 2094SOL     OW 6526   5.337   2.932   2.706  0.3130 -0.2446  0.7929
 2094SOL    HW1 6527   5.320   2.840   2.683 -0.0697  0.1291 -0.5021
 2094SOL    HW2 6528   5.260   2.959   2.756  0.6462 -0.7475  1.6060
 2095SOL     OW 6529   0.602   2.534   3.205 -0.0933  0.8059 -0.4068
 2095SOL    HW1 6530   0.535   2.558   3.269 -0.7393 -0.7253 -0.4680
 2095SOL    HW2 6531   0.683   2.532   3.255 -0.2654  1.5727 -0.0797
 2096SOL     OW 6532   0.448   0.010   0.850 -0.5525 -0.3607 -0.0683
 2096SOL    HW1 6533   0.531   0.052   0.873  0.2214 -2.1780  0.6218
 2096SOL    HW2 6534   0.383   0.052   0.907 -0.0857  0.8646 -0.3972
 2097SOL     OW 6535   1.084   4.022   1.870 -0.2533 -0.0454  0.7381
 2097SOL    HW1 6536   1.024   4.046   1.940  0.0672  0.9772  0.6801
 2097SOL    HW2 6537   1.170   4.018   1.912 -0.0198  0.8407  0.3612
 2098SOL     OW 6538   4.685   2.115   1.678  0.1077 -0.1839  0.5274
 2098SOL    HW1 6539   4.778   2.126   1.700  0.2304  0.6272 -0.3369
 2098SOL    HW2 6540   4.656   2.203   1.653 -0.6889 -0.5865 -0.0008
 2099SOL     OW 6541   4.149   1.036   5.273  0.7040  0.8345 -0.3238
 2099SOL    HW1 6542   4.109   1.114   5.312  1.1135  2.0562 -2.1717
 2099SOL    HW2 6543   4.175   1.065   5.185 -0.1187 -1.7097 -1.5014
 2100SOL     OW 6544   1.689   0.264   1.109 -0.0343 -0.5230 -0.3987
 2100SOL    HW1 6545   1.767   0.255   1.054  0.3971  1.5874 -0.1993
 2100SOL    HW2 6546   1.715   0.225   1.193 -0.4044 -2.9454 -1.3212
 2101SOL     OW 6547   2.003   0.393   2.700 -0.4961  0.3283  0.2060
 2101SOL    HW1 6548   1.958   0.335   2.639  1.8088 -0.0946 -1.2029
 2101SOL    HW2 6549   2.051   0.454   2.645  1.5369  0.0530  1.5563
 2102SOL     OW 6550   2.664   4.296   1.695 -0.6178  0.0754 -0.8645
 2102SOL    HW1 6551   2.733   4.259   1.750 -0.9299 -0.0043 -0.5153
 2102SOL    HW2 6552   2.704   4.307   1.609  0.0251  0.6307 -0.5034
 2103SOL     OW 6553   0.383   3.625   1.903 -0.1743  0.2964 -0.6065
 2103SOL    HW1 6554   0.322   3.693   1.934 -1.1517 -0.9291  0.2648
 2103SOL    HW2 6555   0.450   3.622   1.971  1.2514  2.0532 -1.8509
 2104SOL     OW 6556   3.128   1.218   2.875  0.2635 -0.3444 -0.8466
 2104SOL    HW1 6557   3.125   1.155   2.803  4.0044 -1.9023  0.1298
 2104SOL    HW2 6558   3.052   1.196   2.929  1.2382 -4.0319 -0.6670
 2105SOL     OW 6559   0.228   4.324   3.805 -0.2929  0.4263 -0.2216
 2105SOL    HW1 6560   0.306   4.278   3.836 -0.3431 -0.0516 -0.7896
 2105SOL    HW2 6561   0.211   4.287   3.718 -1.0724  0.6290 -0.1633
 2106SOL     OW 6562   3.096   5.074   1.175 -0.1057  0.0859 -0.0649
 2106SOL    HW1 6563   3.130   4.988   1.200  0.7912 -0.1544 -1.9688
 2106SOL    HW2 6564   3.149   5.136   1.225  1.0907 -0.3982 -0.7049
 2107SOL     OW 6565   5.954   4.117   3.246 -0.0673  0.1745 -0.1048
 2107SOL    HW1 6566   6.047   4.137   3.247 -0.3081  1.4182 -0.6500
 2107SOL    HW2 6567   5.944   4.052   3.177  0.2524  0.8980 -0.8482
 2108SOL     OW 6568   0.445   0.635   0.767  0.0167 -0.4526  0.6235
 2108SOL    HW1 6569   0.507   0.562   0.760 -0.0224 -0.4386  0.1000
 2108SOL    HW2 6570   0.359   0.593   0.767  0.0113 -0.4411  0.8610
 2109SOL     OW 6571   3.592   4.264   1.608  0.1633 -0.7970 -0.7893
 2109SOL    HW1 6572   3.673   4.214   1.616 -0.0066 -1.1685 -1.3484
 2109SOL    HW2 6573   3.597   4.304   1.522 -0.6680 -1.5838 -1.2198
 2110SOL     OW 6574   1.024   1.682   4.151  0.2087  0.3786  0.2339
 2110SOL    HW1 6575   1.104   1.654   4.106  1.3044 -0.8027  2.7366
 2110SOL    HW2 6576   0.958   1.618   4.126  1.2812 -1.3454  1.6253
 2111SOL     OW 6577   1.864   2.358   4.938  0.6146 -0.2058 -0.2445
 2111SOL    HW1 6578   1.788   2.307   4.965  1.0188 -1.2520 -1.0285
 2111SOL    HW2 6579   1.867   2.431   5.001 -0.5284 -0.6072  0.3108
 2112SOL     OW 6580   2.434   4.193   2.965  0.1268 -0.2440  0.8945
 2112SOL    HW1 6581   2.492   4.175   2.891 -1.4877 -1.1042 -0.2275
 2112SOL    HW2 6582   2.482   4.256   3.018  0.7349  1.6058 -1.6594
 2113SOL     OW 6583   5.167   1.456   2.918 -0.2669  0.3059  0.0316
 2113SOL    HW1 6584   5.165   1.537   2.866 -0.6527  0.8350  0.8627
 2113SOL    HW2 6585   5.130   1.480   3.002 -0.3074 -0.7265  0.3217
 2114SOL     OW 6586   2.009   0.662   5.661  0.6647  0.3402 -0.4227
 2114SOL    HW1 6587   2.012   0.672   5.566 -0.7758  1.5833 -0.3673
 2114SOL    HW2 6588   2.083   0.605   5.681  0.7393 -0.3116 -2.3313
 2115SOL     OW 6589   1.289   0.433   4.747  0.0646 -0.4608  0.1953
 2115SOL    HW1 6590   1.297   0.468   4.658 -0.7399 -2.3483 -0.6693
 2115SOL    HW2 6591   1.365   0.376   4.757  0.1492 -0.2582  0.7344
 2116SOL     OW 6592   0.805   0.782   5.971 -0.3907  0.0940 -0.6733
 2116SOL    HW1 6593   0.806   0.703   6.025 -1.5060  0.2114 -0.4610
 2116SOL    HW2 6594   0.896   0.793   5.944  0.4544  0.5440  1.9674
 2117SOL     OW 6595   2.673   4.475   3.934 -0.2201  0.4069  0.5674
 2117SOL    HW1 6596   2.626   4.521   3.864 -0.7065  2.7002  2.2652
 2117SOL    HW2 6597   2.751   4.440   3.891 -0.1292  2.3497 -1.0168
 2118SOL     OW 6598   3.175   2.225   3.426 -0.1787  0.3039 -0.1384
 2118SOL    HW1 6599   3.110   2.279   3.380 -0.9726 -1.2453 -0.9079
 2118SOL    HW2 6600   3.235   2.197   3.357 -0.8167 -1.2366 -0.1057
 2119SOL     OW 6601   0.094   1.088   2.473  0.7105 -0.2832 -0.2348
 2119SOL    HW1 6602   0.053   1.133   2.546  1.0863 -0.4238  0.0690
 2119SOL    HW2 6603   0.028   1.089   2.403 -0.2360 -1.4978  0.6111
 2120SOL     OW 6604   3.608   0.014   0.992  0.3481 -0.3784 -0.3112
 2120SOL    HW1 6605   3.624   0.014   0.898 -0.5035 -1.4698 -0.4671
 2120SOL    HW2 6606   3.594   0.106   1.014 -2.9959 -0.3619 -1.9039
 2121SOL     OW 6607   0.345   3.800   3.456 -0.0321 -0.2607  0.2724
 2121SOL    HW1 6608   0.397   3.800   3.376  0.7383 -1.3773  0.7602
 2121SOL    HW2 6609   0.404   3.833   3.524 -0.5116  0.1540  0.5018
 2122SOL     OW 6610   1.651   4.015   5.002  0.3698  0.6056  0.6873
 2122SOL    HW1 6611   1.638   4.068   4.923 -1.9559  1.8668  1.8037
 2122SOL    HW2 6612   1.599   3.936   4.988 -1.6559  1.6891  1.6251
 2123SOL     OW 6613   3.647   5.857   5.418 -0.0358  0.5357  0.0678
 2123SOL    HW1 6614   3.734   5.834   5.452 -0.3150  0.5461  0.8023
 2123SOL    HW2 6615   3.645   5.952   5.422  0.0764  0.5564 -0.3510
 2124SOL     OW 6616   2.543   5.113   4.259  0.3674 -0.3105 -0.3678
 2124SOL    HW1 6617   2.535   5.052   4.332  0.1382  0.3833  0.1944
 2124SOL    HW2 6618   2.474   5.085   4.198  0.2886 -0.6352 -0.1328
 2125SOL     OW 6619   3.821   0.115   3.046  0.0780 -0.0012 -0.1904
 2125SOL    HW1 6620   3.766   0.050   3.091 -0.7280  0.6414 -0.2282
 2125SOL    HW2 6621   3.766   0.193   3.039 -0.6629 -0.6238 -4.0591
 2126SOL     OW 6622   3.712   2.764   3.859 -0.2414 -0.2408  0.0770
 2126SOL    HW1 6623   3.638   2.804   3.812  0.0002 -1.4651 -1.4259
 2126SOL    HW2 6624   3.678   2.748   3.947 -1.5915 -0.2694 -0.4248
 2127SOL     OW 6625   3.485   0.558   4.758 -0.8008  0.3169  0.1954
 2127SOL    HW1 6626   3.546   0.484   4.763 -0.2091  0.7651 -0.2450
 2127SOL    HW2 6627   3.410   0.531   4.811 -0.1296 -0.1561  0.9227
 2128SOL     OW 6628   5.749   3.299   4.820 -0.6170  0.8124 -0.0407
 2128SOL    HW1 6629   5.756   3.387   4.782 -0.1193  0.1143 -1.6412
 2128SOL    HW2 6630   5.702   3.248   4.755  0.3739 -0.4691  0.2030
 2129SOL     OW 6631   4.927   0.515   2.260  0.7933  0.3104 -0.3857
 2129SOL    HW1 6632   4.970   0.431   2.274 -1.1467 -0.5805  0.4783
 2129SOL    HW2 6633   4.950   0.567   2.337 -0.9856 -0.7775  0.9567
 2130SOL     OW 6634   0.409   0.142   0.299  0.0429 -0.0900  0.4415
 2130SOL    HW1 6635   0.436   0.144   0.391 -1.6733 -0.4745  0.9968
 2130SOL    HW2 6636   0.406   0.234   0.273 -1.0054  0.1345  1.2817
 2131SOL     OW 6637   1.737   4.056   6.041  0.1279 -0.1214  0.1095
 2131SOL    HW1 6638   1.789   4.124   6.000  0.1768 -0.6352 -0.6945
 2131SOL    HW2 6639   1.798   3.984   6.057 -0.1856 -0.4724 -0.2350
 2132SOL     OW 6640   4.941   4.340   5.089  0.0684 -0.1934  0.6563
 2132SOL    HW1 6641   4.940   4.402   5.016 -1.1554 -2.3453 -1.2926
 2132SOL    HW2 6642   5.034   4.327   5.108  0.4463  0.0834 -0.8588
 2133SOL     OW 6643   0.669   1.945   2.462 -0.7012  0.7012  0.3989
 2133SOL    HW1 6644   0.667   1.859   2.506 -1.2246  0.3902 -0.2145
 2133SOL    HW2 6645   0.702   2.005   2.529 -0.7459  0.1008  0.9765
 2134SOL     OW 6646   1.262   5.502   4.671  0.0751  0.4304  0.1893
 2134SOL    HW1 6647   1.358   5.508   4.665  0.0547 -0.0335 -0.8830
 2134SOL    HW2 6648   1.233   5.592   4.681  0.6289  0.5768  0.5336
 2135SOL     OW 6649   3.581   0.476   1.290 -0.0282 -0.3081 -0.1242
 2135SOL    HW1 6650   3.495   0.501   1.324  0.4269  0.2130  0.6736
 2135SOL    HW2 6651   3.614   0.555   1.248  0.7255 -0.0223  0.9716
 2136SOL     OW 6652   0.682   5.038   1.388 -0.6052  0.4232 -0.4453
 2136SOL    HW1 6653   0.596   5.044   1.428 -0.2605  1.3446  0.1670
 2136SOL    HW2 6654   0.720   5.125   1.396  0.3884  0.0383 -0.7080
 2137SOL     OW 6655   5.476   4.042   3.433 -0.0130 -0.5955  0.5588
 2137SOL    HW1 6656   5.523   4.022   3.352 -0.7368 -0.1514  0.0170
 2137SOL    HW2 6657   5.543   4.075   3.493  0.1298  1.6671 -0.7593
 2138SOL     OW 6658   3.622   5.136   2.829  0.0454 -0.2652 -0.0129
 2138SOL    HW1 6659   3.620   5.231   2.827  1.1529 -0.1058  2.7200
 2138SOL    HW2 6660   3.667   5.114   2.911  0.4853 -3.1403 -0.9098
 2139SOL     OW 6661   5.873   4.629   4.795  0.7570  0.6968  0.1485
 2139SOL    HW1 6662   5.949   4.678   4.827  2.8834 -2.9217  1.1898
 2139SOL    HW2 6663   5.827   4.601   4.874  0.5021 -0.2499 -0.3202
 2140SOL     OW 6664   4.887   2.564   1.981  0.4681  0.5272  0.0179
 2140SOL    HW1 6665   4.951   2.535   2.046 -0.4486 -0.5970  0.4539
 2140SOL    HW2 6666   4.863   2.652   2.009  1.8460  1.0059 -0.1955
 2141SOL     OW 6667   4.567   1.739   1.797  0.4805 -0.3759  0.1498
 2141SOL    HW1 6668   4.501   1.688   1.844  1.0724  0.6637  2.2449
 2141SOL    HW2 6669   4.651   1.704   1.828  0.8865  1.0295  0.7157
 2142SOL     OW 6670   2.605   2.080   3.654 -0.7795 -0.2866 -0.8320
 2142SOL    HW1 6671   2.539   2.127   3.604 -1.5259 -0.8294 -0.3756
 2142SOL    HW2 6672   2.667   2.048   3.588 -1.6898 -0.9056 -1.4152
 2143SOL     OW 6673   5.004   3.953   2.207  0.3943 -0.0779  0.2194
 2143SOL    HW1 6674   4.985   3.939   2.115  0.1975  0.7701  0.1193
 2143SOL    HW2 6675   4.918   3.971   2.247  0.7732  2.8528 -0.0605
 2144SOL     OW 6676   3.490   5.059   4.698  0.6289  0.6665 -0.1777
 2144SOL    HW1 6677   3.457   4.997   4.633  0.9801  1.3195 -1.0095
 2144SOL    HW2 6678   3.451   5.142   4.673 -0.1101  0.7300  1.1391
 2145SOL     OW 6679   3.776   4.987   2.657 -0.1392 -0.0110  0.2327
 2145SOL    HW1 6680   3.761   4.893   2.667 -3.4372  0.3897  0.2613
 2145SOL    HW2 6681   3.725   5.027   2.728  1.0361  1.8223  0.1191
 2146SOL     OW 6682   4.824   2.873   2.474 -0.6709 -0.1755  0.1755
 2146SOL    HW1 6683   4.839   2.909   2.386 -0.6645 -0.1753  0.1768
 2146SOL    HW2 6684   4.847   2.780   2.466 -0.4412 -0.1241  0.2381
 2147SOL     OW 6685   5.858   2.350   2.668 -0.0587  0.1336  0.7633
 2147SOL    HW1 6686   5.915   2.383   2.737  0.0076  0.8627  0.3688
 2147SOL    HW2 6687   5.776   2.329   2.712  0.2888 -0.2886  1.2201
 2148SOL     OW 6688   4.759   1.838   0.926 -0.2539  0.2490  0.2821
 2148SOL    HW1 6689   4.835   1.867   0.875 -0.6622 -1.5003 -1.4308
 2148SOL    HW2 6690   4.708   1.917   0.940  2.1287  1.6273  2.0800
 2149SOL     OW 6691   4.416   0.836   2.884 -0.7704  0.1712 -0.0407
 2149SOL    HW1 6692   4.434   0.806   2.794 -0.0100 -1.2805  0.5569
 2149SOL    HW2 6693   4.340   0.893   2.875 -1.5273 -0.9893 -1.4579
 2150SOL     OW 6694   3.172   2.855   0.904 -0.0399  0.6194  0.1448
 2150SOL    HW1 6695   3.203   2.774   0.865  1.1319  0.5325  1.1905
 2150SOL    HW2 6696   3.164   2.835   0.997  0.1677  1.6802  0.3985
 2151SOL     OW 6697   1.461   1.220   1.726 -0.2317 -0.4864  0.2324
 2151SOL    HW1 6698   1.481   1.193   1.636  1.9188 -0.6032  0.6768
 2151SOL    HW2 6699   1.493   1.310   1.732 -0.2340 -0.5238  0.8953
 2152SOL     OW 6700   0.745   6.019   0.632 -0.0171 -0.0876 -0.0050
 2152SOL    HW1 6701   0.764   5.971   0.552  2.2734 -0.4051  0.6547
 2152SOL    HW2 6702   0.700   5.955   0.688  0.0757 -0.4477 -0.3347
 2153SOL     OW 6703   3.934   2.208   4.903  0.2078  0.2704  0.1018
 2153SOL    HW1 6704   3.844   2.204   4.871  0.3713  1.2264 -0.5527
 2153SOL    HW2 6705   3.986   2.224   4.824  0.7469  1.5905  0.6995
 2154SOL     OW 6706   5.440   4.395   0.927 -0.1083 -0.4910  0.1052
 2154SOL    HW1 6707   5.428   4.334   0.854 -0.4940  1.7257 -1.7935
 2154SOL    HW2 6708   5.531   4.425   0.919 -0.8299  1.5767 -1.0328
 2155SOL     OW 6709   4.795   5.375   0.824 -0.1583  0.2922  0.1085
 2155SOL    HW1 6710   4.819   5.325   0.903 -0.9986 -1.1464 -0.5132
 2155SOL    HW2 6711   4.848   5.336   0.755  0.1889  1.2078 -0.1548
 2156SOL     OW 6712   1.075   5.054   3.737 -0.4669 -0.1159  0.4727
 2156SOL    HW1 6713   1.115   4.971   3.761 -0.6667 -0.2143  0.4715
 2156SOL    HW2 6714   1.123   5.120   3.788 -0.3754 -0.2430  0.5508
 2157SOL     OW 6715   3.464   4.469   3.975 -0.0817 -0.0516  0.3752
 2157SOL    HW1 6716   3.537   4.411   3.954 -0.3738 -0.1745 -0.3231
 2157SOL    HW2 6717   3.395   4.410   4.006 -0.2802 -0.0469 -0.0616
 2158SOL     OW 6718   2.512   1.537   5.529 -0.0987  0.3332 -0.7108
 2158SOL    HW1 6719   2.448   1.573   5.590 -0.3096  0.8449 -1.2162
 2158SOL    HW2 6720   2.461   1.519   5.449  0.1557 -0.3807 -0.7166
 2159SOL     OW 6721   0.782   2.389   2.146 -0.6913  0.3344 -0.7501
 2159SOL    HW1 6722   0.860   2.366   2.095  1.2494  1.7508  1.3355
 2159SOL    HW2 6723   0.735   2.306   2.157  0.1438 -0.4425 -2.6443
 2160SOL     OW 6724   1.431   2.789   1.963 -0.3108 -0.9540 -0.3583
 2160SOL    HW1 6725   1.395   2.703   1.940  0.4178 -1.2966 -0.2434
 2160SOL    HW2 6726   1.523   2.771   1.983 -0.0993 -0.1075 -0.5579
 2161SOL     OW 6727   1.642   1.427   5.990  0.6182 -0.0613  0.0509
 2161SOL    HW1 6728   1.728   1.393   5.964  0.4158 -0.0617 -0.6326
 2161SOL    HW2 6729   1.637   1.514   5.950  0.0539 -0.3109 -0.4341
 2162SOL     OW 6730   4.507   2.273   1.124 -0.0599 -0.5095 -0.1024
 2162SOL    HW1 6731   4.449   2.350   1.126  0.9363  0.3381 -1.5252
 2162SOL    HW2 6732   4.595   2.310   1.117  0.4097 -1.7610 -1.3071
 2163SOL     OW 6733   0.309   4.982   1.061  0.1645  0.0640  0.0471
 2163SOL    HW1 6734   0.278   5.006   1.148 -1.0535 -0.5761 -0.1888
 2163SOL    HW2 6735   0.322   4.887   1.065  0.2316  0.0506 -0.4296
 2164SOL     OW 6736   5.975   0.200   3.035 -0.4164  0.4541  0.2308
 2164SOL    HW1 6737   6.046   0.250   2.994 -0.5746  0.0582 -0.5438
 2164SOL    HW2 6738   6.002   0.192   3.127 -0.9901  3.0441  0.7048
 2165SOL     OW 6739   5.092   0.909   3.059  0.4386 -0.0045 -0.4965
 2165SOL    HW1 6740   5.043   0.991   3.051  2.1198  1.3320  1.9206
 2165SOL    HW2 6741   5.024   0.841   3.056 -1.0675  1.4433 -1.8863
 2166SOL     OW 6742   2.897   2.630   3.390 -0.5798 -0.6299 -0.1497
 2166SOL    HW1 6743   2.967   2.617   3.454 -1.2430 -1.2814  0.4660
 2166SOL    HW2 6744   2.895   2.725   3.375  0.3753 -0.5981 -0.1240
 2167SOL     OW 6745   4.959   3.424   1.117  0.4442 -0.2960 -0.0337
 2167SOL    HW1 6746   4.908   3.427   1.037  0.8290  1.0716 -0.2386
 2167SOL    HW2 6747   4.907   3.368   1.176  0.9727 -2.7177 -1.7477
 2168SOL     OW 6748   0.300   4.334   1.261 -0.0698  0.8529 -0.2292
 2168SOL    HW1 6749   0.373   4.376   1.306  1.1074 -0.4651 -0.8312
 2168SOL    HW2 6750   0.324   4.335   1.168 -0.3682 -0.4069 -0.3465
 2169SOL     OW 6751   2.759   1.002   4.190 -0.4048  0.1281  0.1661
 2169SOL    HW1 6752   2.832   0.942   4.202  0.1057  0.8352  0.6836
 2169SOL    HW2 6753   2.799   1.089   4.184 -1.2850  0.8713  3.1016
 2170SOL     OW 6754   1.285   2.017   6.035  0.1039  0.1817  0.2231
 2170SOL    HW1 6755   1.296   2.020   5.940 -0.7571  1.4318  0.1389
 2170SOL    HW2 6756   1.364   1.974   6.067 -0.1819 -1.4458 -1.1426
 2171SOL     OW 6757   4.962   3.932   1.424 -0.0661  0.5531  0.4186
 2171SOL    HW1 6758   4.890   3.984   1.389 -0.5510  0.3591  1.0959
 2171SOL    HW2 6759   4.967   3.855   1.367 -0.1322  0.7598  0.1351
 2172SOL     OW 6760   1.760   2.532   0.019  0.2623 -0.1832 -0.0737
 2172SOL    HW1 6761   1.797   2.448   0.046  1.8743  0.7229  0.7031
 2172SOL    HW2 6762   1.814   2.560  -0.055 -0.4088  0.0678 -0.4788
 2173SOL     OW 6763   3.116   5.621   2.140 -0.1304 -0.1324 -0.0586
 2173SOL    HW1 6764   3.111   5.623   2.045  0.2056 -0.8373 -0.1014
 2173SOL    HW2 6765   3.210   5.625   2.160 -0.0743 -1.8092  0.1577
 2174SOL     OW 6766   0.438   5.565   2.702 -0.2858 -0.0630 -0.5219
 2174SOL    HW1 6767   0.517   5.620   2.701 -0.4295  0.1787  0.2826
 2174SOL    HW2 6768   0.416   5.553   2.610 -1.1992  2.6208 -0.7504
 2175SOL     OW 6769   1.200   1.484   1.688  0.1573  0.0517  0.0573
 2175SOL    HW1 6770   1.198   1.413   1.624  0.0323 -1.1636  1.3626
 2175SOL    HW2 6771   1.122   1.535   1.669 -0.4142 -0.8673 -0.1474
 2176SOL     OW 6772   5.438   5.361   5.487 -0.1892  0.2804 -0.1057
 2176SOL    HW1 6773   5.458   5.441   5.535 -1.2821 -0.2212  1.2489
 2176SOL    HW2 6774   5.343   5.361   5.478 -0.0924 -0.1762 -1.3576
 2177SOL     OW 6775   5.083   3.201   4.292 -0.6248 -0.2148 -0.0263
 2177SOL    HW1 6776   5.008   3.178   4.346 -1.4015 -0.5470 -1.2078
 2177SOL    HW2 6777   5.106   3.119   4.247  1.5923 -0.5901  1.6376
 2178SOL     OW 6778   0.769   2.186   2.996 -0.6301 -0.2378  0.3658
 2178SOL    HW1 6779   0.858   2.190   2.960 -1.1610  0.9238 -0.8718
 2178SOL    HW2 6780   0.720   2.134   2.933 -0.8706 -0.7856  0.9927
 2179SOL     OW 6781   2.680   0.761   5.974 -0.4167  0.0040 -0.0037
 2179SOL    HW1 6782   2.684   0.678   6.021 -2.9835 -1.3512 -1.8975
 2179SOL    HW2 6783   2.616   0.813   6.021  0.3607  0.4957  0.5349
 2180SOL     OW 6784   5.008   0.690   5.707 -0.2829  0.0564  0.4013
 2180SOL    HW1 6785   4.949   0.733   5.645 -0.7122 -2.6864 -1.2577
 2180SOL    HW2 6786   5.095   0.701   5.669 -0.1054  1.1571  1.0720
 2181SOL     OW 6787   2.276   0.268   3.499  0.0357  0.2165  0.3972
 2181SOL    HW1 6788   2.192   0.243   3.461  0.0242  2.5415 -1.2936
 2181SOL    HW2 6789   2.275   0.228   3.586 -2.4142 -0.5837  0.0874
 2182SOL     OW 6790   4.652   4.116   2.302  0.3819 -0.4462 -0.1938
 2182SOL    HW1 6791   4.653   4.209   2.280 -0.2017 -0.5193 -0.5472
 2182SOL    HW2 6792   4.720   4.107   2.369  1.2363  0.0241 -0.9829
 2183SOL     OW 6793   2.207   2.910   3.464 -0.1720  0.1275  0.2624
 2183SOL    HW1 6794   2.247   2.829   3.496 -1.0681 -0.8085 -0.8879
 2183SOL    HW2 6795   2.281   2.959   3.426  0.3219 -0.3013  0.6483
 2184SOL     OW 6796   0.051   1.654   4.723  0.3034  0.1564 -0.7989
 2184SOL    HW1 6797   0.139   1.663   4.688  0.9157  0.5234  0.7597
 2184SOL    HW2 6798   0.061   1.666   4.818 -1.4657  0.6040 -0.6261
 2185SOL     OW 6799   3.382   3.119   0.532  0.0134 -0.5609  0.1467
 2185SOL    HW1 6800   3.355   3.114   0.441  0.4290  0.7244 -0.0600
 2185SOL    HW2 6801   3.403   3.211   0.547  1.3358 -0.9859  1.1346
 2186SOL     OW 6802   1.824   1.011   4.643  0.5117 -0.0840 -0.1224
 2186SOL    HW1 6803   1.908   1.032   4.601  1.2706 -0.4788  1.1393
 2186SOL    HW2 6804   1.836   0.922   4.677 -0.0674  0.2059  0.8796
 2187SOL     OW 6805   1.650   4.691   2.381 -0.6928 -0.2152  0.4019
 2187SOL    HW1 6806   1.691   4.636   2.314 -0.9968 -0.8259  0.7097
 2187SOL    HW2 6807   1.717   4.699   2.449  0.5611  2.4039 -0.9728
 2188SOL     OW 6808   5.617   1.820   0.769 -0.1049  0.1634 -0.0758
 2188SOL    HW1 6809   5.652   1.836   0.681  0.5003  0.6778  0.2462
 2188SOL    HW2 6810   5.523   1.807   0.756 -0.4833  2.8150 -0.5436
 2189SOL     OW 6811   2.636   2.336   0.607 -0.0174  0.7921  0.4741
 2189SOL    HW1 6812   2.673   2.379   0.684  0.2272  0.4059  0.5735
 2189SOL    HW2 6813   2.681   2.376   0.533  0.8072  0.1347  0.6070
 2190SOL     OW 6814   1.995   0.986   3.327  0.7075 -0.3369 -0.5362
 2190SOL    HW1 6815   1.999   0.904   3.278 -1.8375 -0.4555 -0.6718
 2190SOL    HW2 6816   1.991   1.055   3.260 -1.3734 -0.4202 -0.5783
 2191SOL     OW 6817   1.844   5.079   2.865  0.1387  0.1336  0.3096
 2191SOL    HW1 6818   1.875   5.001   2.818  0.8957  1.9800 -2.4863
 2191SOL    HW2 6819   1.901   5.150   2.835 -2.0297  2.2385  0.8715
 2192SOL     OW 6820   3.109   2.766   3.202 -0.1689 -0.1487  0.2297
 2192SOL    HW1 6821   3.039   2.733   3.146 -0.4373 -0.0190  0.4892
 2192SOL    HW2 6822   3.140   2.845   3.158 -0.2925 -0.1192  0.1954
 2193SOL     OW 6823   3.323   0.631   1.281  0.3750  0.0543  0.2848
 2193SOL    HW1 6824   3.310   0.606   1.372  0.6383 -0.2232  0.2499
 2193SOL    HW2 6825   3.245   0.680   1.258  0.5779  0.6504  0.8426
 2194SOL     OW 6826   6.124   3.637   0.504 -0.5639  0.1344 -0.1166
 2194SOL    HW1 6827   6.177   3.710   0.537  0.8709  0.1264 -2.2449
 2194SOL    HW2 6828   6.057   3.679   0.450  0.3925 -0.0898 -1.5162
 2195SOL     OW 6829   6.104   0.670   2.328 -0.1817  0.0110 -0.1007
 2195SOL    HW1 6830   6.169   0.720   2.378  1.7232 -1.4883 -0.9718
 2195SOL    HW2 6831   6.145   0.656   2.242  0.1920 -4.4648  0.5999
 2196SOL     OW 6832   1.885   4.115   4.534 -0.0035 -0.2442  0.3259
 2196SOL    HW1 6833   1.857   4.188   4.479 -1.0368  0.9339  2.2909
 2196SOL    HW2 6834   1.978   4.132   4.550  0.2047 -0.3795 -0.7112
 2197SOL     OW 6835   3.492   1.270   4.208  0.2117 -0.1185  0.1085
 2197SOL    HW1 6836   3.521   1.204   4.146  1.5535 -0.1130  0.6843
 2197SOL    HW2 6837   3.553   1.343   4.195 -1.3729  1.1298 -0.6705
 2198SOL     OW 6838   0.702   2.220   4.352 -0.1455  0.8325  0.1155
 2198SOL    HW1 6839   0.696   2.139   4.301  1.3442  0.8942 -0.2058
 2198SOL    HW2 6840   0.652   2.284   4.302 -0.6830  0.3014 -0.0343
 2199SOL     OW 6841   2.831   1.137   1.036  0.2857 -0.0471 -0.4717
 2199SOL    HW1 6842   2.834   1.093   0.951  2.9523 -3.0885  0.9541
 2199SOL    HW2 6843   2.874   1.221   1.022  0.4629 -0.3922 -2.1451
 2200SOL     OW 6844   2.401   2.819   2.808  0.1341  0.5937  0.2938
 2200SOL    HW1 6845   2.400   2.768   2.727 -0.3573  0.0493  0.6246
 2200SOL    HW2 6846   2.457   2.768   2.867  0.5712  1.0401  0.2637
 2201SOL     OW 6847   1.911   2.459   0.496  0.3038 -0.1905 -0.3881
 2201SOL    HW1 6848   2.001   2.463   0.529  0.0944  1.7708  0.0857
 2201SOL    HW2 6849   1.882   2.371   0.517  1.6203 -0.3787  0.8381
 2202SOL     OW 6850   1.162   1.299   0.443  0.3471 -0.0727 -0.5417
 2202SOL    HW1 6851   1.114   1.381   0.453  0.9085  0.2294 -0.2896
 2202SOL    HW2 6852   1.208   1.308   0.359 -0.2418 -0.4729 -0.9149
 2203SOL     OW 6853   3.228   4.587   2.378 -0.5742  0.4002  0.4593
 2203SOL    HW1 6854   3.177   4.655   2.332 -0.7238 -0.4004 -0.5940
 2203SOL    HW2 6855   3.297   4.636   2.422 -1.2736  1.3424  0.5590
 2204SOL     OW 6856   5.076   2.362   5.646  0.3505  0.0367  0.0218
 2204SOL    HW1 6857   5.010   2.361   5.577 -2.0354 -2.5131  2.1012
 2204SOL    HW2 6858   5.146   2.306   5.613 -1.0314 -1.6594 -0.1332
 2205SOL     OW 6859   0.370   2.960   5.655 -0.4165  0.2388  0.4080
 2205SOL    HW1 6860   0.433   3.016   5.701 -0.6848  0.4121  0.5672
 2205SOL    HW2 6861   0.286   3.005   5.666 -0.4087  0.5377 -0.6805
 2206SOL     OW 6862   2.357   1.803   4.189 -0.1973 -0.4393 -0.8590
 2206SOL    HW1 6863   2.402   1.722   4.166 -0.1450 -1.1598  1.5162
 2206SOL    HW2 6864   2.427   1.868   4.193  0.3980 -1.1228  0.8406
 2207SOL     OW 6865   0.470   4.271   5.012  0.0926 -0.1172 -0.1575
 2207SOL    HW1 6866   0.492   4.276   5.105 -0.8812 -0.9719  0.1441
 2207SOL    HW2 6867   0.506   4.186   4.984 -0.7632 -0.4713 -0.2180
 2208SOL     OW 6868   1.991   3.487   2.020  0.0397  0.3383  0.5260
 2208SOL    HW1 6869   2.055   3.525   2.080  0.5924 -0.4710  0.4762
 2208SOL    HW2 6870   2.022   3.510   1.933  0.5963 -0.5295  0.4814
 2209SOL     OW 6871   2.631   2.966   2.731  0.1220 -0.0264  0.0895
 2209SOL    HW1 6872   2.589   3.051   2.718  1.0295  0.5249  0.6466
 2209SOL    HW2 6873   2.559   2.906   2.749 -0.3711  1.1094  2.2011
 2210SOL     OW 6874   3.469   0.588   5.998 -0.0560  0.0399  0.0990
 2210SOL    HW1 6875   3.460   0.676   5.959 -0.8037  0.6726  1.6266
 2210SOL    HW2 6876   3.559   0.586   6.030 -0.3515  0.6910  1.0219
 2211SOL     OW 6877   5.376   0.371   3.531  0.1309  0.0488 -0.0666
 2211SOL    HW1 6878   5.309   0.354   3.597  1.7094  2.4231  2.3354
 2211SOL    HW2 6879   5.411   0.284   3.510 -0.4553 -0.8129  2.2311
 2212SOL     OW 6880   2.569   0.255   3.808 -0.0315 -0.8298  0.0002
 2212SOL    HW1 6881   2.563   0.285   3.899 -0.2437  0.8211 -0.5188
 2212SOL    HW2 6882   2.655   0.286   3.779  0.2156 -1.7299 -0.2459
 2213SOL     OW 6883   5.722   4.986   1.015  0.1112 -0.4167  0.9628
 2213SOL    HW1 6884   5.758   4.897   1.010  1.5225  0.1670 -0.2362
 2213SOL    HW2 6885   5.642   4.982   0.963 -1.0560 -1.4760  2.7387
 2214SOL     OW 6886   5.915   4.011   1.418 -0.2154 -0.3547  0.0573
 2214SOL    HW1 6887   6.003   3.975   1.430  0.4108  0.9110 -0.5620
 2214SOL    HW2 6888   5.914   4.091   1.472 -0.7502  0.0073 -0.4808
 2215SOL     OW 6889   2.528   3.730   4.281  0.1584 -0.1170 -0.4460
 2215SOL    HW1 6890   2.457   3.791   4.302 -0.2375 -0.8954  0.5485
 2215SOL    HW2 6891   2.484   3.655   4.240  0.4324 -0.4889 -0.0674
 2216SOL     OW 6892   5.031   1.360   4.726 -0.2504  0.2845 -0.1647
 2216SOL    HW1 6893   5.018   1.455   4.721  1.2894  0.5977  0.9199
 2216SOL    HW2 6894   5.032   1.341   4.820 -1.3977 -0.9544 -0.3898
 2217SOL     OW 6895   1.244   5.729   0.650 -0.3724 -0.4620 -0.6593
 2217SOL    HW1 6896   1.272   5.638   0.651  1.1021 -0.0224 -0.2625
 2217SOL    HW2 6897   1.232   5.749   0.557 -0.8145 -1.0801 -0.7408
 2218SOL     OW 6898   3.976   6.039   4.338  0.0930  0.2830  0.7900
 2218SOL    HW1 6899   4.071   6.033   4.349  0.2670  2.0423  0.6267
 2218SOL    HW2 6900   3.965   6.096   4.262 -1.0824  0.6108  1.1901
 2219SOL     OW 6901   5.396   3.816   0.160 -0.6186  0.8053  0.2454
 2219SOL    HW1 6902   5.419   3.880   0.228 -0.7804  0.9777  0.1412
 2219SOL    HW2 6903   5.326   3.859   0.110 -0.1810  0.8708 -0.3123
 2220SOL     OW 6904   5.545   4.218   3.865  0.3725 -0.8075  0.2736
 2220SOL    HW1 6905   5.624   4.243   3.816 -0.3808 -0.5937 -0.8802
 2220SOL    HW2 6906   5.547   4.123   3.868  1.2662 -0.7824  1.3006
 2221SOL     OW 6907   1.941   3.133   0.802 -0.4402 -0.2702  0.1882
 2221SOL    HW1 6908   2.020   3.188   0.796 -0.4494 -0.1996  0.6713
 2221SOL    HW2 6909   1.970   3.046   0.773 -0.6244  0.1677 -1.3985
 2222SOL     OW 6910   3.318   4.873   2.294  0.0853  0.0625 -0.5561
 2222SOL    HW1 6911   3.297   4.953   2.344 -0.8177 -0.5366  0.0540
 2222SOL    HW2 6912   3.248   4.866   2.230 -0.0578 -0.4456 -0.3486
 2223SOL     OW 6913   0.591   4.033   5.442  0.2030 -0.3102 -0.8058
 2223SOL    HW1 6914   0.553   3.982   5.371 -0.0976 -0.0662 -0.8235
 2223SOL    HW2 6915   0.525   4.031   5.511 -0.2439  0.8650 -1.1762
 2224SOL     OW 6916   5.252   5.683   1.685 -0.1683 -0.1320 -0.6173
 2224SOL    HW1 6917   5.167   5.672   1.641 -0.5985  0.3270  0.0806
 2224SOL    HW2 6918   5.249   5.621   1.758 -0.9179  1.5741  0.8668
 2225SOL     OW 6919   5.799   0.187   5.281 -0.2623  0.5222  0.4060
 2225SOL    HW1 6920   5.758   0.194   5.367 -3.5512 -0.0093 -0.9329
 2225SOL    HW2 6921   5.740   0.236   5.223  2.0691  1.2574 -1.5174
 2226SOL     OW 6922   5.382   4.097   5.200 -0.1452  0.2545  0.0873
 2226SOL    HW1 6923   5.382   4.064   5.110 -2.1918  1.6386 -0.4781
 2226SOL    HW2 6924   5.474   4.111   5.220  0.5204 -1.9710 -1.0310
 2227SOL     OW 6925   1.251   5.503   3.997 -0.7066 -0.3963 -0.0749
 2227SOL    HW1 6926   1.339   5.504   4.033 -0.3035 -0.0055 -1.0463
 2227SOL    HW2 6927   1.201   5.562   4.054 -0.1085  0.1366 -0.0975
 2228SOL     OW 6928   3.537   0.766   5.167 -0.9531  0.2128 -0.3514
 2228SOL    HW1 6929   3.611   0.798   5.219  0.1581 -2.3964 -0.1346
 2228SOL    HW2 6930   3.533   0.824   5.092  0.0799  1.5744  0.5855
 2229SOL     OW 6931   0.489   0.364   3.844 -0.6248  0.2567  0.2919
 2229SOL    HW1 6932   0.443   0.431   3.793 -1.5736 -0.4369  0.2005
 2229SOL    HW2 6933   0.471   0.283   3.798  1.1106  0.0042 -0.0046
 2230SOL     OW 6934   1.991   5.147   5.680 -0.0710 -0.0980  0.5872
 2230SOL    HW1 6935   1.998   5.171   5.588  1.2797 -0.1751  0.6540
 2230SOL    HW2 6936   1.977   5.230   5.726 -1.1235 -0.1002  0.2936
 2231SOL     OW 6937   6.142   0.603   3.175  0.0458  0.6907  0.0559
 2231SOL    HW1 6938   6.174   0.514   3.190  1.0392  0.8381 -1.0091
 2231SOL    HW2 6939   6.049   0.599   3.198 -0.5383 -1.2487 -2.2077
 2232SOL     OW 6940   3.569   4.641   1.004  0.3593  0.4517 -0.5208
 2232SOL    HW1 6941   3.646   4.645   0.947 -0.0656 -1.7628 -1.3645
 2232SOL    HW2 6942   3.602   4.604   1.086  0.2254 -0.5677 -0.9075
 2233SOL     OW 6943   0.611   2.002   3.215  0.6019 -0.5165  0.1660
 2233SOL    HW1 6944   0.681   2.048   3.169  1.1822 -1.9065 -0.4218
 2233SOL    HW2 6945   0.625   1.909   3.193 -1.2249 -0.8709  0.2896
 2234SOL     OW 6946   2.221   3.188   1.661  0.7537 -0.2314 -0.5431
 2234SOL    HW1 6947   2.288   3.237   1.709 -1.5574  1.9407  0.6992
 2234SOL    HW2 6948   2.170   3.255   1.615  0.2695 -1.9221 -2.6252
 2235SOL     OW 6949   4.022   1.916   3.543  0.0704 -0.0926  0.4024
 2235SOL    HW1 6950   4.085   1.974   3.500  0.7400 -2.8915 -2.8445
 2235SOL    HW2 6951   3.951   1.906   3.479 -0.5393 -1.9466  1.2931
 2236SOL     OW 6952   4.231   4.292   4.416  0.0917  0.0492 -0.5396
 2236SOL    HW1 6953   4.307   4.233   4.425  0.6742  0.8411 -0.1254
 2236SOL    HW2 6954   4.204   4.281   4.325  0.2898 -0.7323 -0.5188
 2237SOL     OW 6955   5.041   1.013   0.752  0.0050 -0.0857 -0.2606
 2237SOL    HW1 6956   5.097   1.089   0.735  0.7092 -0.7549 -0.9956
 2237SOL    HW2 6957   4.969   1.021   0.689 -0.2395  0.2797  0.0612
 2238SOL     OW 6958   3.537   3.640   2.517  0.0514  0.4258 -1.0987
 2238SOL    HW1 6959   3.572   3.656   2.604  0.0568  0.2654 -1.0716
 2238SOL    HW2 6960   3.550   3.723   2.470  2.0891 -0.1536 -1.6421
 2239SOL     OW 6961   3.750   3.183   0.995  0.3931  0.6279  0.0777
 2239SOL    HW1 6962   3.785   3.128   1.065 -1.2630 -2.0026 -1.0431
 2239SOL    HW2 6963   3.678   3.231   1.036  1.7502  1.9429  1.0233
 2240SOL     OW 6964   5.236   1.220   4.035 -0.0973 -0.1931  0.2142
 2240SOL    HW1 6965   5.200   1.247   4.119 -0.6359 -3.4476  1.1795
 2240SOL    HW2 6966   5.292   1.145   4.055  2.4610  0.9746 -1.9921
 2241SOL     OW 6967   4.191   3.522   2.607 -0.2629 -0.1386  0.4054
 2241SOL    HW1 6968   4.192   3.491   2.697  0.0452 -0.2582  0.3620
 2241SOL    HW2 6969   4.190   3.443   2.553 -0.6492 -0.0676  0.3043
 2242SOL     OW 6970   2.064   5.520   2.633 -0.4895 -0.2035  0.2447
 2242SOL    HW1 6971   2.106   5.475   2.559 -3.5300 -2.2756 -0.4095
 2242SOL    HW2 6972   2.075   5.613   2.613 -0.7611 -0.6784 -2.6199
 2243SOL     OW 6973   2.865   4.734   1.659  0.3565 -0.3047 -0.4680
 2243SOL    HW1 6974   2.914   4.775   1.588  0.4200  0.3773 -0.0441
 2243SOL    HW2 6975   2.797   4.797   1.680  0.5079 -0.3763  0.2584
 2244SOL     OW 6976   4.984   3.776   0.221 -0.1778 -0.0543  0.4945
 2244SOL    HW1 6977   5.039   3.700   0.237  0.7237  0.1421 -1.3947
 2244SOL    HW2 6978   5.043   3.839   0.180 -1.2218  1.1788  0.8223
 2245SOL     OW 6979   3.394   0.164   0.027 -0.1923  0.6343 -0.4238
 2245SOL    HW1 6980   3.445   0.099  -0.021  0.6280  0.6366  0.4118
 2245SOL    HW2 6981   3.318   0.115   0.061 -0.2361  0.4067 -0.8464
 2246SOL     OW 6982   5.293   1.214   4.708  0.1562  0.7396  0.0149
 2246SOL    HW1 6983   5.236   1.257   4.644  0.0757  0.5994 -0.0075
 2246SOL    HW2 6984   5.381   1.224   4.671  0.0277 -0.1082 -0.5690
 2247SOL     OW 6985   3.039   2.551   1.318 -0.6345 -0.0086 -0.0549
 2247SOL    HW1 6986   2.982   2.598   1.257 -1.7051  0.8853  1.5786
 2247SOL    HW2 6987   2.983   2.486   1.358 -0.5515  0.8825  1.5788
 2248SOL     OW 6988   5.449   2.665   1.191 -0.8962  0.2686  0.4883
 2248SOL    HW1 6989   5.496   2.684   1.272 -2.0919  2.5044  0.7392
 2248SOL    HW2 6990   5.495   2.716   1.124  0.9291 -2.5972 -0.6374
 2249SOL     OW 6991   0.415   2.015   4.092  0.1604 -0.1983  0.3491
 2249SOL    HW1 6992   0.508   2.025   4.112  0.0386  0.9988  0.3793
 2249SOL    HW2 6993   0.374   1.999   4.177  0.5492 -2.7346  0.1254
 2250SOL     OW 6994   1.921   0.895   5.727 -0.8792 -0.7516 -0.0231
 2250SOL    HW1 6995   2.002   0.922   5.771 -1.3989 -1.2014  1.2495
 2250SOL    HW2 6996   1.939   0.806   5.698 -0.4510 -0.3720 -0.9865
 2251SOL     OW 6997   5.759   2.395   3.590  0.1375 -0.0336  0.0429
 2251SOL    HW1 6998   5.725   2.457   3.526  0.8667  0.6089  0.2579
 2251SOL    HW2 6999   5.837   2.438   3.626  0.2423 -0.7631  0.7215
 2252SOL     OW 7000   4.073   1.278   5.669  0.1329 -0.0217  0.2163
 2252SOL    HW1 7001   4.034   1.336   5.734 -1.6040 -0.1369 -0.6768
 2252SOL    HW2 7002   4.164   1.269   5.697 -0.3502  0.5980  2.1459
 2253SOL     OW 7003   1.905   2.526   3.308  0.2272 -0.1425  0.4626
 2253SOL    HW1 7004   1.944   2.575   3.380 -0.2685  0.7340  0.1515
 2253SOL    HW2 7005   1.836   2.473   3.349  2.1155 -2.2698  1.1404
 2254SOL     OW 7006   3.210   4.780   1.560  0.0290 -0.4920 -0.3242
 2254SOL    HW1 7007   3.185   4.868   1.532  0.4101 -0.3464 -0.2120
 2254SOL    HW2 7008   3.244   4.738   1.480 -0.2595 -0.5743 -0.4022
 2255SOL     OW 7009   1.109   2.480   0.127 -0.0046  0.8101 -0.4915
 2255SOL    HW1 7010   1.047   2.440   0.066  0.0515 -0.3709  0.2074
 2255SOL    HW2 7011   1.055   2.524   0.192 -0.1918 -1.3247  0.8676
 2256SOL     OW 7012   4.793   1.687   3.223 -0.6455 -0.0953  0.5378
 2256SOL    HW1 7013   4.712   1.649   3.188 -0.0717 -0.2465 -0.6908
 2256SOL    HW2 7014   4.820   1.750   3.156  1.2216 -1.3819  0.0038
 2257SOL     OW 7015   0.912   4.524   1.324 -0.8818 -0.4264 -0.0530
 2257SOL    HW1 7016   0.990   4.521   1.378  0.4394 -0.8591 -1.8795
 2257SOL    HW2 7017   0.852   4.583   1.370  1.2923  1.5451  0.3800
 2258SOL     OW 7018   4.962   5.959   2.286  0.0227 -0.5713 -0.1334
 2258SOL    HW1 7019   4.888   5.924   2.336  0.8383 -0.4018  1.2672
 2258SOL    HW2 7020   5.025   5.985   2.353  0.6127  0.9635 -1.2372
 2259SOL     OW 7021   2.105   3.172   0.397 -0.1926 -0.3656  0.7286
 2259SOL    HW1 7022   2.105   3.203   0.488  0.4116  0.3261  0.5023
 2259SOL    HW2 7023   2.067   3.244   0.347  0.4707 -0.3037  0.3000
 2260SOL     OW 7024   2.771   3.536   0.557 -0.3030 -0.5013 -0.1104
 2260SOL    HW1 7025   2.715   3.461   0.580 -0.6541  0.1143  1.1373
 2260SOL    HW2 7026   2.848   3.526   0.613 -0.7863  0.5756  0.7740
 2261SOL     OW 7027   5.753   3.167   2.158 -0.9806  0.1126 -0.4450
 2261SOL    HW1 7028   5.791   3.082   2.178 -0.7067  0.3723  0.1683
 2261SOL    HW2 7029   5.707   3.154   2.075  1.1152 -0.0009 -1.6414
 2262SOL     OW 7030   2.680   2.136   2.860  0.3648 -0.2334  0.0115
 2262SOL    HW1 7031   2.680   2.061   2.919 -1.0788  0.0685  0.4439
 2262SOL    HW2 7032   2.769   2.170   2.863  0.9435 -1.6987  0.0910
 2263SOL     OW 7033   5.557   1.479   5.570  0.1450  0.5410  0.2104
 2263SOL    HW1 7034   5.472   1.503   5.534 -0.1815 -0.4740  0.2725
 2263SOL    HW2 7035   5.598   1.563   5.593 -0.5713  1.0739 -0.3970
 2264SOL     OW 7036   4.692   3.508   3.158  0.3028  0.5060  0.3086
 2264SOL    HW1 7037   4.759   3.469   3.101 -1.3896 -1.0982 -0.6913
 2264SOL    HW2 7038   4.654   3.434   3.204 -0.6586  1.4067  1.0058
 2265SOL     OW 7039   5.000   5.053   3.641 -0.0675  0.2511 -0.1943
 2265SOL    HW1 7040   4.992   5.092   3.728 -1.1088 -0.4486  0.0429
 2265SOL    HW2 7041   4.914   5.066   3.601 -0.5614 -2.0301  0.0060
 2266SOL     OW 7042   2.677   3.916   5.626 -0.0895 -0.5777 -0.0056
 2266SOL    HW1 7043   2.681   3.879   5.538 -0.4065 -0.3532 -0.1167
 2266SOL    HW2 7044   2.682   4.011   5.612  1.0066 -0.5879  0.2963
 2267SOL     OW 7045   5.143   2.045   0.525 -0.4187  0.0491 -0.1894
 2267SOL    HW1 7046   5.200   2.019   0.453  0.3264  1.5484 -0.1869
 2267SOL    HW2 7047   5.186   2.121   0.563 -2.1837  0.9662  0.0966
 2268SOL     OW 7048   4.460   3.490   2.774 -0.4459  0.3531  0.1845
 2268SOL    HW1 7049   4.469   3.537   2.857 -1.4586  0.2360  0.3803
 2268SOL    HW2 7050   4.384   3.433   2.787 -1.2073  1.0146 -1.1348
 2269SOL     OW 7051   1.114   4.231   3.837 -0.8229 -0.8059 -0.0296
 2269SOL    HW1 7052   1.155   4.152   3.871  1.3498  0.1637 -0.2090
 2269SOL    HW2 7053   1.175   4.301   3.860 -0.9400  0.3604 -2.8631
 2270SOL     OW 7054   4.391   0.748   1.405  0.1684 -0.0400 -0.3750
 2270SOL    HW1 7055   4.326   0.743   1.476  0.0763 -0.0925 -0.4634
 2270SOL    HW2 7056   4.379   0.666   1.356  1.0298 -0.5556  0.2428
 2271SOL     OW 7057   3.255   4.521   4.399  0.1407 -0.7017 -0.1808
 2271SOL    HW1 7058   3.242   4.429   4.377  1.7529 -0.8177 -0.8196
 2271SOL    HW2 7059   3.236   4.568   4.318  0.7220 -0.6169 -0.2726
 2272SOL     OW 7060   3.157   4.735   2.102  0.3885 -0.1001 -0.1988
 2272SOL    HW1 7061   3.122   4.647   2.108  0.9499 -0.3707 -0.7674
 2272SOL    HW2 7062   3.191   4.742   2.012 -1.1445  1.2475 -0.7235
 2273SOL     OW 7063   0.673   3.222   1.568  0.5873  0.3947  0.0007
 2273SOL    HW1 7064   0.686   3.311   1.600 -0.4724  1.6058 -2.6854
 2273SOL    HW2 7065   0.581   3.202   1.589 -0.1138  1.1951 -2.0624
 2274SOL     OW 7066   3.703   5.205   0.840  0.2969 -0.5482 -0.1491
 2274SOL    HW1 7067   3.664   5.292   0.829  2.5513  0.5425 -0.1631
 2274SOL    HW2 7068   3.718   5.198   0.935 -0.6323 -1.3270 -0.0358
 2275SOL     OW 7069   1.572   5.973   5.776 -0.4827 -0.1397 -0.4386
 2275SOL    HW1 7070   1.497   6.026   5.802 -1.8552 -2.0718 -0.3101
 2275SOL    HW2 7071   1.566   5.968   5.681 -0.1632  0.1907 -0.4784
 2276SOL     OW 7072   4.944   1.876   2.078  0.3437 -0.7406  0.3686
 2276SOL    HW1 7073   4.852   1.850   2.075 -0.3231  1.5083 -1.0582
 2276SOL    HW2 7074   4.954   1.917   2.164 -0.3664  0.2029  0.0114
 2277SOL     OW 7075   4.187   1.912   2.473 -0.0394  0.0141  0.1433
 2277SOL    HW1 7076   4.207   1.831   2.426 -1.0265  0.3013 -0.8089
 2277SOL    HW2 7077   4.109   1.946   2.430 -0.7563  0.5004  1.7656
 2278SOL     OW 7078   3.575   3.915   3.754  0.6615 -0.3445 -0.2947
 2278SOL    HW1 7079   3.548   3.997   3.796 -0.4329  0.3147 -2.1338
 2278SOL    HW2 7080   3.513   3.850   3.786 -0.1651  0.1509 -0.8336
 2279SOL     OW 7081   5.688   0.052   5.845 -0.0660  0.3123 -0.5299
 2279SOL    HW1 7082   5.600   0.068   5.810 -0.0489 -0.8514 -1.1377
 2279SOL    HW2 7083   5.728  -0.008   5.783  0.9447  0.3436  0.0766
 2280SOL     OW 7084   4.805   3.568   0.041  0.6253 -0.0909  0.4376
 2280SOL    HW1 7085   4.722   3.567  -0.006  0.6265 -1.3800  0.4230
 2280SOL    HW2 7086   4.865   3.519  -0.015  1.4811  1.0122  0.3404
 2281SOL     OW 7087   1.096   5.674   5.207 -0.4671  0.2961 -0.1915
 2281SOL    HW1 7088   1.164   5.740   5.193 -0.9570  0.6644 -0.9234
 2281SOL    HW2 7089   1.118   5.604   5.145 -1.1073  0.7080 -0.9016
 2282SOL     OW 7090   6.084   2.151   0.592 -0.1148  0.0630  0.3371
 2282SOL    HW1 7091   6.023   2.077   0.581 -0.5610  0.7278 -2.8677
 2282SOL    HW2 7092   6.171   2.111   0.591 -0.3957 -0.5778  0.8644
 2283SOL     OW 7093   1.869   2.726   4.531  0.1154 -0.6635 -0.1292
 2283SOL    HW1 7094   1.854   2.816   4.499 -0.4077 -0.4201  0.7501
 2283SOL    HW2 7095   1.942   2.694   4.479  1.7677  1.0553  1.0036
 2284SOL     OW 7096   5.938   1.662   3.908 -0.0247  0.1513 -0.0622
 2284SOL    HW1 7097   5.859   1.682   3.959  1.0630 -0.4171  1.9942
 2284SOL    HW2 7098   5.999   1.628   3.973  1.7665  0.1464 -1.6738
 2285SOL     OW 7099   0.115   5.206   2.818  0.1481 -0.5602 -0.7594
 2285SOL    HW1 7100   0.157   5.249   2.893 -1.8980 -0.1885  0.2447
 2285SOL    HW2 7101   0.116   5.271   2.749 -0.7575  0.2732 -0.0152
 2286SOL     OW 7102   3.142   1.553   3.995 -0.0369  1.0172  0.2195
 2286SOL    HW1 7103   3.213   1.596   3.946  0.6987 -0.5468 -0.1648
 2286SOL    HW2 7104   3.071   1.617   3.997  0.8181  2.0268 -0.7849
 2287SOL     OW 7105   2.573   1.335   5.082 -1.0491  0.2225 -0.1673
 2287SOL    HW1 7106   2.605   1.421   5.056 -1.6503  0.9454  1.3889
 2287SOL    HW2 7107   2.648   1.277   5.070 -0.3365  1.1409 -0.2789
 2288SOL     OW 7108   6.105   2.372   0.809  0.2322  0.1361 -0.7883
 2288SOL    HW1 7109   6.032   2.418   0.851 -0.1440 -2.4343  1.6690
 2288SOL    HW2 7110   6.078   2.362   0.717 -1.0652  1.9156 -0.6445
 2289SOL     OW 7111   5.801   2.138   0.758  0.4729  0.2239  0.4289
 2289SOL    HW1 7112   5.824   2.089   0.837 -0.2526 -1.3381 -0.2850
 2289SOL    HW2 7113   5.798   2.230   0.787 -0.5956 -0.3812  2.4347
 2290SOL     OW 7114   5.814   1.213   1.797 -0.4307  0.1304 -0.0141
 2290SOL    HW1 7115   5.877   1.164   1.746 -0.3381  0.5738 -0.3334
 2290SOL    HW2 7116   5.778   1.278   1.736  1.4182  2.2812  1.0112
 2291SOL     OW 7117   2.426   3.850   1.896 -0.2267  0.2351  0.7817
 2291SOL    HW1 7118   2.437   3.896   1.979  0.4855  1.1271  0.2218
 2291SOL    HW2 7119   2.375   3.910   1.842 -1.5856 -0.7822  0.9028
 2292SOL     OW 7120   3.169   5.188   0.902  0.5056  0.5308 -0.0418
 2292SOL    HW1 7121   3.226   5.149   0.969  1.6502  1.1001 -0.6602
 2292SOL    HW2 7122   3.108   5.118   0.880  2.2583 -0.8293 -0.8463
 2293SOL     OW 7123   0.106   2.501   5.143  0.5061  0.0282  0.2768
 2293SOL    HW1 7124   0.201   2.503   5.154  1.1756  1.1033 -3.8828
 2293SOL    HW2 7125   0.093   2.451   5.062 -2.3077  1.1602 -0.0737
 2294SOL     OW 7126   4.904   0.200   4.133  0.2935  0.5068 -0.1819
 2294SOL    HW1 7127   4.858   0.224   4.213  0.6447  0.6791 -0.0322
 2294SOL    HW2 7128   4.841   0.218   4.063  0.0579  0.5402  0.0354
 2295SOL     OW 7129   0.343   4.252   5.408  0.3964 -0.4617 -0.8933
 2295SOL    HW1 7130   0.316   4.302   5.331  0.8189 -1.4449 -1.7167
 2295SOL    HW2 7131   0.303   4.166   5.395 -0.6503 -0.2377  0.6871
 2296SOL     OW 7132   3.543   2.897   5.021  0.4880 -0.4243  0.1315
 2296SOL    HW1 7133   3.613   2.913   5.084  0.6120  3.0032 -0.6716
 2296SOL    HW2 7134   3.484   2.972   5.030 -1.0505 -1.2820 -1.8267
 2297SOL     OW 7135   3.735   5.667   1.827  0.3496 -0.0996 -0.2006
 2297SOL    HW1 7136   3.717   5.756   1.858  0.1258 -0.4172  0.5869
 2297SOL    HW2 7137   3.656   5.642   1.779 -0.6917 -0.8541  1.8153
 2298SOL     OW 7138   0.693   5.007   1.101  0.2251  0.1543  0.7407
 2298SOL    HW1 7139   0.781   5.002   1.063  0.1276 -1.7755  0.6560
 2298SOL    HW2 7140   0.708   5.006   1.196  0.3375  1.7311  0.7656
 2299SOL     OW 7141   4.360   4.353   4.909  0.0783 -0.4470  0.4777
 2299SOL    HW1 7142   4.326   4.443   4.902  1.1209  0.0309  1.1904
 2299SOL    HW2 7143   4.291   4.298   4.874 -0.2924  0.7009 -0.6797
 2300SOL     OW 7144   2.798   1.107   1.514 -0.6306  0.4935  0.4090
 2300SOL    HW1 7145   2.852   1.118   1.435  0.4474 -1.0377  0.8879
 2300SOL    HW2 7146   2.816   1.186   1.566  2.2306 -0.4996  1.1178
 2301SOL     OW 7147   4.165   0.498   0.977 -0.2575 -0.9084  0.9255
 2301SOL    HW1 7148   4.103   0.487   1.050  0.1345 -1.6824  1.1500
 2301SOL    HW2 7149   4.235   0.435   0.995  0.0016 -0.8895  0.0391
 2302SOL     OW 7150   4.321   3.336   1.309  0.6319 -0.1536 -0.0410
 2302SOL    HW1 7151   4.262   3.409   1.291 -1.8803 -2.0635 -0.0083
 2302SOL    HW2 7152   4.367   3.321   1.226  0.5881  0.9238 -0.2717
 2303SOL     OW 7153   3.934   1.454   3.651  0.2343 -0.3166  0.6214
 2303SOL    HW1 7154   4.000   1.412   3.596  0.4201 -0.9742  1.3218
 2303SOL    HW2 7155   3.982   1.481   3.729 -0.1233  0.1604  0.6861
 2304SOL     OW 7156   5.868   4.965   1.416 -0.2418 -0.2979  0.2238
 2304SOL    HW1 7157   5.879   5.018   1.495  1.0235 -0.4003  0.1408
 2304SOL    HW2 7158   5.826   5.024   1.354  0.4552  0.3956  0.3867
 2305SOL     OW 7159   3.153   6.135   4.838 -0.4020  0.0960  0.1721
 2305SOL    HW1 7160   3.135   6.116   4.746  0.0138 -0.3843  0.1845
 2305SOL    HW2 7161   3.068   6.132   4.881 -0.4952 -0.6054 -0.0391
 2306SOL     OW 7162   4.735   5.238   2.699 -0.8147  0.2496  0.0221
 2306SOL    HW1 7163   4.651   5.270   2.667 -0.9290 -2.0530 -2.3217
 2306SOL    HW2 7164   4.795   5.253   2.626 -0.3790 -2.5373 -0.2854
 2307SOL     OW 7165   1.076   1.610   5.768 -0.0727 -0.1196 -0.1534
 2307SOL    HW1 7166   1.103   1.518   5.770 -0.2478 -0.2032 -1.1270
 2307SOL    HW2 7167   1.155   1.659   5.790  0.1375 -0.4876 -0.0795
 2308SOL     OW 7168   1.500   3.802   2.003 -0.7461  0.1128  0.2062
 2308SOL    HW1 7169   1.513   3.779   2.095 -2.0564 -2.5036 -0.1624
 2308SOL    HW2 7170   1.405   3.809   1.993 -0.5515  2.3514 -0.5737
 2309SOL     OW 7171   2.071   0.229   1.722  0.1976  0.2656  0.8387
 2309SOL    HW1 7172   2.139   0.260   1.783  2.3534 -1.3132 -0.6080
 2309SOL    HW2 7173   2.051   0.306   1.669 -0.7412  1.3095  2.6176
 2310SOL     OW 7174   3.826   2.306   1.895  0.0192 -0.0989  0.1992
 2310SOL    HW1 7175   3.792   2.275   1.979  1.5752 -0.9678  0.5377
 2310SOL    HW2 7176   3.748   2.338   1.849 -0.7347  1.4775  2.3780
 2311SOL     OW 7177   4.466   5.704   1.307  0.3828  0.0744  0.7054
 2311SOL    HW1 7178   4.541   5.686   1.250  0.0373  1.7635 -0.3566
 2311SOL    HW2 7179   4.492   5.781   1.357 -1.4281  2.1348 -1.3303
 2312SOL     OW 7180   1.797   4.931   0.292 -0.3546 -0.5223  0.7202
 2312SOL    HW1 7181   1.875   4.898   0.337  0.2803 -0.3027 -0.1905
 2312SOL    HW2 7182   1.757   4.853   0.254  0.6990 -0.3988 -0.7416
 2313SOL     OW 7183   5.152   5.716   1.143 -0.4355 -0.5535 -0.5556
 2313SOL    HW1 7184   5.212   5.786   1.117 -0.5845 -0.2235 -0.0336
 2313SOL    HW2 7185   5.085   5.715   1.074 -0.6877  0.1348 -0.3312
 2314SOL     OW 7186   1.879   4.619   4.059 -0.1107 -0.2070 -0.1336
 2314SOL    HW1 7187   1.886   4.706   4.021  0.6543 -0.6594 -1.0900
 2314SOL    HW2 7188   1.968   4.584   4.056  0.0556 -0.1794  2.3769
 2315SOL     OW 7189   3.600   3.645   4.696  0.7117  0.4723  0.0448
 2315SOL    HW1 7190   3.569   3.689   4.616 -0.7763 -0.9759 -0.2182
 2315SOL    HW2 7191   3.523   3.639   4.752  0.9378 -1.4528  0.2154
 2316SOL     OW 7192   1.306   0.137   5.585  0.2358 -0.2008 -0.7849
 2316SOL    HW1 7193   1.237   0.182   5.635  0.7431  0.0836 -0.3324
 2316SOL    HW2 7194   1.387   0.174   5.618  0.5918 -0.0575 -1.7889
 2317SOL     OW 7195   2.574   4.570   2.309 -0.5698  0.1804 -0.0680
 2317SOL    HW1 7196   2.646   4.516   2.340 -0.5531  0.0676 -0.2979
 2317SOL    HW2 7197   2.601   4.599   2.221 -1.2652 -0.7464 -0.6041
 2318SOL     OW 7198   0.415   4.143   0.051  0.0848 -0.2429 -0.5849
 2318SOL    HW1 7199   0.358   4.131   0.127  1.1050 -2.0935 -0.0283
 2318SOL    HW2 7200   0.418   4.237   0.037 -1.3306  0.0307  0.7336
 2319SOL     OW 7201   0.010   3.131   0.242 -0.5623 -0.2958 -0.4190
 2319SOL    HW1 7202  -0.055   3.094   0.181 -0.5706 -1.0694  0.0525
 2319SOL    HW2 7203  -0.043   3.175   0.309 -0.5430  1.1302 -1.3032
 2320SOL     OW 7204   1.493   5.822   0.865  0.3909 -0.3845  0.3447
 2320SOL    HW1 7205   1.541   5.901   0.891  0.2855 -0.5952  1.2378
 2320SOL    HW2 7206   1.449   5.846   0.784  0.3338  0.4909  0.6248
 2321SOL     OW 7207   3.344   0.477   2.743 -0.4658 -0.1821 -0.2526
 2321SOL    HW1 7208   3.371   0.530   2.818  0.9513 -1.0548 -0.0850
 2321SOL    HW2 7209   3.251   0.495   2.732 -0.2676  1.4476  0.4865
 2322SOL     OW 7210   3.725   0.028   0.754 -0.1964 -0.4329  0.6136
 2322SOL    HW1 7211   3.765   0.036   0.667  0.6923 -1.6579  0.8766
 2322SOL    HW2 7212   3.799   0.036   0.815 -0.9549  1.6401  1.3548
 2323SOL     OW 7213   1.612   5.588   2.895 -0.2713  0.1716  0.1780
 2323SOL    HW1 7214   1.666   5.532   2.951  1.8725  1.2277 -0.7281
 2323SOL    HW2 7215   1.591   5.533   2.820  2.9780  0.8398 -1.3696
 2324SOL     OW 7216   0.795   1.816   1.101 -0.0327 -0.3504  0.1920
 2324SOL    HW1 7217   0.791   1.861   1.186 -0.3555 -0.8187  0.4334
 2324SOL    HW2 7218   0.758   1.729   1.119  1.9273 -1.2587  0.0777
 2325SOL     OW 7219   3.758   1.453   5.652  0.0947 -0.4211 -0.1879
 2325SOL    HW1 7220   3.722   1.369   5.624 -2.3798 -0.2536  1.9870
 2325SOL    HW2 7221   3.836   1.430   5.702  0.1929 -1.3025 -0.7241
 2326SOL     OW 7222   4.276   5.143   0.463  0.3705  0.1292 -0.9527
 2326SOL    HW1 7223   4.362   5.148   0.504  0.4790 -2.5874 -0.6677
 2326SOL    HW2 7224   4.263   5.050   0.444 -3.2238  0.1172  0.6148
 2327SOL     OW 7225   6.132   0.029   3.652  0.1867 -0.2548 -0.3183
 2327SOL    HW1 7226   6.052   0.076   3.630  0.4198 -0.6233 -2.0909
 2327SOL    HW2 7227   6.110  -0.063   3.639  0.6984 -0.4129 -0.1189
 2328SOL     OW 7228   5.136   4.014   1.638  0.0389  0.5565  0.5292
 2328SOL    HW1 7229   5.206   3.951   1.621  0.4358  1.2464 -0.5020
 2328SOL    HW2 7230   5.076   4.004   1.563 -0.0351  1.2027  0.4936
 2329SOL     OW 7231   5.837   5.736   1.036 -0.2588 -0.5309 -0.6479
 2329SOL    HW1 7232   5.776   5.682   0.986 -0.5032 -0.9097  0.0442
 2329SOL    HW2 7233   5.832   5.702   1.125 -0.4051  0.6251 -0.1964
 2330SOL     OW 7234   3.701   1.803   2.766 -0.5675 -0.1536 -0.5589
 2330SOL    HW1 7235   3.620   1.827   2.722 -0.2156  1.4652 -0.3951
 2330SOL    HW2 7236   3.687   1.824   2.858 -0.3337 -0.9142 -0.3367
 2331SOL     OW 7237   2.626   1.128   6.054  0.0367 -0.0861  0.7705
 2331SOL    HW1 7238   2.596   1.129   6.145  0.5244 -0.0338  0.9309
 2331SOL    HW2 7239   2.679   1.207   6.046 -1.3869  0.8221 -0.0295
 2332SOL     OW 7240   5.292   0.149   5.866 -0.1938  0.8632  0.0611
 2332SOL    HW1 7241   5.352   0.093   5.816  1.0796  1.8746  0.4055
 2332SOL    HW2 7242   5.348   0.217   5.904 -1.5208  1.6526  0.6866
 2333SOL     OW 7243   3.090   6.131   2.890 -0.4366  0.2602 -0.2720
 2333SOL    HW1 7244   3.113   6.105   2.979 -1.4881 -0.1861 -0.1069
 2333SOL    HW2 7245   3.143   6.208   2.873 -0.4623  0.5538  0.8717
 2334SOL     OW 7246   5.565   0.164   4.155 -0.5954 -0.3076 -0.4226
 2334SOL    HW1 7247   5.573   0.168   4.250 -0.9382 -1.7512 -0.3035
 2334SOL    HW2 7248   5.630   0.226   4.122 -0.9169  0.6812  0.7529
 2335SOL     OW 7249   1.900   0.527   2.369 -0.4039  0.5845 -0.5188
 2335SOL    HW1 7250   1.958   0.475   2.313  0.3221  1.0372 -0.2014
 2335SOL    HW2 7251   1.958   0.566   2.434 -1.3468 -1.0825  1.4826
 2336SOL     OW 7252   0.532   4.678   2.858  0.1453  0.2059 -0.2914
 2336SOL    HW1 7253   0.598   4.742   2.883  0.6880  0.5895 -2.5277
 2336SOL    HW2 7254   0.581   4.603   2.824 -0.5055  0.7443 -2.5649
 2337SOL     OW 7255   0.780   0.464   1.353 -0.3736 -0.0798 -0.6528
 2337SOL    HW1 7256   0.864   0.473   1.308  0.2703 -0.3487  0.4545
 2337SOL    HW2 7257   0.732   0.399   1.302  0.1459 -0.0171 -1.2273
 2338SOL     OW 7258   2.714   3.410   2.912 -0.0886 -0.2099  0.3135
 2338SOL    HW1 7259   2.703   3.354   2.989 -0.3333 -1.0718 -0.3259
 2338SOL    HW2 7260   2.801   3.387   2.878 -0.7044 -1.1620 -0.6812
 2339SOL     OW 7261   1.348   5.778   2.624  0.0720  0.3382 -0.1801
 2339SOL    HW1 7262   1.294   5.701   2.609 -0.7322  0.5614  1.3266
 2339SOL    HW2 7263   1.346   5.790   2.719  0.7411  1.8082 -0.3221
 2340SOL     OW 7264   4.208   2.908   4.661  0.1746 -0.5185 -0.4143
 2340SOL    HW1 7265   4.287   2.959   4.678  2.1375 -2.6975 -2.2416
 2340SOL    HW2 7266   4.187   2.926   4.569  0.0347 -1.8157 -0.6562
 2341SOL     OW 7267   4.814   0.341   4.579  0.1601 -0.7127 -0.1932
 2341SOL    HW1 7268   4.816   0.435   4.557  0.7262 -0.8886 -0.9415
 2341SOL    HW2 7269   4.906   0.318   4.590 -0.0393 -0.9207  1.1906
 2342SOL     OW 7270   3.024   3.825   3.666 -0.3580 -0.1003 -0.6875
 2342SOL    HW1 7271   2.953   3.882   3.695  0.3064 -0.0179  0.8463
 2342SOL    HW2 7272   3.033   3.760   3.736  1.5402  0.3170 -0.4896
 2343SOL     OW 7273   5.956   3.819   3.314 -0.0343 -0.2653  0.0150
 2343SOL    HW1 7274   5.996   3.847   3.396  1.4982 -2.0575 -0.0517
 2343SOL    HW2 7275   5.863   3.806   3.335  0.2043 -0.0115  1.2743
 2344SOL     OW 7276   2.667   0.168   1.599 -0.5197 -0.0427 -0.5567
 2344SOL    HW1 7277   2.730   0.104   1.632 -0.0111  0.5657 -0.3186
 2344SOL    HW2 7278   2.587   0.118   1.581 -0.0761 -0.7603 -0.5289
 2345SOL     OW 7279   2.538   4.986   3.257 -0.8389 -0.6293  0.0178
 2345SOL    HW1 7280   2.565   5.020   3.342 -1.6840  0.3656 -0.0882
 2345SOL    HW2 7281   2.475   4.917   3.277 -1.2708 -0.1877  0.2035
 2346SOL     OW 7282   1.747   0.252   4.069  0.0422 -0.2513 -0.5331
 2346SOL    HW1 7283   1.747   0.319   4.137 -1.5017  2.3443 -2.8353
 2346SOL    HW2 7284   1.683   0.188   4.098  2.1284 -1.3310  2.1257
 2347SOL     OW 7285   1.141   2.546   0.509 -0.0982  0.3554  0.3742
 2347SOL    HW1 7286   1.095   2.476   0.555 -0.6358  0.8838  0.6585
 2347SOL    HW2 7287   1.144   2.618   0.572 -0.5453  0.9733 -0.2972
 2348SOL     OW 7288   5.570   2.413   1.257 -0.2944  0.1470  0.5512
 2348SOL    HW1 7289   5.528   2.478   1.200  1.0164 -0.2758 -0.9771
 2348SOL    HW2 7290   5.532   2.330   1.229 -0.4036  0.0337  1.0329
 2349SOL     OW 7291   4.033   4.049   2.141 -0.6029 -0.1413  0.0109
 2349SOL    HW1 7292   4.039   4.113   2.212  0.3891  0.1576 -0.3233
 2349SOL    HW2 7293   4.068   3.968   2.179  0.9388  0.2872 -0.4191
 2350SOL     OW 7294   3.411   4.972   2.728 -0.5051 -0.3021 -0.0156
 2350SOL    HW1 7295   3.408   5.049   2.672  2.7316 -1.2748 -1.8024
 2350SOL    HW2 7296   3.477   4.993   2.795 -1.3474 -0.6670  0.9502
 2351SOL     OW 7297   1.588   4.990   1.007 -0.2585 -0.1576 -0.0504
 2351SOL    HW1 7298   1.581   5.044   0.929 -0.3738  3.3432  2.1766
 2351SOL    HW2 7299   1.683   4.977   1.020  0.0565  2.6713  1.2156
 2352SOL     OW 7300   0.802   2.513   4.688 -0.7914 -0.3467 -0.1693
 2352SOL    HW1 7301   0.879   2.457   4.677  0.2673  0.7719  1.1836
 2352SOL    HW2 7302   0.727   2.453   4.678  0.2768 -1.8930  0.6728
 2353SOL     OW 7303   0.567   4.304   5.263 -0.3137 -0.1450  0.0179
 2353SOL    HW1 7304   0.632   4.363   5.300  0.4627 -1.1812  0.3595
 2353SOL    HW2 7305   0.508   4.284   5.336 -1.5262  1.4019 -0.4768
 2354SOL     OW 7306   2.020   5.153   3.256 -0.2787 -0.5061  0.0659
 2354SOL    HW1 7307   2.068   5.167   3.174 -1.1436  2.6480 -0.0397
 2354SOL    HW2 7308   2.085   5.165   3.325 -0.4585  2.4420 -0.1170
 2355SOL     OW 7309   0.251   3.260   0.097  0.2744  0.4731  0.2423
 2355SOL    HW1 7310   0.274   3.169   0.074  0.9913  0.4016  1.1574
 2355SOL    HW2 7311   0.180   3.252   0.160  1.4324  0.4333  1.6162
 2356SOL     OW 7312   5.038   0.258   2.116  0.2629 -0.3135  0.4365
 2356SOL    HW1 7313   4.955   0.257   2.070 -0.7429  0.5965  2.1226
 2356SOL    HW2 7314   5.092   0.192   2.072 -1.3271 -0.8889 -0.7075
 2357SOL     OW 7315   2.699   0.533   1.770 -0.5008  0.2928  0.0108
 2357SOL    HW1 7316   2.784   0.490   1.783 -0.3173  0.5663 -0.2772
 2357SOL    HW2 7317   2.688   0.588   1.847  0.0981  1.1057 -0.4745
 2358SOL     OW 7318   3.063   4.647   3.401 -0.0596 -0.2108  0.2657
 2358SOL    HW1 7319   3.011   4.727   3.393  0.3425  0.0883  0.6071
 2358SOL    HW2 7320   3.142   4.665   3.350  0.5936  0.0898  1.3505
 2359SOL     OW 7321   1.973   0.428   1.549 -0.2381  0.0432 -0.2763
 2359SOL    HW1 7322   1.902   0.468   1.600 -0.5406 -2.7586  1.7513
 2359SOL    HW2 7323   2.006   0.499   1.494 -3.7285  1.8158 -0.3732
 2360SOL     OW 7324   4.944   5.498   5.955  0.7840  0.6216  0.1697
 2360SOL    HW1 7325   4.916   5.479   5.866 -2.5492  0.0527  1.2195
 2360SOL    HW2 7326   4.906   5.584   5.975 -2.3980 -1.0968  2.3677
 2361SOL     OW 7327   2.441   2.019   2.149 -0.1462  0.5850  0.4178
 2361SOL    HW1 7328   2.510   1.994   2.211 -0.5339 -0.0620  0.5963
 2361SOL    HW2 7329   2.360   2.012   2.200 -0.3984  0.7605  0.0411
 2362SOL     OW 7330   5.020   5.817   0.743  0.2264  0.3831 -0.3225
 2362SOL    HW1 7331   5.002   5.741   0.799  1.7213  0.7592  0.7172
 2362SOL    HW2 7332   5.110   5.804   0.714 -0.4197  0.3484 -2.4582
 2363SOL     OW 7333   2.384   5.076   1.997 -0.1466 -0.3319  0.0711
 2363SOL    HW1 7334   2.331   5.002   1.966 -1.0175  0.7023 -0.9671
 2363SOL    HW2 7335   2.466   5.070   1.948 -0.0990 -0.7511  0.1951
 2364SOL     OW 7336   3.999   2.447   2.079 -0.3507  0.1261 -0.1726
 2364SOL    HW1 7337   4.094   2.457   2.079 -0.3183 -0.1690 -0.4580
 2364SOL    HW2 7338   3.982   2.377   2.016 -0.7111 -0.2658  0.3489
 2365SOL     OW 7339   1.169   2.495   3.013  0.3565 -0.3083  0.5357
 2365SOL    HW1 7340   1.174   2.534   2.926  0.1747 -1.3717  0.0424
 2365SOL    HW2 7341   1.104   2.426   3.005 -0.3637  0.1979  1.7642
 2366SOL     OW 7342   0.690   4.608   3.222 -0.5107  0.4797 -0.3948
 2366SOL    HW1 7343   0.711   4.649   3.138  1.4814  0.9420  0.2804
 2366SOL    HW2 7344   0.687   4.681   3.284  0.9615 -0.1287  0.4386
 2367SOL     OW 7345   1.495   3.807   2.880  0.4475  0.4373 -0.0174
 2367SOL    HW1 7346   1.435   3.752   2.931  1.6907 -0.1955  0.8010
 2367SOL    HW2 7347   1.454   3.813   2.794 -1.0957  0.5331  0.6848
 2368SOL     OW 7348   2.471   2.067   4.306  0.5204  0.0476  0.2352
 2368SOL    HW1 7349   2.382   2.089   4.278  0.7994 -0.4463 -1.1117
 2368SOL    HW2 7350   2.527   2.128   4.259  1.0017 -0.7829 -0.3081
 2369SOL     OW 7351   5.719   4.612   5.024 -0.0217  0.1863 -0.0231
 2369SOL    HW1 7352   5.770   4.692   5.034  0.3236  0.2325 -1.8408
 2369SOL    HW2 7353   5.640   4.627   5.076  0.2145  1.5619 -0.0389
 2370SOL     OW 7354   5.512   1.074   4.797 -0.4809  0.0497 -0.2526
 2370SOL    HW1 7355   5.516   1.104   4.706  1.8026  1.0392  0.0822
 2370SOL    HW2 7356   5.489   0.982   4.792 -1.3202  0.3185 -1.7577
 2371SOL     OW 7357   1.705   2.606   1.294  0.3625 -0.6085  0.7013
 2371SOL    HW1 7358   1.682   2.523   1.252 -0.0459 -1.0875  1.8364
 2371SOL    HW2 7359   1.625   2.632   1.341  1.0490 -0.4909  1.8273
 2372SOL     OW 7360   2.301   2.300   2.127 -0.2817 -0.6566 -0.3356
 2372SOL    HW1 7361   2.372   2.350   2.088 -0.1174 -1.1488 -0.6726
 2372SOL    HW2 7362   2.302   2.217   2.081  0.0065 -1.3068  0.8031
 2373SOL     OW 7363   2.700   2.378   1.405  0.6203  0.1842  0.9082
 2373SOL    HW1 7364   2.630   2.313   1.402  0.7141  0.0529  1.3951
 2373SOL    HW2 7365   2.721   2.395   1.314  0.8507 -0.7564  0.7748
 2374SOL     OW 7366   1.820   3.812   4.222 -0.1844 -0.3377  0.4840
 2374SOL    HW1 7367   1.852   3.816   4.131 -1.5538 -0.4055 -0.0309
 2374SOL    HW2 7368   1.733   3.774   4.214  0.0492 -1.2349  1.9540
 2375SOL     OW 7369   3.699   2.276   3.377  0.0012 -0.4203 -0.7676
 2375SOL    HW1 7370   3.782   2.322   3.361 -0.4193  0.9756  0.7677
 2375SOL    HW2 7371   3.639   2.312   3.312 -0.1741  0.8430  0.0633
 2376SOL     OW 7372   0.416   1.452   4.494  0.1851 -0.1385  0.3020
 2376SOL    HW1 7373   0.390   1.435   4.403 -1.2465 -2.5792  1.0715
 2376SOL    HW2 7374   0.511   1.441   4.494  0.0307 -1.9786 -0.6286
 2377SOL     OW 7375   5.920   0.747   1.509 -0.6676 -0.0382  0.4711
 2377SOL    HW1 7376   5.925   0.659   1.471 -0.4633 -0.6806  1.9469
 2377SOL    HW2 7377   6.010   0.769   1.531 -0.7297  0.5172  0.1833
 2378SOL     OW 7378   1.545   3.212   2.025 -0.3000 -0.1089 -0.1447
 2378SOL    HW1 7379   1.568   3.123   2.053 -1.7285 -0.0845  1.1948
 2378SOL    HW2 7380   1.603   3.269   2.076  0.1250 -0.2224 -0.4884
 2379SOL     OW 7381   6.068   0.244   3.299  0.4415 -0.0360  0.1990
 2379SOL    HW1 7382   6.049   0.330   3.337 -2.3091 -0.7414  0.6410
 2379SOL    HW2 7383   6.014   0.183   3.349  1.3384 -1.8696 -0.9484
 2380SOL     OW 7384   4.206   6.104   3.558 -0.1102  0.6252  0.2320
 2380SOL    HW1 7385   4.292   6.088   3.519  0.5690  0.3648  1.7669
 2380SOL    HW2 7386   4.150   6.127   3.484  1.2946  0.8724 -0.7936
 2381SOL     OW 7387   1.478   2.852   0.158 -0.4043 -0.2214  0.1632
 2381SOL    HW1 7388   1.431   2.934   0.143 -0.9219 -0.0588  2.3316
 2381SOL    HW2 7389   1.571   2.878   0.158 -0.1807 -0.4998 -3.8510
 2382SOL     OW 7390   5.258   0.747   5.603  0.4477  1.0793  0.1421
 2382SOL    HW1 7391   5.316   0.782   5.534  2.9587  0.2376  1.6733
 2382SOL    HW2 7392   5.307   0.761   5.684 -1.8684  0.9202  1.6584
 2383SOL     OW 7393   0.162   4.073   1.672  0.0396 -0.7582  0.6403
 2383SOL    HW1 7394   0.101   4.026   1.614  0.8701 -0.7951 -0.2370
 2383SOL    HW2 7395   0.106   4.114   1.738 -0.9651 -0.5796 -0.2900
 2384SOL     OW 7396   0.700   0.541   3.719 -0.7933  0.0229  0.3810
 2384SOL    HW1 7397   0.713   0.606   3.788  1.3042 -2.2131  2.2710
 2384SOL    HW2 7398   0.620   0.496   3.744 -0.7059  0.0254  0.6757
 2385SOL     OW 7399   0.823   3.443   3.275  0.5991 -0.5163 -0.7116
 2385SOL    HW1 7400   0.767   3.495   3.333  0.0136  0.8370 -2.4024
 2385SOL    HW2 7401   0.881   3.396   3.334  1.5031  2.4393  0.9844
 2386SOL     OW 7402   4.442   2.428   3.319  0.2705  0.9869  0.5133
 2386SOL    HW1 7403   4.355   2.469   3.316 -0.3311 -0.2257  0.7457
 2386SOL    HW2 7404   4.430   2.351   3.374  1.7831  1.4301  1.5181
 2387SOL     OW 7405   2.580   5.006   1.196 -0.1475 -1.0578 -0.0419
 2387SOL    HW1 7406   2.509   5.050   1.244  1.6360  0.7878  1.0447
 2387SOL    HW2 7407   2.544   4.992   1.109 -0.8512  2.7991 -0.5333
 2388SOL     OW 7408   2.079   5.419   4.524  0.4110  0.1884 -0.7634
 2388SOL    HW1 7409   2.081   5.463   4.609 -1.7513  3.3472 -2.1778
 2388SOL    HW2 7410   2.139   5.470   4.469  0.4487 -0.7429 -1.6205
 2389SOL     OW 7411   2.312   6.035   2.981  0.1432  0.4108 -0.2512
 2389SOL    HW1 7412   2.297   5.950   2.940 -1.4221  0.4842  0.1181
 2389SOL    HW2 7413   2.353   6.088   2.912  1.9291 -0.8548 -0.2326
 2390SOL     OW 7414   1.606   1.383   4.197  0.1328 -0.6243  0.4584
 2390SOL    HW1 7415   1.581   1.330   4.273 -1.1570  0.9298  1.1735
 2390SOL    HW2 7416   1.524   1.425   4.170  1.2752  1.9240  0.6880
 2391SOL     OW 7417   2.014   2.483   4.481 -0.1892  0.1098  0.2328
 2391SOL    HW1 7418   1.958   2.412   4.449  0.8306 -0.4943 -0.2563
 2391SOL    HW2 7419   2.036   2.458   4.570  0.1052 -0.1586  0.0872
 2392SOL     OW 7420   5.185   2.301   1.652  0.6140 -0.0576 -0.4409
 2392SOL    HW1 7421   5.234   2.286   1.733 -0.9067  1.4396  0.8723
 2392SOL    HW2 7422   5.250   2.328   1.588  1.6372  0.8879  0.9461
 2393SOL     OW 7423   4.893   5.589   2.317 -0.0574  0.2686  0.5568
 2393SOL    HW1 7424   4.882   5.495   2.302 -0.1642 -0.0745  2.5590
 2393SOL    HW2 7425   4.895   5.598   2.412  0.8069  2.2084  0.3911
 2394SOL     OW 7426   3.059   0.608   2.370 -0.3534  0.8878  0.1434
 2394SOL    HW1 7427   2.997   0.543   2.336 -0.1325  0.5755  0.3353
 2394SOL    HW2 7428   3.092   0.651   2.291 -0.5632  0.8281  0.0188
 2395SOL     OW 7429   2.506   1.186   5.664 -0.0666  0.4184  0.0357
 2395SOL    HW1 7430   2.458   1.180   5.746  1.4076  0.1836  0.9359
 2395SOL    HW2 7431   2.538   1.276   5.662 -2.2963  1.2328 -1.6315
 2396SOL     OW 7432   1.580   0.095   6.024 -0.3507  1.0088 -0.2097
 2396SOL    HW1 7433   1.572   0.139   6.109  0.2997  3.0414 -1.1381
 2396SOL    HW2 7434   1.499   0.046   6.015 -1.5822  2.7809  0.5105
 2397SOL     OW 7435   2.051   4.768   3.389 -0.1929  0.0120  0.0927
 2397SOL    HW1 7436   2.066   4.797   3.299 -0.3148  1.4605  0.5163
 2397SOL    HW2 7437   2.024   4.676   3.380  2.4389 -0.7626 -1.1389
 2398SOL     OW 7438   5.400   2.351   3.574 -0.2047  0.3046 -0.5713
 2398SOL    HW1 7439   5.429   2.290   3.506 -2.0240  1.2196 -2.2381
 2398SOL    HW2 7440   5.325   2.308   3.614  0.8664 -0.2369  0.9518
 2399SOL     OW 7441   0.799   4.279   5.022 -0.1776 -0.8421 -0.6218
 2399SOL    HW1 7442   0.880   4.264   5.070  0.7580  0.1335 -1.8464
 2399SOL    HW2 7443   0.759   4.192   5.015 -0.0973 -1.0931  1.4111
 2400SOL     OW 7444   4.436   4.892   2.296  0.0648 -0.3415  0.1848
 2400SOL    HW1 7445   4.511   4.887   2.355 -0.1558  1.6306  0.7100
 2400SOL    HW2 7446   4.365   4.849   2.344  0.5717 -1.2305  0.1549
 2401SOL     OW 7447   0.544   0.440   0.972 -0.0995 -0.3115  0.6032
 2401SOL    HW1 7448   0.451   0.439   0.995  0.1641 -1.7650  1.8030
 2401SOL    HW2 7449   0.575   0.353   0.997  1.5698  0.1262  0.1497
 2402SOL     OW 7450   2.171   0.258   1.378  0.3557  0.4423 -0.2268
 2402SOL    HW1 7451   2.119   0.248   1.458  0.1294  1.5546 -0.2169
 2402SOL    HW2 7452   2.106   0.262   1.307  0.5837 -1.2858 -0.5761
 2403SOL     OW 7453   0.068   3.919   2.488 -0.1883  0.0990  0.2588
 2403SOL    HW1 7454   0.088   3.833   2.451  2.1497 -0.3348  2.2406
 2403SOL    HW2 7455   0.009   3.900   2.560 -1.6095  0.4822 -0.7747
 2404SOL     OW 7456   0.391   0.277   2.678 -0.0320  0.1237 -0.0010
 2404SOL    HW1 7457   0.460   0.217   2.707  1.0336  0.4849 -1.5966
 2404SOL    HW2 7458   0.435   0.332   2.613 -2.1412 -0.6029 -2.2022
 2405SOL     OW 7459   2.114   2.176   4.579  0.0249 -0.1171  0.1126
 2405SOL    HW1 7460   2.106   2.109   4.647 -0.8375  0.0151  0.1620
 2405SOL    HW2 7461   2.058   2.247   4.610 -1.4937 -0.5973 -1.3538
 2406SOL     OW 7462   5.057   4.043   4.001  0.0340 -0.6680  0.1079
 2406SOL    HW1 7463   4.972   4.013   4.034  0.2341  0.4183  1.6767
 2406SOL    HW2 7464   5.120   3.979   4.034 -0.0573 -0.9559 -0.2700
 2407SOL     OW 7465   3.023   2.304   4.596  0.3889  0.1532 -0.3951
 2407SOL    HW1 7466   2.937   2.309   4.638  1.2637  1.3681  1.3828
 2407SOL    HW2 7467   3.078   2.259   4.660  1.3695  0.5359 -0.9581
 2408SOL     OW 7468   3.799   5.560   2.073  0.1037 -0.3123 -0.7549
 2408SOL    HW1 7469   3.719   5.565   2.126  0.4811  3.6158 -0.2446
 2408SOL    HW2 7470   3.770   5.579   1.984  0.4469  1.5994 -0.4925
 2409SOL     OW 7471   4.600   1.546   3.572  0.2185 -0.2285  0.0152
 2409SOL    HW1 7472   4.544   1.568   3.497 -0.6863 -1.1729  0.3970
 2409SOL    HW2 7473   4.539   1.525   3.642  1.0655 -0.4132  0.7083
 2410SOL     OW 7474   1.848   5.803   0.678 -0.7373  0.4932 -0.1832
 2410SOL    HW1 7475   1.889   5.889   0.672 -0.4249  0.3186 -0.5541
 2410SOL    HW2 7476   1.856   5.765   0.591  2.2663 -1.3375  0.7269
 2411SOL     OW 7477   4.161   0.229   5.445 -0.1082  0.1196  0.0710
 2411SOL    HW1 7478   4.138   0.192   5.360 -0.0649  1.3018 -0.4767
 2411SOL    HW2 7479   4.077   0.243   5.489 -0.1524 -0.1174  0.0624
 2412SOL     OW 7480   5.738   0.275   0.187 -0.2706 -0.2996 -0.3191
 2412SOL    HW1 7481   5.696   0.326   0.257 -1.4745 -2.3082  0.5180
 2412SOL    HW2 7482   5.666   0.236   0.139  0.5916 -0.2036 -1.7457
 2413SOL     OW 7483   0.049   3.847   1.001  0.0248  0.0498 -0.4288
 2413SOL    HW1 7484   0.031   3.796   1.080  2.4244 -2.1297 -1.1370
 2413SOL    HW2 7485   0.122   3.904   1.024  0.2682 -0.0797 -0.8611
 2414SOL     OW 7486   5.283   2.938   4.964 -0.4032  0.4682 -0.1837
 2414SOL    HW1 7487   5.262   2.846   4.946 -1.2700  0.5133  0.5031
 2414SOL    HW2 7488   5.242   2.986   4.893  0.6834  0.2750 -0.9506
 2415SOL     OW 7489   3.867   1.205   5.482 -0.5738 -0.0909 -0.4627
 2415SOL    HW1 7490   3.932   1.249   5.537 -1.4876  0.4568  0.2035
 2415SOL    HW2 7491   3.869   1.114   5.510  0.9518 -0.4054 -1.4797
 2416SOL     OW 7492   0.356   1.519   3.915 -0.1096 -0.3279  0.0576
 2416SOL    HW1 7493   0.313   1.599   3.944 -1.1462 -0.2720 -1.5063
 2416SOL    HW2 7494   0.320   1.502   3.828  2.9085 -0.3628 -1.3289
 2417SOL     OW 7495   3.325   5.197   4.275  0.1083 -0.5764  0.2796
 2417SOL    HW1 7496   3.243   5.157   4.303 -0.5451 -1.5410 -2.5933
 2417SOL    HW2 7497   3.385   5.124   4.264  1.7409  0.1924  3.1177
 2418SOL     OW 7498   5.296   3.805   1.503 -0.1076 -0.1321  0.4690
 2418SOL    HW1 7499   5.264   3.715   1.508 -1.0410  0.1316 -0.3610
 2418SOL    HW2 7500   5.290   3.827   1.410  2.3165  0.0324  0.2949
 2419SOL     OW 7501   2.908   4.505   4.111 -0.1937  0.0130  0.1130
 2419SOL    HW1 7502   2.849   4.488   4.038 -2.6084  2.2323  1.4082
 2419SOL    HW2 7503   2.874   4.450   4.182  0.6133 -0.2501  0.3095
 2420SOL     OW 7504   4.538   0.825   1.168 -0.6588 -0.7120 -0.3765
 2420SOL    HW1 7505   4.460   0.874   1.143 -1.5050 -2.3294 -1.0365
 2420SOL    HW2 7506   4.536   0.824   1.264 -0.7245  0.3488 -0.3563
 2421SOL     OW 7507   2.852   5.370   1.985 -0.1848  0.2765  0.3245
 2421SOL    HW1 7508   2.854   5.287   1.937 -2.6267 -0.6532  1.6775
 2421SOL    HW2 7509   2.904   5.354   2.064  0.8039  0.6439 -0.2309
 2422SOL     OW 7510   2.673   3.231   3.097 -0.0772  0.4543  0.1133
 2422SOL    HW1 7511   2.735   3.166   3.065  0.7218  1.3903 -0.3040
 2422SOL    HW2 7512   2.588   3.188   3.091  0.5415 -0.9756  1.0027
 2423SOL     OW 7513   2.695   1.019   5.561  0.4474  0.3444 -0.0088
 2423SOL    HW1 7514   2.672   1.086   5.625  2.2342  0.9009  0.1174
 2423SOL    HW2 7515   2.713   1.068   5.481 -0.6737 -0.2446 -0.6450
 2424SOL     OW 7516   2.187   5.147   2.609  0.7183 -0.1224 -0.1232
 2424SOL    HW1 7517   2.256   5.102   2.658 -0.9910 -2.2298  0.5310
 2424SOL    HW2 7518   2.129   5.183   2.677  1.2869  1.9660 -0.6579
 2425SOL     OW 7519   3.647   0.050   4.765 -0.0113 -0.3347 -0.8981
 2425SOL    HW1 7520   3.564   0.003   4.776 -0.5188 -0.1411 -3.3251
 2425SOL    HW2 7521   3.690   0.005   4.693  1.8394 -0.1447  0.0215
 2426SOL     OW 7522   0.610   2.634   1.415 -0.6969  0.8765  0.1150
 2426SOL    HW1 7523   0.533   2.649   1.361 -2.0412  1.0992  1.9610
 2426SOL    HW2 7524   0.670   2.585   1.359 -2.4301  0.1393 -1.2114
 2427SOL     OW 7525   5.882   4.356   4.292 -0.3934  0.1348 -0.2697
 2427SOL    HW1 7526   5.885   4.373   4.386 -1.3910  0.0792 -0.2224
 2427SOL    HW2 7527   5.844   4.435   4.254  0.6740  0.4497 -0.7154
 2428SOL     OW 7528   0.245   2.468   4.309  0.1236  0.0791 -0.0258
 2428SOL    HW1 7529   0.175   2.531   4.298 -0.9785 -1.1031 -0.0133
 2428SOL    HW2 7530   0.206   2.384   4.284  1.3598 -0.6933  0.5411
 2429SOL     OW 7531   0.744   5.356   3.687  0.1122 -0.4607 -0.0705
 2429SOL    HW1 7532   0.736   5.265   3.716 -0.9024 -0.3237  0.1059
 2429SOL    HW2 7533   0.655   5.382   3.663  0.1137  0.9568  1.2835
 2430SOL     OW 7534   5.559   4.326   4.338 -1.0275 -0.3528  0.1989
 2430SOL    HW1 7535   5.618   4.307   4.410 -0.3843 -0.9484 -0.4801
 2430SOL    HW2 7536   5.472   4.329   4.379 -0.5718  0.3006  1.1586
 2431SOL     OW 7537   5.109   5.742   0.372 -0.0087 -0.0415  0.4261
 2431SOL    HW1 7538   5.157   5.660   0.386 -0.3932 -0.3572 -0.0807
 2431SOL    HW2 7539   5.032   5.717   0.320  1.3911  1.0751 -2.3951
 2432SOL     OW 7540   3.536   1.047   0.551  0.1288  0.1246  0.0652
 2432SOL    HW1 7541   3.454   1.067   0.504  0.8247  1.4377 -0.6481
 2432SOL    HW2 7542   3.590   1.125   0.539  1.6728 -0.8941  0.1314
 2433SOL     OW 7543   3.496   0.772   0.179 -0.4009 -0.5417 -0.0732
 2433SOL    HW1 7544   3.483   0.678   0.166  1.4840 -1.2147  2.3028
 2433SOL    HW2 7545   3.422   0.798   0.234 -0.4286 -0.8179  0.0239
 2434SOL     OW 7546   3.947   5.697   4.902 -0.0913  0.4936  0.4072
 2434SOL    HW1 7547   3.955   5.616   4.851 -1.5076  0.3297  0.3825
 2434SOL    HW2 7548   4.037   5.724   4.919  0.4179 -0.1464 -1.0660
 2435SOL     OW 7549   2.728   0.544   1.494 -0.8392  0.6347 -0.0098
 2435SOL    HW1 7550   2.771   0.630   1.489  0.8077 -0.1613 -0.3267
 2435SOL    HW2 7551   2.689   0.542   1.582  0.3760  1.1614  0.5714
 2436SOL     OW 7552   3.910   0.104   0.015 -0.1538 -0.2400  0.3315
 2436SOL    HW1 7553   3.824   0.116   0.056 -0.2960  2.3002 -0.4621
 2436SOL    HW2 7554   3.891   0.104  -0.079  0.7808  2.2989  0.0554
 2437SOL     OW 7555   4.575   1.190   4.212  0.1917  0.1559  0.0086
 2437SOL    HW1 7556   4.598   1.255   4.279 -0.1596 -0.6296  0.9153
 2437SOL    HW2 7557   4.613   1.108   4.243  2.7835  0.3410 -2.3656
 2438SOL     OW 7558   1.874   0.034   4.954  0.0362 -0.8855 -0.7515
 2438SOL    HW1 7559   1.929  -0.007   5.021 -0.0943 -1.9031 -1.2510
 2438SOL    HW2 7560   1.898  -0.011   4.873  0.3903  0.5150 -1.4590
 2439SOL     OW 7561   1.544   2.426   2.172 -0.2226  0.3489 -0.0465
 2439SOL    HW1 7562   1.554   2.436   2.267 -0.5290  0.0290  0.0202
 2439SOL    HW2 7563   1.455   2.455   2.154 -0.8130 -1.3200  0.0209
 2440SOL     OW 7564   3.834   5.594   2.828  0.6710  0.1348  0.1903
 2440SOL    HW1 7565   3.820   5.688   2.837  0.1796 -0.0060  1.1429
 2440SOL    HW2 7566   3.881   5.583   2.746  0.8381  1.2223  0.1337
 2441SOL     OW 7567   5.892   0.099   3.443  0.1414  0.2028 -0.5372
 2441SOL    HW1 7568   5.840   0.029   3.481  0.3097  0.0440 -0.6004
 2441SOL    HW2 7569   5.862   0.178   3.488 -1.4873  0.4027 -1.8927
 2442SOL     OW 7570   3.771   5.331   6.038  0.2403 -0.5963  0.1728
 2442SOL    HW1 7571   3.782   5.389   5.963 -0.6208 -1.7746 -0.9141
 2442SOL    HW2 7572   3.727   5.384   6.104 -1.6462 -0.3141 -1.2278
 2443SOL     OW 7573   3.353   4.363   1.681 -0.2043  0.7178 -0.1100
 2443SOL    HW1 7574   3.307   4.344   1.599 -0.5125 -0.7109  0.3590
 2443SOL    HW2 7575   3.435   4.313   1.674 -0.4977  0.1133  0.6883
 2444SOL     OW 7576   5.581   2.054   3.630  0.1150  0.3933  0.3136
 2444SOL    HW1 7577   5.518   2.098   3.688 -0.1258  0.0237  0.3338
 2444SOL    HW2 7578   5.580   2.106   3.550  0.2992  0.7901  0.5636
 2445SOL     OW 7579   5.970   3.726   0.850 -0.1922 -0.0599 -0.1476
 2445SOL    HW1 7580   6.006   3.649   0.894  0.3713 -0.0050 -0.4988
 2445SOL    HW2 7581   6.047   3.775   0.820 -0.5560  0.0438 -0.9453
 2446SOL     OW 7582   3.072   2.815   5.694  0.5448  0.5582  0.0024
 2446SOL    HW1 7583   3.109   2.734   5.658  0.0040  0.6256 -0.7378
 2446SOL    HW2 7584   2.990   2.827   5.645  0.1530  1.0480  0.7681
 2447SOL     OW 7585   2.549   6.137   0.536 -0.7494  0.7614  0.0303
 2447SOL    HW1 7586   2.483   6.154   0.602 -0.9959  2.4446 -0.5953
 2447SOL    HW2 7587   2.608   6.212   0.541  1.1590 -0.7151  0.5961
 2448SOL     OW 7588   2.487   0.980   4.217  0.0229 -0.2925  0.0296
 2448SOL    HW1 7589   2.467   0.892   4.187  1.6891 -0.4599 -0.6899
 2448SOL    HW2 7590   2.580   0.992   4.197 -0.3603  1.9513 -0.7450
 2449SOL     OW 7591   3.674   5.097   0.438  0.1644  0.2996  0.0183
 2449SOL    HW1 7592   3.589   5.129   0.467 -0.3136 -0.9793  0.0887
 2449SOL    HW2 7593   3.679   5.123   0.346  0.3617  1.6783  0.3919
 2450SOL     OW 7594   5.129   3.270   5.137  0.0459 -0.4212  0.0506
 2450SOL    HW1 7595   5.215   3.293   5.102  0.6754 -0.6348  1.3888
 2450SOL    HW2 7596   5.107   3.187   5.095  0.0196  0.1231 -1.0533
 2451SOL     OW 7597   5.672   3.412   1.795 -0.1527 -0.2113 -0.0418
 2451SOL    HW1 7598   5.726   3.482   1.759  0.2058  0.2986  1.4223
 2451SOL    HW2 7599   5.613   3.456   1.856 -0.6120 -1.0650  0.1459
 2452SOL     OW 7600   1.806   2.389   2.980  0.5818  0.3997 -0.4256
 2452SOL    HW1 7601   1.778   2.369   2.891 -1.9271 -0.4091  0.4514
 2452SOL    HW2 7602   1.730   2.431   3.021  0.6934 -1.4867  2.0129
 2453SOL     OW 7603   0.297   1.009   0.674  0.5848 -0.2265 -0.0258
 2453SOL    HW1 7604   0.319   1.004   0.581 -1.5057 -0.7204 -0.5543
 2453SOL    HW2 7605   0.250   0.928   0.692 -1.1631  0.9089  0.8238
 2454SOL     OW 7606   1.212   3.014   2.583  0.0855  0.7081 -0.6395
 2454SOL    HW1 7607   1.155   3.081   2.545  0.0612  0.3102 -1.3251
 2454SOL    HW2 7608   1.161   2.977   2.655 -0.5687  0.3127 -1.2870
 2455SOL     OW 7609   1.165   3.123   1.332  0.4240  0.2930 -0.5603
 2455SOL    HW1 7610   1.088   3.100   1.281  1.0212 -1.2892 -0.8034
 2455SOL    HW2 7611   1.190   3.209   1.300 -0.6975  0.4312 -1.1244
 2456SOL     OW 7612   4.067   2.769   2.693 -0.1590  0.0990  0.7006
 2456SOL    HW1 7613   4.116   2.687   2.681  1.9468  1.5812 -1.8451
 2456SOL    HW2 7614   4.016   2.779   2.613 -0.6775  1.1179  1.1375
 2457SOL     OW 7615   3.605   4.720   4.027  0.7923  0.0637  0.6066
 2457SOL    HW1 7616   3.583   4.644   3.973  1.1319 -0.0553  0.6336
 2457SOL    HW2 7617   3.642   4.783   3.965  0.7297  0.1155  0.6219
 2458SOL     OW 7618   2.442   2.208   2.775 -0.3557  0.0618  0.3089
 2458SOL    HW1 7619   2.393   2.167   2.847  0.2428  1.6210  1.6533
 2458SOL    HW2 7620   2.531   2.175   2.784 -0.5260 -0.6198 -0.4327
 2459SOL     OW 7621   2.963   4.687   0.087 -0.4717 -0.0481 -0.1267
 2459SOL    HW1 7622   2.905   4.629   0.039  1.3284  0.0238 -2.5933
 2459SOL    HW2 7623   2.949   4.773   0.048  1.3034 -0.0561 -0.8999
 2460SOL     OW 7624   1.086   3.165   2.357 -0.2713  0.5065 -0.0884
 2460SOL    HW1 7625   1.176   3.190   2.336 -0.3067  1.5130  0.9089
 2460SOL    HW2 7626   1.046   3.243   2.395 -1.8424  0.3471 -1.2912
 2461SOL     OW 7627   5.433   1.927   3.321  0.2243  0.2495  0.2810
 2461SOL    HW1 7628   5.362   1.954   3.379 -0.1960 -0.5937  0.1717
 2461SOL    HW2 7629   5.395   1.857   3.268  1.0252  0.0511 -0.0412
 2462SOL     OW 7630   4.860   0.181   0.774  0.2948  0.3820 -0.2062
 2462SOL    HW1 7631   4.937   0.157   0.723 -0.5370  0.9893 -1.8396
 2462SOL    HW2 7632   4.786   0.164   0.715 -0.9219 -1.0552  1.6234
 2463SOL     OW 7633   3.710   6.027   2.359 -0.2639  0.3680 -0.0797
 2463SOL    HW1 7634   3.659   6.101   2.324  1.5261  2.1956  0.9232
 2463SOL    HW2 7635   3.703   5.959   2.293  2.5586  3.4027 -3.9816
 2464SOL     OW 7636   0.201   5.729   3.544 -0.6428 -0.1822  0.1714
 2464SOL    HW1 7637   0.229   5.675   3.618 -1.8757  0.3395  1.0428
 2464SOL    HW2 7638   0.203   5.669   3.469  0.9260 -0.6409  0.5441
 2465SOL     OW 7639   4.067   5.696   5.798 -0.0028  0.6143 -0.2870
 2465SOL    HW1 7640   4.106   5.643   5.868  1.2412  0.7429 -0.8400
 2465SOL    HW2 7641   3.987   5.650   5.774  1.2246 -1.2961 -1.0208
 2466SOL     OW 7642   1.307   4.835   3.142  0.2546 -0.2731 -0.1513
 2466SOL    HW1 7643   1.234   4.851   3.082  0.7060  1.2846 -0.3449
 2466SOL    HW2 7644   1.271   4.776   3.208 -0.2606 -2.0311 -1.8975
 2467SOL     OW 7645   1.241   3.205   0.752  0.1379  0.8016  0.0241
 2467SOL    HW1 7646   1.257   3.202   0.658  2.5593 -0.3189  0.4125
 2467SOL    HW2 7647   1.326   3.222   0.791 -0.9759  2.1900  2.0090
 2468SOL     OW 7648   5.866   3.937   5.635  0.6584  0.5008  0.4280
 2468SOL    HW1 7649   5.943   3.945   5.692  0.3026  0.9194  0.8592
 2468SOL    HW2 7650   5.830   4.026   5.630 -0.9270 -0.0099  1.8362
 2469SOL     OW 7651   1.326   1.163   0.096  0.2423  0.0383 -0.1357
 2469SOL    HW1 7652   1.238   1.143   0.062 -0.3668 -0.8045  1.7561
 2469SOL    HW2 7653   1.316   1.247   0.140 -0.0183 -0.6623  1.2229
 2470SOL     OW 7654   2.348   3.008   1.501 -0.2503 -0.1859 -0.4590
 2470SOL    HW1 7655   2.319   3.067   1.571 -0.5058  0.6963 -1.2814
 2470SOL    HW2 7656   2.271   2.953   1.484  0.2593 -1.3917  0.9014
 2471SOL     OW 7657   2.494   0.249   2.342  0.0046  0.3398  0.0910
 2471SOL    HW1 7658   2.584   0.252   2.374 -0.3024 -0.1280  1.0247
 2471SOL    HW2 7659   2.501   0.271   2.249  1.1392 -0.1736  0.0441
 2472SOL     OW 7660   3.187   2.809   5.072  0.4482 -0.1968  0.4380
 2472SOL    HW1 7661   3.130   2.828   5.147 -0.1139 -1.0195  0.2289
 2472SOL    HW2 7662   3.161   2.873   5.006  0.5355  0.1459  0.7300
 2473SOL     OW 7663   1.058   3.666   3.425 -0.6534  0.4202  1.0896
 2473SOL    HW1 7664   0.965   3.649   3.441 -0.7104  0.4901  0.8377
 2473SOL    HW2 7665   1.103   3.621   3.496 -0.6746 -2.4294 -0.5501
 2474SOL     OW 7666   4.753   6.130   3.291 -0.4569  0.1247  0.1070
 2474SOL    HW1 7667   4.692   6.163   3.225 -2.9790 -1.6179  1.3848
 2474SOL    HW2 7668   4.797   6.056   3.248  0.4473  1.0837 -0.6635
 2475SOL     OW 7669   1.071   0.729   4.118 -0.4205 -0.0087 -0.0374
 2475SOL    HW1 7670   1.054   0.820   4.092  0.3195  1.3506  3.6881
 2475SOL    HW2 7671   1.154   0.733   4.166 -1.7414 -2.0779  2.6623
 2476SOL     OW 7672   5.072   2.462   2.160 -0.2880 -0.2992  0.1042
 2476SOL    HW1 7673   5.118   2.384   2.190  2.1342 -0.6502 -3.8230
 2476SOL    HW2 7674   5.103   2.532   2.217  0.6052 -1.5352  1.1838
 2477SOL     OW 7675   3.420   3.179   3.030 -0.3769  0.2188 -0.6658
 2477SOL    HW1 7676   3.327   3.194   3.046 -0.2203  0.2464  0.3275
 2477SOL    HW2 7677   3.463   3.211   3.110  0.3394 -1.2592 -0.4219
 2478SOL     OW 7678   5.402   5.075   1.582 -0.1317  0.1617  0.1358
 2478SOL    HW1 7679   5.450   5.146   1.626 -1.2538  0.0039  1.6804
 2478SOL    HW2 7680   5.470   5.010   1.563  1.4109  2.5042 -3.4879
 2479SOL     OW 7681   2.407   3.926   3.741  0.0214 -0.5167 -0.1975
 2479SOL    HW1 7682   2.355   3.901   3.664  2.7597 -1.2124 -1.9573
 2479SOL    HW2 7683   2.466   3.852   3.755  2.2558  1.2134  0.0909
 2480SOL     OW 7684   5.487   0.593   5.303  0.1499  0.1051 -0.1205
 2480SOL    HW1 7685   5.531   0.628   5.379  1.1157  0.9836 -1.0548
 2480SOL    HW2 7686   5.538   0.625   5.228  0.2248 -2.0842 -1.0887
 2481SOL     OW 7687   2.525   5.942   3.806  0.7808 -0.2601  0.3899
 2481SOL    HW1 7688   2.431   5.962   3.805  0.1255 -2.9597 -0.4218
 2481SOL    HW2 7689   2.567   6.023   3.776 -1.2314  1.1661  1.2146
 2482SOL     OW 7690   5.996   4.175   4.603 -0.0147 -0.3325 -0.2218
 2482SOL    HW1 7691   5.962   4.137   4.684 -0.9855 -1.4014 -1.0916
 2482SOL    HW2 7692   6.084   4.204   4.625 -0.1296 -0.9094  1.1203
 2483SOL     OW 7693   6.119   4.638   4.457  0.0343  0.5969  0.0993
 2483SOL    HW1 7694   6.182   4.583   4.410 -0.1918 -0.8842  1.4681
 2483SOL    HW2 7695   6.053   4.577   4.490  0.0362  1.6227  2.1166
 2484SOL     OW 7696   1.957   1.577   0.572 -0.1059 -0.0046  0.4938
 2484SOL    HW1 7697   1.903   1.543   0.500  0.3162  0.3252  0.0189
 2484SOL    HW2 7698   2.031   1.517   0.576  0.6082  0.7948 -0.3024
 2485SOL     OW 7699   1.586   5.428   5.271  0.0864 -0.1467  0.7482
 2485SOL    HW1 7700   1.640   5.436   5.192  0.6956 -0.6177  1.1103
 2485SOL    HW2 7701   1.586   5.516   5.308 -1.1753  0.3626 -0.3916
 2486SOL     OW 7702   0.920   2.648   2.883 -0.0730  0.0974  0.0885
 2486SOL    HW1 7703   0.843   2.604   2.846 -0.6066  1.7401 -0.8581
 2486SOL    HW2 7704   0.994   2.611   2.836 -0.4343 -0.3471 -0.1409
 2487SOL     OW 7705   2.930   6.128   4.989  0.8658  0.4049 -0.6423
 2487SOL    HW1 7706   2.913   6.130   5.083  1.2428  2.2099 -0.5891
 2487SOL    HW2 7707   2.862   6.183   4.950  0.3336 -0.8222 -1.5181
 2488SOL     OW 7708   1.989   4.670   5.096 -0.1644  0.4560 -0.5088
 2488SOL    HW1 7709   2.050   4.743   5.107  1.0708 -0.6067 -0.0933
 2488SOL    HW2 7710   2.008   4.635   5.010  1.7206 -1.4997  0.5988
 2489SOL     OW 7711   3.010   3.348   0.554  0.2559  0.0907  0.2876
 2489SOL    HW1 7712   2.947   3.299   0.500  2.3133 -0.2919 -1.9021
 2489SOL    HW2 7713   2.992   3.319   0.644 -2.5422 -0.1092 -0.2453
 2490SOL     OW 7714   1.264   2.923   0.461 -0.0161  0.2030 -0.1968
 2490SOL    HW1 7715   1.262   3.018   0.450  2.4670  0.2624 -0.7790
 2490SOL    HW2 7716   1.202   2.890   0.396  0.5757  1.3751 -1.4073
 2491SOL     OW 7717   3.473   0.947   3.493 -0.1251 -0.4169  0.5584
 2491SOL    HW1 7718   3.385   0.980   3.513  0.0302  0.8237 -0.6677
 2491SOL    HW2 7719   3.531   1.006   3.542  0.1270  0.8165 -1.1380
 2492SOL     OW 7720   4.604   3.080   2.311  0.1386  0.2633  0.3402
 2492SOL    HW1 7721   4.567   2.995   2.289 -1.3122  0.7540  0.7726
 2492SOL    HW2 7722   4.540   3.143   2.280  1.8348  1.3077 -1.2434
 2493SOL     OW 7723   1.820   1.568   1.461  0.2489  0.0549  0.6722
 2493SOL    HW1 7724   1.794   1.645   1.511 -2.4070 -0.2632 -0.0339
 2493SOL    HW2 7725   1.828   1.498   1.525  1.0298  0.5302  1.1100
 2494SOL     OW 7726   3.979   0.551   5.346 -0.2948 -0.3422  0.0977
 2494SOL    HW1 7727   3.898   0.522   5.388  1.9412 -4.4515  2.1885
 2494SOL    HW2 7728   4.035   0.578   5.419  1.5642 -1.6053 -0.7969
 2495SOL     OW 7729   1.856   5.775   4.815  0.5139 -0.8659 -0.1851
 2495SOL    HW1 7730   1.788   5.774   4.747  0.0192  0.5651  0.2566
 2495SOL    HW2 7731   1.901   5.858   4.803  2.4295 -1.8904 -0.6533
 2496SOL     OW 7732   4.476   4.094   1.481  0.3088 -0.0771 -0.1672
 2496SOL    HW1 7733   4.431   4.173   1.512  1.3274  0.1688  0.7404
 2496SOL    HW2 7734   4.418   4.058   1.414 -1.4398 -0.0133  1.2510
 2497SOL     OW 7735   3.794   2.733   4.903  0.3112 -0.5016  0.2782
 2497SOL    HW1 7736   3.848   2.809   4.881  0.8174 -0.6172  1.1082
 2497SOL    HW2 7737   3.704   2.763   4.891  0.5332 -0.5272 -1.8685
 2498SOL     OW 7738   2.003   3.316   5.239  0.0917 -0.2060 -0.2125
 2498SOL    HW1 7739   1.916   3.346   5.212 -1.6788 -1.5077  3.3256
 2498SOL    HW2 7740   2.034   3.383   5.299 -1.3054 -2.3021  3.1686
 2499SOL     OW 7741   2.496   5.139   5.155  0.2708 -0.4001  0.2833
 2499SOL    HW1 7742   2.570   5.080   5.167  1.3715  0.9090  0.1258
 2499SOL    HW2 7743   2.443   5.097   5.087 -0.3088 -2.4249  1.8686
 2500SOL     OW 7744   4.488   4.225   5.307 -0.0609 -0.2417  0.0931
 2500SOL    HW1 7745   4.537   4.178   5.239 -0.4841 -0.4476 -0.0771
 2500SOL    HW2 7746   4.541   4.216   5.386 -0.4416 -1.5777  0.2261
 2501SOL     OW 7747   2.957   3.381   2.807 -0.3392  0.5612 -0.1713
 2501SOL    HW1 7748   3.024   3.382   2.738 -0.9258 -0.6436 -0.7937
 2501SOL    HW2 7749   2.976   3.302   2.857 -1.2104  0.2704 -0.2857
 2502SOL     OW 7750   1.394   2.992   2.932  0.1968  0.1620  0.7968
 2502SOL    HW1 7751   1.483   2.983   2.966  1.0164  0.7588 -1.0394
 2502SOL    HW2 7752   1.369   2.903   2.906  0.8890  0.1960 -0.0634
 2503SOL     OW 7753   0.827   5.651   4.703  0.1937 -0.0285 -0.2544
 2503SOL    HW1 7754   0.913   5.644   4.662  1.3922  0.2109  2.0517
 2503SOL    HW2 7755   0.781   5.718   4.653  0.7228 -1.2220 -2.4806
 2504SOL     OW 7756   3.329   4.090   0.713  0.6713  0.3277 -0.3473
 2504SOL    HW1 7757   3.319   4.174   0.669  0.0660 -0.4420 -1.7033
 2504SOL    HW2 7758   3.418   4.093   0.749  0.5753  1.6272 -0.1814
 2505SOL     OW 7759   3.526   5.185   2.258  0.1149  0.3410  0.1749
 2505SOL    HW1 7760   3.514   5.280   2.254  0.3455  0.3830  0.4486
 2505SOL    HW2 7761   3.615   5.173   2.291  0.3026  0.0295 -0.4306
 2506SOL     OW 7762   4.797   1.939   1.208 -0.4552  0.1175 -0.0921
 2506SOL    HW1 7763   4.738   1.994   1.258  0.1121  0.2977  0.3860
 2506SOL    HW2 7764   4.817   1.990   1.129  0.4105  0.7984  0.5471
 2507SOL     OW 7765   2.565   2.969   3.503 -0.3492  0.2203  0.0602
 2507SOL    HW1 7766   2.504   2.989   3.432 -2.3572 -0.5642  1.4678
 2507SOL    HW2 7767   2.580   3.053   3.546 -1.5168  0.2341  0.4797
 2508SOL     OW 7768   1.062   5.675   1.397 -0.1281  0.0132  0.2299
 2508SOL    HW1 7769   0.983   5.698   1.349 -0.7321 -0.1490  1.1082
 2508SOL    HW2 7770   1.110   5.757   1.406 -0.8454  0.3835  0.8141
 2509SOL     OW 7771   3.390   6.001   2.993 -0.1722  0.1774  0.0254
 2509SOL    HW1 7772   3.301   5.991   3.025  0.2540 -1.8883  0.7374
 2509SOL    HW2 7773   3.445   5.974   3.066  1.0469  1.0278 -0.5368
 2510SOL     OW 7774   4.804   0.616   4.465 -0.3230  0.6203 -0.7330
 2510SOL    HW1 7775   4.735   0.597   4.403 -0.5728  0.2381 -0.3472
 2510SOL    HW2 7776   4.840   0.700   4.437 -0.3875  0.4207 -1.4265
 2511SOL     OW 7777   5.043   4.546   2.893 -0.1301 -0.1431 -0.3900
 2511SOL    HW1 7778   4.978   4.613   2.913  0.9796  0.4720  1.4444
 2511SOL    HW2 7779   5.113   4.561   2.956  0.4866 -2.6122 -0.3662
 2512SOL     OW 7780   5.289   0.589   4.022  0.1881 -0.2482  0.1831
 2512SOL    HW1 7781   5.208   0.537   4.021  0.5843 -0.8743 -0.4837
 2512SOL    HW2 7782   5.358   0.526   4.038  0.9215 -0.3552 -2.8353
 2513SOL     OW 7783   0.897   1.951   0.846 -0.0788 -0.5302  0.1579
 2513SOL    HW1 7784   0.843   1.910   0.913  0.9695 -1.0970  0.6769
 2513SOL    HW2 7785   0.834   1.995   0.788 -1.2533 -2.9116 -0.4896
 2514SOL     OW 7786   0.107   1.614   4.997 -0.0505 -0.3571 -0.1907
 2514SOL    HW1 7787   0.120   1.523   4.971 -1.7413 -0.7641  0.3273
 2514SOL    HW2 7788   0.177   1.631   5.060 -0.5094 -1.7202  0.7225
 2515SOL     OW 7789   1.182   5.261   1.527  0.0596  0.0931 -0.5120
 2515SOL    HW1 7790   1.143   5.335   1.575 -0.9372  0.8916 -2.4430
 2515SOL    HW2 7791   1.234   5.302   1.458  1.9614 -1.0180  0.1981
 2516SOL     OW 7792   3.707   3.549   4.048  0.3527 -0.6730  0.1592
 2516SOL    HW1 7793   3.643   3.555   3.977  0.1055 -1.4789  0.3065
 2516SOL    HW2 7794   3.760   3.472   4.027 -0.1770 -1.3571  1.1974
 2517SOL     OW 7795   5.121   3.257   3.633  0.1322  0.0628  0.2575
 2517SOL    HW1 7796   5.053   3.284   3.571  0.5500 -1.4937 -0.9440
 2517SOL    HW2 7797   5.136   3.165   3.613  1.4524 -0.0558  1.6066
 2518SOL     OW 7798   1.645   2.393   1.624 -0.1136  0.4009  0.0873
 2518SOL    HW1 7799   1.740   2.407   1.626 -0.2800  1.7934 -0.5178
 2518SOL    HW2 7800   1.609   2.475   1.658 -1.1245  0.3089 -0.7419
 2519SOL     OW 7801   4.411   0.964   2.279  0.2262 -0.3343  0.0588
 2519SOL    HW1 7802   4.489   0.911   2.264  0.0588 -0.2545 -1.1938
 2519SOL    HW2 7803   4.385   0.994   2.192 -0.9858 -0.0462  0.4998
 2520SOL     OW 7804   3.406   4.068   1.469  0.3620  0.4717 -0.4393
 2520SOL    HW1 7805   3.452   3.988   1.493  0.9889  1.2902  1.2431
 2520SOL    HW2 7806   3.428   4.130   1.538 -1.3450  1.6358 -0.8670
 2521SOL     OW 7807   5.964   3.464   4.284 -0.0929 -0.0169  0.0446
 2521SOL    HW1 7808   6.050   3.503   4.302  0.9380 -1.0137 -2.2738
 2521SOL    HW2 7809   5.922   3.526   4.224 -1.1046  0.5578  1.3184
 2522SOL     OW 7810   0.229   3.493   3.037  0.0573  0.8542  0.3872
 2522SOL    HW1 7811   0.182   3.500   2.954  0.8929 -4.4769 -0.8711
 2522SOL    HW2 7812   0.161   3.494   3.104 -1.1187  0.3924 -0.7803
 2523SOL     OW 7813   5.086   2.120   4.080  0.3600 -0.3593 -0.0439
 2523SOL    HW1 7814   5.146   2.194   4.087 -2.3262  1.9789  0.2408
 2523SOL    HW2 7815   5.050   2.127   3.992  0.2279 -1.4676 -0.0874
 2524SOL     OW 7816   5.320   4.378   2.412  0.2342  0.7451 -0.1582
 2524SOL    HW1 7817   5.407   4.338   2.406  0.7025  1.6288  0.5045
 2524SOL    HW2 7818   5.283   4.343   2.493  0.8100  1.9217  0.6422
 2525SOL     OW 7819   0.113   3.629   2.821 -0.1615  0.6982  0.1665
 2525SOL    HW1 7820   0.025   3.616   2.786 -0.1797 -0.4250  0.5896
 2525SOL    HW2 7821   0.170   3.630   2.744 -0.1185 -2.3734  0.0272
 2526SOL     OW 7822   0.304   2.320   4.543  0.7391 -0.0367  0.0257
 2526SOL    HW1 7823   0.219   2.280   4.557  1.3223 -1.0421  0.8908
 2526SOL    HW2 7824   0.297   2.365   4.459 -0.8613  0.5436  0.4447
 2527SOL     OW 7825   0.914   0.050   6.125  0.2778 -0.3151  0.1741
 2527SOL    HW1 7826   0.974   0.073   6.196  0.4437 -2.0104  0.6131
 2527SOL    HW2 7827   0.864  -0.024   6.159 -0.8323 -0.0693 -0.8620
 2528SOL     OW 7828   0.421   4.201   3.582  0.1283  0.3792  0.4685
 2528SOL    HW1 7829   0.352   4.178   3.521  0.3719 -0.5350  0.5274
 2528SOL    HW2 7830   0.498   4.216   3.527  0.4197 -0.7237  0.5595
 2529SOL     OW 7831   5.146   1.885   2.984 -0.1074 -0.7161  0.1129
 2529SOL    HW1 7832   5.166   1.966   2.936 -2.4665 -0.2148 -0.1713
 2529SOL    HW2 7833   5.186   1.816   2.932 -0.3061  0.0593 -1.1324
 2530SOL     OW 7834   4.774   1.479   1.724 -0.2316  0.3393  0.0502
 2530SOL    HW1 7835   4.848   1.504   1.780 -0.2673  0.6299 -0.0287
 2530SOL    HW2 7836   4.704   1.458   1.785  0.0700 -0.4386  0.1368
 2531SOL     OW 7837   4.543   2.495   4.893  0.3063 -0.3885  0.3392
 2531SOL    HW1 7838   4.612   2.559   4.908  1.6609 -1.4314 -1.0418
 2531SOL    HW2 7839   4.531   2.453   4.978  0.1155  0.9827  1.0138
 2532SOL     OW 7840   1.809   3.492   1.768 -0.0006  0.3599 -0.1530
 2532SOL    HW1 7841   1.720   3.458   1.754  0.5425 -0.7095 -1.1717
 2532SOL    HW2 7842   1.796   3.569   1.824 -1.6380  0.6300 -0.8210
 2533SOL     OW 7843   2.310   5.819   4.214  0.6789 -0.2776 -0.3362
 2533SOL    HW1 7844   2.363   5.894   4.242 -0.8859  0.7839 -0.0849
 2533SOL    HW2 7845   2.272   5.847   4.131  0.6030 -1.0595 -0.5660
 2534SOL     OW 7846   1.148   2.025   5.572 -0.2216  0.5501  0.2246
 2534SOL    HW1 7847   1.183   1.959   5.513  0.4099  0.5946  0.5415
 2534SOL    HW2 7848   1.079   1.980   5.620  0.5618 -0.0563  0.8231
 2535SOL     OW 7849   2.841   2.515   5.012  0.5747 -0.0478  1.2245
 2535SOL    HW1 7850   2.925   2.472   5.026  0.1334 -1.2065  0.4348
 2535SOL    HW2 7851   2.776   2.447   5.028 -0.2049  0.6704  1.2112
 2536SOL     OW 7852   2.071   5.621   0.257  0.3021  0.2864 -0.4332
 2536SOL    HW1 7853   2.166   5.618   0.266  0.2407 -0.6130  0.1185
 2536SOL    HW2 7854   2.042   5.534   0.284 -1.0379  1.8827  4.3862
 2537SOL     OW 7855   5.601   0.859   0.467  0.1748  0.4873 -0.0568
 2537SOL    HW1 7856   5.636   0.783   0.513  0.4645  1.7738  2.0139
 2537SOL    HW2 7857   5.660   0.872   0.393  1.4236 -0.0248  0.8174
 2538SOL     OW 7858   2.757   2.707   5.942  0.3363 -0.7723  0.0250
 2538SOL    HW1 7859   2.794   2.722   6.029  0.4051  0.6394 -0.2268
 2538SOL    HW2 7860   2.663   2.713   5.954  0.3780  1.1063 -0.2408
 2539SOL     OW 7861   3.260   1.676   2.475  0.4383 -0.0235  0.2962
 2539SOL    HW1 7862   3.207   1.596   2.480  1.1238 -0.4447  1.1130
 2539SOL    HW2 7863   3.292   1.677   2.385  3.2181 -2.5558  1.1012
 2540SOL     OW 7864   1.585   4.854   1.755  0.0699  0.1465 -0.3114
 2540SOL    HW1 7865   1.596   4.934   1.807  3.0753 -1.6010  2.1365
 2540SOL    HW2 7866   1.670   4.840   1.714 -0.3505 -1.7709 -0.6326
 2541SOL     OW 7867   3.658   4.458   5.506 -0.3533 -0.0255  0.3569
 2541SOL    HW1 7868   3.740   4.420   5.474 -1.6495 -2.6421 -0.1174
 2541SOL    HW2 7869   3.642   4.533   5.448  0.8240 -0.5179 -0.6448
 2542SOL     OW 7870   5.411   3.405   0.351  0.2537  0.5212 -0.1925
 2542SOL    HW1 7871   5.485   3.354   0.319  0.8481  0.6928  0.8489
 2542SOL    HW2 7872   5.443   3.444   0.433 -1.1069  0.3119  0.4620
 2543SOL     OW 7873   2.554   1.397   0.081 -0.5739 -0.2575 -0.6141
 2543SOL    HW1 7874   2.558   1.370   0.173 -1.1190 -0.8010 -0.7432
 2543SOL    HW2 7875   2.629   1.455   0.070  1.0053 -2.1662 -0.4733
 2544SOL     OW 7876   5.266   1.970   0.045  0.2673  0.3988 -0.2253
 2544SOL    HW1 7877   5.327   2.043   0.034  0.5270  0.2407  0.1472
 2544SOL    HW2 7878   5.290   1.908  -0.022  0.3647  0.4396 -0.2277
 2545SOL     OW 7879   5.835   6.085   4.475  0.1313 -0.5007  0.2467
 2545SOL    HW1 7880   5.768   6.017   4.467  0.3692 -0.4762 -3.0682
 2545SOL    HW2 7881   5.913   6.047   4.435  0.5257  1.3925 -0.8946
 2546SOL     OW 7882   3.767   2.994   5.880 -0.3339  0.2606  0.6471
 2546SOL    HW1 7883   3.831   3.065   5.879 -1.0316  0.9445  1.6331
 2546SOL    HW2 7884   3.795   2.937   5.952  0.1508 -0.4177 -0.0577
 2547SOL     OW 7885   1.115   0.998   1.895  0.7159 -0.0028  0.1393
 2547SOL    HW1 7886   1.142   0.934   1.961 -0.4441  0.0662  0.7058
 2547SOL    HW2 7887   1.074   1.068   1.946  3.2768  1.9689 -0.3072
 2548SOL     OW 7888   2.895   4.692   4.630 -0.1137 -0.0609  0.7323
 2548SOL    HW1 7889   2.940   4.748   4.566 -1.0420 -0.0908  0.0194
 2548SOL    HW2 7890   2.940   4.709   4.712  0.0023  1.3206  0.4177
 2549SOL     OW 7891   5.074   5.256   4.379 -0.2311  0.0962  0.0280
 2549SOL    HW1 7892   5.048   5.334   4.330 -0.1286  0.1055 -0.0123
 2549SOL    HW2 7893   5.035   5.268   4.465 -1.5078 -0.5392 -0.4391
 2550SOL     OW 7894   0.262   5.859   4.990  0.1658  0.0283  0.5473
 2550SOL    HW1 7895   0.357   5.852   4.997  0.3302 -0.3620 -1.6140
 2550SOL    HW2 7896   0.229   5.783   5.039  0.9827 -0.2598  0.6628
 2551SOL     OW 7897   1.251   0.845   6.059  0.2008  0.2306  0.9623
 2551SOL    HW1 7898   1.279   0.927   6.020  0.7177 -0.6572 -0.6118
 2551SOL    HW2 7899   1.330   0.792   6.065 -0.3933 -0.7639  0.3859
 2552SOL     OW 7900   0.512   2.058   3.459 -0.4013 -0.2461  0.2065
 2552SOL    HW1 7901   0.454   1.993   3.498 -3.4324  1.7631 -0.6518
 2552SOL    HW2 7902   0.526   2.027   3.369 -0.3737 -0.5960  0.3310
 2553SOL     OW 7903   3.744   0.571   6.105 -0.3042  0.1418 -0.2499
 2553SOL    HW1 7904   3.798   0.628   6.161  0.2706 -0.0551 -0.5959
 2553SOL    HW2 7905   3.805   0.506   6.071 -0.3733  0.9935 -2.1004
 2554SOL     OW 7906   4.072   5.739   3.729 -0.2557  0.2540 -0.3659
 2554SOL    HW1 7907   4.116   5.801   3.787  1.0465 -1.9942  1.2177
 2554SOL    HW2 7908   4.143   5.698   3.679 -1.1928  0.7945 -2.2350
 2555SOL     OW 7909   0.933   4.558   5.785  0.6667 -0.0266  0.7198
 2555SOL    HW1 7910   0.861   4.615   5.812  1.6875  1.3939  0.5026
 2555SOL    HW2 7911   0.959   4.512   5.865 -0.8669 -1.0563  0.6785
 2556SOL     OW 7912   1.417   4.323   2.729  0.2034 -0.0386 -0.0959
 2556SOL    HW1 7913   1.459   4.374   2.660  0.1810  0.0078 -0.0753
 2556SOL    HW2 7914   1.474   4.335   2.805  0.1237  0.0710 -0.0522
 2557SOL     OW 7915   3.815   4.335   3.704  0.3603 -0.3954  0.2867
 2557SOL    HW1 7916   3.885   4.293   3.653  0.0334 -1.5257  0.7424
 2557SOL    HW2 7917   3.851   4.421   3.727  1.2952 -0.6552 -0.1414
 2558SOL     OW 7918   5.439   2.660   2.412 -0.3334  0.0512  0.2296
 2558SOL    HW1 7919   5.462   2.743   2.370  2.0151 -0.6211  0.0855
 2558SOL    HW2 7920   5.511   2.643   2.473 -0.2312 -2.3825 -0.4870
 2559SOL     OW 7921   6.074   5.517   2.486  0.5006 -0.4484 -0.0507
 2559SOL    HW1 7922   6.082   5.559   2.571  2.0028 -1.2678  0.2509
 2559SOL    HW2 7923   6.066   5.424   2.506 -1.3104 -0.4733 -0.7551
 2560SOL     OW 7924   6.082   1.911   3.415 -0.1329  0.5355  0.4389
 2560SOL    HW1 7925   6.058   1.899   3.506 -1.1390  0.5329  0.1858
 2560SOL    HW2 7926   6.041   1.994   3.390 -0.8860 -0.0484 -0.3319
 2561SOL     OW 7927   2.738   3.097   2.033  0.8963 -0.3471 -0.3898
 2561SOL    HW1 7928   2.683   3.020   2.014  0.6270 -0.3216  0.2665
 2561SOL    HW2 7929   2.676   3.164   2.062  1.1337  0.1208 -0.9481
 2562SOL     OW 7930   4.560   0.671   3.030  0.5146  0.1161  0.2464
 2562SOL    HW1 7931   4.506   0.728   2.975 -1.7622 -0.4737  1.7106
 2562SOL    HW2 7932   4.498   0.607   3.066  2.4762 -1.5007  0.9318
 2563SOL     OW 7933   1.939   4.970   1.780 -0.2124  0.1097 -0.2742
 2563SOL    HW1 7934   1.994   4.954   1.703 -1.8994  1.3568 -1.8087
 2563SOL    HW2 7935   1.860   4.918   1.764 -1.4316  1.9283 -0.4209
 2564SOL     OW 7936   2.493   5.355   1.937  0.8453 -0.9655  0.9791
 2564SOL    HW1 7937   2.424   5.295   1.966  0.3056 -0.8366  0.0244
 2564SOL    HW2 7938   2.529   5.391   2.018 -0.7210 -0.4718  1.4967
 2565SOL     OW 7939   5.912   0.225   4.392  0.0143  0.7179 -0.1469
 2565SOL    HW1 7940   5.914   0.152   4.454 -2.4634  0.2344 -0.5402
 2565SOL    HW2 7941   5.946   0.188   4.310 -0.0963  0.3495 -0.0281
 2566SOL     OW 7942   5.792   4.423   5.520  0.4980 -0.8066  0.3202
 2566SOL    HW1 7943   5.784   4.471   5.602  0.5763 -0.9709  0.4227
 2566SOL    HW2 7944   5.834   4.485   5.460  0.8526 -0.8428  0.5312
 2567SOL     OW 7945   4.074   1.566   2.598  0.2260 -0.3905 -0.0871
 2567SOL    HW1 7946   4.079   1.576   2.503  0.3278 -1.3634 -0.2008
 2567SOL    HW2 7947   3.986   1.533   2.614  0.4936 -1.0750  0.0514
 2568SOL     OW 7948   4.609   1.966   6.076  0.5498 -0.1072  0.2325
 2568SOL    HW1 7949   4.593   1.912   6.153  2.7793 -1.0924  0.0657
 2568SOL    HW2 7950   4.658   1.909   6.016  0.4815  1.2141 -1.1446
 2569SOL     OW 7951   4.365   5.167   3.377 -0.4500  0.1730  0.6980
 2569SOL    HW1 7952   4.416   5.161   3.296  0.6233 -4.5292  1.4314
 2569SOL    HW2 7953   4.427   5.201   3.442 -0.2105  0.5128  0.2965
 2570SOL     OW 7954   3.577   0.122   2.292  0.3545 -0.2379 -0.1993
 2570SOL    HW1 7955   3.640   0.182   2.332  0.4889  0.0174 -0.7895
 2570SOL    HW2 7956   3.498   0.175   2.278 -0.0417 -0.5852  0.6438
 2571SOL     OW 7957   4.384   0.348   1.035 -0.3850 -0.1405 -0.3216
 2571SOL    HW1 7958   4.396   0.284   1.104 -1.1241  0.8358  0.7517
 2571SOL    HW2 7959   4.411   0.431   1.074 -0.9019  0.4388 -1.1624
 2572SOL     OW 7960   3.466   1.766   4.060 -0.0278  0.0037  0.0132
 2572SOL    HW1 7961   3.390   1.822   4.049  0.2756  0.1455 -1.5995
 2572SOL    HW2 7962   3.541   1.824   4.046  0.3051 -0.6160 -0.8661
 2573SOL     OW 7963   5.811   5.864   0.674  0.3859  0.4521  0.3767
 2573SOL    HW1 7964   5.838   5.897   0.588 -3.2434  0.5929 -0.8805
 2573SOL    HW2 7965   5.878   5.894   0.734  1.1662  3.6028 -1.8620
 2574SOL     OW 7966   0.806   4.762   2.567  0.3725  0.1334 -0.2960
 2574SOL    HW1 7967   0.854   4.819   2.506  1.5839 -0.9717 -0.4094
 2574SOL    HW2 7968   0.871   4.698   2.597 -0.6891 -0.5377  0.6678
 2575SOL     OW 7969   1.873   3.311   0.205  0.1135 -0.1237 -0.3245
 2575SOL    HW1 7970   1.867   3.406   0.203  1.7076  0.0465  1.3153
 2575SOL    HW2 7971   1.808   3.284   0.271 -0.1176 -0.1633 -0.5651
 2576SOL     OW 7972   5.814   5.826   3.210  0.5109 -0.2228 -0.1535
 2576SOL    HW1 7973   5.804   5.804   3.117 -1.8875  1.1873 -0.3123
 2576SOL    HW2 7974   5.783   5.749   3.257 -2.2911  0.5166 -0.6381
 2577SOL     OW 7975   2.933   1.932   2.002  0.3049 -0.1276 -0.1380
 2577SOL    HW1 7976   2.892   1.995   1.943 -0.6612 -0.2054  0.4270
 2577SOL    HW2 7977   3.025   1.959   2.006  0.3651 -0.0718 -1.5935
 2578SOL     OW 7978   0.823   1.085   5.982  0.1358  0.4237 -0.9949
 2578SOL    HW1 7979   0.829   0.999   5.942 -0.1201 -0.0887  0.0517
 2578SOL    HW2 7980   0.729   1.100   5.995  0.2689 -0.2719  1.1696
 2579SOL     OW 7981   4.311   1.090   2.045 -0.1825  0.2829  0.3384
 2579SOL    HW1 7982   4.259   1.126   2.118 -2.5978 -1.9190 -0.1201
 2579SOL    HW2 7983   4.270   1.126   1.967 -0.4585 -0.7580 -0.0121
 2580SOL     OW 7984   1.268   5.459   3.706 -0.5884  0.0597 -0.1113
 2580SOL    HW1 7985   1.177   5.430   3.699 -0.7409  0.2566  0.9076
 2580SOL    HW2 7986   1.268   5.517   3.782  0.7439 -1.3692  1.0284
 2581SOL     OW 7987   4.819   2.033   4.156  0.2054  0.1492  0.0560
 2581SOL    HW1 7988   4.907   2.051   4.125 -0.1117  1.0769 -0.3351
 2581SOL    HW2 7989   4.773   1.999   4.079  0.0314  0.3284  0.0802
 2582SOL     OW 7990   6.092   0.058   2.739 -0.2684  0.0625  0.4394
 2582SOL    HW1 7991   6.042   0.009   2.804  1.0459 -0.6684  0.9464
 2582SOL    HW2 7992   6.180   0.065   2.777  0.1291  0.9317 -0.5954
 2583SOL     OW 7993   0.819   1.924   1.361  0.8042 -0.2324 -0.1192
 2583SOL    HW1 7994   0.914   1.914   1.368  1.0606 -0.8875 -3.2937
 2583SOL    HW2 7995   0.804   2.018   1.368  1.7937 -0.0400 -0.4175
 2584SOL     OW 7996   1.225   0.611   1.249 -0.1718  0.0241  0.4251
 2584SOL    HW1 7997   1.140   0.645   1.276  0.2708  1.4033  0.1681
 2584SOL    HW2 7998   1.287   0.680   1.273  0.7149 -0.3910 -0.5974
 2585SOL     OW 7999   0.192   0.781   5.602  0.0014  0.3309 -0.0498
 2585SOL    HW1 8000   0.128   0.770   5.672 -2.2468 -0.8657 -2.1415
 2585SOL    HW2 8001   0.263   0.722   5.624 -1.3878 -1.2107  0.4858
 2586SOL     OW 8002   1.123   4.580   5.008  0.2337 -0.5109 -0.1722
 2586SOL    HW1 8003   1.095   4.672   5.002 -0.7527 -0.6682  1.5010
 2586SOL    HW2 8004   1.217   4.583   4.987  0.2199  0.8792 -0.1581
 2587SOL     OW 8005   0.634   2.205   0.055 -0.6671 -0.3389  0.1106
 2587SOL    HW1 8006   0.578   2.139   0.098  0.9265 -1.2663  0.8364
 2587SOL    HW2 8007   0.671   2.159  -0.020  0.0580 -0.1126  0.3284
 2588SOL     OW 8008   4.984   1.278   3.179 -0.2235 -0.0659  0.5910
 2588SOL    HW1 8009   4.946   1.214   3.119  0.6963  1.0099 -1.2150
 2588SOL    HW2 8010   4.921   1.284   3.251 -1.2430 -1.5769 -0.1316
 2589SOL     OW 8011   4.504   1.660   3.037  0.2952 -0.6049 -0.0189
 2589SOL    HW1 8012   4.583   1.678   2.986  0.0103  2.0266  0.3480
 2589SOL    HW2 8013   4.437   1.640   2.972  0.7572 -0.7804 -0.4489
 2590SOL     OW 8014   2.753   0.831   1.506 -0.3464 -0.3947  0.2569
 2590SOL    HW1 8015   2.804   0.892   1.453 -2.9788  0.3757 -1.6238
 2590SOL    HW2 8016   2.736   0.879   1.588  1.9492 -0.7481  1.0041
 2591SOL     OW 8017   4.500   2.820   1.628  0.3188 -0.0994  0.1751
 2591SOL    HW1 8018   4.461   2.892   1.578  1.4296  1.0461  0.9088
 2591SOL    HW2 8019   4.586   2.807   1.588 -0.3298 -1.8741 -0.7358
 2592SOL     OW 8020   3.828   4.764   0.911 -1.0811 -0.3869 -0.6765
 2592SOL    HW1 8021   3.822   4.834   0.976  0.1606  0.2094 -1.2007
 2592SOL    HW2 8022   3.903   4.712   0.939 -1.2212 -0.7767 -1.0194
 2593SOL     OW 8023   1.564   0.631   1.112  0.5710  0.2788 -0.3280
 2593SOL    HW1 8024   1.512   0.556   1.082 -0.7203  1.3647 -0.9152
 2593SOL    HW2 8025   1.647   0.593   1.140  0.1720 -1.3068 -1.1682
 2594SOL     OW 8026   5.027   3.432   4.160  0.0857  0.2693 -0.5491
 2594SOL    HW1 8027   5.035   3.337   4.171 -1.6650  0.1206 -0.2770
 2594SOL    HW2 8028   5.051   3.468   4.245  1.1981  0.1311 -0.7818
 2595SOL     OW 8029   0.407   3.875   0.927  0.5279  0.1974  0.3391
 2595SOL    HW1 8030   0.485   3.857   0.874  0.7251 -0.3569  0.8146
 2595SOL    HW2 8031   0.437   3.865   1.017 -0.3031 -0.8683  0.5115
 2596SOL     OW 8032   5.300   1.646   3.235  0.3268 -0.1459  0.0849
 2596SOL    HW1 8033   5.360   1.616   3.167  1.4924  0.5652  0.7651
 2596SOL    HW2 8034   5.226   1.585   3.231  0.9464 -0.8448 -0.9896
 2597SOL     OW 8035   6.068   4.831   2.472  0.3274 -0.2033 -0.4173
 2597SOL    HW1 8036   5.983   4.797   2.502  0.3505  0.9208  1.1106
 2597SOL    HW2 8037   6.111   4.861   2.553  2.0196 -0.3875 -1.2119
 2598SOL     OW 8038   4.546   3.739   2.594 -0.4190  0.1824 -0.6694
 2598SOL    HW1 8039   4.523   3.660   2.643  0.7372  0.9372  1.1925
 2598SOL    HW2 8040   4.543   3.712   2.502 -1.4366 -1.6261 -0.1591
 2599SOL     OW 8041   3.591   5.972   3.589 -0.3030  0.4127  0.5193
 2599SOL    HW1 8042   3.619   5.901   3.647 -1.0314 -0.0438  0.3199
 2599SOL    HW2 8043   3.639   5.958   3.508 -1.2911 -0.5492  0.0711
 2600SOL     OW 8044   3.477   2.990   2.581  0.0587 -0.6808 -0.2090
 2600SOL    HW1 8045   3.461   2.987   2.675  0.9237  0.1700 -0.0148
 2600SOL    HW2 8046   3.565   2.955   2.571  1.3656  2.2995 -0.2761
 2601SOL     OW 8047   3.626   4.964   4.995  0.5259  0.0040  0.4057
 2601SOL    HW1 8048   3.563   4.979   4.924 -2.1287 -0.4230  2.5042
 2601SOL    HW2 8049   3.653   4.873   4.985  0.4538  0.0507 -0.2411
 2602SOL     OW 8050   4.275   4.391   3.499 -0.0988  0.2425  0.1827
 2602SOL    HW1 8051   4.321   4.318   3.457 -1.2848 -1.0926  1.1184
 2602SOL    HW2 8052   4.335   4.420   3.568  1.1793  1.4262 -1.3508
 2603SOL     OW 8053   5.469   3.995   4.506  0.0810 -0.0630 -0.2469
 2603SOL    HW1 8054   5.539   4.009   4.441  0.7901 -3.9684 -0.5641
 2603SOL    HW2 8055   5.388   3.997   4.455  0.1443  1.7077 -0.3425
 2604SOL     OW 8056   4.726   2.874   4.764  0.4235  0.2989 -0.3706
 2604SOL    HW1 8057   4.693   2.959   4.796  2.1203  1.0100 -0.4385
 2604SOL    HW2 8058   4.812   2.894   4.728 -0.0401 -1.0962 -2.3920
 2605SOL     OW 8059   4.253   1.847   1.526  0.7071  0.6056 -0.3017
 2605SOL    HW1 8060   4.317   1.888   1.584  0.4698 -0.4229  0.7317
 2605SOL    HW2 8061   4.181   1.910   1.520  0.4754  0.5047  1.0172
 2606SOL     OW 8062   3.937   4.343   1.319 -0.0628  0.0600  0.2980
 2606SOL    HW1 8063   3.867   4.382   1.372  0.3884  1.4023 -0.0484
 2606SOL    HW2 8064   3.987   4.418   1.288  0.3704 -0.7751 -1.0751
 2607SOL     OW 8065   4.470   2.379   2.836 -0.2016 -0.1582  0.0282
 2607SOL    HW1 8066   4.494   2.289   2.857  1.2434 -0.0164 -0.9156
 2607SOL    HW2 8067   4.505   2.394   2.748  1.7595  2.0575  1.0584
 2608SOL     OW 8068   3.313   3.541   0.430  0.0500 -0.0956 -0.1914
 2608SOL    HW1 8069   3.402   3.553   0.397  0.3617  0.4096  0.7756
 2608SOL    HW2 8070   3.323   3.535   0.525 -0.8878 -0.6906 -0.1153
 2609SOL     OW 8071   2.026   3.736   3.640 -0.3405  0.0920  0.0343
 2609SOL    HW1 8072   2.064   3.675   3.577 -0.9152 -0.4263  0.1801
 2609SOL    HW2 8073   2.057   3.705   3.725 -5.0271 -3.5719  0.7844
 2610SOL     OW 8074   0.561   4.770   4.867  0.4596 -0.4719  0.1304
 2610SOL    HW1 8075   0.610   4.690   4.886  0.8788 -0.4237 -0.7012
 2610SOL    HW2 8076   0.491   4.743   4.807  1.0523 -0.1083 -0.7528
 2611SOL     OW 8077   3.210   2.150   4.743 -0.2217 -0.2154  0.0426
 2611SOL    HW1 8078   3.229   2.058   4.724 -1.1183 -0.8769  2.0697
 2611SOL    HW2 8079   3.294   2.195   4.734  0.3050 -1.2976 -0.5954
 2612SOL     OW 8080   5.812   0.882   4.656  0.1015  0.4174 -0.5469
 2612SOL    HW1 8081   5.775   0.809   4.704  1.4812 -0.4452 -0.7293
 2612SOL    HW2 8082   5.748   0.902   4.588 -0.7536  0.0642  0.1471
 2613SOL     OW 8083   0.372   0.688   3.985 -0.3062 -0.3881 -0.6236
 2613SOL    HW1 8084   0.333   0.668   4.070  0.4446  2.0007  0.3690
 2613SOL    HW2 8085   0.297   0.705   3.928 -0.7952  0.8309  0.3458
 2614SOL     OW 8086   1.400   0.056   3.748  0.1226  0.2779 -0.8757
 2614SOL    HW1 8087   1.340  -0.016   3.724  0.0985  0.2267 -0.6594
 2614SOL    HW2 8088   1.349   0.135   3.734 -0.4328  0.1960  0.5156
 2615SOL     OW 8089   1.326   2.748   3.194 -0.2388 -0.5329  0.2404
 2615SOL    HW1 8090   1.284   2.756   3.279 -0.0118 -1.4508  0.4543
 2615SOL    HW2 8091   1.351   2.837   3.170  0.8332 -0.4122  1.7161
 2616SOL     OW 8092   0.974   1.568   0.835  0.6076 -0.0905  0.4044
 2616SOL    HW1 8093   0.923   1.606   0.763 -0.9310 -1.0371  0.9359
 2616SOL    HW2 8094   0.927   1.595   0.914  0.2763 -1.8845  0.8611
 2617SOL     OW 8095   2.446   5.391   5.884  0.1359  0.4388 -0.4591
 2617SOL    HW1 8096   2.438   5.395   5.980 -0.4325  1.3024 -0.5389
 2617SOL    HW2 8097   2.369   5.343   5.856  0.6955 -0.5018 -0.4409
 2618SOL     OW 8098   4.454   1.925   3.435  0.6743 -0.7410 -0.7497
 2618SOL    HW1 8099   4.378   1.871   3.458  0.0756 -0.7779 -2.6557
 2618SOL    HW2 8100   4.488   1.885   3.355  2.2822 -0.2697 -0.3424
 2619SOL     OW 8101   5.557   2.796   5.883  0.3785  0.4579  0.9402
 2619SOL    HW1 8102   5.489   2.863   5.880  0.7322  0.8797  1.8733
 2619SOL    HW2 8103   5.569   2.770   5.792 -1.0940  0.2996  0.7583
 2620SOL     OW 8104   1.104   1.339   0.963  0.3265 -0.2090  0.0158
 2620SOL    HW1 8105   1.063   1.353   1.049 -1.5087 -1.1251 -0.6531
 2620SOL    HW2 8106   1.082   1.417   0.913  2.6237  0.9993  0.7476
 2621SOL     OW 8107   3.503   1.562   2.794  0.0595  0.4440 -0.9832
 2621SOL    HW1 8108   3.427   1.505   2.788 -0.4415  0.9249  0.4831
 2621SOL    HW2 8109   3.467   1.650   2.801  0.6744  0.5950  0.8032
 2622SOL     OW 8110   0.470   0.064   1.850 -0.6533  0.4273 -0.3854
 2622SOL    HW1 8111   0.414  -0.004   1.887  0.5350 -0.6012 -0.3825
 2622SOL    HW2 8112   0.465   0.050   1.755  0.9782 -0.8840 -0.3268
 2623SOL     OW 8113   4.363   2.513   1.158  0.0446 -0.1536  0.8099
 2623SOL    HW1 8114   4.397   2.590   1.204 -0.0250  0.4075 -0.0751
 2623SOL    HW2 8115   4.294   2.479   1.216 -0.6029  1.0247  0.7412
 2624SOL     OW 8116   0.348   3.700   5.513  0.2270 -0.2377 -0.1901
 2624SOL    HW1 8117   0.397   3.664   5.439  0.8386  0.9357 -0.3842
 2624SOL    HW2 8118   0.410   3.696   5.586  0.3399  0.4798 -0.2377
 2625SOL     OW 8119   5.191   5.344   2.833 -0.0571  0.1475  0.3357
 2625SOL    HW1 8120   5.223   5.277   2.893 -0.2664  0.3448  0.6663
 2625SOL    HW2 8121   5.096   5.341   2.841 -0.0476  0.8746  0.7792
 2626SOL     OW 8122   4.248   4.654   4.017  0.4974  0.2873  0.2546
 2626SOL    HW1 8123   4.276   4.725   3.959 -1.7884  0.6601 -0.4891
 2626SOL    HW2 8124   4.174   4.691   4.065 -0.1641 -1.3062  0.5236
 2627SOL     OW 8125   1.473   1.566   5.249  0.5475 -0.2371 -0.6178
 2627SOL    HW1 8126   1.489   1.525   5.334 -0.6783  0.3080 -0.1001
 2627SOL    HW2 8127   1.444   1.654   5.271 -0.9798 -0.4910 -1.5483
 2628SOL     OW 8128   3.693   5.458   4.846 -0.3253  0.1966  0.1415
 2628SOL    HW1 8129   3.668   5.384   4.901  1.4798 -0.8592 -0.3834
 2628SOL    HW2 8130   3.739   5.517   4.906  0.2015 -0.1788  0.1129
 2629SOL     OW 8131   4.796   3.180   4.754  0.0247  0.1051  0.0554
 2629SOL    HW1 8132   4.784   3.240   4.828 -1.4102  1.0580 -0.8932
 2629SOL    HW2 8133   4.761   3.228   4.679  0.4250 -1.2713 -1.0460
 2630SOL     OW 8134   0.768   0.697   4.084 -0.0595 -0.3178 -0.5200
 2630SOL    HW1 8135   0.862   0.686   4.103  0.1678  0.9260 -0.8146
 2630SOL    HW2 8136   0.765   0.768   4.020 -0.9896 -2.5462 -3.1321
 2631SOL     OW 8137   3.511   6.133   1.613  0.5962 -0.5855 -0.0024
 2631SOL    HW1 8138   3.524   6.100   1.524 -1.7634 -1.6050 -0.0657
 2631SOL    HW2 8139   3.439   6.080   1.647  1.9516 -0.7726  2.8337
 2632SOL     OW 8140   3.205   1.741   1.818 -0.7478 -0.3285 -0.5448
 2632SOL    HW1 8141   3.185   1.818   1.763  0.1534 -0.5666 -1.2333
 2632SOL    HW2 8142   3.175   1.666   1.766 -0.6643 -0.5106 -0.3316
 2633SOL     OW 8143   4.606   4.066   5.765 -0.3988  0.3926  0.2802
 2633SOL    HW1 8144   4.658   4.072   5.845  2.1051  2.1504 -1.3363
 2633SOL    HW2 8145   4.607   3.973   5.742  2.2384  0.3711  0.2517
 2634SOL     OW 8146   2.064   6.007   4.170  0.1027  0.1930 -0.4818
 2634SOL    HW1 8147   2.095   5.919   4.190  0.0173  0.4390  0.7971
 2634SOL    HW2 8148   1.969   5.998   4.161  0.1150  0.1300 -0.5554
 2635SOL     OW 8149   3.551   3.647   0.001  0.4479  0.8499 -0.1728
 2635SOL    HW1 8150   3.582   3.598   0.077 -1.4103  0.1201  0.1705
 2635SOL    HW2 8151   3.617   3.715  -0.012  1.8470 -0.2515  0.8275
 2636SOL     OW 8152   4.620   3.490   1.854  0.1200 -0.5147 -0.4287
 2636SOL    HW1 8153   4.595   3.403   1.823  0.8936 -0.2222 -1.9763
 2636SOL    HW2 8154   4.585   3.550   1.788 -1.6560  0.5324  1.3366
 2637SOL     OW 8155   0.850   5.718   1.820 -0.1512  0.0763 -0.1934
 2637SOL    HW1 8156   0.935   5.763   1.823  0.3958 -0.8915 -0.8224
 2637SOL    HW2 8157   0.829   5.700   1.912  1.2004 -1.2767 -0.1197
 2638SOL     OW 8158   1.375   5.904   3.083  0.1581  0.2729 -0.0350
 2638SOL    HW1 8159   1.297   5.909   3.139  0.3548  0.7589  0.2007
 2638SOL    HW2 8160   1.449   5.904   3.144  0.3572  0.3092 -0.2737
 2639SOL     OW 8161   0.044   0.040   2.169  0.0137 -0.1303 -0.8955
 2639SOL    HW1 8162  -0.050   0.031   2.182  0.0009  1.0909  0.0850
 2639SOL    HW2 8163   0.067   0.119   2.217  2.2034 -2.4635  2.3357
 2640SOL     OW 8164   2.364   0.401   3.125 -0.5871  0.5767 -0.1232
 2640SOL    HW1 8165   2.384   0.392   3.032  2.1688  0.4435  0.3759
 2640SOL    HW2 8166   2.323   0.318   3.149 -2.7885  1.2052 -1.4750
 2641SOL     OW 8167   2.292   4.967   4.090 -0.0100  0.0090  0.2647
 2641SOL    HW1 8168   2.233   4.906   4.135 -0.2562 -0.8360 -1.1206
 2641SOL    HW2 8169   2.240   5.046   4.078 -0.3817 -0.2230  0.3152
 2642SOL     OW 8170   2.633   4.724   5.208 -0.1068  0.6693 -0.2811
 2642SOL    HW1 8171   2.666   4.739   5.119 -1.3240  0.7685 -0.7459
 2642SOL    HW2 8172   2.708   4.739   5.265  1.4745 -2.1684 -1.4373
 2643SOL     OW 8173   2.995   4.055   5.391  0.1111 -0.1363 -0.0207
 2643SOL    HW1 8174   2.968   3.976   5.438  0.7462  0.2132  0.9462
 2643SOL    HW2 8175   2.996   4.027   5.299 -0.5997 -0.9830  0.2124
 2644SOL     OW 8176   0.044   0.343   2.201 -0.4904  0.9413  0.9142
 2644SOL    HW1 8177  -0.040   0.363   2.242  0.1356 -0.2520  2.9311
 2644SOL    HW2 8178   0.105   0.334   2.274  0.5167 -2.2315 -0.1372
 2645SOL     OW 8179   4.220   5.064   0.848 -0.2114 -0.6485  0.2681
 2645SOL    HW1 8180   4.179   4.980   0.828  0.8830 -0.9129 -1.0025
 2645SOL    HW2 8181   4.281   5.079   0.776 -0.8946  1.5955  0.0720
 2646SOL     OW 8182   4.804   2.228   5.760 -0.2557  0.0638  0.3213
 2646SOL    HW1 8183   4.760   2.313   5.760  0.1247  0.2912 -1.4312
 2646SOL    HW2 8184   4.879   2.240   5.818  0.9887  1.6100 -1.5304
 2647SOL     OW 8185   3.265   0.224   4.423  0.3819 -0.1334 -0.1002
 2647SOL    HW1 8186   3.303   0.155   4.478  2.7263  0.1769 -1.1791
 2647SOL    HW2 8187   3.252   0.182   4.338 -0.2199  0.1899 -0.1675
 2648SOL     OW 8188   0.569   1.458   5.184 -0.5705 -0.0089  0.4119
 2648SOL    HW1 8189   0.652   1.480   5.227 -0.7309 -0.2507  0.8517
 2648SOL    HW2 8190   0.594   1.407   5.108 -0.2620  0.6778  0.0440
 2649SOL     OW 8191   1.271   4.333   3.527 -0.0307  0.1962 -0.0326
 2649SOL    HW1 8192   1.192   4.353   3.578 -0.7775  0.2601 -1.1818
 2649SOL    HW2 8193   1.323   4.278   3.585 -0.6813  0.5809  0.9442
 2650SOL     OW 8194   3.831   6.007   2.663  0.1970 -0.1376  0.1622
 2650SOL    HW1 8195   3.788   5.953   2.597 -0.5817 -0.3829  0.8545
 2650SOL    HW2 8196   3.807   6.097   2.641  0.7639 -0.1317 -0.4691
 2651SOL     OW 8197   3.547   5.158   6.005  0.3050 -0.2190  0.6153
 2651SOL    HW1 8198   3.537   5.088   6.069  1.0925  1.9274  3.2752
 2651SOL    HW2 8199   3.632   5.197   6.026  0.2270  1.0778 -1.2641
 2652SOL     OW 8200   5.001   0.517   1.516  0.6492 -0.3773  0.3950
 2652SOL    HW1 8201   5.024   0.599   1.472 -0.2191  0.0250  0.6786
 2652SOL    HW2 8202   5.032   0.449   1.456  0.1055  0.1647 -0.5378
 2653SOL     OW 8203   2.639   3.737   1.489 -0.1686 -0.1845 -0.3016
 2653SOL    HW1 8204   2.722   3.732   1.537 -1.2180  0.0090  1.6380
 2653SOL    HW2 8205   2.603   3.648   1.496 -1.0199  0.2095  0.6371
 2654SOL     OW 8206   4.089   6.033   1.977 -0.8479 -0.3553  0.0948
 2654SOL    HW1 8207   4.174   6.030   1.932 -0.2628 -0.2588  1.1474
 2654SOL    HW2 8208   4.082   6.123   2.009 -1.7474 -0.1320 -0.7014
 2655SOL     OW 8209   4.519   0.966   4.494 -0.0458  0.8300  0.0679
 2655SOL    HW1 8210   4.597   0.989   4.444 -0.1826  0.4531 -0.3171
 2655SOL    HW2 8211   4.549   0.898   4.555 -0.3163 -0.1300 -0.8435
 2656SOL     OW 8212   4.244   4.031   3.380 -0.0227  0.1692  0.6372
 2656SOL    HW1 8213   4.187   4.105   3.359 -0.0102 -0.2488 -0.9763
 2656SOL    HW2 8214   4.190   3.974   3.435 -0.4406  0.7877  0.8816
 2657SOL     OW 8215   1.843   1.444   5.078 -0.0566 -0.3570  0.2607
 2657SOL    HW1 8216   1.821   1.454   4.986  0.5250 -0.3344  0.1178
 2657SOL    HW2 8217   1.883   1.357   5.084 -4.5661 -2.6403  1.3809
 2658SOL     OW 8218   1.025   4.211   5.150  0.3017  0.5228  0.1984
 2658SOL    HW1 8219   1.008   4.135   5.206  1.4854 -0.0416 -0.1649
 2658SOL    HW2 8220   1.098   4.183   5.094 -0.8413  1.0809 -1.6315
 2659SOL     OW 8221   4.099   3.742   3.885  0.1977  0.1868 -0.2524
 2659SOL    HW1 8222   4.071   3.657   3.920 -0.3873  0.5750  0.2408
 2659SOL    HW2 8223   4.018   3.791   3.873  0.6436  1.3992  1.3489
 2660SOL     OW 8224   3.666   2.431   1.424  0.4437  0.6093 -0.4878
 2660SOL    HW1 8225   3.757   2.408   1.407  0.9033  0.5553  1.7012
 2660SOL    HW2 8226   3.616   2.357   1.391  1.0687  1.0241 -2.5186
 2661SOL     OW 8227   0.295   0.882   0.172  0.0167 -0.4275 -0.4644
 2661SOL    HW1 8228   0.374   0.928   0.144  0.1516 -1.0871 -1.2132
 2661SOL    HW2 8229   0.234   0.892   0.099  0.7215 -3.0263 -1.5084
 2662SOL     OW 8230   2.937   1.960   0.029 -0.4474 -0.4823  0.0385
 2662SOL    HW1 8231   2.984   1.883  -0.006 -0.6100 -0.3202 -0.5514
 2662SOL    HW2 8232   2.963   1.964   0.121 -1.7673 -2.2680  0.5583
 2663SOL     OW 8233   4.552   2.127   5.849 -0.5822 -0.1339 -0.0385
 2663SOL    HW1 8234   4.639   2.130   5.810  0.2023 -1.6111  1.4887
 2663SOL    HW2 8235   4.566   2.091   5.937 -2.3916  2.0803  1.2699
 2664SOL     OW 8236   5.318   5.939   4.027  0.6371  0.0592  0.3248
 2664SOL    HW1 8237   5.372   5.991   3.968  1.9718 -1.7023 -0.0965
 2664SOL    HW2 8238   5.257   6.002   4.065 -0.8822  1.2028 -3.4860
 2665SOL     OW 8239   4.773   3.283   5.352 -0.7482 -0.0415 -0.6388
 2665SOL    HW1 8240   4.842   3.322   5.299  0.7001 -0.9065  0.4937
 2665SOL    HW2 8241   4.691   3.311   5.312  0.1980 -1.6575 -4.0939
 2666SOL     OW 8242   2.110   5.976   2.790 -0.3885 -0.3839  0.1341
 2666SOL    HW1 8243   2.030   6.007   2.747  0.0838  1.0594  0.2468
 2666SOL    HW2 8244   2.147   6.054   2.831  1.1553 -1.0078 -0.0171
 2667SOL     OW 8245   4.657   0.797   3.515 -0.6189  0.1591 -0.4623
 2667SOL    HW1 8246   4.624   0.718   3.557  0.4979  0.4422  1.0161
 2667SOL    HW2 8247   4.584   0.858   3.517 -0.7116  0.0231  0.7174
 2668SOL     OW 8248   1.113   2.798   4.459 -0.4117 -0.2227  0.1620
 2668SOL    HW1 8249   1.144   2.708   4.460 -1.6824 -0.7728 -2.0424
 2668SOL    HW2 8250   1.079   2.811   4.370 -0.3640  2.4048  0.4407
 2669SOL     OW 8251   1.752   0.251   5.066  0.4234 -0.0321  0.1096
 2669SOL    HW1 8252   1.772   0.184   5.001  0.3891  0.8430 -0.8270
 2669SOL    HW2 8253   1.803   0.327   5.038  1.0146  0.1461  1.5421
 2670SOL     OW 8254   0.901   0.917   4.356 -0.1972  0.0112  0.5511
 2670SOL    HW1 8255   0.806   0.903   4.361 -0.1847 -0.0073  0.7122
 2670SOL    HW2 8256   0.939   0.842   4.401 -0.0012 -1.8977 -2.4685
 2671SOL     OW 8257   5.125   4.885   1.677  0.1366 -0.1410  0.0813
 2671SOL    HW1 8258   5.116   4.793   1.702  0.7998  0.1901  1.6384
 2671SOL    HW2 8259   5.188   4.884   1.605 -1.1609 -1.0413 -1.1007
 2672SOL     OW 8260   4.637   5.220   1.571 -0.3206 -0.7491 -0.2026
 2672SOL    HW1 8261   4.708   5.245   1.512  0.7866 -0.5352  1.1806
 2672SOL    HW2 8262   4.658   5.261   1.654 -3.3212  1.3823 -0.3119
 2673SOL     OW 8263   3.458   4.308   5.599 -0.2188 -0.0408 -0.3672
 2673SOL    HW1 8264   3.473   4.313   5.693  0.0392 -0.2734 -0.3929
 2673SOL    HW2 8265   3.541   4.338   5.561 -0.0616 -0.6549 -0.5168
 2674SOL     OW 8266   0.367   5.260   4.801  0.5796  0.3447  0.0186
 2674SOL    HW1 8267   0.434   5.195   4.779  0.9837  0.7650 -0.0155
 2674SOL    HW2 8268   0.284   5.217   4.781  0.8601 -0.0152 -0.3951
 2675SOL     OW 8269   5.289   3.850   3.056  0.2575 -0.4875  0.4418
 2675SOL    HW1 8270   5.236   3.799   2.994 -1.4322  1.3133  0.2934
 2675SOL    HW2 8271   5.251   3.938   3.052  1.3403  0.1402  2.6474
 2676SOL     OW 8272   5.325   4.457   1.991  0.3433 -0.2080  0.0352
 2676SOL    HW1 8273   5.405   4.485   1.945  0.9962 -0.3474  1.0655
 2676SOL    HW2 8274   5.258   4.517   1.959  0.6763 -0.5625 -1.4193
 2677SOL     OW 8275   5.613   1.301   3.912 -0.2281  0.0419 -0.5072
 2677SOL    HW1 8276   5.564   1.291   3.830  1.4024  0.9341 -1.6477
 2677SOL    HW2 8277   5.564   1.368   3.960 -0.7896  0.0680 -1.0937
 2678SOL     OW 8278   1.254   5.555   2.457 -0.0234  0.3900 -0.3149
 2678SOL    HW1 8279   1.208   5.471   2.453 -0.4639  0.6623 -1.0606
 2678SOL    HW2 8280   1.346   5.531   2.442  0.4145 -0.3676  2.8819
 2679SOL     OW 8281   2.902   3.010   0.537 -0.1460 -0.3883 -0.2707
 2679SOL    HW1 8282   2.992   3.032   0.559 -0.4621  0.0009  0.7058
 2679SOL    HW2 8283   2.862   3.095   0.515  0.3288 -0.8149 -3.1908
 2680SOL     OW 8284   4.892   1.326   1.268  0.3855 -0.4143 -0.0337
 2680SOL    HW1 8285   4.952   1.271   1.218 -0.5610  0.0873 -1.8140
 2680SOL    HW2 8286   4.813   1.331   1.214 -0.6318  0.3213  1.4476
 2681SOL     OW 8287   4.232   2.588   4.910  0.7601  0.1405 -0.2386
 2681SOL    HW1 8288   4.321   2.557   4.922  0.8566  0.4165 -0.2493
 2681SOL    HW2 8289   4.192   2.579   4.997  0.9478  0.4939 -0.1142
 2682SOL     OW 8290   2.512   5.744   1.110 -0.4104 -0.0062 -0.1180
 2682SOL    HW1 8291   2.573   5.697   1.166 -1.8077  0.4811  1.9006
 2682SOL    HW2 8292   2.556   5.827   1.090  1.6018 -1.5460 -2.8148
 2683SOL     OW 8293   2.518   0.372   1.671 -0.0143  0.0114 -0.2681
 2683SOL    HW1 8294   2.583   0.311   1.636 -0.2345  0.0523 -0.7562
 2683SOL    HW2 8295   2.567   0.451   1.690  0.2330 -0.2447  0.1646
 2684SOL     OW 8296   4.044   4.906   2.938 -0.1852 -0.4469  0.0198
 2684SOL    HW1 8297   4.001   4.845   2.999  1.3200 -2.9030 -1.2537
 2684SOL    HW2 8298   3.995   4.896   2.856  0.5941 -0.5909 -0.4344
 2685SOL     OW 8299   1.327   1.047   3.258  0.3683  0.4668  0.4019
 2685SOL    HW1 8300   1.390   0.988   3.216 -0.2083 -0.1078  0.3320
 2685SOL    HW2 8301   1.375   1.085   3.331  1.1862  0.9755 -0.3667
 2686SOL     OW 8302   4.031   1.786   4.717 -0.2514 -0.3959 -0.1337
 2686SOL    HW1 8303   4.116   1.826   4.735 -0.1451  0.2564 -1.8766
 2686SOL    HW2 8304   3.974   1.859   4.695 -1.0563 -0.9001  0.2327
 2687SOL     OW 8305   0.533   0.006   2.157  0.1731 -0.7262 -0.0842
 2687SOL    HW1 8306   0.518  -0.003   2.251 -0.8335 -1.4453 -0.3028
 2687SOL    HW2 8307   0.623  -0.024   2.144  1.0465  1.2997  0.9058
 2688SOL     OW 8308   3.623   1.344   2.961  0.1872 -0.3380 -0.0607
 2688SOL    HW1 8309   3.671   1.416   2.921 -1.2619  0.0454 -1.1517
 2688SOL    HW2 8310   3.665   1.333   3.047  2.4325 -0.2547 -1.0785
 2689SOL     OW 8311   5.049   1.253   1.934 -0.0571 -0.7494  0.4248
 2689SOL    HW1 8312   5.094   1.174   1.963  0.6523 -0.5316 -0.0608
 2689SOL    HW2 8313   4.958   1.240   1.961 -0.0202 -1.8777  0.0415
 2690SOL     OW 8314   5.199   0.464   2.006 -0.5613  0.1907 -0.0115
 2690SOL    HW1 8315   5.177   0.384   2.053 -0.5111  1.1687  1.7877
 2690SOL    HW2 8316   5.292   0.478   2.024  0.1155 -0.6753 -2.4807
 2691SOL     OW 8317   1.666   1.372   2.750 -0.3448  0.6150  0.2190
 2691SOL    HW1 8318   1.607   1.391   2.822  0.3556  0.7203  0.7813
 2691SOL    HW2 8319   1.686   1.457   2.712 -0.0565  0.6468  0.4372
 2692SOL     OW 8320   4.656   2.607   0.635  0.1062  0.3554  0.2981
 2692SOL    HW1 8321   4.699   2.558   0.565 -1.4859  1.3699 -1.4865
 2692SOL    HW2 8322   4.565   2.575   0.633 -0.3783  1.6677  0.6970
 2693SOL     OW 8323   4.605   4.631   4.099  0.5260 -0.2354  0.0061
 2693SOL    HW1 8324   4.571   4.562   4.041  0.3256  0.0257 -0.1903
 2693SOL    HW2 8325   4.608   4.590   4.185  0.6404 -0.5680 -0.1508
 2694SOL     OW 8326   0.452   0.812   4.629  0.7138  0.0695  0.4729
 2694SOL    HW1 8327   0.443   0.827   4.535  1.3536  0.2059  0.4266
 2694SOL    HW2 8328   0.422   0.893   4.670 -1.6280 -0.7517  0.4981
 2695SOL     OW 8329   0.997   4.777   6.062 -0.7000 -0.3668  0.3046
 2695SOL    HW1 8330   1.091   4.787   6.075 -0.3464 -1.1826 -1.4460
 2695SOL    HW2 8331   0.964   4.750   6.148  0.8043 -1.0444  0.7042
 2696SOL     OW 8332   3.291   0.530   1.960  0.1900  0.2633 -0.2766
 2696SOL    HW1 8333   3.324   0.559   1.875 -0.0113  1.1293 -0.0733
 2696SOL    HW2 8334   3.341   0.582   2.023 -0.3602  0.3426  0.0965
 2697SOL     OW 8335   4.823   3.349   3.774 -0.0212  0.3736  0.0422
 2697SOL    HW1 8336   4.805   3.322   3.683  2.1187 -0.8459 -0.0768
 2697SOL    HW2 8337   4.877   3.427   3.766  0.0054  0.3796  0.2752
 2698SOL     OW 8338   2.725   2.440   1.124 -0.0328  0.4960 -0.0392
 2698SOL    HW1 8339   2.633   2.421   1.110  0.2268 -1.0949  0.2433
 2698SOL    HW2 8340   2.732   2.536   1.116 -1.4716  0.5239 -1.3562
 2699SOL     OW 8341   5.118   3.016   2.874  0.3250 -0.0324  0.1684
 2699SOL    HW1 8342   5.040   2.961   2.875  0.6501 -0.4924  0.5570
 2699SOL    HW2 8343   5.172   2.982   2.945  1.2029 -0.1707 -0.5567
 2700SOL     OW 8344   2.720   3.799   1.000 -0.7660 -0.1659 -0.1574
 2700SOL    HW1 8345   2.787   3.857   0.963 -1.4207 -0.1145 -1.3224
 2700SOL    HW2 8346   2.637   3.843   0.981 -1.2724 -1.4208 -0.9893
 2701SOL     OW 8347   1.314   5.828   5.144  0.1454  0.6188 -0.4995
 2701SOL    HW1 8348   1.383   5.872   5.095 -0.2050  2.4611  0.5708
 2701SOL    HW2 8349   1.283   5.894   5.206  1.2388 -1.8228  2.9597
 2702SOL     OW 8350   3.123   4.138   1.527 -0.3864 -0.3030  0.2202
 2702SOL    HW1 8351   3.203   4.086   1.529  0.2675  0.6999  0.4752
 2702SOL    HW2 8352   3.140   4.206   1.461 -0.8806  0.1420  0.5458
 2703SOL     OW 8353   4.215   3.160   5.636 -0.0196  0.0456  0.3505
 2703SOL    HW1 8354   4.214   3.103   5.713  1.6624 -0.5061  0.0055
 2703SOL    HW2 8355   4.236   3.247   5.671 -1.5827  0.2971  0.7550
 2704SOL     OW 8356   3.498   0.342   0.224 -0.9620 -0.7206 -0.3132
 2704SOL    HW1 8357   3.448   0.277   0.176 -2.0231  0.1417 -0.4119
 2704SOL    HW2 8358   3.448   0.423   0.215 -0.6538 -0.2953  1.3435
 2705SOL     OW 8359   5.255   0.472   4.396  0.0559  0.3641 -0.0869
 2705SOL    HW1 8360   5.223   0.433   4.314  1.5279 -1.2198  0.0235
 2705SOL    HW2 8361   5.263   0.565   4.377 -0.9537  0.2214 -1.3032
 2706SOL     OW 8362   0.117   4.352   3.236  0.0083  0.2365  0.1081
 2706SOL    HW1 8363   0.068   4.424   3.197 -0.1752 -0.1083 -0.3205
 2706SOL    HW2 8364   0.175   4.323   3.166  0.4632  0.3163  0.4517
 2707SOL     OW 8365   4.115   6.069   2.682  0.4878  0.3217 -0.5917
 2707SOL    HW1 8366   4.133   5.992   2.737 -0.3244  1.3257  1.1842
 2707SOL    HW2 8367   4.030   6.050   2.642  0.8987 -0.2439 -1.2270
 2708SOL     OW 8368   4.176   3.538   3.521 -0.7406 -0.5567 -0.5015
 2708SOL    HW1 8369   4.229   3.504   3.594 -0.6926  0.9598  0.2195
 2708SOL    HW2 8370   4.233   3.531   3.445 -0.4483 -1.3196 -0.2196
 2709SOL     OW 8371   3.888   0.237   2.812  0.4301  0.0105  0.6311
 2709SOL    HW1 8372   3.798   0.220   2.842 -0.0638  0.7372 -0.3841
 2709SOL    HW2 8373   3.884   0.223   2.717  1.3777  0.1480  0.5653
 2710SOL     OW 8374   1.904   3.403   2.920  0.0850 -0.5580 -0.7014
 2710SOL    HW1 8375   1.982   3.384   2.972  0.0109  2.9644  0.9721
 2710SOL    HW2 8376   1.937   3.446   2.842 -0.0945 -0.9971 -1.0236
 2711SOL     OW 8377   3.402   5.343   3.835 -0.3860  0.3797 -0.2634
 2711SOL    HW1 8378   3.489   5.340   3.874  0.7580  0.9159 -2.5705
 2711SOL    HW2 8379   3.348   5.389   3.899  0.6012 -1.2870  1.8981
 2712SOL     OW 8380   1.154   4.511   2.031  0.0255 -0.8117 -0.2755
 2712SOL    HW1 8381   1.156   4.596   1.987  1.9026 -0.9236 -0.4958
 2712SOL    HW2 8382   1.106   4.454   1.971 -1.2091  0.0547 -0.1484
 2713SOL     OW 8383   3.350   1.695   0.069 -0.6598  0.3254 -0.4152
 2713SOL    HW1 8384   3.370   1.706   0.162 -1.8967 -1.5368  0.1209
 2713SOL    HW2 8385   3.262   1.658   0.067 -0.1163 -1.0548 -2.2380
 2714SOL     OW 8386   1.392   3.778   2.629 -0.2368  0.0515 -0.1020
 2714SOL    HW1 8387   1.375   3.800   2.537 -0.1767  0.4368 -0.0220
 2714SOL    HW2 8388   1.313   3.731   2.657 -0.2659 -0.0477 -0.3418
 2715SOL     OW 8389   4.024   4.615   2.261 -0.0175  0.0286 -0.2139
 2715SOL    HW1 8390   3.982   4.559   2.196 -1.0719  0.0519  0.4355
 2715SOL    HW2 8391   3.977   4.598   2.342 -0.2106  1.6619  0.0491
 2716SOL     OW 8392   2.616   6.050   2.998  0.5287 -0.6224 -0.1872
 2716SOL    HW1 8393   2.690   6.106   2.973 -0.2356 -0.4176 -2.1578
 2716SOL    HW2 8394   2.569   6.101   3.065  1.5961 -0.3358  0.3751
 2717SOL     OW 8395   5.800   2.095   1.805 -0.2698 -0.5397 -0.5482
 2717SOL    HW1 8396   5.891   2.066   1.804 -0.1423 -0.1622 -0.2176
 2717SOL    HW2 8397   5.770   2.075   1.894  0.0417  0.9936 -0.0691
 2718SOL     OW 8398   5.662   1.177   1.520 -0.7016 -0.4605 -0.2769
 2718SOL    HW1 8399   5.591   1.138   1.469 -0.8920 -0.2241 -0.1958
 2718SOL    HW2 8400   5.733   1.114   1.515 -0.2251  0.1491 -1.9824
 2719SOL     OW 8401   4.254   2.033   4.216  0.1402 -0.4163  0.1708
 2719SOL    HW1 8402   4.221   2.017   4.127 -0.9059  0.1999  0.4316
 2719SOL    HW2 8403   4.334   1.981   4.221 -0.0771 -0.8970 -0.9501
 2720SOL     OW 8404   2.991   4.223   1.222 -0.6980  1.0102 -0.4536
 2720SOL    HW1 8405   2.948   4.226   1.137  0.4038 -1.7811 -1.2363
 2720SOL    HW2 8406   3.080   4.194   1.203  0.1917  2.2341  1.5088
 2721SOL     OW 8407   5.349   6.110   1.823  0.0218 -0.3828  0.0909
 2721SOL    HW1 8408   5.355   6.033   1.879  1.0646 -0.6577 -0.3793
 2721SOL    HW2 8409   5.299   6.080   1.746  0.0976 -0.4831  0.0811
 2722SOL     OW 8410   1.908   0.898   4.991  0.1312  0.7074  0.0691
 2722SOL    HW1 8411   1.983   0.951   4.962  1.9403 -1.7311 -0.0527
 2722SOL    HW2 8412   1.943   0.846   5.063 -1.3949 -0.6238 -0.1037
 2723SOL     OW 8413   4.049   3.432   5.861  0.5442 -0.3512 -0.3950
 2723SOL    HW1 8414   4.048   3.486   5.940  1.1874  0.3246 -0.8286
 2723SOL    HW2 8415   3.971   3.458   5.813  0.5674 -0.1967 -0.3496
 2724SOL     OW 8416   2.187   3.019   3.977 -0.6492 -0.0563  0.3139
 2724SOL    HW1 8417   2.241   3.093   3.952  0.7517 -0.2866  2.3936
 2724SOL    HW2 8418   2.144   3.046   4.058 -0.9453 -1.1383  0.5419
 2725SOL     OW 8419   0.054   0.376   6.114 -0.8516  0.1246  0.4521
 2725SOL    HW1 8420   0.068   0.384   6.019  0.2774  1.1210  0.6764
 2725SOL    HW2 8421   0.004   0.455   6.137 -1.7877 -0.4964  0.5818
 2726SOL     OW 8422   0.134   0.886   6.004 -0.1079 -0.5718  0.1071
 2726SOL    HW1 8423   0.065   0.939   6.046 -1.3599 -1.5927 -0.5737
 2726SOL    HW2 8424   0.086   0.826   5.947  1.4621  0.3345 -2.3727
 2727SOL     OW 8425   1.354   4.167   0.575  0.3101  0.1590 -0.3366
 2727SOL    HW1 8426   1.269   4.144   0.612  0.7898  0.0097  0.7029
 2727SOL    HW2 8427   1.347   4.261   0.556  0.6280  0.6541  1.8076
 2728SOL     OW 8428   1.166   4.244   1.267  0.1125  0.3300 -0.1497
 2728SOL    HW1 8429   1.214   4.264   1.348 -0.2181 -0.5797  0.2777
 2728SOL    HW2 8430   1.229   4.195   1.214 -0.0755 -0.1708  0.0833
 2729SOL     OW 8431   5.976   1.889   5.594  0.2263  0.0849  0.3167
 2729SOL    HW1 8432   5.914   1.826   5.559 -3.3941  3.1077  0.5629
 2729SOL    HW2 8433   6.042   1.899   5.526 -1.5611 -0.7629 -1.6518
 2730SOL     OW 8434   0.561   4.377   3.155 -0.1234  0.3205  0.5683
 2730SOL    HW1 8435   0.480   4.377   3.103  0.6867  1.8372 -0.7827
 2730SOL    HW2 8436   0.576   4.470   3.175  0.4433 -0.0968  2.1730
 2731SOL     OW 8437   3.694   1.199   3.714  0.2869  0.7487 -0.1775
 2731SOL    HW1 8438   3.784   1.203   3.682  0.3041  0.0803 -0.2110
 2731SOL    HW2 8439   3.699   1.241   3.800  0.9184 -0.5135  0.4323
 2732SOL     OW 8440   4.049   5.307   0.597  0.3224  0.0383 -0.4494
 2732SOL    HW1 8441   4.104   5.355   0.658  1.9482  2.3628 -3.4692
 2732SOL    HW2 8442   4.006   5.240   0.651  0.4852  2.7311  3.4339
 2733SOL     OW 8443   4.141   4.196   4.165  0.2534 -0.0774 -0.3494
 2733SOL    HW1 8444   4.128   4.102   4.177  1.8083 -0.3080 -0.2701
 2733SOL    HW2 8445   4.208   4.203   4.097 -0.2820  1.0002 -0.7916
 2734SOL     OW 8446   5.068   4.796   3.655 -0.2903 -0.1741  0.2079
 2734SOL    HW1 8447   5.056   4.887   3.630  0.6585  0.4626  1.9034
 2734SOL    HW2 8448   4.980   4.765   3.676 -0.5704  0.4532 -0.0240
 2735SOL     OW 8449   3.720   5.991   5.732  0.6171  0.0730 -0.5360
 2735SOL    HW1 8450   3.643   6.028   5.688  1.1078  1.1426 -0.5276
 2735SOL    HW2 8451   3.792   6.048   5.706  1.2913 -0.5334 -0.0202
 2736SOL     OW 8452   5.312   5.139   0.154 -0.0142 -0.8546  0.1082
 2736SOL    HW1 8453   5.398   5.125   0.195  0.8129  2.0353 -0.4392
 2736SOL    HW2 8454   5.320   5.099   0.068  1.4323  0.7878 -0.5749
 2737SOL     OW 8455   5.424   6.099   4.867 -0.0081  0.3409 -0.9148
 2737SOL    HW1 8456   5.340   6.066   4.899  0.2127 -0.4047 -1.1049
 2737SOL    HW2 8457   5.415   6.195   4.872 -0.4648  0.2526  0.1022
 2738SOL     OW 8458   4.481   1.409   0.650 -0.1638 -0.0949  0.2269
 2738SOL    HW1 8459   4.431   1.327   0.652 -0.3953 -0.1845 -2.9825
 2738SOL    HW2 8460   4.569   1.382   0.624  0.0944  0.5435  0.4487
 2739SOL     OW 8461   2.709   5.455   3.291  0.0317 -0.0198  0.4041
 2739SOL    HW1 8462   2.763   5.414   3.359  0.7190  1.9188  1.0777
 2739SOL    HW2 8463   2.619   5.440   3.319  0.3000  0.4388  1.5640
 2740SOL     OW 8464   3.050   3.387   1.655  0.0675 -0.2702  0.2957
 2740SOL    HW1 8465   3.119   3.402   1.720 -0.8395  1.2809  0.9683
 2740SOL    HW2 8466   2.969   3.387   1.706 -0.6507  0.8011 -0.7832
 2741SOL     OW 8467   5.931   0.954   6.105 -0.3820 -0.0357  0.1278
 2741SOL    HW1 8468   5.920   1.025   6.042  0.5140  1.3118  1.4039
 2741SOL    HW2 8469   5.844   0.945   6.145 -0.2510  1.1529  0.7344
 2742SOL     OW 8470   4.407   1.284   5.639 -0.6613  0.6516  0.3272
 2742SOL    HW1 8471   4.474   1.221   5.665  0.2200  1.7252  0.7301
 2742SOL    HW2 8472   4.408   1.349   5.709 -1.6017  1.0868 -0.0546
 2743SOL     OW 8473   1.062   1.600   0.039  0.1171 -0.1298  0.2942
 2743SOL    HW1 8474   1.083   1.645   0.121  0.5806  0.0409  0.0830
 2743SOL    HW2 8475   0.971   1.624   0.022  0.4567  1.0095  0.0151
 2744SOL     OW 8476   4.443   2.376   3.733 -0.2661 -0.1086  0.5029
 2744SOL    HW1 8477   4.352   2.371   3.762 -0.3763  1.7025  0.5758
 2744SOL    HW2 8478   4.493   2.333   3.802 -0.8665  0.8688  1.5778
 2745SOL     OW 8479   0.555   2.002   2.878 -0.0111 -0.5602  0.1661
 2745SOL    HW1 8480   0.476   1.971   2.923  0.4747  0.7493  2.0573
 2745SOL    HW2 8481   0.523   2.048   2.801 -0.9838 -1.5871 -0.0570
 2746SOL     OW 8482   2.447   4.317   4.056 -0.3160 -0.0835 -0.0086
 2746SOL    HW1 8483   2.391   4.278   3.990 -0.4365  1.1352 -0.6467
 2746SOL    HW2 8484   2.522   4.351   4.007 -0.6593  1.2975  0.3951
 2747SOL     OW 8485   4.155   2.452   1.336  1.0712  0.0845  0.5865
 2747SOL    HW1 8486   4.097   2.377   1.348  1.2904  0.0030  1.1637
 2747SOL    HW2 8487   4.098   2.529   1.347  0.9565  0.0014  0.5648
 2748SOL     OW 8488   5.738   0.688   5.468  0.1668  0.5635  0.0028
 2748SOL    HW1 8489   5.778   0.602   5.468  1.6258  1.2224  0.0411
 2748SOL    HW2 8490   5.791   0.739   5.407 -0.5795  1.4851  0.1007
 2749SOL     OW 8491   2.392   0.534   2.410  0.3729 -0.4267 -0.1745
 2749SOL    HW1 8492   2.387   0.439   2.421  0.5245 -0.3890  0.2295
 2749SOL    HW2 8493   2.366   0.549   2.319 -0.7788 -0.7599  0.0796
 2750SOL     OW 8494   0.401   5.159   0.912  0.0179 -0.2987  0.3150
 2750SOL    HW1 8495   0.367   5.093   0.973 -0.6284  0.8732  1.2521
 2750SOL    HW2 8496   0.466   5.208   0.962  0.1779  0.0731 -0.2423
 2751SOL     OW 8497   0.090   3.312   0.810 -0.1206  0.1539 -1.0188
 2751SOL    HW1 8498   0.181   3.300   0.835 -0.5686 -0.1757  0.5469
 2751SOL    HW2 8499   0.061   3.388   0.860 -0.7390  0.2029 -1.4322
 2752SOL     OW 8500   2.742   3.206   0.459  0.1001 -0.1300 -0.4490
 2752SOL    HW1 8501   2.725   3.208   0.364  1.7155 -0.1994 -0.7717
 2752SOL    HW2 8502   2.661   3.238   0.498 -0.6337 -0.1603 -1.8507
 2753SOL     OW 8503   2.231   1.188   3.015  0.6308 -0.0281  0.0298
 2753SOL    HW1 8504   2.159   1.222   3.068  0.2918 -0.2486 -0.2773
 2753SOL    HW2 8505   2.272   1.121   3.070 -0.9131 -1.6365 -0.6453
 2754SOL     OW 8506   1.463   1.410   2.943 -0.0606  0.5167  0.5580
 2754SOL    HW1 8507   1.374   1.381   2.962  0.4199 -0.2556  1.7984
 2754SOL    HW2 8508   1.499   1.434   3.029  1.3349 -0.4384  0.2819
 2755SOL     OW 8509   3.490   1.998   3.125 -0.3181  0.7602 -0.0875
 2755SOL    HW1 8510   3.493   1.961   3.213 -1.5994  0.2855 -0.2148
 2755SOL    HW2 8511   3.573   1.973   3.085  0.5202  1.4826  1.1632
 2756SOL     OW 8512   1.533   3.402   2.894 -0.3427  0.0469 -0.1560
 2756SOL    HW1 8513   1.487   3.483   2.872 -2.8545 -0.6032  2.1552
 2756SOL    HW2 8514   1.464   3.335   2.899  0.5490 -0.8667  4.1334
 2757SOL     OW 8515   5.631   0.318   4.633 -0.0623 -0.3355  0.2057
 2757SOL    HW1 8516   5.665   0.278   4.713  0.2944 -3.6316 -1.4213
 2757SOL    HW2 8517   5.708   0.357   4.591  0.5005 -1.7831 -0.1847
 2758SOL     OW 8518   0.472   3.469   3.386 -0.1485  0.1262 -0.5497
 2758SOL    HW1 8519   0.418   3.469   3.465  0.5332 -1.2456 -0.0746
 2758SOL    HW2 8520   0.545   3.411   3.405  1.1355  1.3636 -1.4654
 2759SOL     OW 8521   0.975   3.446   2.749  0.0508 -0.4813 -0.6645
 2759SOL    HW1 8522   0.897   3.498   2.767 -0.8197 -1.6948 -0.7849
 2759SOL    HW2 8523   0.956   3.361   2.790  1.9272 -0.3501  0.5826
 2760SOL     OW 8524   3.968   6.103   2.370  0.4418 -0.2191 -0.0492
 2760SOL    HW1 8525   4.005   6.016   2.358  0.0217 -0.4053 -0.0062
 2760SOL    HW2 8526   3.874   6.089   2.371  0.3988 -0.1081  2.4518
 2761SOL     OW 8527   5.864   3.600   5.730  0.2789  0.5188 -0.2135
 2761SOL    HW1 8528   5.913   3.538   5.675 -1.4449 -1.9002  0.7704
 2761SOL    HW2 8529   5.772   3.579   5.714 -0.3639  2.3484  0.7760
 2762SOL     OW 8530   4.737   5.031   0.236 -0.0920  0.4904  0.3404
 2762SOL    HW1 8531   4.754   4.959   0.175  0.3851 -0.4134  1.5062
 2762SOL    HW2 8532   4.652   5.065   0.209 -0.3163 -0.4865 -0.2545
 2763SOL     OW 8533   5.768   2.336   1.724 -0.2122  0.3764 -0.3076
 2763SOL    HW1 8534   5.712   2.367   1.796  1.3240 -1.2804  1.7536
 2763SOL    HW2 8535   5.790   2.246   1.749 -0.1969 -0.5357 -3.2998
 2764SOL     OW 8536   4.322   3.129   3.469  0.4857 -0.7108  0.4970
 2764SOL    HW1 8537   4.256   3.111   3.536  0.5555  2.0215  1.4455
 2764SOL    HW2 8538   4.271   3.163   3.395  0.6625 -0.1967  0.6041
 2765SOL     OW 8539   1.856   2.283   1.164 -0.4412 -0.6426 -0.6254
 2765SOL    HW1 8540   1.770   2.325   1.164  0.4189  1.2145 -1.0234
 2765SOL    HW2 8541   1.865   2.247   1.252 -1.3756 -0.2980 -0.3762
 2766SOL     OW 8542   1.066   4.954   3.469  0.0347 -0.5359  0.7468
 2766SOL    HW1 8543   0.974   4.954   3.446  0.1769 -3.5954 -0.3219
 2766SOL    HW2 8544   1.069   4.984   3.559 -2.0268 -0.5236  0.8417
 2767SOL     OW 8545   2.030   1.602   1.284 -0.2468 -0.1931  0.0586
 2767SOL    HW1 8546   1.962   1.584   1.349  0.4514 -0.2689  0.7961
 2767SOL    HW2 8547   2.090   1.662   1.329  0.5389 -0.6809 -0.3192
 2768SOL     OW 8548   2.447   2.583   3.144  0.0898  0.3929 -0.6543
 2768SOL    HW1 8549   2.533   2.587   3.186 -1.3714  0.1528  2.7078
 2768SOL    HW2 8550   2.410   2.500   3.173 -2.3491  1.7781  0.5513
 2769SOL     OW 8551   3.063   1.549   5.652 -1.0020 -0.4738  0.0598
 2769SOL    HW1 8552   2.994   1.501   5.696 -0.3232 -1.2186  0.3311
 2769SOL    HW2 8553   3.117   1.584   5.723  0.0067 -1.5473 -0.1419
 2770SOL     OW 8554   1.941   1.006   1.232  0.0658  0.4450  0.5054
 2770SOL    HW1 8555   2.005   1.032   1.166 -0.7278 -0.2250 -0.5677
 2770SOL    HW2 8556   1.966   1.055   1.310  3.0157 -1.1867  0.7372
 2771SOL     OW 8557   2.085   2.173   5.077 -0.5871  0.5093  0.5077
 2771SOL    HW1 8558   2.070   2.084   5.043 -2.4339  1.3048 -0.9364
 2771SOL    HW2 8559   2.025   2.228   5.027 -1.7794  2.1433  3.4899
 2772SOL     OW 8560   3.178   0.410   3.940 -0.1276  0.2937  0.4214
 2772SOL    HW1 8561   3.233   0.340   3.903 -0.5265  0.7834 -1.1733
 2772SOL    HW2 8562   3.228   0.441   4.015  1.7186  0.5713 -0.8427
 2773SOL     OW 8563   0.562   2.441   5.870 -0.6991 -0.7397 -0.4798
 2773SOL    HW1 8564   0.645   2.488   5.856 -0.7947 -0.7017 -0.9261
 2773SOL    HW2 8565   0.589   2.353   5.896 -0.4846 -1.2390 -2.2383
 2774SOL     OW 8566   1.098   4.051   4.168  0.6983 -0.0626  0.2587
 2774SOL    HW1 8567   1.059   4.101   4.240  0.6742  1.2903 -0.6427
 2774SOL    HW2 8568   1.041   4.069   4.093  2.2456  0.8425 -0.7617
 2775SOL     OW 8569   1.520   5.872   1.606 -0.6193  0.3083  0.0335
 2775SOL    HW1 8570   1.576   5.796   1.623 -0.8675  0.5216  1.9439
 2775SOL    HW2 8571   1.542   5.898   1.516  0.0851 -1.4898 -0.3484
 2776SOL     OW 8572   0.395   4.831   0.117  0.0084  0.7011  0.6827
 2776SOL    HW1 8573   0.440   4.842   0.033  0.1254 -1.5476  0.3893
 2776SOL    HW2 8574   0.304   4.816   0.095 -0.0723  0.7188  0.9906
 2777SOL     OW 8575   2.409   0.025   5.110  0.5627  0.1736  0.7691
 2777SOL    HW1 8576   2.326   0.037   5.064  1.5021 -2.5902 -2.0307
 2777SOL    HW2 8577   2.466   0.093   5.074  0.9084 -1.1508 -1.3906
 2778SOL     OW 8578   1.066   3.861   1.649 -0.1342  0.4702  0.1610
 2778SOL    HW1 8579   1.092   3.879   1.740  0.8481 -0.9243  0.1950
 2778SOL    HW2 8580   1.061   3.766   1.644 -1.5749  0.5682 -0.9035
 2779SOL     OW 8581   4.554   0.217   1.202 -0.6845 -0.3103  0.2884
 2779SOL    HW1 8582   4.572   0.221   1.296 -1.0444  0.5917  0.3328
 2779SOL    HW2 8583   4.604   0.290   1.165 -1.5122  0.1073 -0.0431
 2780SOL     OW 8584   0.232   2.659   0.079  0.1264 -0.0559 -0.2689
 2780SOL    HW1 8585   0.254   2.573   0.042 -2.9660 -0.9951 -0.2621
 2780SOL    HW2 8586   0.237   2.646   0.174 -1.0723 -0.5083 -0.2497
 2781SOL     OW 8587   5.647   5.184   4.511  0.0545  0.0403 -0.8047
 2781SOL    HW1 8588   5.657   5.104   4.459  0.2262 -1.0493  0.8478
 2781SOL    HW2 8589   5.553   5.196   4.519  0.0259 -0.3354 -0.5670
 2782SOL     OW 8590   2.261   2.291   2.389  0.2068 -0.3919  0.4490
 2782SOL    HW1 8591   2.356   2.281   2.399 -0.0372 -2.8055  1.0096
 2782SOL    HW2 8592   2.247   2.295   2.294  0.8119 -1.2308  0.3125
 2783SOL     OW 8593   4.017   2.919   4.866  0.0970  0.3299 -0.2484
 2783SOL    HW1 8594   4.074   2.896   4.940  0.4948 -0.2702 -0.7234
 2783SOL    HW2 8595   4.073   2.908   4.789 -1.1955 -2.3288 -0.9228
 2784SOL     OW 8596   0.842   3.813   1.965  0.4564  0.3430  0.3760
 2784SOL    HW1 8597   0.834   3.902   1.999 -0.9193  0.1550  0.5855
 2784SOL    HW2 8598   0.905   3.770   2.023  0.2778  0.8596  0.9578
 2785SOL     OW 8599   5.926   5.861   1.533 -0.8426 -0.4571 -0.0317
 2785SOL    HW1 8600   5.860   5.837   1.599 -1.9901  1.2705 -0.4822
 2785SOL    HW2 8601   5.962   5.944   1.564 -0.1687 -0.4792 -0.7257
 2786SOL     OW 8602   3.204   6.091   5.648  0.3230 -0.3855  0.2426
 2786SOL    HW1 8603   3.190   6.005   5.608 -1.7364  0.2592 -0.5863
 2786SOL    HW2 8604   3.175   6.081   5.738 -1.8900 -0.1175 -0.3846
 2787SOL     OW 8605   4.779   0.053   4.815  0.4519 -0.2053 -0.5859
 2787SOL    HW1 8606   4.747   0.131   4.770  0.8906 -0.9756 -2.3304
 2787SOL    HW2 8607   4.874   0.055   4.801  0.4448 -1.1410 -0.8210
 2788SOL     OW 8608   4.530   1.762   1.214 -0.2007  0.0720  1.0354
 2788SOL    HW1 8609   4.565   1.821   1.280 -0.5336  1.0271  0.3745
 2788SOL    HW2 8610   4.436   1.756   1.234 -0.6069  1.5768 -0.2159
 2789SOL     OW 8611   3.445   6.021   4.787  0.3549 -0.0477 -0.4654
 2789SOL    HW1 8612   3.459   5.928   4.807  0.7357 -0.3633 -2.0590
 2789SOL    HW2 8613   3.352   6.028   4.766  0.3913 -0.1378 -0.6593
 2790SOL     OW 8614   4.154   3.826   3.566 -0.1594  0.2042 -0.0719
 2790SOL    HW1 8615   4.169   3.731   3.567  3.2347  0.5847  1.7110
 2790SOL    HW2 8616   4.147   3.849   3.659 -3.0528  1.5546 -0.5285
 2791SOL     OW 8617   5.930   0.194   3.857  0.2100 -0.2544  0.6331
 2791SOL    HW1 8618   5.874   0.117   3.844 -3.1633  1.8168  1.5744
 2791SOL    HW2 8619   5.916   0.247   3.778 -0.8607  1.1897  1.7329
 2792SOL     OW 8620   0.127   4.643   1.387 -0.5161 -0.3228 -0.7790
 2792SOL    HW1 8621   0.208   4.693   1.377 -0.6684 -0.3066 -2.0622
 2792SOL    HW2 8622   0.114   4.601   1.302 -1.5973 -0.7277 -0.4303
 2793SOL     OW 8623   2.371   1.209   4.774  0.1058  0.0816  0.4480
 2793SOL    HW1 8624   2.389   1.119   4.749  1.1368  0.5149 -0.4893
 2793SOL    HW2 8625   2.455   1.254   4.760 -0.2144  1.0457  1.5175
 2794SOL     OW 8626   1.084   5.630   4.169  0.0597 -0.2332  0.2336
 2794SOL    HW1 8627   0.989   5.620   4.178  0.0515 -1.1517 -0.6449
 2794SOL    HW2 8628   1.105   5.706   4.224 -1.7782  2.7113 -2.7445
 2795SOL     OW 8629   4.650   0.385   3.596 -0.7707  0.1988 -0.0205
 2795SOL    HW1 8630   4.709   0.350   3.530 -1.9853  0.1190 -1.1144
 2795SOL    HW2 8631   4.608   0.308   3.634 -1.4535  0.3276 -0.5020
 2796SOL     OW 8632   4.554   3.369   1.536 -0.0035  0.4397  0.4768
 2796SOL    HW1 8633   4.587   3.361   1.446 -0.2152 -0.8592  0.4977
 2796SOL    HW2 8634   4.561   3.462   1.556 -0.6231  0.8775 -1.1560
 2797SOL     OW 8635   0.107   4.796   0.082  0.1671 -0.5392 -0.5759
 2797SOL    HW1 8636   0.072   4.879   0.050 -0.0362 -0.4168 -0.0488
 2797SOL    HW2 8637   0.090   4.733   0.011  2.0157  0.2539 -1.7854
 2798SOL     OW 8638   5.449   5.776   5.114 -0.5944 -0.2346  0.1999
 2798SOL    HW1 8639   5.397   5.788   5.193  1.2804  1.2866  1.2979
 2798SOL    HW2 8640   5.494   5.859   5.102  1.8654 -1.5629 -0.4185
 2799SOL     OW 8641   4.692   1.707   2.387 -0.0000  0.5451 -0.2525
 2799SOL    HW1 8642   4.756   1.768   2.425 -0.4066  0.4594  0.5847
 2799SOL    HW2 8643   4.710   1.624   2.431  0.5171  0.0503 -1.3526
 2800SOL     OW 8644   2.726   5.877   3.543  0.0277  0.2584  0.7327
 2800SOL    HW1 8645   2.635   5.906   3.528  0.3093  1.8707  1.8572
 2800SOL    HW2 8646   2.756   5.847   3.457 -1.4553  0.0080  0.2712
 2801SOL     OW 8647   0.246   1.280   0.930  0.1801  0.0038 -0.3496
 2801SOL    HW1 8648   0.187   1.206   0.942 -0.8592  1.1316  2.2421
 2801SOL    HW2 8649   0.188   1.356   0.922  1.2043  0.9592  0.7995
 2802SOL     OW 8650   1.350   5.710   4.404  0.2650 -0.5978 -0.5229
 2802SOL    HW1 8651   1.382   5.654   4.475 -1.3738 -1.7561 -0.6434
 2802SOL    HW2 8652   1.364   5.659   4.324  1.3209  0.3512 -0.9689
 2803SOL     OW 8653   3.719   0.653   0.718  0.2037 -0.7863 -0.3822
 2803SOL    HW1 8654   3.687   0.688   0.801  0.5662  2.6538 -1.5418
 2803SOL    HW2 8655   3.814   0.656   0.725  0.2495 -1.7075 -0.4816
 2804SOL     OW 8656   3.680   5.857   0.741 -0.5821 -0.4596  0.6442
 2804SOL    HW1 8657   3.766   5.819   0.758 -0.7057 -1.6317 -1.0298
 2804SOL    HW2 8658   3.698   5.947   0.714  0.0962 -0.5956  0.6284
 2805SOL     OW 8659   0.849   4.732   3.023  0.0315 -0.2522 -0.6138
 2805SOL    HW1 8660   0.908   4.787   2.972 -0.1350  0.2460 -0.2793
 2805SOL    HW2 8661   0.880   4.643   3.008  2.2473  0.1114  1.2508
 2806SOL     OW 8662   4.564   2.519   2.599  0.3663 -0.3424 -0.3921
 2806SOL    HW1 8663   4.583   2.571   2.522 -0.4100  0.5053 -0.0250
 2806SOL    HW2 8664   4.620   2.441   2.590  0.0554 -0.4164 -1.9441
 2807SOL     OW 8665   4.911   4.045   1.021 -0.8192 -0.3052  0.0233
 2807SOL    HW1 8666   4.863   3.969   0.990  0.6062 -1.3654  0.3405
 2807SOL    HW2 8667   4.874   4.118   0.972 -1.5711 -1.3201 -0.9716
 2808SOL     OW 8668   2.452   5.763   0.799 -0.1209 -0.1805 -0.3216
 2808SOL    HW1 8669   2.436   5.797   0.887 -0.0583 -2.6038  0.6994
 2808SOL    HW2 8670   2.541   5.791   0.778  0.1119 -0.1328  0.6881
 2809SOL     OW 8671   4.778   0.890   2.669  0.5162  0.0652 -0.1576
 2809SOL    HW1 8672   4.846   0.829   2.695  0.6181  0.1983 -0.1082
 2809SOL    HW2 8673   4.816   0.977   2.686 -0.2152  0.1343  1.2681
 2810SOL     OW 8674   1.300   5.609   5.488  0.3738 -0.3003  0.0523
 2810SOL    HW1 8675   1.268   5.519   5.493  0.8051 -0.3889  1.5553
 2810SOL    HW2 8676   1.330   5.629   5.576 -0.1413  1.4950 -0.1512
 2811SOL     OW 8677   0.858   0.409   0.875 -0.0181 -0.6526 -0.2219
 2811SOL    HW1 8678   0.780   0.387   0.824 -0.9856  0.0895  0.8993
 2811SOL    HW2 8679   0.924   0.431   0.808 -1.1564 -0.0031 -1.1744
 2812SOL     OW 8680   3.820   4.255   4.481 -0.4834 -0.3685 -0.2266
 2812SOL    HW1 8681   3.832   4.250   4.386 -0.9462 -1.6136 -0.2431
 2812SOL    HW2 8682   3.904   4.287   4.515 -0.7308  1.3804 -1.1341
 2813SOL     OW 8683   3.329   0.349   3.647  0.1611  0.2354 -0.2794
 2813SOL    HW1 8684   3.371   0.433   3.667  0.7398  0.3647 -1.8785
 2813SOL    HW2 8685   3.353   0.292   3.720 -0.5282  1.5375  1.0237
 2814SOL     OW 8686   1.138   3.207   4.836  0.2411  0.3105  0.1716
 2814SOL    HW1 8687   1.115   3.157   4.914 -0.8855 -1.9313 -1.4706
 2814SOL    HW2 8688   1.066   3.269   4.825 -0.7730 -0.8615 -0.2023
 2815SOL     OW 8689   3.890   2.004   4.611 -0.1329  0.0086 -0.2368
 2815SOL    HW1 8690   3.907   2.012   4.517  2.1579 -0.5628  0.0710
 2815SOL    HW2 8691   3.891   2.094   4.644  0.0755  0.1462 -0.6182
 2816SOL     OW 8692   5.670   2.566   2.516 -0.3697 -0.3141 -0.0186
 2816SOL    HW1 8693   5.649   2.473   2.529  1.5902 -0.8183 -0.1415
 2816SOL    HW2 8694   5.738   2.565   2.449  1.4739  1.0050  1.7321
 2817SOL     OW 8695   5.464   5.222   5.877  0.0050  0.3824  0.0925
 2817SOL    HW1 8696   5.520   5.260   5.945 -0.1121  0.1021  0.3503
 2817SOL    HW2 8697   5.387   5.279   5.875 -0.6309 -0.3878  1.1823
 2818SOL     OW 8698   5.574   3.631   1.065 -0.1733  0.2215 -0.4408
 2818SOL    HW1 8699   5.623   3.627   0.984 -0.0558 -0.2009 -0.3516
 2818SOL    HW2 8700   5.501   3.690   1.046  0.5820  1.1736 -0.4475
 2819SOL     OW 8701   0.932   5.494   1.578  0.1600  0.0075  0.7375
 2819SOL    HW1 8702   0.989   5.558   1.534 -0.9186  0.5570  0.1027
 2819SOL    HW2 8703   0.891   5.544   1.649  0.8737 -0.5332  1.5535
 2820SOL     OW 8704   0.007   0.130   1.022  0.1234  0.3344  0.3818
 2820SOL    HW1 8705  -0.032   0.100   1.104 -0.3972 -0.4658 -0.1509
 2820SOL    HW2 8706   0.086   0.078   1.012  0.3900  0.7013  0.5644
 2821SOL     OW 8707   5.588   4.769   3.516  0.2940 -0.0772 -0.1151
 2821SOL    HW1 8708   5.578   4.675   3.530  2.1078 -0.3596 -0.4920
 2821SOL    HW2 8709   5.660   4.795   3.574 -0.0053  1.0410 -0.2108
 2822SOL     OW 8710   4.652   5.741   0.366 -0.2478 -0.4873 -0.3580
 2822SOL    HW1 8711   4.712   5.759   0.439  1.2384 -1.8514 -1.2048
 2822SOL    HW2 8712   4.585   5.809   0.374  1.2373  0.9172  0.7871
 2823SOL     OW 8713   0.057   3.923   4.207  0.1521 -0.1774  0.4024
 2823SOL    HW1 8714   0.014   4.003   4.235 -0.6358 -1.2678  2.5694
 2823SOL    HW2 8715   0.117   3.901   4.278 -0.7383 -2.2642  0.5988
 2824SOL     OW 8716   4.534   1.083   2.871  0.3310  0.1614  0.0858
 2824SOL    HW1 8717   4.506   0.994   2.894  1.8770 -0.1696  0.7730
 2824SOL    HW2 8718   4.628   1.075   2.854  0.3406  1.5309 -0.6005
 2825SOL     OW 8719   0.506   3.925   1.796 -0.4297 -0.5534  0.0071
 2825SOL    HW1 8720   0.497   3.830   1.787 -1.3594 -0.6471  1.4711
 2825SOL    HW2 8721   0.569   3.950   1.728  0.1953 -2.2774 -0.1140
 2826SOL     OW 8722   5.334   4.238   4.176  0.0305  0.0399 -0.3900
 2826SOL    HW1 8723   5.327   4.151   4.216  1.7012 -0.2978 -0.7430
 2826SOL    HW2 8724   5.306   4.298   4.245 -4.0317 -0.8227 -1.0403
 2827SOL     OW 8725   2.036   2.103   0.718  0.0752  0.1598  0.0998
 2827SOL    HW1 8726   1.998   2.055   0.645  0.2541 -0.2955  0.3054
 2827SOL    HW2 8727   2.089   2.172   0.676 -2.0625  1.7086 -0.1958
 2828SOL     OW 8728   5.707   0.700   1.731 -0.0082 -0.2454 -0.6202
 2828SOL    HW1 8729   5.747   0.739   1.653  0.3166  1.4338  0.3288
 2828SOL    HW2 8730   5.774   0.711   1.800 -0.9555 -0.0921  0.2974
 2829SOL     OW 8731   0.630   0.204   1.609  0.2112 -0.2370 -0.4049
 2829SOL    HW1 8732   0.606   0.237   1.696  0.4445 -0.9984 -0.0416
 2829SOL    HW2 8733   0.548   0.200   1.561  0.1440  0.6090 -0.3635
 2830SOL     OW 8734   2.010   5.941   5.034  0.8450  0.2623  0.2790
 2830SOL    HW1 8735   2.090   5.951   5.085 -0.0642  0.1927  1.7670
 2830SOL    HW2 8736   2.022   5.859   4.986  2.8258  1.6031 -1.7755
 2831SOL     OW 8737   0.807   3.556   2.273  0.1589  0.5204  0.4049
 2831SOL    HW1 8738   0.840   3.638   2.309 -1.7936  1.5101  0.1252
 2831SOL    HW2 8739   0.864   3.536   2.199  0.4836  1.8032  0.3003
 2832SOL     OW 8740   5.797   4.784   0.528 -0.2660  0.1949  0.0330
 2832SOL    HW1 8741   5.877   4.823   0.563  0.4392 -1.1842  0.0188
 2832SOL    HW2 8742   5.726   4.835   0.567  0.6097  1.5039 -0.0300
 2833SOL     OW 8743   4.248   0.999   5.962  0.2477  0.2772  0.1200
 2833SOL    HW1 8744   4.230   0.977   5.871  0.1872  0.4456  0.0894
 2833SOL    HW2 8745   4.209   1.086   5.973  1.1757  0.7101  0.0203
 2834SOL     OW 8746   5.587   0.767   2.858  0.2353 -0.1762  0.0566
 2834SOL    HW1 8747   5.573   0.820   2.780 -0.8319 -0.3271  0.1324
 2834SOL    HW2 8748   5.579   0.676   2.828 -1.1982 -0.2226  0.4973
 2835SOL     OW 8749   0.279   3.599   2.593 -0.2349  0.2353  0.0478
 2835SOL    HW1 8750   0.224   3.617   2.516  0.2694  0.3389 -0.2910
 2835SOL    HW2 8751   0.353   3.550   2.558 -0.1709 -0.0088  0.5268
 2836SOL     OW 8752   4.577   0.060   3.985  0.4737  0.2787 -0.0693
 2836SOL    HW1 8753   4.616   0.139   3.946  1.0547  0.0003 -0.0727
 2836SOL    HW2 8754   4.483   0.074   3.979  0.5108  2.2323  2.4333
 2837SOL     OW 8755   2.674   4.923   0.295  0.1528  0.2139  0.1049
 2837SOL    HW1 8756   2.708   4.844   0.338  0.9144 -0.4635 -1.6434
 2837SOL    HW2 8757   2.740   4.990   0.313 -0.1950  0.3021  1.0866
 2838SOL     OW 8758   1.115   0.536   0.117  0.1345  0.2100 -0.2828
 2838SOL    HW1 8759   1.191   0.502   0.069 -0.7229 -0.9959 -0.8457
 2838SOL    HW2 8760   1.099   0.469   0.185 -0.2663  0.5891 -0.0012
 2839SOL     OW 8761   4.537   6.022   3.483  0.4014  0.0032  0.5607
 2839SOL    HW1 8762   4.585   6.056   3.559  1.4500 -3.5522  1.7226
 2839SOL    HW2 8763   4.588   6.050   3.407  0.8629  1.3594  1.3376
 2840SOL     OW 8764   3.630   2.128   1.054  1.2019  0.5849 -0.5818
 2840SOL    HW1 8765   3.604   2.038   1.072  0.8507  0.7557 -0.2169
 2840SOL    HW2 8766   3.645   2.131   0.960 -0.2625  0.5148 -0.8394
 2841SOL     OW 8767   5.922   3.841   5.382 -0.4447  0.8852 -0.5890
 2841SOL    HW1 8768   5.843   3.791   5.402  0.5647 -0.0321  1.3766
 2841SOL    HW2 8769   5.928   3.907   5.451  1.0319  0.2471 -0.0574
 2842SOL     OW 8770   0.943   0.362   5.441  0.2303 -0.5106  0.0839
 2842SOL    HW1 8771   0.965   0.453   5.425  0.8856 -0.1605  2.5186
 2842SOL    HW2 8772   1.016   0.312   5.405  0.0352 -0.0693 -0.9414
 2843SOL     OW 8773   0.743   1.151   2.419 -0.2906 -0.0945  0.2286
 2843SOL    HW1 8774   0.693   1.073   2.397 -2.3235  0.9370  0.9111
 2843SOL    HW2 8775   0.800   1.124   2.492 -1.6907 -0.7305  1.1334
 2844SOL     OW 8776   3.712   4.826   3.146  0.4167  0.1219 -0.3766
 2844SOL    HW1 8777   3.768   4.761   3.190 -0.4620  0.7193  1.7979
 2844SOL    HW2 8778   3.651   4.774   3.094 -0.6148 -0.9529  1.7389
 2845SOL     OW 8779   4.735   2.834   3.318  0.0207 -0.3012  0.6597
 2845SOL    HW1 8780   4.734   2.745   3.282  1.5769 -0.1184  0.0493
 2845SOL    HW2 8781   4.826   2.847   3.347  0.0091  1.3260  0.0963
 2846SOL     OW 8782   1.630   4.085   0.175  0.7293 -0.2169 -0.3570
 2846SOL    HW1 8783   1.658   4.124   0.092 -0.5201  0.2010 -0.6045
 2846SOL    HW2 8784   1.640   3.991   0.162 -0.4269 -0.2218 -1.3756
 2847SOL     OW 8785   3.217   2.540   2.610  0.5589  0.4116  0.5434
 2847SOL    HW1 8786   3.277   2.607   2.577 -0.4889  0.5836 -1.1529
 2847SOL    HW2 8787   3.133   2.585   2.619 -0.1317 -0.5965 -0.4894
 2848SOL     OW 8788   2.415   1.117   5.405  0.1863  0.4725  0.0289
 2848SOL    HW1 8789   2.434   1.141   5.495  1.4447 -0.0649 -0.0726
 2848SOL    HW2 8790   2.384   1.026   5.410  0.9121  0.2078 -0.1305
 2849SOL     OW 8791   0.281   0.571   4.226 -0.2319 -0.1337 -0.1853
 2849SOL    HW1 8792   0.211   0.579   4.290  1.2695 -1.0084  1.6833
 2849SOL    HW2 8793   0.358   0.548   4.278  1.2298 -0.1859 -2.2508
 2850SOL     OW 8794   5.514   1.743   0.218 -0.0409 -0.3289 -0.3578
 2850SOL    HW1 8795   5.487   1.674   0.279 -0.7872 -0.7627 -1.1472
 2850SOL    HW2 8796   5.500   1.704   0.131  1.9144 -0.0850 -0.8129
 2851SOL     OW 8797   0.866   2.188   3.806  0.1395 -0.5691  0.0569
 2851SOL    HW1 8798   0.875   2.247   3.731  1.2852  0.9941  1.3538
 2851SOL    HW2 8799   0.805   2.121   3.776  0.2959  0.1897 -2.1479
 2852SOL     OW 8800   1.331   1.696   2.774  0.7925 -0.0362  0.6426
 2852SOL    HW1 8801   1.308   1.603   2.785  0.4288  0.2140  2.3037
 2852SOL    HW2 8802   1.291   1.721   2.691  1.6074 -1.5620 -0.2527
 2853SOL     OW 8803   1.612   1.833   5.028  0.0905  0.0600 -0.5452
 2853SOL    HW1 8804   1.520   1.814   5.050 -0.0456  0.1952 -0.9864
 2853SOL    HW2 8805   1.607   1.882   4.946  0.3471  2.9864  1.0383
 2854SOL     OW 8806   4.138   1.818   2.121  0.0610 -0.1281 -0.0831
 2854SOL    HW1 8807   4.095   1.873   2.186  2.7470 -0.1120  1.8615
 2854SOL    HW2 8808   4.228   1.851   2.117  0.6951 -1.8478 -1.8414
 2855SOL     OW 8809   1.421   1.534   5.721 -0.1591  0.2546  0.4139
 2855SOL    HW1 8810   1.409   1.501   5.809  0.8147  0.6840  0.7261
 2855SOL    HW2 8811   1.413   1.457   5.665  0.7922 -0.3003  1.0181
 2856SOL     OW 8812   2.984   1.574   4.320  0.5070 -0.4608  0.0034
 2856SOL    HW1 8813   2.975   1.631   4.244 -1.5846 -0.7130 -0.0007
 2856SOL    HW2 8814   3.009   1.632   4.392  0.0566  0.1878 -0.3553
 2857SOL     OW 8815   6.095   4.325   5.740  0.0733  0.4949  0.5866
 2857SOL    HW1 8816   6.153   4.280   5.802  0.4925  2.5334  1.7730
 2857SOL    HW2 8817   6.117   4.418   5.750 -1.5847  1.0908 -0.8620
 2858SOL     OW 8818   0.902   5.416   2.475 -0.1786 -0.1061  0.4317
 2858SOL    HW1 8819   0.980   5.366   2.500  0.5097  1.2843  1.1722
 2858SOL    HW2 8820   0.855   5.429   2.557  0.3620  1.5948  0.5118
 2859SOL     OW 8821   5.620   5.275   3.607 -0.3445  0.1324 -0.1165
 2859SOL    HW1 8822   5.604   5.261   3.514  0.0685 -0.5252 -0.0895
 2859SOL    HW2 8823   5.628   5.187   3.644  0.3402  0.3990  0.3887
 2860SOL     OW 8824   1.034   2.043   2.266 -0.6733  0.1991  0.5193
 2860SOL    HW1 8825   1.068   1.980   2.202 -2.2636  1.0381 -1.2568
 2860SOL    HW2 8826   1.040   1.997   2.349  1.0803 -1.1087 -0.2626
 2861SOL     OW 8827   4.133   3.875   5.071  0.7815 -0.3281 -0.2550
 2861SOL    HW1 8828   4.167   3.945   5.127  0.3265  0.3186 -0.7655
 2861SOL    HW2 8829   4.038   3.890   5.071  0.8485  0.2449 -1.9194
 2862SOL     OW 8830   1.409   5.354   2.816  0.4174  0.1645 -0.8527
 2862SOL    HW1 8831   1.389   5.261   2.832  1.0232  0.1551 -0.0841
 2862SOL    HW2 8832   1.429   5.358   2.723 -0.7077 -0.2701 -1.1320
 2863SOL     OW 8833   1.604   2.741   6.012  0.4900 -0.7526 -0.2351
 2863SOL    HW1 8834   1.520   2.737   6.059 -0.2613 -0.6682 -1.5316
 2863SOL    HW2 8835   1.633   2.650   6.008  0.5598 -0.7620  0.3804
 2864SOL     OW 8836   5.340   1.381   2.385 -0.0829  0.1736 -0.0988
 2864SOL    HW1 8837   5.339   1.323   2.461  1.2127  1.5841  1.0778
 2864SOL    HW2 8838   5.260   1.432   2.392  0.2421  0.6086  0.6164
 2865SOL     OW 8839   1.526   0.963   6.018  0.0307  0.5567 -0.1482
 2865SOL    HW1 8840   1.556   1.048   6.050  3.3891 -0.1618 -1.0250
 2865SOL    HW2 8841   1.602   0.906   6.024 -1.6389 -1.9769 -1.1566
 2866SOL     OW 8842   2.385   2.089   4.778 -0.6734 -0.6223  0.0587
 2866SOL    HW1 8843   2.443   2.028   4.823 -1.7718 -1.1826  0.7792
 2866SOL    HW2 8844   2.360   2.045   4.697 -1.5463 -1.2014  0.6260
 2867SOL     OW 8845   3.195   2.415   1.588 -0.3425 -0.5201 -0.4273
 2867SOL    HW1 8846   3.117   2.471   1.593  0.1198  0.0939  0.0453
 2867SOL    HW2 8847   3.268   2.473   1.612  0.1307 -1.3564  0.2045
 2868SOL     OW 8848   4.234   5.564   5.621 -0.4845 -0.1904 -0.0534
 2868SOL    HW1 8849   4.208   5.621   5.548  0.2179  1.2375  0.7628
 2868SOL    HW2 8850   4.198   5.606   5.698  1.3307  0.0220  0.7436
 2869SOL     OW 8851   2.715   4.933   2.044  0.1691 -0.2839 -0.2352
 2869SOL    HW1 8852   2.714   5.000   1.976  1.4270 -1.5485 -1.5500
 2869SOL    HW2 8853   2.799   4.944   2.088 -0.6660  0.5795  1.2325
 2870SOL     OW 8854   1.982   4.784   0.470  0.1031 -0.2525  0.6153
 2870SOL    HW1 8855   2.055   4.722   0.461  0.5944  0.4800 -0.8405
 2870SOL    HW2 8856   1.923   4.743   0.533  0.5288 -2.0911 -0.1181
 2871SOL     OW 8857   4.557   4.067   0.126  0.4232  0.0583 -0.3936
 2871SOL    HW1 8858   4.637   4.052   0.177  1.8605 -0.9713 -2.7981
 2871SOL    HW2 8859   4.551   3.992   0.067 -2.0353  0.4100 -0.7065
 2872SOL     OW 8860   2.595   5.544   0.262 -0.1276 -0.0574 -0.2558
 2872SOL    HW1 8861   2.661   5.611   0.281 -0.6317  0.4911 -0.4402
 2872SOL    HW2 8862   2.512   5.591   0.260 -0.7433 -0.9756  1.5238
 2873SOL     OW 8863   3.494   2.910   0.660  0.4115 -0.0288  0.4459
 2873SOL    HW1 8864   3.448   2.973   0.604 -0.7491 -0.7878  0.5060
 2873SOL    HW2 8865   3.485   2.826   0.615 -0.8255 -0.7149  1.8495
 2874SOL     OW 8866   0.122   0.106   5.521 -0.5110 -0.0305 -0.0091
 2874SOL    HW1 8867   0.152   0.181   5.470 -0.3742 -0.2685 -0.2834
 2874SOL    HW2 8868   0.037   0.133   5.557 -1.4556 -0.4721 -1.7827
 2875SOL     OW 8869   2.300   0.278   5.310 -0.0669 -0.2709  0.5710
 2875SOL    HW1 8870   2.299   0.343   5.380  0.2639  0.3190  0.0460
 2875SOL    HW2 8871   2.391   0.275   5.281 -0.3825  0.2896 -0.5364
 2876SOL     OW 8872   2.667   1.843   1.750 -0.0834 -0.1368  0.5420
 2876SOL    HW1 8873   2.636   1.909   1.811 -0.5389  0.3512 -0.2037
 2876SOL    HW2 8874   2.587   1.809   1.709  0.2440 -0.1624 -0.0796
 2877SOL     OW 8875   5.163   5.983   3.049 -0.1221 -0.3127  0.2103
 2877SOL    HW1 8876   5.241   5.951   3.005 -0.0431  0.2542 -0.0600
 2877SOL    HW2 8877   5.196   6.037   3.121 -0.2596 -0.5212  0.4328
 2878SOL     OW 8878   0.161   3.544   5.932 -0.2836 -0.0552 -0.9467
 2878SOL    HW1 8879   0.104   3.572   5.860  1.5665  0.9757 -2.0810
 2878SOL    HW2 8880   0.246   3.530   5.891  0.7299  0.2042  0.9866
 2879SOL     OW 8881   0.005   4.270   0.991 -0.2623 -0.5771  0.0656
 2879SOL    HW1 8882   0.085   4.219   0.979  1.8935  2.6323 -0.4009
 2879SOL    HW2 8883   0.002   4.287   1.086  0.2784  0.2437 -0.0564
 2880SOL     OW 8884   1.504   4.575   5.528  0.5261  0.6268 -0.1083
 2880SOL    HW1 8885   1.531   4.483   5.523 -2.9775 -0.6206  1.0437
 2880SOL    HW2 8886   1.532   4.612   5.444  2.7387 -1.1986 -0.3097
 2881SOL     OW 8887   5.601   4.028   2.731 -0.1051 -0.0030  0.3776
 2881SOL    HW1 8888   5.623   4.118   2.706 -1.6581  0.6448  1.1592
 2881SOL    HW2 8889   5.615   3.977   2.651 -0.7920  1.2474 -0.5791
 2882SOL     OW 8890   0.500   3.948   4.335 -0.0714  0.4866 -0.2640
 2882SOL    HW1 8891   0.589   3.918   4.317 -0.3754 -0.6306 -0.0180
 2882SOL    HW2 8892   0.444   3.890   4.282 -0.6354  1.4402 -0.7339
 2883SOL     OW 8893   3.165   5.649   0.681 -0.5936 -0.5645 -0.2221
 2883SOL    HW1 8894   3.256   5.677   0.679 -0.6415 -0.3669  0.2333
 2883SOL    HW2 8895   3.167   5.560   0.715 -0.5343 -0.7026 -0.5936
 2884SOL     OW 8896   5.384   3.373   3.623  0.2505  0.0918  0.2585
 2884SOL    HW1 8897   5.300   3.339   3.654 -0.2236  0.8254 -0.1909
 2884SOL    HW2 8898   5.432   3.397   3.703  0.4580 -1.2473  0.5723
 2885SOL     OW 8899   5.739   3.081   5.922  0.3196 -0.3898  0.1832
 2885SOL    HW1 8900   5.655   3.036   5.911 -0.3697  0.3706  1.8990
 2885SOL    HW2 8901   5.722   3.170   5.892  0.5437 -0.2717  0.4066
 2886SOL     OW 8902   4.712   1.562   1.442 -0.3229 -0.0689  0.4287
 2886SOL    HW1 8903   4.774   1.548   1.514 -0.6195 -1.7584  0.3843
 2886SOL    HW2 8904   4.631   1.522   1.472 -0.2670 -1.4289 -1.0931
 2887SOL     OW 8905   5.913   4.488   5.209  0.2810 -0.0871  0.8971
 2887SOL    HW1 8906   5.831   4.508   5.165  0.2268 -1.9481  0.0905
 2887SOL    HW2 8907   5.931   4.566   5.261 -0.3589  1.6475 -1.3312
 2888SOL     OW 8908   3.147   2.779   2.315 -0.0629 -0.4283 -0.3801
 2888SOL    HW1 8909   3.211   2.740   2.374  0.1326 -1.2624 -1.1149
 2888SOL    HW2 8910   3.125   2.708   2.254  0.2017  0.5582 -1.6790
 2889SOL     OW 8911   2.025   0.921   5.460 -0.1357  0.0201 -0.0833
 2889SOL    HW1 8912   1.939   0.900   5.422  0.5558 -0.6755 -1.3188
 2889SOL    HW2 8913   2.012   1.004   5.506 -1.6766 -0.4908  0.4738
 2890SOL     OW 8914   2.274   1.456   1.901  0.3996  0.1968 -0.0763
 2890SOL    HW1 8915   2.194   1.491   1.863  0.3961  0.3418  0.0646
 2890SOL    HW2 8916   2.265   1.361   1.891  1.2410  0.2709 -2.1417
 2891SOL     OW 8917   3.708   5.044   4.255 -0.2138 -0.2801 -0.0814
 2891SOL    HW1 8918   3.715   5.012   4.345 -0.3018  1.5206  0.6166
 2891SOL    HW2 8919   3.622   5.014   4.226 -0.0053 -1.2459  0.2725
 2892SOL     OW 8920   3.008   3.804   5.531  0.2133 -0.5294 -0.4368
 2892SOL    HW1 8921   3.034   3.723   5.574  0.6311  0.0140  0.3686
 2892SOL    HW2 8922   2.933   3.780   5.476  0.1703 -1.4017 -0.0100
 2893SOL     OW 8923   2.095   2.019   1.430 -0.1604 -0.5371  0.1330
 2893SOL    HW1 8924   2.153   2.092   1.409  0.0081 -1.3181 -2.4427
 2893SOL    HW2 8925   2.007   2.057   1.431 -0.1328 -0.3210 -1.7253
 2894SOL     OW 8926   5.136   0.044   6.074 -0.0201  0.5201 -0.0795
 2894SOL    HW1 8927   5.202   0.003   6.130  0.3869  2.7108  1.1969
 2894SOL    HW2 8928   5.186   0.107   6.021 -0.8379  0.8657 -0.4626
 2895SOL     OW 8929   2.901   2.010   4.738  0.2639  0.2552  0.8046
 2895SOL    HW1 8930   2.862   2.097   4.747 -1.5253 -0.5383  1.0875
 2895SOL    HW2 8931   2.976   2.012   4.798 -1.3950  0.7060  2.9937
 2896SOL     OW 8932   3.953   2.653   5.666 -0.3759  0.0246 -0.1766
 2896SOL    HW1 8933   3.877   2.686   5.712 -1.2578  0.3825 -1.7936
 2896SOL    HW2 8934   4.014   2.727   5.661 -0.3992  0.0640  0.1566
 2897SOL     OW 8935   3.433   2.307   1.954  0.0228  0.1591  0.5088
 2897SOL    HW1 8936   3.478   2.339   1.876 -0.2606  0.4456  0.4623
 2897SOL    HW2 8937   3.419   2.385   2.007  0.7176 -0.1091  1.1121
 2898SOL     OW 8938   0.586   2.946   1.902  0.0372 -0.5093  0.0769
 2898SOL    HW1 8939   0.591   2.864   1.951  0.3769 -0.4317  0.1812
 2898SOL    HW2 8940   0.658   2.999   1.937 -0.2322 -0.1340  0.0714
 2899SOL     OW 8941   3.010   0.543   1.902 -0.1271 -0.0866  0.1179
 2899SOL    HW1 8942   3.007   0.638   1.886  2.6252  0.1914  0.7645
 2899SOL    HW2 8943   3.101   0.519   1.883 -0.4253 -2.3496  1.2914
 2900SOL     OW 8944   3.540   2.676   1.445  0.3173  0.1688  0.4789
 2900SOL    HW1 8945   3.462   2.657   1.392 -2.0178  0.9519  3.3224
 2900SOL    HW2 8946   3.588   2.594   1.448  0.9329  0.2612 -3.2256
 2901SOL     OW 8947   2.878   2.884   4.637 -0.2080 -0.2184  0.4727
 2901SOL    HW1 8948   2.863   2.815   4.701 -0.1939 -0.8179 -0.1608
 2901SOL    HW2 8949   2.793   2.898   4.595 -0.9203  2.0658  2.4220
 2902SOL     OW 8950   3.085   0.147   0.526  0.6859  0.5456  0.2140
 2902SOL    HW1 8951   3.115   0.235   0.548  0.4621  0.3255  1.5035
 2902SOL    HW2 8952   3.118   0.132   0.438  0.3174  2.0976 -0.2193
 2903SOL     OW 8953   3.009   2.289   0.089 -0.0687 -0.3269 -0.0579
 2903SOL    HW1 8954   3.087   2.290   0.033  1.0275  1.3351  1.3854
 2903SOL    HW2 8955   3.027   2.221   0.154  0.2448  0.1348  0.3435
 2904SOL     OW 8956   5.380   5.240   4.486  0.0676 -0.2860 -0.4656
 2904SOL    HW1 8957   5.361   5.221   4.578 -1.5525  3.0504  0.0329
 2904SOL    HW2 8958   5.297   5.223   4.441  1.0283 -2.5701 -1.5632
 2905SOL     OW 8959   2.807   3.801   5.860 -0.4265 -0.6287  0.0726
 2905SOL    HW1 8960   2.785   3.860   5.789  1.5344 -1.2291 -1.1103
 2905SOL    HW2 8961   2.860   3.854   5.920 -1.4588 -0.3273  0.7520
 2906SOL     OW 8962   1.917   3.544   0.521  0.0828 -0.2901  0.1243
 2906SOL    HW1 8963   1.911   3.514   0.430  2.2843  0.8637 -0.4802
 2906SOL    HW2 8964   1.950   3.634   0.514 -1.3442  0.4434  2.0378
 2907SOL     OW 8965   2.834   2.517   2.150 -0.6942 -0.2955  0.1798
 2907SOL    HW1 8966   2.926   2.542   2.161 -1.1444  0.9104  1.7623
 2907SOL    HW2 8967   2.835   2.422   2.140  0.6616 -0.4558  1.4798
 2908SOL     OW 8968   0.624   0.390   3.259 -0.1684  0.1082 -0.8568
 2908SOL    HW1 8969   0.692   0.432   3.313 -0.7262  0.1275 -0.1566
 2908SOL    HW2 8970   0.544   0.437   3.281 -0.6256 -0.6829 -0.7829
 2909SOL     OW 8971   4.188   0.441   5.229  0.5091  0.1525  0.1112
 2909SOL    HW1 8972   4.111   0.480   5.270  1.0698  1.7861 -0.3080
 2909SOL    HW2 8973   4.252   0.434   5.300  0.8545  1.2618 -0.0785
 2910SOL     OW 8974   2.623   5.182   1.513 -0.1522 -0.2698  0.6330
 2910SOL    HW1 8975   2.540   5.191   1.465 -0.6015  2.8736  1.7520
 2910SOL    HW2 8976   2.687   5.158   1.446 -2.0505 -4.0737 -0.0775
 2911SOL     OW 8977   4.394   4.195   1.047  0.0185  0.2287  0.3820
 2911SOL    HW1 8978   4.344   4.145   0.982  3.0514  1.9685 -3.7362
 2911SOL    HW2 8979   4.458   4.133   1.080  0.0467 -0.0736 -0.2270
 2912SOL     OW 8980   1.045   5.419   3.102  0.2053 -0.2503  0.1151
 2912SOL    HW1 8981   1.075   5.335   3.067  1.0005 -0.4957  1.3477
 2912SOL    HW2 8982   1.124   5.462   3.133 -0.0423  1.4152 -1.3919
 2913SOL     OW 8983   1.871   3.533   5.094  0.0676 -0.2220  0.2410
 2913SOL    HW1 8984   1.905   3.622   5.097  0.4869 -0.3919  0.5261
 2913SOL    HW2 8985   1.879   3.508   5.002 -0.4412  0.1822  0.0829
 2914SOL     OW 8986   3.823   5.932   5.970 -0.0339 -0.1804 -0.1304
 2914SOL    HW1 8987   3.906   5.896   5.938  0.1119  0.0462 -0.0096
 2914SOL    HW2 8988   3.780   5.966   5.891  0.3707  0.4687 -0.0818
 2915SOL     OW 8989   2.525   1.064   1.502  0.2293  0.0398 -0.0122
 2915SOL    HW1 8990   2.619   1.071   1.522  0.2773  0.8104 -0.4627
 2915SOL    HW2 8991   2.504   1.146   1.457 -0.5832 -0.2861 -0.2438
 2916SOL     OW 8992   0.693   0.237   5.112  0.2705 -0.0936 -0.5523
 2916SOL    HW1 8993   0.673   0.166   5.050 -1.5384 -0.3343  0.2392
 2916SOL    HW2 8994   0.626   0.229   5.180  0.7130  1.6999  0.1502
 2917SOL     OW 8995   1.497   1.320   3.854  0.6048  0.1768  0.1623
 2917SOL    HW1 8996   1.469   1.382   3.922 -0.9325  2.5446 -2.4116
 2917SOL    HW2 8997   1.592   1.326   3.854  0.6655 -0.0599  2.2073
 2918SOL     OW 8998   3.955   3.379   4.337 -0.5655 -0.0285 -0.0020
 2918SOL    HW1 8999   3.894   3.319   4.380 -0.8140  1.2431  1.4916
 2918SOL    HW2 9000   4.041   3.344   4.358 -0.5718 -3.0380 -3.8059
 2919SOL     OW 9001   4.647   4.148   3.949 -0.5420 -0.2630  0.5366
 2919SOL    HW1 9002   4.644   4.052   3.948  1.4091 -0.3632  1.0574
 2919SOL    HW2 9003   4.673   4.172   3.861  1.6748 -0.4084  1.0803
 2920SOL     OW 9004   3.817   3.474   0.318  0.2092  0.4788  0.4730
 2920SOL    HW1 9005   3.821   3.435   0.231  0.7388 -0.6473  0.9790
 2920SOL    HW2 9006   3.857   3.560   0.307  0.9722  0.0549 -0.2572
 2921SOL     OW 9007   3.519   4.966   0.039  0.2690  0.6367  0.3904
 2921SOL    HW1 9008   3.545   4.874   0.035 -0.5944  0.4240 -0.8806
 2921SOL    HW2 9009   3.462   4.972   0.115  2.0599  0.6154  1.7928
 2922SOL     OW 9010   2.601   3.302   2.088 -0.2253 -0.4900 -0.3844
 2922SOL    HW1 9011   2.519   3.329   2.046 -0.7699 -2.9562 -1.0917
 2922SOL    HW2 9012   2.576   3.282   2.178 -0.2640 -0.6653 -0.4349
 2923SOL     OW 9013   5.363   0.999   5.800 -0.2878 -0.0614  0.4906
 2923SOL    HW1 9014   5.427   0.986   5.730 -0.1472  0.4057  0.5330
 2923SOL    HW2 9015   5.375   1.090   5.828 -0.3971 -0.2201  1.0706
 2924SOL     OW 9016   5.179   2.336   0.075  0.3652 -0.5197  0.0870
 2924SOL    HW1 9017   5.142   2.353   0.161 -0.1034 -0.2605 -0.1601
 2924SOL    HW2 9018   5.274   2.342   0.087  0.3116 -0.7764  0.6415
 2925SOL     OW 9019   3.514   1.641   5.153  0.0023  0.1974  0.3303
 2925SOL    HW1 9020   3.609   1.651   5.146  0.2324 -2.5361 -2.0057
 2925SOL    HW2 9021   3.501   1.600   5.238  1.1889 -1.3594 -0.1788
 2926SOL     OW 9022   1.770   4.741   4.872 -0.5601 -0.4063 -0.2268
 2926SOL    HW1 9023   1.714   4.802   4.824  1.4754 -0.3304 -2.7209
 2926SOL    HW2 9024   1.838   4.796   4.911 -1.0697 -0.7025  1.1505
 2927SOL     OW 9025   3.791   4.765   3.518 -0.3968 -0.2479 -0.0868
 2927SOL    HW1 9026   3.882   4.737   3.510 -0.4693 -0.0220 -1.9639
 2927SOL    HW2 9027   3.797   4.852   3.559  0.3387  0.3036 -1.3006
 2928SOL     OW 9028   1.804   1.541   4.102  0.3257 -0.4321  0.4626
 2928SOL    HW1 9029   1.734   1.496   4.150  0.0627  0.8802  1.3652
 2928SOL    HW2 9030   1.805   1.499   4.016 -0.7780 -1.2618  0.8314
 2929SOL     OW 9031   4.312   2.401   6.001  0.3142 -0.1211 -0.0051
 2929SOL    HW1 9032   4.347   2.400   5.912 -0.2113  0.4917 -0.2290
 2929SOL    HW2 9033   4.355   2.476   6.043  0.2018 -0.1210  0.1119
 2930SOL     OW 9034   2.923   1.652   2.935  0.1685 -0.0638  0.2686
 2930SOL    HW1 9035   2.998   1.592   2.934 -0.1920 -0.5178 -0.8273
 2930SOL    HW2 9036   2.895   1.657   2.844 -2.4987 -1.6449  0.9021
 2931SOL     OW 9037   3.148   2.207   5.895  0.0981 -0.2870 -0.3285
 2931SOL    HW1 9038   3.174   2.257   5.818 -1.4341 -0.3779 -0.9514
 2931SOL    HW2 9039   3.057   2.182   5.877 -0.8483  1.0127  2.1970
 2932SOL     OW 9040   2.609   2.998   3.857 -0.0411 -0.2821  0.5718
 2932SOL    HW1 9041   2.622   3.040   3.772 -3.7485 -0.6583 -0.3473
 2932SOL    HW2 9042   2.555   3.060   3.906 -0.5457 -1.3993  1.4678
 2933SOL     OW 9043   2.214   0.989   0.796  0.1179 -0.5786  0.0204
 2933SOL    HW1 9044   2.146   0.988   0.728 -0.4099 -2.0023  0.5211
 2933SOL    HW2 9045   2.185   1.056   0.858  0.0458 -0.0197 -0.6098
 2934SOL     OW 9046   5.587   3.020   2.790 -0.4074 -0.3196  0.1764
 2934SOL    HW1 9047   5.613   2.940   2.836  0.1055 -0.6389 -0.6633
 2934SOL    HW2 9048   5.502   2.999   2.752 -0.0610 -0.6244 -0.4333
 2935SOL     OW 9049   5.479   4.989   2.815 -0.3145  0.0302  0.0759
 2935SOL    HW1 9050   5.413   4.921   2.803 -0.5354  0.3000 -0.2732
 2935SOL    HW2 9051   5.487   4.999   2.910  0.0385 -0.7823  0.1431
 2936SOL     OW 9052   3.348   0.707   4.245 -0.2497  0.2993  1.1397
 2936SOL    HW1 9053   3.393   0.648   4.184 -1.5312 -0.9293  1.3330
 2936SOL    HW2 9054   3.398   0.699   4.327  1.2189  1.6301  0.4293
 2937SOL     OW 9055   0.229   0.869   4.909  0.6364 -0.0434  0.0683
 2937SOL    HW1 9056   0.266   0.899   4.826  0.6148 -0.0571  0.0536
 2937SOL    HW2 9057   0.183   0.788   4.886 -0.9876  0.9486 -0.2611
 2938SOL     OW 9058   5.516   3.174   4.958  0.9021 -0.4456  0.7304
 2938SOL    HW1 9059   5.577   3.156   4.886  0.0548 -0.0484 -0.1249
 2938SOL    HW2 9060   5.489   3.088   4.989 -1.6437 -0.8169 -2.0293
 2939SOL     OW 9061   2.370   2.368   1.557 -0.1369  0.2747  0.2345
 2939SOL    HW1 9062   2.347   2.317   1.480 -0.2616  1.2999 -0.4216
 2939SOL    HW2 9063   2.383   2.303   1.626 -0.9692 -0.5925 -0.4067
 2940SOL     OW 9064   4.139   0.123   2.870  0.2531 -0.2472 -0.2035
 2940SOL    HW1 9065   4.052   0.163   2.860  0.3229  0.0196  0.2244
 2940SOL    HW2 9066   4.135   0.044   2.816 -0.2228 -0.1879 -0.2654
 2941SOL     OW 9067   0.913   3.904   3.703 -0.3976  1.0711  0.2194
 2941SOL    HW1 9068   0.931   3.811   3.718  0.3764  1.2590  0.5093
 2941SOL    HW2 9069   0.999   3.946   3.708 -0.6475  1.7101 -0.6109
 2942SOL     OW 9070   2.958   4.960   0.035 -0.1688  0.9015 -0.0993
 2942SOL    HW1 9071   2.990   4.978  -0.053  0.9718 -1.7374 -0.3251
 2942SOL    HW2 9072   3.012   5.016   0.092  1.1908  0.4250 -0.8811
 2943SOL     OW 9073   0.541   1.185   4.328  0.1817  0.2725  0.1856
 2943SOL    HW1 9074   0.481   1.256   4.307 -1.5160 -1.1494  0.0065
 2943SOL    HW2 9075   0.532   1.124   4.254  3.0029  0.6862 -0.6120
 2944SOL     OW 9076   3.878   2.903   4.309 -0.5087 -0.3183 -0.1353
 2944SOL    HW1 9077   3.903   2.821   4.353 -1.3752  0.8968  2.9009
 2944SOL    HW2 9078   3.790   2.887   4.277 -0.3488 -0.8427 -0.3203
 2945SOL     OW 9079   4.946   2.439   4.097 -0.6466 -0.2117 -0.3050
 2945SOL    HW1 9080   4.900   2.375   4.152  2.0984 -1.4197  0.7758
 2945SOL    HW2 9081   5.038   2.413   4.102  0.5401  3.4172 -0.4143
 2946SOL     OW 9082   2.396   4.059   5.134  0.0978 -0.0208  0.5701
 2946SOL    HW1 9083   2.328   3.993   5.153 -0.2602  0.6574  1.7005
 2946SOL    HW2 9084   2.347   4.136   5.106  0.3919  0.5307  1.5606
 2947SOL     OW 9085   3.118   5.035   1.867  0.3137  0.1819 -0.0092
 2947SOL    HW1 9086   3.188   4.995   1.816  0.0572 -1.5487  0.8927
 2947SOL    HW2 9087   3.163   5.077   1.940  0.5072  0.3653 -0.2334
 2948SOL     OW 9088   0.082   4.317   1.438 -0.2924 -0.3867  0.1807
 2948SOL    HW1 9089   0.158   4.285   1.390 -0.5941  1.4546 -1.6490
 2948SOL    HW2 9090   0.119   4.369   1.510  0.1444 -1.2145  0.5773
 2949SOL     OW 9091   3.096   5.499   5.218  0.0056 -0.2813 -0.0449
 2949SOL    HW1 9092   3.125   5.502   5.309  2.1166 -0.3551 -0.6747
 2949SOL    HW2 9093   3.163   5.447   5.173  0.2035  1.5880 -2.0419
 2950SOL     OW 9094   2.461   2.321   5.450  0.1481  0.3101 -0.6596
 2950SOL    HW1 9095   2.399   2.268   5.500  0.1179 -0.1382 -1.1624
 2950SOL    HW2 9096   2.505   2.375   5.516 -1.0025  0.8663 -0.3371
 2951SOL     OW 9097   5.064   0.087   4.750  0.3294  0.1404 -0.0464
 2951SOL    HW1 9098   5.086   0.077   4.657  0.8561 -0.6451  0.1584
 2951SOL    HW2 9099   5.111   0.166   4.777 -1.3123  1.4879 -0.8849
 2952SOL     OW 9100   2.011   4.967   5.144 -0.2744 -0.5946 -0.3254
 2952SOL    HW1 9101   1.926   4.926   5.156 -0.8236  0.5983  0.0591
 2952SOL    HW2 9102   1.991   5.058   5.123  0.9036 -0.2927 -0.2438
 2953SOL     OW 9103   0.813   1.927   4.547 -0.1709 -0.4115  0.1234
 2953SOL    HW1 9104   0.839   1.838   4.526  0.9269 -0.1322  0.2008
 2953SOL    HW2 9105   0.845   1.980   4.473 -1.2804 -0.1481 -0.1782
 2954SOL     OW 9106   1.779   1.447   0.310  0.2369  0.1090  0.9098
 2954SOL    HW1 9107   1.841   1.422   0.241 -0.4471 -4.5337  1.6636
 2954SOL    HW2 9108   1.698   1.468   0.263 -0.5800 -4.1241  0.0737
 2955SOL     OW 9109   5.441   0.609   1.276 -0.2996  0.5066 -0.4512
 2955SOL    HW1 9110   5.437   0.627   1.370 -0.0212  1.9528 -0.6820
 2955SOL    HW2 9111   5.459   0.515   1.270 -0.9547  0.2635  0.9237
 2956SOL     OW 9112   1.394   3.719   5.817 -0.0392  0.0661  0.0730
 2956SOL    HW1 9113   1.489   3.723   5.821 -0.0321 -0.4495  0.6896
 2956SOL    HW2 9114   1.365   3.804   5.850  0.2107  0.8133 -1.5677
 2957SOL     OW 9115   2.050   3.079   2.119  0.0543 -0.2283 -0.7036
 2957SOL    HW1 9116   1.974   3.033   2.156  0.4554 -0.9655 -0.7819
 2957SOL    HW2 9117   2.014   3.130   2.046 -0.4747 -0.0430 -0.3158
 2958SOL     OW 9118   5.980   0.798   3.466 -0.2998 -0.0028 -0.1660
 2958SOL    HW1 9119   5.933   0.756   3.393 -3.6687  1.8212  0.7523
 2958SOL    HW2 9120   5.952   0.749   3.543 -0.2327  0.7409  0.3383
 2959SOL     OW 9121   1.033   0.016   2.864  0.4775  0.0201  0.3419
 2959SOL    HW1 9122   1.060   0.010   2.773 -0.8384  0.8241 -0.1426
 2959SOL    HW2 9123   1.105   0.062   2.908  0.2362  1.5474 -0.7624
 2960SOL     OW 9124   5.807   2.490   0.220  0.1159 -0.4864 -0.1733
 2960SOL    HW1 9125   5.900   2.509   0.214  0.0932 -0.4546 -0.4398
 2960SOL    HW2 9126   5.767   2.573   0.245  0.1329 -0.4446 -0.2866
 2961SOL     OW 9127   3.272   2.398   3.634  0.0764 -0.1203  0.1717
 2961SOL    HW1 9128   3.264   2.357   3.720 -0.7637  1.1836  0.7613
 2961SOL    HW2 9129   3.231   2.336   3.574  1.2777 -1.3479  0.5956
 2962SOL     OW 9130   2.967   0.478   3.292  0.0491 -0.7805 -0.0297
 2962SOL    HW1 9131   3.039   0.426   3.256  0.1332  0.0859 -1.1855
 2962SOL    HW2 9132   2.998   0.505   3.379  0.8395 -0.9867 -0.2375
 2963SOL     OW 9133   4.009   5.555   5.424 -0.0035 -0.2019  0.0857
 2963SOL    HW1 9134   4.095   5.595   5.431  0.5913 -1.5589  1.1177
 2963SOL    HW2 9135   3.947   5.627   5.437  1.0160  0.4303  1.6687
 2964SOL     OW 9136   0.685   2.146   2.222 -0.2450 -0.3478 -0.3264
 2964SOL    HW1 9137   0.689   2.131   2.316  1.7127 -1.5867 -0.5415
 2964SOL    HW2 9138   0.720   2.066   2.183  0.2493  0.6473 -2.0604
 2965SOL     OW 9139   1.361   4.084   2.596 -0.1949  0.3802  0.2713
 2965SOL    HW1 9140   1.392   4.157   2.650  0.2319  1.5756 -1.4809
 2965SOL    HW2 9141   1.422   4.082   2.522 -0.9784 -0.9257 -0.3629
 2966SOL     OW 9142   1.172   1.825   2.214 -0.2117  0.2318  0.0006
 2966SOL    HW1 9143   1.267   1.832   2.226  0.0132  0.8536 -1.8272
 2966SOL    HW2 9144   1.148   1.745   2.260  1.2133  0.0114  0.4196
 2967SOL     OW 9145   4.234   2.039   1.128 -0.2341  0.2190 -0.6216
 2967SOL    HW1 9146   4.143   2.036   1.097 -0.6693  1.6813  0.4055
 2967SOL    HW2 9147   4.256   1.948   1.146 -1.6411 -0.1129 -0.4951
 2968SOL     OW 9148   4.278   1.751   3.561  0.0561  0.2422  0.6429
 2968SOL    HW1 9149   4.248   1.705   3.482  1.4811  1.1105 -0.4559
 2968SOL    HW2 9150   4.202   1.804   3.588 -0.2519  0.4438 -0.5480
 2969SOL     OW 9151   5.543   1.914   1.647  0.2864 -0.0523 -0.1658
 2969SOL    HW1 9152   5.454   1.912   1.682  0.4009 -1.9765  0.0894
 2969SOL    HW2 9153   5.574   2.002   1.669 -0.6361 -0.2076  2.0820
 2970SOL     OW 9154   0.858   0.153   3.317 -0.0281 -0.2428 -0.2884
 2970SOL    HW1 9155   0.773   0.158   3.360  0.7359 -2.9492  1.7976
 2970SOL    HW2 9156   0.857   0.071   3.269  1.4353 -0.4222 -0.0698
 2971SOL     OW 9157   4.541   2.600   2.024 -0.0850  0.6219  0.1852
 2971SOL    HW1 9158   4.575   2.520   1.985 -2.3606 -2.2051  3.4538
 2971SOL    HW2 9159   4.612   2.632   2.080  0.6538  0.6604 -0.7490
 2972SOL     OW 9160   2.918   2.070   5.870  0.6360 -0.3756 -0.5936
 2972SOL    HW1 9161   2.980   2.008   5.833  0.1185 -0.9847 -0.4586
 2972SOL    HW2 9162   2.909   2.044   5.962 -0.4812 -0.8551 -0.8193
 2973SOL     OW 9163   0.122   4.798   0.743 -0.1860  0.1317 -0.0468
 2973SOL    HW1 9164   0.173   4.878   0.755 -1.7824  0.9285  2.2184
 2973SOL    HW2 9165   0.160   4.736   0.804  0.8025 -0.7886 -1.5298
 2974SOL     OW 9166   3.578   2.011   4.052 -0.2401  0.0890 -0.3858
 2974SOL    HW1 9167   3.665   2.052   4.057 -0.5502  0.6091  1.8623
 2974SOL    HW2 9168   3.529   2.067   3.992  1.1724 -0.7277 -2.4286
 2975SOL     OW 9169   1.090   5.708   0.040  0.4013  1.0028  0.2546
 2975SOL    HW1 9170   1.184   5.697   0.055  0.2598  0.1853  0.5906
 2975SOL    HW2 9171   1.070   5.652  -0.035 -0.0301  0.2155  0.9391
 2976SOL     OW 9172   1.604   4.235   0.413  0.2307 -0.4148 -0.3493
 2976SOL    HW1 9173   1.508   4.243   0.417  0.0397 -2.4792  2.7290
 2976SOL    HW2 9174   1.621   4.193   0.329 -1.8232 -2.1015 -0.0109
 2977SOL     OW 9175   5.365   1.725   3.950 -0.1059  0.1895 -0.2083
 2977SOL    HW1 9176   5.432   1.717   3.882  0.5239  1.6329  0.1996
 2977SOL    HW2 9177   5.320   1.807   3.928  0.3850  0.9071  1.3266
 2978SOL     OW 9178   4.199   2.599   0.484 -0.3291 -0.4696  0.0937
 2978SOL    HW1 9179   4.130   2.533   0.485  0.3679 -1.3139 -1.7947
 2978SOL    HW2 9180   4.155   2.681   0.506 -2.1158 -0.8482 -1.7588
 2979SOL     OW 9181   0.182   5.658   5.163 -0.0994 -0.2349 -0.3039
 2979SOL    HW1 9182   0.158   5.570   5.133 -0.8089  0.4422 -1.8122
 2979SOL    HW2 9183   0.106   5.688   5.212 -1.1240  0.6480 -2.3213
 2980SOL     OW 9184   4.131   4.039   5.599  0.6069 -0.1042 -0.4009
 2980SOL    HW1 9185   4.204   4.071   5.652  0.0404  0.0614  0.2769
 2980SOL    HW2 9186   4.119   4.105   5.531  0.7202  0.1412 -0.1802
 2981SOL     OW 9187   0.263   4.653   3.027 -0.4063 -0.7589 -0.0892
 2981SOL    HW1 9188   0.288   4.645   3.119  0.3248 -1.5521 -0.3421
 2981SOL    HW2 9189   0.344   4.641   2.978 -0.1338  2.8399 -0.8003
 2982SOL     OW 9190   3.460   3.114   2.334  0.1920  0.1069  0.3969
 2982SOL    HW1 9191   3.439   3.094   2.425 -0.3902  1.1293  0.5016
 2982SOL    HW2 9192   3.484   3.030   2.296  0.4999 -0.3278  1.5068
 2983SOL     OW 9193   4.771   5.970   5.443 -0.2233  0.6801  0.1293
 2983SOL    HW1 9194   4.760   5.887   5.396  2.5498  0.1444  0.2587
 2983SOL    HW2 9195   4.684   5.991   5.475 -1.0206 -2.2762  0.2038
 2984SOL     OW 9196   5.119   5.476   5.692 -0.7514  0.1098 -0.1136
 2984SOL    HW1 9197   5.130   5.395   5.641 -1.9871 -0.9286  1.1633
 2984SOL    HW2 9198   5.025   5.487   5.698 -0.5963  1.2121  0.4152
 2985SOL     OW 9199   2.397   1.775   2.993 -0.0174  0.2673 -0.1204
 2985SOL    HW1 9200   2.304   1.789   2.974 -0.0966 -0.6736 -0.4957
 2985SOL    HW2 9201   2.398   1.701   3.054  0.6063 -2.2701 -2.9763
 2986SOL     OW 9202   4.269   3.004   1.976  0.5155  0.7795 -0.0447
 2986SOL    HW1 9203   4.340   2.942   1.960  1.0994  1.5081 -0.3295
 2986SOL    HW2 9204   4.228   3.016   1.890 -1.4033 -1.3293  0.4916
 2987SOL     OW 9205   4.013   0.800   5.975  0.5617  0.0286 -0.1117
 2987SOL    HW1 9206   4.078   0.867   5.956  0.6569  0.2516  0.9449
 2987SOL    HW2 9207   3.929   0.844   5.967  0.5510 -0.1295 -0.9629
 2988SOL     OW 9208   1.821   2.272   3.783  0.4305  0.4296  0.5394
 2988SOL    HW1 9209   1.844   2.212   3.853 -1.0025 -0.8374 -0.0234
 2988SOL    HW2 9210   1.796   2.353   3.827  0.1935 -0.1342  1.4519
 2989SOL     OW 9211   2.860   2.700   1.181 -0.4509 -0.0686 -0.3277
 2989SOL    HW1 9212   2.800   2.711   1.254 -0.0508 -0.7582  0.1220
 2989SOL    HW2 9213   2.825   2.756   1.112 -0.8542  0.5590  0.3766
 2990SOL     OW 9214   0.520   0.453   4.368  0.5149 -0.1625 -0.5472
 2990SOL    HW1 9215   0.499   0.416   4.454 -0.7531  2.2290  0.2777
 2990SOL    HW2 9216   0.607   0.418   4.347  0.0045 -2.3644  0.7662
 2991SOL     OW 9217   4.045   0.597   2.532  0.0648  0.1013 -0.0837
 2991SOL    HW1 9218   4.116   0.654   2.502 -0.2866  0.4934 -0.1739
 2991SOL    HW2 9219   4.064   0.512   2.492 -0.3086  0.5675 -1.3178
 2992SOL     OW 9220   6.087   1.663   2.659  0.0773 -0.8081 -0.0196
 2992SOL    HW1 9221   6.138   1.600   2.710 -0.9298  0.3257  2.5809
 2992SOL    HW2 9222   6.150   1.732   2.637  0.6461 -1.5630 -0.8527
 2993SOL     OW 9223   0.304   2.052   0.849  0.4638  0.2996 -0.1545
 2993SOL    HW1 9224   0.330   1.970   0.892 -0.9994  0.2112  0.6301
 2993SOL    HW2 9225   0.325   2.120   0.913  1.2321  0.5033 -0.6120
 2994SOL     OW 9226   5.129   3.578   4.400 -0.5024  0.2544  0.0184
 2994SOL    HW1 9227   5.088   3.503   4.443  0.5785 -1.3919 -1.6481
 2994SOL    HW2 9228   5.153   3.637   4.471 -1.2083 -1.0844  1.4060
 2995SOL     OW 9229   2.047   2.886   0.730 -0.1926 -0.1311  0.0269
 2995SOL    HW1 9230   2.013   2.878   0.640  1.0037  0.6849 -0.5202
 2995SOL    HW2 9231   2.036   2.798   0.767 -1.9310 -0.1632 -0.4470
 2996SOL     OW 9232   5.736   1.279   5.654  0.2203  0.0834 -0.3137
 2996SOL    HW1 9233   5.673   1.339   5.613  0.0267  0.1743  0.1175
 2996SOL    HW2 9234   5.781   1.333   5.720 -0.3843 -0.3956  0.5068
 2997SOL     OW 9235   1.463   0.817   4.827 -0.6261 -0.0009  0.9600
 2997SOL    HW1 9236   1.506   0.785   4.748  0.2223  1.4750  0.7938
 2997SOL    HW2 9237   1.533   0.856   4.879 -1.3772  0.2071  1.8547
 2998SOL     OW 9238   3.870   0.050   0.511 -0.2319 -0.4076  0.1879
 2998SOL    HW1 9239   3.963   0.031   0.508 -0.0279  0.6192 -1.1272
 2998SOL    HW2 9240   3.838   0.030   0.423 -0.8905  0.8820  0.1100
 2999SOL     OW 9241   6.043   4.772   1.517 -0.2289 -0.0689  0.1283
 2999SOL    HW1 9242   5.985   4.831   1.468 -1.1054 -1.3187 -0.4078
 2999SOL    HW2 9243   6.099   4.733   1.450 -0.1468 -0.3742  0.3725
 3000SOL     OW 9244   2.908   5.013   3.951  0.2408  0.0811  0.2051
 3000SOL    HW1 9245   2.852   4.997   4.027  0.6058 -1.8307  0.1285
 3000SOL    HW2 9246   2.892   4.939   3.893  0.3955  1.2184 -1.3430
 3001SOL     OW 9247   5.170   2.589   4.370  0.8496  0.0570 -0.1648
 3001SOL    HW1 9248   5.084   2.568   4.406  0.9550 -0.5656 -0.2729
 3001SOL    HW2 9249   5.232   2.547   4.429  1.0559 -0.0779 -0.4764
 3002SOL     OW 9250   5.601   2.363   3.816 -0.4688  0.0242  0.0419
 3002SOL    HW1 9251   5.643   2.339   3.733 -1.1993 -1.7666  0.1383
 3002SOL    HW2 9252   5.631   2.452   3.833 -1.1740  0.9075 -2.7185
 3003SOL     OW 9253   4.956   3.461   5.235 -0.1887  0.1106  0.2886
 3003SOL    HW1 9254   4.949   3.538   5.178 -1.3193 -0.8322 -0.8937
 3003SOL    HW2 9255   5.012   3.400   5.187  0.6733  0.1599  1.2063
 3004SOL     OW 9256   5.640   5.654   5.270 -0.4333 -0.3509  0.7112
 3004SOL    HW1 9257   5.729   5.661   5.237 -0.3701 -1.2563  0.6567
 3004SOL    HW2 9258   5.585   5.666   5.193 -0.3887  0.7601  0.8344
 3005SOL     OW 9259   2.386   1.764   1.105 -0.7660 -0.0096 -0.1098
 3005SOL    HW1 9260   2.412   1.762   1.013 -1.3085 -5.3991 -0.4667
 3005SOL    HW2 9261   2.294   1.787   1.104 -0.8305 -0.2746 -0.9889
 3006SOL     OW 9262   0.031   1.431   0.893 -0.4951  0.3341 -0.0158
 3006SOL    HW1 9263  -0.020   1.488   0.951 -0.3572  1.5739 -1.0706
 3006SOL    HW2 9264  -0.012   1.439   0.808 -0.3008 -0.9482 -0.2475
 3007SOL     OW 9265   4.884   3.842   6.091 -0.0650  0.2235 -0.5310
 3007SOL    HW1 9266   4.877   3.768   6.151  1.4971  0.9055  0.5603
 3007SOL    HW2 9267   4.931   3.806   6.016  0.1119 -0.0463 -0.2955
 3008SOL     OW 9268   1.394   0.782   3.355 -0.0776 -1.0889  0.0516
 3008SOL    HW1 9269   1.356   0.748   3.436 -1.5434 -0.5386 -0.3680
 3008SOL    HW2 9270   1.434   0.865   3.381 -0.1024 -1.1548  0.3047
 3009SOL     OW 9271   1.752   0.344   5.882  0.5800  0.1468  0.2458
 3009SOL    HW1 9272   1.825   0.307   5.931  1.6415 -1.7494 -2.4764
 3009SOL    HW2 9273   1.780   0.434   5.861  2.5618 -0.7348 -1.2814
 3010SOL     OW 9274   2.676   1.672   0.350  0.1756  0.3283 -0.1171
 3010SOL    HW1 9275   2.664   1.630   0.265  2.1873  0.1453 -0.3670
 3010SOL    HW2 9276   2.682   1.765   0.329 -0.2802  0.3722 -0.0554
 3011SOL     OW 9277   2.603   5.122   4.636 -0.1842  0.1417  0.2730
 3011SOL    HW1 9278   2.697   5.141   4.630 -0.2681  0.9180  1.1355
 3011SOL    HW2 9279   2.588   5.104   4.729 -0.8138 -0.4447  0.0676
 3012SOL     OW 9280   4.299   4.354   5.187  0.3512  0.0566  0.7335
 3012SOL    HW1 9281   4.343   4.378   5.105 -0.3214  2.8374  1.0599
 3012SOL    HW2 9282   4.341   4.273   5.215  1.0450 -0.6276 -2.0029
 3013SOL     OW 9283   0.933   2.268   3.246  0.1964  0.2336  0.2578
 3013SOL    HW1 9284   0.906   2.337   3.308  0.4973  1.3280 -0.7906
 3013SOL    HW2 9285   0.855   2.250   3.194  0.3546  0.4274 -0.0509
 3014SOL     OW 9286   1.469   6.092   2.866  0.5925  0.1445  0.2520
 3014SOL    HW1 9287   1.467   6.053   2.953 -0.9867  2.5679  1.3975
 3014SOL    HW2 9288   1.428   6.177   2.877  0.1022  0.4277 -2.9497
 3015SOL     OW 9289   2.029   5.990   4.672  0.0593  0.2920 -0.2244
 3015SOL    HW1 9290   1.982   5.942   4.603 -1.5081  1.4222 -0.0132
 3015SOL    HW2 9291   2.103   6.031   4.627 -0.0621 -0.2319 -0.9156
 3016SOL     OW 9292   2.239   2.453   4.239  0.4954  0.0774  0.5084
 3016SOL    HW1 9293   2.258   2.442   4.333  0.9461 -2.9062  0.1681
 3016SOL    HW2 9294   2.143   2.452   4.234  0.4710  0.0122  0.9329
 3017SOL     OW 9295   5.944   5.365   1.170 -0.4278  0.3532  0.2500
 3017SOL    HW1 9296   6.000   5.353   1.094 -1.4466  1.1533 -0.6624
 3017SOL    HW2 9297   5.933   5.277   1.206  1.1572  0.1463  0.2908
 3018SOL     OW 9298   5.184   3.926   1.893  0.4396 -0.1188 -0.3250
 3018SOL    HW1 9299   5.163   4.002   1.839  0.6199 -0.2222 -0.5391
 3018SOL    HW2 9300   5.277   3.935   1.912  0.3263  0.0411  0.1636
 3019SOL     OW 9301   5.495   4.622   4.537 -0.2534  0.0739 -0.0975
 3019SOL    HW1 9302   5.460   4.691   4.593  1.6157 -0.2893  1.6100
 3019SOL    HW2 9303   5.460   4.642   4.450 -1.0637  2.2063  0.6606
 3020SOL     OW 9304   3.674   0.164   0.163 -0.1392 -0.2446 -0.6614
 3020SOL    HW1 9305   3.618   0.105   0.113  0.0714 -0.8715 -0.1856
 3020SOL    HW2 9306   3.615   0.229   0.200 -0.7291 -1.5135  0.7061
 3021SOL     OW 9307   2.089   0.138   2.871  0.3094 -0.7262 -0.1569
 3021SOL    HW1 9308   2.056   0.213   2.922 -0.3481 -0.7002 -0.6180
 3021SOL    HW2 9309   2.027   0.129   2.799  0.0770 -2.0544  0.1803
 3022SOL     OW 9310   5.348   4.790   1.093  0.1130 -0.4740 -0.4272
 3022SOL    HW1 9311   5.275   4.731   1.115  0.5217  0.1066  2.8803
 3022SOL    HW2 9312   5.310   4.878   1.097  0.7772 -0.2168  0.4984
 3023SOL     OW 9313   4.941   4.242   1.663 -0.8518 -0.3145  0.3778
 3023SOL    HW1 9314   5.014   4.188   1.694 -0.4005  0.1557  0.1511
 3023SOL    HW2 9315   4.864   4.188   1.678 -0.5686 -0.4276  1.5584
 3024SOL     OW 9316   4.245   2.236   2.160  0.0972  0.3870 -0.1770
 3024SOL    HW1 9317   4.313   2.280   2.110  1.9820  0.0215  1.8829
 3024SOL    HW2 9318   4.250   2.144   2.132 -0.2657  0.5407 -0.7572
 3025SOL     OW 9319   4.086   2.680   1.086 -0.4562  0.3928  0.6567
 3025SOL    HW1 9320   4.016   2.701   1.024 -0.0563 -0.5858 -0.1620
 3025SOL    HW2 9321   4.044   2.686   1.172 -1.2451  0.9400  0.2499
 3026SOL     OW 9322   3.062   3.301   3.584  0.2314  0.4415 -0.0297
 3026SOL    HW1 9323   3.098   3.219   3.550 -0.8969  0.6431 -1.8873
 3026SOL    HW2 9324   3.114   3.370   3.541  0.2879  0.7014  0.4553
 3027SOL     OW 9325   1.335   5.152   4.532 -0.1260 -0.0864  0.4191
 3027SOL    HW1 9326   1.304   5.067   4.499  0.4071 -0.7049  1.4870
 3027SOL    HW2 9327   1.255   5.197   4.559 -1.0672  1.7539 -4.3958
 3028SOL     OW 9328   2.459   5.338   1.056 -0.9360  0.6425  0.1302
 3028SOL    HW1 9329   2.402   5.399   1.104 -0.7799 -0.6027  2.0232
 3028SOL    HW2 9330   2.407   5.257   1.050 -1.1552  0.9062 -2.3676
 3029SOL     OW 9331   2.679   1.274   2.517  0.5348  0.6449 -0.7276
 3029SOL    HW1 9332   2.772   1.268   2.494  1.3869  1.5015  2.0664
 3029SOL    HW2 9333   2.637   1.313   2.441  2.3725 -0.1999 -2.2331
 3030SOL     OW 9334   5.722   0.140   4.880  0.1834  0.1791 -0.2958
 3030SOL    HW1 9335   5.795   0.160   4.939  0.8000  2.1925 -1.6389
 3030SOL    HW2 9336   5.747   0.057   4.838  0.5075 -0.4142  1.0174
 3031SOL     OW 9337   4.604   3.684   3.582  0.0015  0.3824 -0.3467
 3031SOL    HW1 9338   4.565   3.768   3.555  0.1397  0.1789 -1.2280
 3031SOL    HW2 9339   4.531   3.636   3.622 -0.5299  0.2492 -1.4268
 3032SOL     OW 9340   3.102   5.014   5.916  0.5675 -0.1654  0.6801
 3032SOL    HW1 9341   3.182   5.067   5.922  1.0466 -0.5336 -1.4383
 3032SOL    HW2 9342   3.031   5.077   5.921  1.1210  0.6935 -1.2434
 3033SOL     OW 9343   3.996   4.986   4.360 -0.9714  0.7901  0.0866
 3033SOL    HW1 9344   4.020   4.894   4.349  2.3896  1.5214  0.0674
 3033SOL    HW2 9345   3.947   5.008   4.281 -0.2877 -0.5818 -0.7546
 3034SOL     OW 9346   3.402   3.345   4.858 -0.6327  0.3658 -0.3784
 3034SOL    HW1 9347   3.363   3.305   4.781  0.2533 -1.0670 -0.1126
 3034SOL    HW2 9348   3.399   3.276   4.925  1.9940  0.2858 -0.2440
 3035SOL     OW 9349   4.541   2.331   5.120  0.2258 -0.4236 -0.2325
 3035SOL    HW1 9350   4.616   2.277   5.091  0.3867 -1.5143  2.0539
 3035SOL    HW2 9351   4.468   2.270   5.123 -0.4749  0.3503 -1.1524
 3036SOL     OW 9352   5.651   3.323   0.224  1.0549  0.8732 -0.1337
 3036SOL    HW1 9353   5.735   3.282   0.244  1.3891  0.6342 -1.9001
 3036SOL    HW2 9354   5.649   3.330   0.129 -0.8943  0.9569 -0.1320
 3037SOL     OW 9355   4.128   0.643   4.229  0.2982 -0.0639 -0.3593
 3037SOL    HW1 9356   4.200   0.654   4.290 -1.2430  0.1845  1.4976
 3037SOL    HW2 9357   4.082   0.727   4.231 -0.5008 -0.4694 -0.9039
 3038SOL     OW 9358   1.230   2.935   6.020 -0.4200  0.3139  0.1849
 3038SOL    HW1 9359   1.274   3.001   6.074  1.9807 -1.6548  0.8397
 3038SOL    HW2 9360   1.245   2.852   6.067  0.4377 -1.2840 -2.6869
 3039SOL     OW 9361   5.032   1.234   3.822  0.2127  0.0224  0.4521
 3039SOL    HW1 9362   5.025   1.149   3.779  2.0863  1.7755 -3.8589
 3039SOL    HW2 9363   5.113   1.229   3.873  0.1856 -0.8345  0.4180
 3040SOL     OW 9364   3.733   3.198   0.394 -0.6212 -0.2790 -0.2001
 3040SOL    HW1 9365   3.798   3.267   0.392 -2.9981  2.1364  0.4353
 3040SOL    HW2 9366   3.668   3.227   0.458 -2.3036 -2.5829 -0.7158
 3041SOL     OW 9367   5.226   4.122   3.094  0.3924  0.0162  0.6529
 3041SOL    HW1 9368   5.235   4.170   3.176  0.4269  0.0296  0.6415
 3041SOL    HW2 9369   5.288   4.164   3.035 -0.1370  0.4692  0.4073
 3042SOL     OW 9370   5.491   3.641   4.477  0.3995  0.6995  0.4307
 3042SOL    HW1 9371   5.422   3.666   4.539  0.4104  2.7141 -0.3008
 3042SOL    HW2 9372   5.451   3.575   4.421 -0.8494  1.6195  0.2124
 3043SOL     OW 9373   0.681   1.225   1.221 -0.2372  0.2919  0.2259
 3043SOL    HW1 9374   0.714   1.196   1.136 -0.3618 -0.3297  0.3833
 3043SOL    HW2 9375   0.754   1.271   1.261  0.2966 -0.6501  0.3686
 3044SOL     OW 9376   2.627   4.555   4.394 -0.0540  0.3873  0.1266
 3044SOL    HW1 9377   2.576   4.628   4.359  0.8559  0.3971 -1.2589
 3044SOL    HW2 9378   2.695   4.595   4.447 -0.6986  0.4291  0.9507
 3045SOL     OW 9379   1.833   2.842   1.335  0.3210 -0.1373 -0.0919
 3045SOL    HW1 9380   1.867   2.894   1.262 -1.7923  3.6675  1.3485
 3045SOL    HW2 9381   1.791   2.766   1.294 -0.6524  1.7521 -2.8614
 3046SOL     OW 9382   5.929   4.194   5.284  0.4921 -0.2549 -0.3939
 3046SOL    HW1 9383   5.979   4.153   5.354 -2.3255 -0.0319  1.9198
 3046SOL    HW2 9384   5.931   4.288   5.304 -0.1574 -0.1674 -0.6878
 3047SOL     OW 9385   0.756   5.831   3.746  0.3463 -0.3555 -0.3759
 3047SOL    HW1 9386   0.796   5.899   3.800 -0.3971 -0.5609  0.4397
 3047SOL    HW2 9387   0.830   5.776   3.719  0.5381 -1.2059  1.7767
 3048SOL     OW 9388   2.799   3.712   3.318 -0.1255 -0.0416 -0.8822
 3048SOL    HW1 9389   2.754   3.723   3.402 -0.2966  1.5465 -1.1454
 3048SOL    HW2 9390   2.779   3.622   3.291  0.3173 -0.7274  0.9719
 3049SOL     OW 9391   0.096   0.453   3.386 -0.6749 -0.2188 -0.3635
 3049SOL    HW1 9392   0.068   0.536   3.424 -0.0907 -0.3189  0.3140
 3049SOL    HW2 9393   0.136   0.405   3.459 -0.0328 -0.6489 -0.9771
 3050SOL     OW 9394   1.408   4.210   5.169 -0.1563  0.2447  0.2876
 3050SOL    HW1 9395   1.331   4.168   5.128 -1.3900  3.1623 -0.6091
 3050SOL    HW2 9396   1.477   4.144   5.161 -1.3945 -0.8977 -2.8943
 3051SOL     OW 9397   1.623   4.565   5.008 -0.2994 -0.6777  0.3945
 3051SOL    HW1 9398   1.677   4.634   4.969  0.7707 -2.4883 -1.5305
 3051SOL    HW2 9399   1.534   4.583   4.976 -0.3548  0.7303  1.2871
 3052SOL     OW 9400   4.226   3.772   2.541  0.4834  0.2649 -0.1955
 3052SOL    HW1 9401   4.207   3.679   2.549 -0.3208  0.3215 -1.2236
 3052SOL    HW2 9402   4.245   3.801   2.630 -3.1864 -0.0818  0.8745
 3053SOL     OW 9403   4.546   2.246   3.108 -0.4624  0.2368 -0.8164
 3053SOL    HW1 9404   4.488   2.271   3.180  1.2115 -0.1497  0.7459
 3053SOL    HW2 9405   4.566   2.154   3.124  0.1560  0.2258 -1.5916
 3054SOL     OW 9406   5.065   4.852   6.007 -0.3481 -0.0130  0.5052
 3054SOL    HW1 9407   5.000   4.917   6.031 -1.1976 -0.5921 -0.1836
 3054SOL    HW2 9408   5.111   4.832   6.089 -2.5285 -1.2430  1.5158
 3055SOL     OW 9409   5.805   2.666   1.031  0.3351  0.7786  0.5244
 3055SOL    HW1 9410   5.859   2.744   1.040  0.1626  0.8531  0.9159
 3055SOL    HW2 9411   5.715   2.697   1.041  0.1830  0.7118 -0.4825
 3056SOL     OW 9412   2.422   2.901   5.587  0.2330  0.1153 -0.3174
 3056SOL    HW1 9413   2.513   2.909   5.560  0.2330 -2.1021 -1.2099
 3056SOL    HW2 9414   2.426   2.886   5.681  0.7354  0.6065 -0.2569
 3057SOL     OW 9415   3.397   2.447   0.327  0.3354 -0.2262  0.5296
 3057SOL    HW1 9416   3.360   2.371   0.372  0.1814  0.2905  1.3126
 3057SOL    HW2 9417   3.480   2.417   0.291  1.0661 -0.3547  2.2373
 3058SOL     OW 9418   2.408   3.329   3.260  0.1997  0.5161  0.0822
 3058SOL    HW1 9419   2.346   3.322   3.187 -0.8265 -1.4074  1.0636
 3058SOL    HW2 9420   2.464   3.403   3.236 -1.9856  1.8826 -1.2042
 3059SOL     OW 9421   5.559   4.342   2.135  0.4586 -0.0032  0.1211
 3059SOL    HW1 9422   5.584   4.251   2.152  1.2021  0.1133 -0.3082
 3059SOL    HW2 9423   5.463   4.339   2.126  0.3672 -0.5699  1.1020
 3060SOL     OW 9424   1.183   3.733   0.172  0.1493  0.1063 -0.1689
 3060SOL    HW1 9425   1.246   3.733   0.100  0.6981  1.2238  0.2993
 3060SOL    HW2 9426   1.146   3.821   0.172 -0.3973 -0.1112  0.4601
 3061SOL     OW 9427   3.548   4.710   5.380 -0.0577 -0.7443 -0.2596
 3061SOL    HW1 9428   3.460   4.704   5.418 -1.5192 -1.3084 -3.4404
 3061SOL    HW2 9429   3.536   4.761   5.300  2.6369 -0.4615 -0.5763
 3062SOL     OW 9430   3.357   4.280   3.398  0.3432 -0.7950  0.0652
 3062SOL    HW1 9431   3.383   4.197   3.438 -3.6816 -1.3866  2.0234
 3062SOL    HW2 9432   3.319   4.256   3.314 -0.1204 -0.8438  0.2876
 3063SOL     OW 9433   2.813   0.292   3.696  0.0762 -0.0826 -0.0345
 3063SOL    HW1 9434   2.865   0.371   3.709  0.1025  0.0328 -0.8080
 3063SOL    HW2 9435   2.825   0.270   3.604 -0.1870 -0.8103  0.0981
 3064SOL     OW 9436   1.556   5.576   3.974 -0.7355  0.0019  0.3250
 3064SOL    HW1 9437   1.530   5.486   3.956 -0.8297  0.3750 -1.5973
 3064SOL    HW2 9438   1.575   5.613   3.888  1.4578  1.1790  1.2364
 3065SOL     OW 9439   0.988   2.141   1.561 -0.4631 -0.0938 -0.6045
 3065SOL    HW1 9440   1.061   2.178   1.513 -1.1805  1.5038 -0.5220
 3065SOL    HW2 9441   0.911   2.189   1.529 -1.5676 -2.0483 -1.0396
 3066SOL     OW 9442   0.487   5.115   5.674 -0.4940 -0.0600  0.3148
 3066SOL    HW1 9443   0.545   5.063   5.728  0.4735 -0.1907 -0.8165
 3066SOL    HW2 9444   0.533   5.198   5.661 -1.1227  0.3191  0.4378
 3067SOL     OW 9445   3.571   5.504   1.666  0.2758 -0.3602 -0.1732
 3067SOL    HW1 9446   3.523   5.474   1.744 -0.0370  0.8098  0.0985
 3067SOL    HW2 9447   3.523   5.465   1.592  0.0366 -0.7355  0.1710
 3068SOL     OW 9448   6.017   2.814   1.277  0.0437  0.0721 -0.3531
 3068SOL    HW1 9449   5.945   2.855   1.228  0.4751  0.6245 -0.5351
 3068SOL    HW2 9450   5.974   2.779   1.356 -0.1971  1.8651  0.3765
 3069SOL     OW 9451   2.088   3.768   5.149  0.2481  0.3193 -0.0993
 3069SOL    HW1 9452   2.131   3.732   5.072  0.6205  1.0775 -0.2632
 3069SOL    HW2 9453   2.015   3.819   5.114  0.9788  1.4530 -0.0420
 3070SOL     OW 9454   2.869   2.919   3.097  0.4973  0.1693  0.2377
 3070SOL    HW1 9455   2.826   2.843   3.057 -2.6330  2.6307 -1.5846
 3070SOL    HW2 9456   2.843   2.916   3.189 -1.4258  0.1599 -0.2779
 3071SOL     OW 9457   5.443   1.038   4.125 -0.5457 -0.4832 -0.3318
 3071SOL    HW1 9458   5.524   1.054   4.076 -0.6674 -0.7156 -0.6140
 3071SOL    HW2 9459   5.446   0.945   4.146  0.7199  0.0661  2.3088
 3072SOL     OW 9460   2.071   1.640   0.143  0.4959  0.2506  0.2342
 3072SOL    HW1 9461   2.010   1.610   0.075  0.2894  0.7311  0.2085
 3072SOL    HW2 9462   2.156   1.642   0.100  0.0963  2.3115 -0.5459
 3073SOL     OW 9463   0.619   5.126   2.414  0.3507  0.8820  0.0265
 3073SOL    HW1 9464   0.706   5.156   2.442  0.2470  0.2254  1.1076
 3073SOL    HW2 9465   0.617   5.034   2.438  0.1680  0.3096 -2.0342
 3074SOL     OW 9466   3.578   3.029   0.233 -0.8280  0.2756 -0.4071
 3074SOL    HW1 9467   3.588   3.099   0.169 -2.7824  1.1101  0.1010
 3074SOL    HW2 9468   3.646   3.046   0.298  1.6572 -1.0035 -2.5094
 3075SOL     OW 9469   2.937   3.130   2.245 -0.0744 -0.7613  0.2715
 3075SOL    HW1 9470   2.877   3.138   2.171 -1.7674 -0.3299  1.6189
 3075SOL    HW2 9471   2.913   3.047   2.287 -0.6103  0.0202  1.5503
 3076SOL     OW 9472   2.336   4.032   1.125 -0.4050 -0.2014 -0.0525
 3076SOL    HW1 9473   2.271   3.967   1.098 -1.0016 -0.3639  1.6300
 3076SOL    HW2 9474   2.407   4.023   1.062 -2.4912  0.8318 -2.7500
 3077SOL     OW 9475   3.314   2.388   5.398 -0.1221  0.4043 -0.2566
 3077SOL    HW1 9476   3.401   2.350   5.385 -0.1947 -0.2054  0.9010
 3077SOL    HW2 9477   3.280   2.401   5.309  1.0146  0.3550 -0.7178
 3078SOL     OW 9478   1.865   5.426   4.809  0.1950  0.2587 -0.2916
 3078SOL    HW1 9479   1.930   5.482   4.767  0.7488  0.1618  0.4111
 3078SOL    HW2 9480   1.790   5.484   4.826 -0.7901 -0.0656 -2.9406
 3079SOL     OW 9481   3.344   5.807   4.082  0.1472 -0.0863 -0.2258
 3079SOL    HW1 9482   3.270   5.787   4.140  0.9751 -0.7086  0.6606
 3079SOL    HW2 9483   3.323   5.764   3.999 -1.2490  1.1607 -0.5482
 3080SOL     OW 9484   3.759   0.201   5.329  0.5981 -0.6608  0.4528
 3080SOL    HW1 9485   3.687   0.192   5.267  1.2297  0.3588 -0.4706
 3080SOL    HW2 9486   3.831   0.152   5.289  0.8331 -0.4982  0.6704
 3081SOL     OW 9487   2.348   5.322   0.407 -0.2323  0.0045  0.5475
 3081SOL    HW1 9488   2.265   5.280   0.431 -1.8459  1.7509 -1.5643
 3081SOL    HW2 9489   2.350   5.402   0.460  0.1689 -0.1002  0.6911
 3082SOL     OW 9490   0.071   0.464   5.142 -0.0870  0.3528 -0.0835
 3082SOL    HW1 9491  -0.016   0.452   5.180  0.4072 -1.3577  0.5897
 3082SOL    HW2 9492   0.086   0.558   5.146 -0.6001  0.3814  2.7833
 3083SOL     OW 9493   1.512   3.837   4.429  0.3337  0.0593 -0.3366
 3083SOL    HW1 9494   1.455   3.913   4.439  3.2938  2.3477  0.6765
 3083SOL    HW2 9495   1.539   3.839   4.337 -0.5801 -0.6219 -0.6422
 3084SOL     OW 9496   2.908   1.454   3.312  0.0504  0.8222 -0.1188
 3084SOL    HW1 9497   2.854   1.406   3.375  0.1559  0.9156  0.0426
 3084SOL    HW2 9498   2.902   1.545   3.339  1.4015  0.6697  0.7353
 3085SOL     OW 9499   5.309   4.967   3.942 -0.1030  0.3000  0.2634
 3085SOL    HW1 9500   5.230   4.915   3.927  1.0244 -1.5137  0.2968
 3085SOL    HW2 9501   5.315   5.025   3.866 -1.9587  1.1928  0.7292
 3086SOL     OW 9502   2.929   4.908   2.189 -0.5297  0.2685 -0.5145
 3086SOL    HW1 9503   2.976   4.834   2.150  0.0478  1.1643 -1.5581
 3086SOL    HW2 9504   2.995   4.977   2.197 -0.6411  0.1999  1.9440
 3087SOL     OW 9505   1.261   1.911   1.198 -0.0831  0.5524 -0.0145
 3087SOL    HW1 9506   1.338   1.920   1.141  3.5296 -0.6309  4.0877
 3087SOL    HW2 9507   1.226   1.825   1.176 -0.6464  1.2743 -2.2480
 3088SOL     OW 9508   3.502   1.268   5.796  0.4376 -0.5459 -0.2226
 3088SOL    HW1 9509   3.483   1.361   5.810  1.7457 -0.4183  0.9672
 3088SOL    HW2 9510   3.429   1.236   5.743  0.4494  1.3794 -1.5029
 3089SOL     OW 9511   2.225   1.443   2.252 -0.1961 -0.4157  0.0148
 3089SOL    HW1 9512   2.283   1.367   2.257 -1.1306 -1.0531  2.0611
 3089SOL    HW2 9513   2.140   1.406   2.229  0.0371  0.4753 -2.6077
 3090SOL     OW 9514   4.247   2.541   2.020  0.2280  0.2978 -0.1258
 3090SOL    HW1 9515   4.273   2.495   1.940  0.2332  1.3453 -0.7454
 3090SOL    HW2 9516   4.325   2.590   2.046  0.6390 -1.0314  1.2724
 3091SOL     OW 9517   4.880   5.123   1.959  0.0112  0.5140 -0.0775
 3091SOL    HW1 9518   4.912   5.038   1.927  0.9684  1.5541 -2.0812
 3091SOL    HW2 9519   4.938   5.145   2.032  0.6338  0.0499 -0.4180
 3092SOL     OW 9520   5.317   4.584   4.863  0.3293 -0.1888 -0.0617
 3092SOL    HW1 9521   5.254   4.641   4.819 -1.7198 -1.1054  1.5040
 3092SOL    HW2 9522   5.356   4.638   4.931 -0.4320 -0.2062  0.3968
 3093SOL     OW 9523   5.770   0.654   2.182  0.1334 -0.8376 -0.1337
 3093SOL    HW1 9524   5.828   0.585   2.149 -0.1428 -1.1735  0.0660
 3093SOL    HW2 9525   5.809   0.680   2.265  0.7706 -0.0661 -0.6719
 3094SOL     OW 9526   5.799   3.315   5.096  0.2969 -0.6326 -0.1172
 3094SOL    HW1 9527   5.766   3.288   5.011  0.3211 -1.2190  0.0566
 3094SOL    HW2 9528   5.892   3.335   5.080 -0.1383  1.2191 -0.6506
 3095SOL     OW 9529   1.224   1.657   3.994  0.1541 -0.2255  0.1825
 3095SOL    HW1 9530   1.248   1.621   3.909  0.6847  0.8880 -0.1443
 3095SOL    HW2 9531   1.285   1.728   4.009  0.3277 -0.6487  1.6866
 3096SOL     OW 9532   2.881   6.064   2.549 -0.2976  0.3851  0.1232
 3096SOL    HW1 9533   2.877   6.159   2.557 -2.3886  0.4941 -1.4960
 3096SOL    HW2 9534   2.872   6.046   2.456 -1.0733 -1.4275  0.4926
 3097SOL     OW 9535   5.823   1.431   0.467 -0.2268 -0.6769  0.1343
 3097SOL    HW1 9536   5.800   1.364   0.403 -1.2205 -0.6071  0.4053
 3097SOL    HW2 9537   5.859   1.502   0.415  0.9084 -1.4365 -0.1498
 3098SOL     OW 9538   6.103   5.309   3.160  0.6720 -0.3213  0.1171
 3098SOL    HW1 9539   6.067   5.249   3.095  0.9187  0.0824 -0.3928
 3098SOL    HW2 9540   6.166   5.256   3.210  0.6376 -0.5725 -0.1076
 3099SOL     OW 9541   4.095   3.165   0.999 -0.1974  0.3054 -0.0789
 3099SOL    HW1 9542   4.145   3.085   1.016  1.3542  1.0315 -0.9769
 3099SOL    HW2 9543   4.049   3.148   0.917  0.7006  0.5557 -0.6528
 3100SOL     OW 9544   5.758   3.392   5.948  0.6084 -0.3578 -0.2915
 3100SOL    HW1 9545   5.819   3.431   5.886 -0.1890  1.0313 -0.2359
 3100SOL    HW2 9546   5.753   3.456   6.019 -0.3555 -0.7999  0.0483
 3101SOL     OW 9547   4.345   0.496   2.019  0.1289  0.1535  0.5994
 3101SOL    HW1 9548   4.408   0.432   1.987  0.3177  0.2169  0.8420
 3101SOL    HW2 9549   4.345   0.485   2.114 -1.5796 -1.1032  0.4968
 3102SOL     OW 9550   5.606   0.282   5.077  0.1868  0.1503 -0.3744
 3102SOL    HW1 9551   5.513   0.294   5.057  0.0854  0.3971  0.2263
 3102SOL    HW2 9552   5.641   0.236   5.001  0.0585  2.0381 -1.6431
 3103SOL     OW 9553   2.664   3.996   5.202 -0.4453  0.7184  0.0699
 3103SOL    HW1 9554   2.686   4.085   5.231 -0.7864  0.3763  1.4598
 3103SOL    HW2 9555   2.568   3.996   5.198 -0.6510 -0.2922  2.7009
 3104SOL     OW 9556   2.361   2.653   5.456 -0.1268 -0.3598 -0.0796
 3104SOL    HW1 9557   2.299   2.621   5.522  0.6575 -0.8092  0.4521
 3104SOL    HW2 9558   2.381   2.742   5.483  1.2937 -1.0080  1.1476
 3105SOL     OW 9559   2.886   6.103   1.444 -0.3321  0.0149  0.0211
 3105SOL    HW1 9560   2.843   6.161   1.381 -1.4723 -0.3526  0.4354
 3105SOL    HW2 9561   2.814   6.056   1.486  0.2910  0.9762  2.3239
 3106SOL     OW 9562   2.004   4.335   2.985  0.0320  0.6835 -0.2541
 3106SOL    HW1 9563   2.035   4.245   2.983  1.6543  1.1463  1.5699
 3106SOL    HW2 9564   1.921   4.331   3.033  0.1947  0.1717 -0.0100
 3107SOL     OW 9565   0.145   5.210   5.351  0.6013  0.1652 -0.1333
 3107SOL    HW1 9566   0.053   5.188   5.370  1.1408 -1.5677  0.6925
 3107SOL    HW2 9567   0.168   5.275   5.417  0.5983 -1.1014  1.1659
 3108SOL     OW 9568   2.198   2.226   0.270  0.1795 -0.3182 -0.4761
 3108SOL    HW1 9569   2.288   2.199   0.289  0.5027 -0.3701 -1.8982
 3108SOL    HW2 9570   2.168   2.164   0.203 -0.8530 -0.1814 -0.1641
 3109SOL     OW 9571   5.996   0.770   4.882 -0.5559  0.0518 -0.2406
 3109SOL    HW1 9572   5.933   0.809   4.944 -1.0326 -1.8233  0.5205
 3109SOL    HW2 9573   5.969   0.804   4.797 -2.4368 -0.4301  0.1043
 3110SOL     OW 9574   2.951   4.774   2.858 -0.2028  0.3030  0.2154
 3110SOL    HW1 9575   2.994   4.726   2.930 -1.4010 -2.8842 -1.0380
 3110SOL    HW2 9576   2.861   4.786   2.888 -0.3582  0.1862 -0.2069
 3111SOL     OW 9577   5.819   5.354   4.621  0.0019 -0.2713  0.8963
 3111SOL    HW1 9578   5.862   5.408   4.556 -0.8523 -0.6281  0.0163
 3111SOL    HW2 9579   5.756   5.302   4.572 -1.5074  0.2876  2.1380
 3112SOL     OW 9580   2.939   5.584   0.527 -0.2686  0.1017  0.4963
 3112SOL    HW1 9581   2.858   5.611   0.570 -0.3922 -0.0562  0.3644
 3112SOL    HW2 9582   3.008   5.633   0.572 -0.4352  0.2188  0.6233
 3113SOL     OW 9583   3.169   1.681   5.854 -0.0058  0.2556  0.0433
 3113SOL    HW1 9584   3.139   1.763   5.813  0.1022  0.9639  1.3294
 3113SOL    HW2 9585   3.155   1.695   5.948 -0.0278 -1.2355  0.2812
 3114SOL     OW 9586   3.771   5.593   3.283 -0.0788  0.5444  0.1944
 3114SOL    HW1 9587   3.853   5.580   3.235 -1.5590  0.0729 -2.3637
 3114SOL    HW2 9588   3.752   5.508   3.321  0.7324  0.7411  1.1063
 3115SOL     OW 9589   4.628   1.788   4.645 -0.5275  0.1816  0.4604
 3115SOL    HW1 9590   4.582   1.856   4.597 -0.6264 -0.6028 -0.5965
 3115SOL    HW2 9591   4.679   1.835   4.711  1.2727  1.5005 -1.7259
 3116SOL     OW 9592   5.259   2.725   3.511 -0.0258 -0.6232  0.4009
 3116SOL    HW1 9593   5.226   2.644   3.473  0.5476 -0.8951  0.4687
 3116SOL    HW2 9594   5.301   2.698   3.593  0.1182 -0.2533  0.4529
 3117SOL     OW 9595   4.618   3.804   5.741 -0.4530 -0.0001 -0.6001
 3117SOL    HW1 9596   4.583   3.739   5.802  1.2118 -1.3166 -0.9580
 3117SOL    HW2 9597   4.639   3.753   5.662 -0.5462  1.2688 -1.4678
 3118SOL     OW 9598   1.397   3.377   3.596 -0.6359  0.2986  0.0220
 3118SOL    HW1 9599   1.372   3.335   3.514 -1.0214 -0.3112  0.4439
 3118SOL    HW2 9600   1.434   3.306   3.649  0.6418  0.8947 -0.0319
 3119SOL     OW 9601   2.054   1.262   1.915  0.7078  0.5632 -0.1785
 3119SOL    HW1 9602   2.115   1.192   1.938 -0.1240  0.1904  0.9755
 3119SOL    HW2 9603   2.080   1.289   1.827  2.1339 -0.0081  0.0472
 3120SOL     OW 9604   1.656   5.599   5.840 -0.8536  0.4529 -0.6512
 3120SOL    HW1 9605   1.735   5.632   5.882 -1.8101  1.5426  0.3562
 3120SOL    HW2 9606   1.679   5.511   5.810  0.5254  0.5027  0.2109
 3121SOL     OW 9607   3.079   5.955   4.378  0.2142 -0.0391 -0.2366
 3121SOL    HW1 9608   2.995   5.996   4.360  0.5548  0.8227  0.0537
 3121SOL    HW2 9609   3.082   5.878   4.321 -0.3711  0.4390 -0.9207
 3122SOL     OW 9610   0.510   4.752   1.255  0.1034  0.1028  0.5397
 3122SOL    HW1 9611   0.563   4.819   1.212  1.9278 -1.1110  0.8203
 3122SOL    HW2 9612   0.446   4.726   1.189 -0.6156  2.0216  0.3979
 3123SOL     OW 9613   5.035   1.289   1.523 -0.8346 -0.2936  0.4180
 3123SOL    HW1 9614   4.974   1.257   1.589  0.1406 -0.0536  1.4677
 3123SOL    HW2 9615   4.984   1.291   1.442 -1.9707 -0.8811  1.0942
 3124SOL     OW 9616   2.752   5.317   0.129 -0.1516 -0.2166 -0.2163
 3124SOL    HW1 9617   2.709   5.400   0.150 -1.7820 -1.5318  2.0542
 3124SOL    HW2 9618   2.681   5.253   0.125  1.2420 -1.8767  0.1858
 3125SOL     OW 9619   3.600   4.224   0.397  0.5428  0.1554  0.5058
 3125SOL    HW1 9620   3.529   4.180   0.445 -0.3041  0.4276 -0.4722
 3125SOL    HW2 9621   3.637   4.285   0.461  1.5394 -1.6956  1.8040
 3126SOL     OW 9622   2.264   2.280   3.162  0.0591 -0.0802 -0.0868
 3126SOL    HW1 9623   2.196   2.263   3.227 -0.6501 -0.9375 -1.0296
 3126SOL    HW2 9624   2.223   2.343   3.102  0.5292  0.3162  0.0066
 3127SOL     OW 9625   1.883   2.966   5.066  0.1065 -0.1470 -0.0310
 3127SOL    HW1 9626   1.884   3.016   4.985 -1.8961  1.1309  0.6560
 3127SOL    HW2 9627   1.964   2.993   5.111  0.3213  0.5274 -0.7916
 3128SOL     OW 9628   3.760   0.448   0.263  0.1506 -0.0576 -0.1103
 3128SOL    HW1 9629   3.772   0.386   0.336  0.8234 -1.0785 -1.0587
 3128SOL    HW2 9630   3.678   0.421   0.222 -0.1773  0.4546  0.1998
 3129SOL     OW 9631   0.204   0.941   3.711 -0.1118  0.5737  0.3111
 3129SOL    HW1 9632   0.118   0.974   3.687  0.0218  1.5146  1.0515
 3129SOL    HW2 9633   0.192   0.847   3.724 -1.2103  0.8238  1.1968
 3130SOL     OW 9634   0.994   5.827   0.935  0.8896 -0.2781  0.5772
 3130SOL    HW1 9635   0.936   5.894   0.971  1.2956 -1.3429  3.4214
 3130SOL    HW2 9636   0.942   5.785   0.866 -1.1533 -0.1416  1.9592
 3131SOL     OW 9637   4.862   1.049   0.555 -1.0686  0.1460 -0.2652
 3131SOL    HW1 9638   4.916   1.071   0.479  0.9632 -0.4010  0.9379
 3131SOL    HW2 9639   4.797   1.120   0.560  0.7183  1.9152 -0.7068
 3132SOL     OW 9640   3.692   0.833   2.411  0.3698 -0.1427  0.4938
 3132SOL    HW1 9641   3.687   0.791   2.497  0.2287 -0.1197  0.4979
 3132SOL    HW2 9642   3.782   0.864   2.404  0.1782  0.5518  0.9663
 3133SOL     OW 9643   6.126   1.489   5.294 -0.9397 -0.7382 -0.9999
 3133SOL    HW1 9644   6.083   1.431   5.357 -0.8647 -1.0402 -1.2261
 3133SOL    HW2 9645   6.064   1.497   5.222 -1.6526  0.7649 -0.2647
 3134SOL     OW 9646   0.675   3.198   5.325  0.5961  0.1134  0.1625
 3134SOL    HW1 9647   0.590   3.217   5.284 -0.0611 -0.4406  1.2170
 3134SOL    HW2 9648   0.733   3.179   5.251 -1.5254 -4.9751 -0.6780
 3135SOL     OW 9649   5.488   1.564   3.004 -0.1822 -0.2202  0.1187
 3135SOL    HW1 9650   5.524   1.618   2.933 -0.6256  1.8080  1.3428
 3135SOL    HW2 9651   5.466   1.481   2.962  2.1279 -0.1079 -1.5077
 3136SOL     OW 9652   6.026   3.439   0.651 -0.7650  0.0263  0.4245
 3136SOL    HW1 9653   6.106   3.421   0.700 -1.7069 -0.6857  1.7593
 3136SOL    HW2 9654   6.042   3.524   0.609 -0.0849  0.9369  2.3925
 3137SOL     OW 9655   0.725   2.770   4.222 -0.1557 -1.0678 -0.2937
 3137SOL    HW1 9656   0.733   2.700   4.157  2.7687 -2.6133  1.4992
 3137SOL    HW2 9657   0.816   2.788   4.249 -0.9236  2.3497  0.5017
 3138SOL     OW 9658   4.548   3.953   0.940 -0.4182 -0.0808  0.0850
 3138SOL    HW1 9659   4.630   3.944   0.892 -0.3421 -1.0375  0.3731
 3138SOL    HW2 9660   4.481   3.955   0.872 -0.1553  1.0288 -0.1713
 3139SOL     OW 9661   2.065   2.934   0.273 -0.1246  0.2143 -0.1645
 3139SOL    HW1 9662   2.113   2.947   0.192  0.6274  0.3809  0.3009
 3139SOL    HW2 9663   2.097   3.003   0.332  0.2495 -0.6627  0.6842
 3140SOL     OW 9664   1.348   4.460   6.015  0.2148  0.5695  0.5498
 3140SOL    HW1 9665   1.443   4.462   6.011  0.3582 -2.7382 -1.0165
 3140SOL    HW2 9666   1.319   4.519   5.944  1.2690 -1.1721 -1.4311
 3141SOL     OW 9667   2.130   1.802   2.925  0.9419  0.1338 -0.2159
 3141SOL    HW1 9668   2.101   1.858   2.854 -0.4237  0.3557  0.4915
 3141SOL    HW2 9669   2.082   1.833   3.002  1.5964 -0.7727  0.5851
 3142SOL     OW 9670   1.457   1.593   3.488 -0.2413  0.2293 -0.4222
 3142SOL    HW1 9671   1.422   1.506   3.506  2.2239 -1.1113 -1.5780
 3142SOL    HW2 9672   1.434   1.644   3.566  0.6836 -2.2460  1.6322
 3143SOL     OW 9673   2.301   4.780   2.581 -0.0905 -0.2730 -0.6738
 3143SOL    HW1 9674   2.295   4.825   2.497  0.3287 -0.0421 -0.5838
 3143SOL    HW2 9675   2.395   4.771   2.596 -0.0967  1.2554  0.5901
 3144SOL     OW 9676   4.024   0.754   2.246  0.2383  0.5147  0.2793
 3144SOL    HW1 9677   4.014   0.849   2.250  2.3850  0.7998  0.0597
 3144SOL    HW2 9678   4.087   0.733   2.315 -0.1386 -0.7492  0.2767
 3145SOL     OW 9679   1.576   2.094   3.162  0.2117  0.0114  0.1426
 3145SOL    HW1 9680   1.534   2.147   3.229 -0.8514 -0.9009  0.2405
 3145SOL    HW2 9681   1.510   2.085   3.093  0.2738 -1.3314  0.2243
 3146SOL     OW 9682   2.453   3.946   1.598  0.0316 -0.2861  0.0295
 3146SOL    HW1 9683   2.547   3.928   1.601 -0.1397 -1.2402 -0.0559
 3146SOL    HW2 9684   2.447   4.041   1.593  0.9941 -0.2180  0.0207
 3147SOL     OW 9685   0.158   0.824   2.439 -0.5870  0.3901 -0.0185
 3147SOL    HW1 9686   0.165   0.918   2.456 -1.1942  0.6860 -1.2827
 3147SOL    HW2 9687   0.224   0.784   2.496  2.3309  1.8980 -2.0361
 3148SOL     OW 9688   5.541   4.998   5.090 -0.0974 -0.0281  0.0695
 3148SOL    HW1 9689   5.623   5.000   5.140  0.3269 -0.1707 -0.6045
 3148SOL    HW2 9690   5.480   4.951   5.146 -0.0332  1.0006  1.0327
 3149SOL     OW 9691   2.514   2.134   5.775  0.0838  0.5043  0.3422
 3149SOL    HW1 9692   2.572   2.117   5.701 -0.7787 -1.8901  0.1241
 3149SOL    HW2 9693   2.431   2.158   5.735 -0.5144 -1.2433  0.4792
 3150SOL     OW 9694   0.681   1.928   5.006 -0.3365  0.0783  0.8821
 3150SOL    HW1 9695   0.667   1.876   4.927 -0.7530 -2.4977  2.5053
 3150SOL    HW2 9696   0.734   1.872   5.062  1.1913  2.4043  1.9139
 3151SOL     OW 9697   3.499   4.716   0.621 -0.0260 -0.0481  0.3791
 3151SOL    HW1 9698   3.479   4.726   0.528 -1.0202 -0.1202  0.5718
 3151SOL    HW2 9699   3.594   4.726   0.627 -0.0114  0.4467 -0.5768
 3152SOL     OW 9700   5.341   5.445   3.463 -0.0148  0.2092 -0.4303
 3152SOL    HW1 9701   5.332   5.491   3.379 -0.8375 -0.4138 -0.6989
 3152SOL    HW2 9702   5.254   5.407   3.479 -0.1770  1.1547  1.2149
 3153SOL     OW 9703   2.077   2.714   1.060  0.4074  0.3546  0.1554
 3153SOL    HW1 9704   2.038   2.797   1.086  0.4250  0.3850  0.0854
 3153SOL    HW2 9705   2.051   2.652   1.129  0.0536  0.3216 -0.0095
 3154SOL     OW 9706   4.590   2.631   3.735  0.0782 -0.8611 -0.1326
 3154SOL    HW1 9707   4.667   2.615   3.790  0.6764 -0.3352 -0.7835
 3154SOL    HW2 9708   4.538   2.552   3.742  1.0819 -1.5621 -0.3115
 3155SOL     OW 9709   4.330   2.252   4.332  0.4514 -0.5665  0.5052
 3155SOL    HW1 9710   4.312   2.162   4.308  3.3979 -1.4634  1.2149
 3155SOL    HW2 9711   4.353   2.295   4.250 -1.2179 -0.3379  0.1265
 3156SOL     OW 9712   4.384   5.048   4.972  0.2067 -0.0411  0.1659
 3156SOL    HW1 9713   4.394   4.964   4.927 -0.7239 -0.1433  0.1266
 3156SOL    HW2 9714   4.474   5.078   4.988  0.5549 -1.2883  0.6499
 3157SOL     OW 9715   0.313   0.060   6.143 -0.7057  0.2969 -0.3125
 3157SOL    HW1 9716   0.239   0.024   6.094  0.3223  0.4849 -2.1266
 3157SOL    HW2 9717   0.347   0.129   6.086 -0.4554  1.7232  1.4791
 3158SOL     OW 9718   1.018   5.133   2.198 -0.1722 -0.0644 -0.0773
 3158SOL    HW1 9719   1.034   5.117   2.105 -1.9237 -2.6161 -0.0553
 3158SOL    HW2 9720   0.972   5.217   2.201  1.1049  0.7074 -1.3537
 3159SOL     OW 9721   1.710   3.226   3.000  0.8129  0.3145  0.3114
 3159SOL    HW1 9722   1.635   3.280   2.975  0.4144 -0.8969 -1.2122
 3159SOL    HW2 9723   1.786   3.278   2.974  0.4823  0.8602  0.4074
 3160SOL     OW 9724   2.132   2.643   5.605 -0.5255  0.4116 -0.0723
 3160SOL    HW1 9725   2.051   2.678   5.566  0.2043  0.3535 -1.7245
 3160SOL    HW2 9726   2.109   2.552   5.627 -1.3511  0.8378  0.8792
 3161SOL     OW 9727   1.603   1.919   3.833 -0.1663  0.1892 -0.6984
 3161SOL    HW1 9728   1.598   1.927   3.738 -1.6538  1.6567 -0.5419
 3161SOL    HW2 9729   1.697   1.917   3.852  0.1541  0.2652 -2.1603
 3162SOL     OW 9730   0.213   0.078   3.494 -0.0658  0.5749  0.4293
 3162SOL    HW1 9731   0.250   0.004   3.447  0.3446 -0.5395  2.3859
 3162SOL    HW2 9732   0.138   0.041   3.541 -1.8435  2.1215 -0.9906
 3163SOL     OW 9733   0.833   1.525   1.523  0.2598 -0.1798 -0.4415
 3163SOL    HW1 9734   0.809   1.604   1.475  0.8579  0.0592 -0.3588
 3163SOL    HW2 9735   0.884   1.473   1.461  0.4062 -0.2086 -0.2992
 3164SOL     OW 9736   5.730   3.079   4.271  0.9077  0.4508  0.3616
 3164SOL    HW1 9737   5.763   3.139   4.204 -0.3109  0.8517  0.1008
 3164SOL    HW2 9738   5.803   3.018   4.286  1.2317  0.3760 -1.3031
 3165SOL     OW 9739   2.388   1.129   4.017 -0.3250  0.8407 -0.4265
 3165SOL    HW1 9740   2.408   1.074   4.092 -1.2217  1.1090  0.0301
 3165SOL    HW2 9741   2.456   1.197   4.018  0.5402  0.0038 -0.7551
 3166SOL     OW 9742   1.257   0.384   3.426  0.5012 -0.1003 -0.8345
 3166SOL    HW1 9743   1.178   0.372   3.374  0.8957 -0.4978 -1.3548
 3166SOL    HW2 9744   1.329   0.365   3.366  1.0153  0.7609 -0.5088
 3167SOL     OW 9745   3.730   3.265   2.032  0.0670  0.3717 -0.3477
 3167SOL    HW1 9746   3.689   3.310   2.106 -1.0369 -0.5122 -0.3997
 3167SOL    HW2 9747   3.811   3.229   2.069 -0.5622 -0.2211  0.4982
 3168SOL     OW 9748   5.337   0.872   1.553  0.5365  0.1917 -0.2720
 3168SOL    HW1 9749   5.244   0.850   1.552  0.2388  1.1479  1.8635
 3168SOL    HW2 9750   5.382   0.788   1.542 -0.5652 -0.4532 -0.0183
 3169SOL     OW 9751   3.668   2.274   4.819 -0.1497  0.4339 -0.6208
 3169SOL    HW1 9752   3.620   2.197   4.790 -0.6581 -0.3593  2.0855
 3169SOL    HW2 9753   3.614   2.348   4.792 -2.5060 -0.4044  1.4675
 3170SOL     OW 9754   2.538   3.208   5.632 -0.5805 -0.7216  0.3566
 3170SOL    HW1 9755   2.454   3.163   5.641 -1.6620  1.2416  0.5833
 3170SOL    HW2 9756   2.526   3.292   5.676  0.7740  0.5361 -1.4928
 3171SOL     OW 9757   3.328   0.205   3.438  0.2236 -0.0624 -0.1514
 3171SOL    HW1 9758   3.419   0.195   3.411  1.0579 -0.4546  2.4599
 3171SOL    HW2 9759   3.332   0.267   3.511 -1.4829 -0.7009  0.5378
 3172SOL     OW 9760   5.558   5.929   0.698  0.4402 -0.2746  0.0748
 3172SOL    HW1 9761   5.538   5.932   0.604 -1.1064 -2.7707  0.2168
 3172SOL    HW2 9762   5.645   5.890   0.703  0.5957  0.0164 -0.3156
 3173SOL     OW 9763   5.071   2.519   0.759 -0.0200  0.1122 -0.0345
 3173SOL    HW1 9764   5.110   2.551   0.678  1.5947  2.3037  1.4617
 3173SOL    HW2 9765   4.980   2.548   0.755 -0.4195 -1.2183 -1.6953
 3174SOL     OW 9766   0.242   2.370   2.329 -0.4591  0.0845  0.1670
 3174SOL    HW1 9767   0.270   2.418   2.407 -2.7935  1.2923  0.3589
 3174SOL    HW2 9768   0.307   2.301   2.318  1.2202  1.2998  1.8080
 3175SOL     OW 9769   2.250   4.104   3.275 -0.0685 -0.4022  0.8187
 3175SOL    HW1 9770   2.330   4.094   3.224 -0.2690 -0.2346  0.4690
 3175SOL    HW2 9771   2.190   4.038   3.239 -1.4782  2.0229 -1.6427
 3176SOL     OW 9772   2.391   5.076   5.640 -0.1297 -0.0234  0.3778
 3176SOL    HW1 9773   2.356   5.020   5.709 -2.1429  0.8153  0.1051
 3176SOL    HW2 9774   2.324   5.074   5.572  1.9530 -1.1537 -1.8017
 3177SOL     OW 9775   1.829   5.368   0.847 -0.2460 -0.0829 -0.0071
 3177SOL    HW1 9776   1.885   5.292   0.864  0.8463  0.6640 -0.1139
 3177SOL    HW2 9777   1.837   5.383   0.753 -3.7712 -2.2945 -0.8515
 3178SOL     OW 9778   3.084   3.752   3.275  0.1137  0.0347  0.3698
 3178SOL    HW1 9779   3.086   3.798   3.191 -0.3653 -0.8653 -0.1607
 3178SOL    HW2 9780   2.992   3.755   3.301 -0.0728 -1.2562 -0.0632
 3179SOL     OW 9781   2.134   5.631   6.124 -0.2447  0.1610  0.5793
 3179SOL    HW1 9782   2.224   5.660   6.140  0.0971 -1.0662  0.9793
 3179SOL    HW2 9783   2.084   5.663   6.199 -0.0302  0.3142  0.6576
 3180SOL     OW 9784   2.661   2.413   1.679 -0.1702 -0.2139  0.3618
 3180SOL    HW1 9785   2.697   2.396   1.592 -0.7430  0.2671  0.0194
 3180SOL    HW2 9786   2.567   2.429   1.663 -0.3967 -0.7074  1.1353
 3181SOL     OW 9787   0.096   1.989   3.747  0.5021 -0.2078 -0.3020
 3181SOL    HW1 9788   0.058   1.904   3.725  1.3652 -0.3760 -1.1781
 3181SOL    HW2 9789   0.102   2.036   3.664  0.0915  0.6962  0.1625
 3182SOL     OW 9790   3.608   5.257   5.029  0.1839 -0.0604 -0.6796
 3182SOL    HW1 9791   3.648   5.170   5.038  0.0984 -0.2366 -1.7983
 3182SOL    HW2 9792   3.515   5.242   5.045  0.0588 -0.3318 -1.5719
 3183SOL     OW 9793   6.105   3.559   4.807 -0.2715  0.3897  0.0905
 3183SOL    HW1 9794   6.185   3.572   4.757 -0.4354  1.4117  0.0759
 3183SOL    HW2 9795   6.071   3.475   4.777  0.8864 -0.1512  0.2368
 3184SOL     OW 9796   5.627   0.158   2.835 -0.3322  0.0562  0.8554
 3184SOL    HW1 9797   5.551   0.128   2.786 -0.4179 -1.1308  1.7004
 3184SOL    HW2 9798   5.702   0.124   2.786 -0.3990 -0.4675  1.1125
 3185SOL     OW 9799   3.408   3.433   0.739 -0.1443  0.0280  0.1786
 3185SOL    HW1 9800   3.386   3.479   0.820  1.6274 -0.3360  0.9151
 3185SOL    HW2 9801   3.425   3.343   0.766 -1.5776 -0.6257 -0.9435
 3186SOL     OW 9802   3.458   2.004   0.500  0.2598 -0.1707  0.6837
 3186SOL    HW1 9803   3.367   2.001   0.469  0.0888  0.9920  1.0305
 3186SOL    HW2 9804   3.472   1.919   0.541 -0.2627 -0.8432 -0.4643
 3187SOL     OW 9805   3.952   2.051   5.928  0.2908  0.1338 -0.0420
 3187SOL    HW1 9806   3.945   2.063   5.833 -0.7208 -1.6627 -0.2382
 3187SOL    HW2 9807   3.924   1.961   5.943 -3.2419  1.4087  2.3437
 3188SOL     OW 9808   0.447   3.030   3.213  0.1511  0.1361 -0.1955
 3188SOL    HW1 9809   0.439   3.125   3.212 -2.4323  0.0037 -0.7464
 3188SOL    HW2 9810   0.428   3.003   3.123 -1.1877 -0.9698  0.3804
 3189SOL     OW 9811   2.212   3.666   0.325 -0.2274  0.0200  0.2412
 3189SOL    HW1 9812   2.181   3.656   0.235 -0.3258  0.7650  0.1894
 3189SOL    HW2 9813   2.307   3.658   0.319 -0.3131 -1.4297  0.2888
 3190SOL     OW 9814   4.902   1.054   2.258  0.3210  0.2407 -0.1560
 3190SOL    HW1 9815   4.869   0.991   2.323  1.0276 -0.2881 -0.2949
 3190SOL    HW2 9816   4.825   1.076   2.206  0.3079 -1.6718 -1.0545
 3191SOL     OW 9817   5.186   2.426   3.812  0.7524 -0.2737  0.6260
 3191SOL    HW1 9818   5.246   2.497   3.790 -1.4617  1.6073  0.2196
 3191SOL    HW2 9819   5.101   2.469   3.823 -0.6933 -2.8703  0.4791
 3192SOL     OW 9820   3.981   2.679   4.391 -0.3937  0.3595  0.1027
 3192SOL    HW1 9821   3.993   2.619   4.318  2.4405  1.5315 -0.5486
 3192SOL    HW2 9822   4.044   2.649   4.457 -0.9165  0.9696  0.9021
 3193SOL     OW 9823   1.511   2.141   1.281  0.3595  0.1005  0.4894
 3193SOL    HW1 9824   1.492   2.093   1.200  0.6082  0.6375  0.1064
 3193SOL    HW2 9825   1.428   2.141   1.328  0.4524 -1.0393  0.6785
 3194SOL     OW 9826   6.045   0.738   0.111 -0.2618 -0.4321 -0.2776
 3194SOL    HW1 9827   6.014   0.647   0.111  0.0635 -0.5449 -0.3374
 3194SOL    HW2 9828   6.000   0.778   0.037 -2.0425  0.0308  0.9968
 3195SOL     OW 9829   3.054   0.535   3.538 -0.0889 -1.0123  0.1718
 3195SOL    HW1 9830   3.034   0.456   3.588 -2.6993 -0.4956  0.0728
 3195SOL    HW2 9831   3.146   0.554   3.559  0.3217 -3.4780  0.9539
 3196SOL     OW 9832   5.737   2.538   4.617 -0.8412  0.0484 -0.5244
 3196SOL    HW1 9833   5.696   2.473   4.560 -0.5061 -1.3971  0.7800
 3196SOL    HW2 9834   5.719   2.506   4.706  0.1993  1.2124  0.1410
 3197SOL     OW 9835   5.815   1.776   0.932 -0.0638 -0.6549 -0.6243
 3197SOL    HW1 9836   5.744   1.783   0.868 -0.8005 -1.3132  0.0938
 3197SOL    HW2 9837   5.845   1.866   0.943  0.1012 -0.5344 -1.9075
 3198SOL     OW 9838   5.346   1.275   5.574  0.4347 -0.2885 -0.4038
 3198SOL    HW1 9839   5.365   1.355   5.525  1.4626  0.0410  0.4849
 3198SOL    HW2 9840   5.346   1.205   5.508  1.4118  0.1900 -0.9249
 3199SOL     OW 9841   5.416   5.511   1.293 -0.2620 -0.1676  0.6815
 3199SOL    HW1 9842   5.357   5.582   1.318  0.2435  0.5190 -0.0334
 3199SOL    HW2 9843   5.478   5.504   1.366 -0.6642 -0.2753  1.0181
 3200SOL     OW 9844   1.935   5.045   4.622  0.1995 -0.1237  0.3531
 3200SOL    HW1 9845   1.886   4.966   4.597  0.9894 -0.8395  1.0060
 3200SOL    HW2 9846   1.982   5.020   4.702  1.7704  0.4677 -0.3436
 3201SOL     OW 9847   1.327   3.230   2.298  0.4686 -0.3193 -0.1671
 3201SOL    HW1 9848   1.369   3.151   2.265  1.9784  0.3223  0.1465
 3201SOL    HW2 9849   1.378   3.254   2.375  0.7131  1.5192 -0.8469
 3202SOL     OW 9850   5.476   2.360   0.082 -0.5497 -0.1199  0.2186
 3202SOL    HW1 9851   5.538   2.299   0.042  0.3177  0.9333 -0.0988
 3202SOL    HW2 9852   5.480   2.438   0.026 -4.5975 -1.1081 -1.7971
 3203SOL     OW 9853   0.973   3.592   4.601  0.1190 -0.2074  0.0461
 3203SOL    HW1 9854   1.042   3.533   4.628 -0.0337 -0.4762 -0.1431
 3203SOL    HW2 9855   0.954   3.645   4.679  1.7452  1.0880 -0.3884
 3204SOL     OW 9856   2.764   0.079   4.114  0.7811  0.2084 -0.0182
 3204SOL    HW1 9857   2.684   0.116   4.150 -0.4417 -0.9921 -1.4049
 3204SOL    HW2 9858   2.831   0.145   4.133 -0.5595  1.3556  0.9277
 3205SOL     OW 9859   6.018   4.886   0.633  0.5165  0.2797 -0.1004
 3205SOL    HW1 9860   6.104   4.877   0.674  0.3424 -1.5529 -0.0730
 3205SOL    HW2 9861   5.960   4.909   0.705  0.3695 -2.0511  0.5927
 3206SOL     OW 9862   6.052   3.883   2.686  0.1409 -0.6825  0.1977
 3206SOL    HW1 9863   6.031   3.975   2.703 -0.0648 -0.5943 -0.4903
 3206SOL    HW2 9864   5.967   3.838   2.689  0.2496 -0.8671  0.6116
 3207SOL     OW 9865   0.008   6.055   5.805 -0.1489  0.5737 -0.1622
 3207SOL    HW1 9866   0.056   5.987   5.757  1.4495  1.3703  0.2706
 3207SOL    HW2 9867  -0.074   6.063   5.757  1.1345  0.9070 -2.4388
 3208SOL     OW 9868   5.501   1.232   2.563  0.7621 -0.5912  0.0762
 3208SOL    HW1 9869   5.591   1.259   2.583  0.7233 -0.5344  0.1744
 3208SOL    HW2 9870   5.448   1.270   2.633  0.4771  0.5109 -0.7128
 3209SOL     OW 9871   4.813   1.732   6.117  0.2567  0.4233 -0.5597
 3209SOL    HW1 9872   4.868   1.656   6.138  0.0021  0.6095  0.9420
 3209SOL    HW2 9873   4.863   1.807   6.149 -0.8838  0.5817  0.9731
 3210SOL     OW 9874   2.472   5.861   3.409  0.0058  0.1728  0.4822
 3210SOL    HW1 9875   2.439   5.802   3.476  0.7658  0.5332  1.1895
 3210SOL    HW2 9876   2.399   5.922   3.393 -0.2953 -0.1170  0.7317
 3211SOL     OW 9877   3.012   4.240   1.741  0.0246 -0.3574 -0.5515
 3211SOL    HW1 9878   3.066   4.223   1.664  2.5883  0.9589  0.8065
 3211SOL    HW2 9879   2.985   4.332   1.731 -0.9411 -0.6364 -0.5923
 3212SOL     OW 9880   4.758   5.430   1.343 -0.5891 -0.0111 -0.0904
 3212SOL    HW1 9881   4.840   5.409   1.388 -0.3493 -1.5322 -1.1487
 3212SOL    HW2 9882   4.690   5.412   1.408 -0.1316  0.5216  0.5522
 3213SOL     OW 9883   4.177   2.913   1.309 -0.1864 -0.4543  0.0639
 3213SOL    HW1 9884   4.170   2.986   1.370 -0.1781 -1.2128  0.9947
 3213SOL    HW2 9885   4.179   2.954   1.223 -1.3420  0.5862  0.5005
 3214SOL     OW 9886   3.368   6.002   5.979 -0.1213  0.7702  0.0289
 3214SOL    HW1 9887   3.307   6.007   6.053  0.1262  1.0117  0.2212
 3214SOL    HW2 9888   3.388   5.909   5.971  0.9785  0.8755  1.2181
 3215SOL     OW 9889   3.523   0.380   0.672  0.0154  0.4188  0.1747
 3215SOL    HW1 9890   3.606   0.378   0.624  0.0998  1.5198  0.2474
 3215SOL    HW2 9891   3.509   0.473   0.690 -1.1808  0.2292  0.2580
 3216SOL     OW 9892   4.421   1.132   3.358  0.0747 -0.3854 -0.2441
 3216SOL    HW1 9893   4.471   1.213   3.345 -1.0421  0.4092  0.3147
 3216SOL    HW2 9894   4.357   1.132   3.288 -0.8305 -0.0716  0.5656
 3217SOL     OW 9895   5.281   5.079   3.685  0.0983 -0.1517  0.6095
 3217SOL    HW1 9896   5.277   5.169   3.719 -0.3178 -0.1668  0.6040
 3217SOL    HW2 9897   5.191   5.060   3.657  0.1320 -0.6612  0.8441
 3218SOL     OW 9898   1.372   4.551   4.887 -0.3019 -0.3996  1.1604
 3218SOL    HW1 9899   1.345   4.493   4.815 -1.1676 -0.5209  1.5665
 3218SOL    HW2 9900   1.394   4.634   4.844 -0.2590 -0.6452  0.7002
 3219SOL     OW 9901   4.005   4.415   5.025 -0.4059 -0.2870 -0.6867
 3219SOL    HW1 9902   4.078   4.406   5.087 -2.3833 -0.9249  1.7321
 3219SOL    HW2 9903   3.982   4.508   5.028 -1.4974 -0.5556  0.9064
 3220SOL     OW 9904   5.522   2.191   3.374  0.4673 -0.0295 -0.3256
 3220SOL    HW1 9905   5.492   2.105   3.343 -0.2129 -0.0871  0.4648
 3220SOL    HW2 9906   5.603   2.207   3.325 -0.2598 -0.3834 -1.6891
 3221SOL     OW 9907   1.973   0.193   3.951 -0.1211 -0.2100 -0.7022
 3221SOL    HW1 9908   1.935   0.175   3.865 -0.0846  0.7087 -0.9248
 3221SOL    HW2 9909   1.898   0.206   4.009 -0.1685  0.9143 -0.9903
 3222SOL     OW 9910   4.422   0.731   1.885  0.2847 -0.3753  0.0600
 3222SOL    HW1 9911   4.495   0.688   1.840  1.8594 -0.0130  2.1045
 3222SOL    HW2 9912   4.386   0.664   1.942  1.7741  0.4891  2.1354
 3223SOL     OW 9913   4.631   0.186   5.649  0.1219  0.0508 -0.2641
 3223SOL    HW1 9914   4.538   0.164   5.659  0.3246 -0.8492 -0.2039
 3223SOL    HW2 9915   4.655   0.228   5.731  0.4574 -2.4021  1.0048
 3224SOL     OW 9916   0.341   2.081   2.625  0.4272  0.3177 -0.1362
 3224SOL    HW1 9917   0.380   2.003   2.586 -0.4633 -0.1962 -0.0347
 3224SOL    HW2 9918   0.379   2.154   2.576  1.1169 -0.1893 -0.3663
 3225SOL     OW 9919   5.321   5.539   2.702 -0.4157 -0.2098 -0.1377
 3225SOL    HW1 9920   5.275   5.466   2.745 -0.3288 -0.2915 -0.1833
 3225SOL    HW2 9921   5.371   5.498   2.632  0.2518 -0.2073  0.3338
 3226SOL     OW 9922   4.036   1.271   0.228 -0.0501  0.7123  0.0155
 3226SOL    HW1 9923   3.943   1.250   0.239  0.4228 -0.7101  1.7144
 3226SOL    HW2 9924   4.080   1.222   0.297  2.0067  1.1689 -0.9007
 3227SOL     OW 9925   1.917   4.576   5.588 -0.2394  0.1430  0.8882
 3227SOL    HW1 9926   1.897   4.487   5.559  0.5865  0.2838 -0.2002
 3227SOL    HW2 9927   1.875   4.633   5.523  0.9264  0.4895  0.4112
 3228SOL     OW 9928   2.578   3.707   0.737 -0.5874  0.3972 -0.2756
 3228SOL    HW1 9929   2.626   3.774   0.688 -2.1793  0.3124 -2.0763
 3228SOL    HW2 9930   2.626   3.626   0.721 -0.6703  0.5038 -1.1329
 3229SOL     OW 9931   0.589   4.352   3.419 -0.2734 -0.1133 -0.0687
 3229SOL    HW1 9932   0.588   4.368   3.325 -0.1055  0.9320  0.0896
 3229SOL    HW2 9933   0.682   4.341   3.440  0.1064  3.1242  0.4656
 3230SOL     OW 9934   3.840   3.529   0.669 -0.3602  0.0529 -0.0605
 3230SOL    HW1 9935   3.786   3.591   0.619 -0.4241 -0.7488 -1.0087
 3230SOL    HW2 9936   3.814   3.443   0.636  0.5480 -0.4184  0.4353
 3231SOL     OW 9937   2.079   2.456   2.155 -0.0193 -0.4854 -0.3093
 3231SOL    HW1 9938   2.152   2.403   2.125  0.7589  0.0403  0.6180
 3231SOL    HW2 9939   2.001   2.411   2.122  0.4701 -3.2799  2.0297
 3232SOL     OW 9940   3.185   3.821   4.044 -0.1448 -0.6219 -0.1214
 3232SOL    HW1 9941   3.116   3.768   4.002 -0.9372 -1.1037  1.6668
 3232SOL    HW2 9942   3.186   3.790   4.134  1.8199  0.0352  0.1150
 3233SOL     OW 9943   1.393   0.192   2.236  0.2277  0.1135  0.6005
 3233SOL    HW1 9944   1.338   0.266   2.210  0.0604  0.1528  1.0724
 3233SOL    HW2 9945   1.386   0.131   2.162  0.1168  0.4297  0.3476
 3234SOL     OW 9946   5.262   3.446   2.382  0.3596 -0.2980  0.0444
 3234SOL    HW1 9947   5.266   3.522   2.440  2.5721 -0.9017  0.7615
 3234SOL    HW2 9948   5.217   3.479   2.303  1.1230  1.7091  0.3771
 3235SOL     OW 9949   3.792   0.619   5.016 -0.1926  0.5288 -0.5646
 3235SOL    HW1 9950   3.840   0.536   5.020  2.1503  1.6314 -3.0243
 3235SOL    HW2 9951   3.833   0.674   5.082  1.0820  1.0153 -1.7247
 3236SOL     OW 9952   0.873   5.321   0.878 -0.0546  0.2241  0.0563
 3236SOL    HW1 9953   0.815   5.254   0.841 -0.4799  0.7498 -0.2542
 3236SOL    HW2 9954   0.943   5.330   0.813 -0.6536  0.9458 -0.5314
 3237SOL     OW 9955   2.629   2.339   3.270  0.1008 -0.1897 -0.0165
 3237SOL    HW1 9956   2.589   2.271   3.216  0.2453  0.7835 -1.4161
 3237SOL    HW2 9957   2.616   2.310   3.360 -1.4309 -1.1738 -0.5216
 3238SOL     OW 9958   1.569   0.109   2.491 -0.6800 -0.2574  0.0138
 3238SOL    HW1 9959   1.564   0.121   2.396 -0.1265  1.8165  0.1979
 3238SOL    HW2 9960   1.596   0.018   2.502  0.0970 -0.2983 -1.8533
 3239SOL     OW 9961   2.296   3.582   0.646 -0.2052  0.0310  0.4032
 3239SOL    HW1 9962   2.278   3.596   0.553  1.7344 -3.0679 -0.5866
 3239SOL    HW2 9963   2.382   3.622   0.660 -0.3944  0.2966  0.8061
 3240SOL     OW 9964   1.602   3.819   0.021 -0.0367  0.3224 -0.0103
 3240SOL    HW1 9965   1.509   3.806   0.006 -0.0375 -1.4476  1.3034
 3240SOL    HW2 9966   1.640   3.822  -0.067 -1.0620 -1.1367 -0.5354
 3241SOL     OW 9967   1.242   5.979   1.600 -0.9299  0.7143 -0.4547
 3241SOL    HW1 9968   1.329   5.952   1.571 -0.1329  0.9912  1.5309
 3241SOL    HW2 9969   1.247   6.074   1.606 -1.5130  0.7684 -0.6983
 3242SOL     OW 9970   5.084   4.914   2.362  0.0746 -0.1584 -0.0585
 3242SOL    HW1 9971   5.023   4.854   2.404 -1.3905  0.9868 -0.4409
 3242SOL    HW2 9972   5.106   4.873   2.279  0.5528 -1.0025  0.4764
 3243SOL     OW 9973   4.991   3.703   1.273  0.4242  0.3667 -0.1325
 3243SOL    HW1 9974   4.903   3.688   1.237  0.7042  0.8937 -1.0872
 3243SOL    HW2 9975   5.028   3.615   1.281  0.3862  0.2278 -1.2844
 3244SOL     OW 9976   6.015   3.466   2.386  0.6237 -0.2146  0.3620
 3244SOL    HW1 9977   5.985   3.409   2.457 -2.4784  0.4574 -0.2834
 3244SOL    HW2 9978   5.986   3.422   2.306  1.2519  0.6131 -0.3415
 3245SOL     OW 9979   4.884   3.799   5.789  0.4206  0.1954 -0.2201
 3245SOL    HW1 9980   4.906   3.870   5.728 -0.2469  0.7800  0.2052
 3245SOL    HW2 9981   4.788   3.794   5.786  0.4729 -0.9513 -0.5277
 3246SOL     OW 9982   1.774   0.902   1.851  0.6224  0.4112  0.0441
 3246SOL    HW1 9983   1.680   0.885   1.844  0.8801 -1.1451  0.1230
 3246SOL    HW2 9984   1.780   0.986   1.898 -0.7417  1.3485 -1.3684
 3247SOL     OW 9985   0.787   0.139   5.363 -0.5779 -0.7296  0.4986
 3247SOL    HW1 9986   0.829   0.196   5.427  0.3512 -2.1980  1.2542
 3247SOL    HW2 9987   0.818   0.171   5.279 -0.4723  0.1697  0.8627
 3248SOL     OW 9988   1.102   1.441   3.173 -0.2687 -0.2765 -0.1851
 3248SOL    HW1 9989   1.120   1.383   3.247 -1.2170 -0.1484  0.1555
 3248SOL    HW2 9990   1.176   1.502   3.171 -0.0921 -0.4678  0.4724
 3249SOL     OW 9991   1.488   4.622   1.647  0.0274 -0.3797  0.1816
 3249SOL    HW1 9992   1.394   4.637   1.661  0.2782  1.0825  0.3555
 3249SOL    HW2 9993   1.530   4.702   1.676  1.4286 -1.3666  0.9621
 3250SOL     OW 9994   0.344   2.885   3.987 -0.2580 -0.0014  0.5979
 3250SOL    HW1 9995   0.426   2.931   3.968 -0.4834  0.6773  1.2156
 3250SOL    HW2 9996   0.276   2.951   3.973 -0.8492 -0.9211 -1.2536
 3251SOL     OW 9997   1.165   1.882   3.502 -0.4210  0.0244 -0.1581
 3251SOL    HW1 9998   1.202   1.855   3.418  0.5923  0.3194  0.1749
 3251SOL    HW2 9999   1.095   1.943   3.479 -1.5596 -1.4924 -0.8530
 3252SOL     OW10000   1.371   5.692   0.203  0.2694 -0.5543  0.2707
 3252SOL    HW110001   1.454   5.705   0.248 -0.4928 -1.1118  1.9603
 3252SOL    HW210002   1.368   5.598   0.185 -0.7555 -0.8837  1.9289
 3253SOL     OW10003   1.271   1.432   2.714 -0.5192  0.5589  0.1474
 3253SOL    HW110004   1.183   1.418   2.680 -0.6437  0.9714  0.2967
 3253SOL    HW210005   1.302   1.345   2.736 -0.9447  0.4272  0.2324
 3254SOL     OW10006   3.698   6.004   3.127  0.5993 -0.2406 -0.2274
 3254SOL    HW110007   3.694   5.934   3.192 -2.4603 -0.0627 -0.0716
 3254SOL    HW210008   3.730   5.960   3.048  1.9504 -1.0172  0.7016
 3255SOL     OW10009   0.092   4.560   1.090  0.1929  0.5090 -0.0723
 3255SOL    HW110010   0.001   4.589   1.093  0.7532  2.4797 -0.3144
 3255SOL    HW210011   0.097   4.501   1.015 -0.4783  2.0139 -1.3560
 3256SOL     OW10012   0.003   1.438   3.870 -0.1994 -0.1651 -0.2275
 3256SOL    HW110013  -0.065   1.397   3.923  0.5291  2.5563  3.1999
 3256SOL    HW210014  -0.046   1.488   3.803 -1.2775 -1.6632 -0.6005
 3257SOL     OW10015   0.019   2.530   2.612 -0.0301  0.5687 -0.1853
 3257SOL    HW110016   0.080   2.585   2.562  1.0225  1.2195  1.7124
 3257SOL    HW210017  -0.021   2.474   2.546 -0.2535  2.7553 -2.0455
 3258SOL     OW10018   0.307   5.781   1.715 -0.5734  0.1710 -0.7271
 3258SOL    HW110019   0.367   5.719   1.756  1.4324  1.4854 -1.4752
 3258SOL    HW210020   0.230   5.730   1.693  1.0127 -2.0862 -1.3917
 3259SOL     OW10021   5.022   4.274   2.299  0.2760 -0.2601  0.3101
 3259SOL    HW110022   4.982   4.268   2.386  0.9289 -0.7852  0.5864
 3259SOL    HW210023   5.060   4.362   2.296 -1.2502  0.4083 -0.1250
 3260SOL     OW10024   1.260   3.984   4.404 -0.0111 -0.0596 -0.0396
 3260SOL    HW110025   1.262   3.891   4.430  1.4054 -0.2521 -0.7646
 3260SOL    HW210026   1.177   3.993   4.356 -0.0726 -1.0042 -0.1447
 3261SOL     OW10027   0.122   1.536   2.860 -0.1094 -0.4399 -0.5211
 3261SOL    HW110028   0.184   1.495   2.799  0.8951  0.2335  0.0390
 3261SOL    HW210029   0.154   1.512   2.947 -0.2593  0.4387 -0.2137
 3262SOL     OW10030   3.951   1.120   3.397  0.3961  0.2490  0.1171
 3262SOL    HW110031   3.981   1.031   3.415 -0.5332 -0.0824  0.0517
 3262SOL    HW210032   3.893   1.111   3.322 -1.0210  0.6620  1.1307
 3263SOL     OW10033   3.723   5.876   3.376 -0.2229  0.0844 -0.1027
 3263SOL    HW110034   3.697   5.786   3.354  0.8404 -0.3382  0.2994
 3263SOL    HW210035   3.817   5.869   3.396 -0.2137  1.2199  0.2825
 3264SOL     OW10036   3.910   1.964   1.194 -0.2410 -0.2521  0.2986
 3264SOL    HW110037   3.882   2.054   1.213  0.7628  0.0143  0.5713
 3264SOL    HW210038   3.960   1.971   1.113  0.7734 -0.3755  0.8987
 3265SOL     OW10039   5.784   2.731   4.899 -0.4788  1.0115 -0.7399
 3265SOL    HW110040   5.734   2.732   4.981  2.5816  1.3845  1.2919
 3265SOL    HW210041   5.798   2.824   4.880  2.5424  1.0295  0.9424
 3266SOL     OW10042   1.882   4.626   2.224 -0.2634 -0.4560 -0.3591
 3266SOL    HW110043   1.958   4.621   2.166  0.2863  0.9293  0.2164
 3266SOL    HW210044   1.904   4.567   2.296  1.2727  1.4861  0.8768
 3267SOL     OW10045   2.283   2.519   1.239  0.1421 -0.2909  0.2989
 3267SOL    HW110046   2.188   2.502   1.245  0.3134 -1.1630  0.7837
 3267SOL    HW210047   2.302   2.573   1.316  0.0584 -0.2300  0.2773
 3268SOL     OW10048   4.989   3.164   2.412 -0.3171  0.0680 -0.0301
 3268SOL    HW110049   5.073   3.120   2.422 -0.5263 -0.5443 -0.8638
 3268SOL    HW210050   4.944   3.149   2.494  0.3284  0.2905  0.3778
 3269SOL     OW10051   4.735   2.979   3.102  0.4823 -0.0283  0.5872
 3269SOL    HW110052   4.738   2.922   3.179 -2.0682 -1.0971  0.0024
 3269SOL    HW210053   4.778   2.928   3.033 -1.5324 -1.2239  0.1400
 3270SOL     OW10054   5.665   0.985   0.049  0.5739 -0.1437 -0.1460
 3270SOL    HW110055   5.598   0.916   0.053  1.0998 -0.6214  1.2238
 3270SOL    HW210056   5.635   1.044  -0.020 -1.2201 -0.3761  0.3762
 3271SOL     OW10057   3.919   2.378   5.752  0.6139  0.0443  0.2103
 3271SOL    HW110058   3.885   2.467   5.742 -1.1389 -0.3998  1.8123
 3271SOL    HW210059   3.894   2.352   5.840  1.2022 -2.0131 -0.1762
 3272SOL     OW10060   4.771   1.241   3.350  0.2077 -0.1209 -0.1628
 3272SOL    HW110061   4.827   1.245   3.428 -0.1442 -0.5281  0.1208
 3272SOL    HW210062   4.742   1.150   3.347 -1.2540  0.2942  0.2904
 3273SOL     OW10063   3.392   6.131   4.479 -0.3737  0.3319  0.0037
 3273SOL    HW110064   3.458   6.084   4.429 -0.7344  1.2809 -1.4035
 3273SOL    HW210065   3.331   6.063   4.508  0.6003 -0.4110  0.4143
 3274SOL     OW10066   2.715   5.562   5.762  0.0268 -0.4378 -0.2736
 3274SOL    HW110067   2.625   5.588   5.743  0.0453 -0.2403 -0.0961
 3274SOL    HW210068   2.754   5.545   5.675  0.2549  0.9589 -0.4659
 3275SOL     OW10069   5.714   4.274   1.134 -0.2118 -0.4881 -0.1234
 3275SOL    HW110070   5.806   4.274   1.161 -0.2325 -2.1072  0.0350
 3275SOL    HW210071   5.716   4.298   1.042  0.3148  0.0187  0.0130
 3276SOL     OW10072   3.629   2.415   1.755 -0.9339 -0.8046  0.1530
 3276SOL    HW110073   3.654   2.391   1.666  1.6961 -0.2233  0.6299
 3276SOL    HW210074   3.582   2.497   1.747 -2.0825 -1.5217 -0.7718
 3277SOL     OW10075   2.539   2.584   2.891 -0.2140 -0.2677 -0.2171
 3277SOL    HW110076   2.485   2.566   2.968  1.4768 -0.8694  0.8996
 3277SOL    HW210077   2.536   2.503   2.840  1.3751 -1.1589  0.9993
 3278SOL     OW10078   4.547   4.394   0.228 -0.6311  0.3550  0.0114
 3278SOL    HW110079   4.613   4.376   0.161  0.1139  0.9303  0.5841
 3278SOL    HW210080   4.507   4.309   0.245 -0.3075  0.0694 -0.6204
 3279SOL     OW10081   4.740   0.323   4.325 -0.3852 -0.0269  0.1579
 3279SOL    HW110082   4.668   0.381   4.303  0.7874  1.5563  0.3580
 3279SOL    HW210083   4.762   0.345   4.416  0.9670  0.2064 -0.2071
 3280SOL     OW10084   3.718   2.925   5.220 -0.2458  0.2260  0.3538
 3280SOL    HW110085   3.772   2.974   5.282  0.8097 -1.0332  0.4686
 3280SOL    HW210086   3.668   2.864   5.275 -0.4995  0.2049  0.1018
 3281SOL     OW10087   5.292   3.227   3.264 -0.3223 -0.1892  0.6783
 3281SOL    HW110088   5.269   3.138   3.290 -0.0320 -0.5494 -0.2334
 3281SOL    HW210089   5.290   3.225   3.168  0.6911  0.5018  0.6210
 3282SOL     OW10090   1.859   2.803   1.813  0.3636 -0.4277 -0.5703
 3282SOL    HW110091   1.869   2.892   1.781 -0.6038 -0.3041 -0.5713
 3282SOL    HW210092   1.910   2.800   1.894 -1.1091  0.7056  0.4503
 3283SOL     OW10093   5.733   5.711   4.686 -0.0624  0.0416  0.3729
 3283SOL    HW110094   5.656   5.759   4.718 -0.0055  1.8730 -1.9830
 3283SOL    HW210095   5.709   5.685   4.597  1.5188 -0.6544  0.1249
 3284SOL     OW10096   1.550   0.054   4.213  0.2084 -0.2246  0.0413
 3284SOL    HW110097   1.617   0.006   4.261  1.4925  3.1137  1.9172
 3284SOL    HW210098   1.485   0.077   4.280  0.1423  1.4046 -0.5421
 3285SOL     OW10099   0.266   3.712   5.198 -0.7263  0.0619  0.0021
 3285SOL    HW110100   0.189   3.765   5.219 -0.5499  0.3648 -0.1065
 3285SOL    HW210101   0.236   3.622   5.206 -1.2985  0.1713 -0.7632
 3286SOL     OW10102   4.217   4.425   3.905  0.2108  0.5163 -0.7574
 3286SOL    HW110103   4.122   4.417   3.910  0.2582 -0.0258 -0.6905
 3286SOL    HW210104   4.236   4.510   3.947 -0.1597  0.1645  0.1591
 3287SOL     OW10105   0.528   0.003   1.299 -0.1911 -0.2151  0.3915
 3287SOL    HW110106   0.617   0.027   1.273 -0.9366  1.9794 -0.3735
 3287SOL    HW210107   0.537  -0.082   1.342  2.5107  0.6420  1.7496
 3288SOL     OW10108   3.867   1.954   5.156 -0.0400 -0.2276 -0.6808
 3288SOL    HW110109   3.803   1.972   5.224 -0.7720 -1.8432 -0.8844
 3288SOL    HW210110   3.822   1.896   5.095  1.6974 -1.7267 -0.6464
 3289SOL     OW10111   1.977   5.354   3.642 -0.5823 -0.0405  0.2795
 3289SOL    HW110112   2.004   5.262   3.635  0.0431  0.1069  0.6347
 3289SOL    HW210113   1.949   5.378   3.554  1.7358  0.1723 -0.4592
 3290SOL     OW10114   5.696   5.368   5.724 -0.2617 -0.3845  0.2767
 3290SOL    HW110115   5.693   5.272   5.716  2.1223 -0.6148  1.2432
 3290SOL    HW210116   5.624   5.389   5.783  0.6153 -1.8968  1.9925
 3291SOL     OW10117   4.960   3.462   1.539 -0.7662 -0.0045 -0.3891
 3291SOL    HW110118   4.918   3.547   1.530  1.2151  1.1031  0.2487
 3291SOL    HW210119   4.950   3.441   1.632 -0.9460 -0.3290 -0.4786
 3292SOL     OW10120   0.489   3.505   5.348 -0.0481  0.1308 -0.4716
 3292SOL    HW110121   0.452   3.432   5.396  1.0325  0.1710  0.4531
 3292SOL    HW210122   0.521   3.466   5.266 -0.8510 -0.1471 -0.6560
 3293SOL     OW10123   4.875   2.559   1.567 -0.2679  0.3943 -0.2425
 3293SOL    HW110124   4.930   2.596   1.637  0.4517 -1.0119 -0.0142
 3293SOL    HW210125   4.857   2.633   1.509 -2.5914  2.1328  2.4089
 3294SOL     OW10126   3.345   3.676   5.719  0.2656  0.3041  0.3298
 3294SOL    HW110127   3.261   3.683   5.765 -1.0070 -0.2277 -1.7455
 3294SOL    HW210128   3.367   3.583   5.724 -0.3423  0.0771 -0.8174
 3295SOL     OW10129   4.792   4.469   5.298  0.3576 -0.4582  0.2473
 3295SOL    HW110130   4.798   4.387   5.248 -0.7653 -0.9933  0.9444
 3295SOL    HW210131   4.881   4.486   5.329  1.1638  0.0248 -2.0970
 3296SOL     OW10132   6.070   3.931   3.574 -0.3172 -0.5610  0.0170
 3296SOL    HW110133   6.092   4.021   3.596 -0.6779 -0.6939  0.9410
 3296SOL    HW210134   5.987   3.915   3.618  0.6459 -1.9357  1.4232
 3297SOL     OW10135   3.234   5.213   5.571 -0.4541  0.2318  0.1448
 3297SOL    HW110136   3.144   5.193   5.595 -0.0880  0.0602  1.4394
 3297SOL    HW210137   3.276   5.127   5.563 -0.1158  0.3371  0.7430
 3298SOL     OW10138   0.152   1.041   5.111 -0.5935 -0.2925  0.5827
 3298SOL    HW110139   0.205   0.993   5.047 -0.2921  0.4086  0.2907
 3298SOL    HW210140   0.213   1.106   5.148 -1.1523  0.2786  0.5154
 3299SOL     OW10141   4.944   5.195   5.383  0.0612 -0.0616 -0.1281
 3299SOL    HW110142   4.894   5.131   5.333  0.3182 -0.4370  0.0926
 3299SOL    HW210143   4.901   5.278   5.365  1.7652  0.3143 -3.1938
 3300SOL     OW10144   4.874   4.025   2.460 -0.0863  0.4436 -0.5329
 3300SOL    HW110145   4.850   3.936   2.484  3.0036 -0.7565 -1.3942
 3300SOL    HW210146   4.874   4.074   2.542  0.2731 -0.9168  0.3048
 3301SOL     OW10147   2.431   4.746   4.268 -0.2676  0.0485  0.0053
 3301SOL    HW110148   2.340   4.773   4.261 -0.3477 -0.3398 -0.5986
 3301SOL    HW210149   2.467   4.797   4.340 -1.1481 -0.3057  0.7124
 3302SOL     OW10150   4.905   5.249   1.492  0.0754 -0.3860 -0.5304
 3302SOL    HW110151   4.905   5.186   1.563 -1.2728  1.0725  0.8455
 3302SOL    HW210152   4.991   5.290   1.496  0.2435 -0.7702 -0.1701
 3303SOL     OW10153   3.894   5.748   4.462  0.7884 -0.2920 -0.0006
 3303SOL    HW110154   3.824   5.704   4.510  0.7858  1.5840  1.8410
 3303SOL    HW210155   3.855   5.768   4.377 -0.8767  0.4801  0.8849
 3304SOL     OW10156   5.252   4.631   0.289 -0.3730  0.8141 -0.1413
 3304SOL    HW110157   5.347   4.643   0.289 -0.4118  1.1454 -0.5444
 3304SOL    HW210158   5.229   4.629   0.382 -0.0044  1.0244 -0.0395
 3305SOL     OW10159   5.461   0.527   2.029 -0.5835  0.4401 -0.5907
 3305SOL    HW110160   5.529   0.477   1.984 -0.1889  0.1069  0.3624
 3305SOL    HW210161   5.499   0.550   2.113 -1.4192  0.8043 -0.2969
 3306SOL     OW10162   5.506   5.789   4.200 -0.6309  0.0461  0.0382
 3306SOL    HW110163   5.587   5.837   4.217  0.7197 -1.8301 -0.6686
 3306SOL    HW210164   5.448   5.853   4.159  0.4820  1.4529  0.5853
 3307SOL     OW10165   1.930   1.922   6.115 -0.0413 -0.5960  0.6011
 3307SOL    HW110166   1.865   1.879   6.171 -0.3514 -0.0939  0.6274
 3307SOL    HW210167   1.894   1.913   6.027 -0.2668 -0.1060  0.6418
 3308SOL     OW10168   3.440   4.449   3.596  0.1433  0.2259 -0.7363
 3308SOL    HW110169   3.403   4.402   3.522  0.3549 -1.6962  0.3093
 3308SOL    HW210170   3.364   4.474   3.649  0.1115 -1.1763 -0.0585
 3309SOL     OW10171   3.650   4.116   2.312  0.1296 -0.2321  0.1106
 3309SOL    HW110172   3.687   4.094   2.226 -0.5517 -0.3053 -0.1702
 3309SOL    HW210173   3.652   4.212   2.314 -0.4187 -0.2101 -0.2453
 3310SOL     OW10174   1.130   1.204   2.343  0.0274 -0.0388  0.0324
 3310SOL    HW110175   1.133   1.294   2.375 -1.0290  0.6490 -1.6643
 3310SOL    HW210176   1.087   1.155   2.412  0.7741  0.7032  1.0608
 3311SOL     OW10177   1.757   3.736   3.588  0.2007  0.6860  0.1747
 3311SOL    HW110178   1.834   3.711   3.639 -0.8719  0.9746  2.0001
 3311SOL    HW210179   1.711   3.653   3.573 -0.0111  0.7385  0.5489
 3312SOL     OW10180   4.709   3.085   0.699  0.8290 -0.7072  0.0210
 3312SOL    HW110181   4.733   3.022   0.631  0.4195 -0.1594 -0.6435
 3312SOL    HW210182   4.613   3.083   0.701  0.5835  2.0147 -2.1412
 3313SOL     OW10183   3.254   1.915   4.007 -0.2586  0.3034  0.1659
 3313SOL    HW110184   3.225   1.931   4.097  0.3028 -0.3252  0.4675
 3313SOL    HW210185   3.175   1.923   3.955 -0.1926  3.3353  0.3409
 3314SOL     OW10186   0.511   1.020   0.069  0.4081 -0.9717 -0.7343
 3314SOL    HW110187   0.531   0.946   0.012  2.9077  0.6605 -2.1472
 3314SOL    HW210188   0.521   1.097   0.014  1.6895  0.6263  1.5493
 3315SOL     OW10189   2.719   0.458   4.066 -0.1657  0.7345  0.0976
 3315SOL    HW110190   2.798   0.449   4.012 -1.5634  1.8720 -2.2920
 3315SOL    HW210191   2.724   0.547   4.102  0.0046  0.5270  0.5981
 3316SOL     OW10192   5.442   4.711   5.517 -0.0115  0.0454 -0.3554
 3316SOL    HW110193   5.395   4.749   5.591 -0.3035  1.6187 -1.3035
 3316SOL    HW210194   5.531   4.745   5.525  0.9649 -2.6051  1.2079
 3317SOL     OW10195   2.137   3.824   2.877 -0.2582 -0.1093 -0.4558
 3317SOL    HW110196   2.048   3.788   2.865 -0.1656 -0.7255  0.5524
 3317SOL    HW210197   2.153   3.816   2.971  0.4871  0.9296 -0.4845
 3318SOL     OW10198   3.836   2.979   1.193  0.4008  0.8422  0.5519
 3318SOL    HW110199   3.752   2.937   1.176  1.3617 -0.8321 -0.2994
 3318SOL    HW210200   3.831   3.008   1.284 -0.6337 -0.3378  0.8926
 3319SOL     OW10201   4.044   3.353   0.157  0.1349 -0.0221  0.5032
 3319SOL    HW110202   4.000   3.368   0.073 -1.0735  1.7424  1.3794
 3319SOL    HW210203   4.120   3.411   0.155 -0.3456  0.6441  0.9118
 3320SOL     OW10204   4.011   1.557   4.546  0.1801 -0.0880 -0.0446
 3320SOL    HW110205   4.014   1.634   4.602 -0.7133 -0.2997  0.3032
 3320SOL    HW210206   3.921   1.552   4.515  0.3908 -0.6139 -0.5993
 3321SOL     OW10207   0.786   5.504   2.719  0.3565  0.3681 -0.0384
 3321SOL    HW110208   0.734   5.582   2.699  0.4789  0.5230  0.2371
 3321SOL    HW210209   0.848   5.533   2.786  0.5864  0.1036 -0.1330
 3322SOL     OW10210   5.629   0.127   1.031 -0.3391  0.2806 -0.3311
 3322SOL    HW110211   5.575   0.056   1.066 -1.5620  1.5266  0.3927
 3322SOL    HW210212   5.583   0.155   0.953 -0.6508  1.2262  0.1825
 3323SOL     OW10213   0.801   0.598   5.131 -0.5445 -0.1735 -0.8508
 3323SOL    HW110214   0.784   0.671   5.071  0.5932 -0.9360 -2.1621
 3323SOL    HW210215   0.879   0.626   5.180 -2.2605  1.0473  1.3606
 3324SOL     OW10216   0.402   0.444   0.293  0.2714 -0.5036  0.2966
 3324SOL    HW110217   0.388   0.435   0.199 -2.2162  2.1779  0.2711
 3324SOL    HW210218   0.449   0.527   0.303  1.5583 -1.3151  1.4243
 3325SOL     OW10219   0.644   0.108   4.382  0.3792  0.8578  0.1025
 3325SOL    HW110220   0.667   0.180   4.323 -0.9100  0.7759 -0.5323
 3325SOL    HW210221   0.555   0.128   4.411 -0.2794 -0.8107 -0.6372
 3326SOL     OW10222   0.362   3.352   1.909 -0.3843 -0.0183  0.1053
 3326SOL    HW110223   0.336   3.444   1.899 -1.6082 -0.5341 -2.0963
 3326SOL    HW210224   0.282   3.307   1.935  0.1415 -0.5358  0.8758
 3327SOL     OW10225   4.761   2.455   0.438 -0.0718 -0.2709 -0.1733
 3327SOL    HW110226   4.840   2.401   0.444 -0.1820 -0.2999  1.7197
 3327SOL    HW210227   4.695   2.398   0.400 -0.0632 -1.3616  1.3608
 3328SOL     OW10228   5.558   3.036   0.733 -0.6866 -0.4287 -0.2299
 3328SOL    HW110229   5.614   3.112   0.717  0.1744 -0.6130  1.6662
 3328SOL    HW210230   5.469   3.069   0.723 -0.3326 -0.0121 -2.7976
 3329SOL     OW10231   3.286   4.363   2.172 -0.7497  0.1553 -0.0300
 3329SOL    HW110232   3.261   4.274   2.195  1.0031 -0.5893 -0.8037
 3329SOL    HW210233   3.243   4.418   2.238 -0.3267 -1.4156  1.6418
 3330SOL     OW10234   4.854   3.822   3.672 -0.1519  0.5631  0.3152
 3330SOL    HW110235   4.782   3.768   3.640  0.2774  1.1781 -1.8444
 3330SOL    HW210236   4.932   3.786   3.630  0.7869  0.1986  2.2466
 3331SOL     OW10237   2.942   0.810   4.292  0.2498  0.3893 -0.7870
 3331SOL    HW110238   2.925   0.716   4.295 -0.5046  0.5155 -0.9643
 3331SOL    HW210239   3.011   0.824   4.357  0.4486 -0.2994 -0.8421
 3332SOL     OW10240   3.289   1.075   3.642 -0.4417 -0.0333 -0.3572
 3332SOL    HW110241   3.329   1.141   3.699  0.2559 -0.2803 -0.5436
 3332SOL    HW210242   3.224   1.122   3.591  1.3977  0.9614 -1.9137
 3333SOL     OW10243   2.072   1.004   4.588 -0.2661  0.8750  0.0943
 3333SOL    HW110244   2.093   0.914   4.611 -2.4926  0.2641  0.0201
 3333SOL    HW210245   2.156   1.045   4.570  0.7968 -1.2093  0.0294
 3334SOL     OW10246   1.496   0.312   0.454 -0.1773 -0.4379 -0.1342
 3334SOL    HW110247   1.463   0.263   0.379 -1.3779 -0.8694  0.6518
 3334SOL    HW210248   1.589   0.326   0.434 -0.2246 -1.4658 -1.1987
 3335SOL     OW10249   1.997   4.544   4.323  0.3827  0.4092 -0.8619
 3335SOL    HW110250   1.902   4.550   4.339  0.4068  1.5631 -1.0751
 3335SOL    HW210251   2.005   4.480   4.253 -0.0496 -1.4667  0.7178
 3336SOL     OW10252   6.032   3.577   2.679  0.0500  0.4133  0.8517
 3336SOL    HW110253   5.962   3.513   2.696 -0.1054  0.6024  0.9379
 3336SOL    HW210254   5.993   3.638   2.616  0.5976 -0.2433 -0.1374
 3337SOL     OW10255   4.063   4.893   0.734  0.1883  0.2576 -0.2975
 3337SOL    HW110256   4.022   4.810   0.708  0.7280  0.0098 -0.3586
 3337SOL    HW210257   4.020   4.958   0.678 -0.3351  0.0428 -0.1541
 3338SOL     OW10258   3.594   2.138   2.082 -0.2125  0.0121  0.1631
 3338SOL    HW110259   3.613   2.186   2.163 -1.0141  0.5621  0.0316
 3338SOL    HW210260   3.505   2.164   2.059  0.4331  0.8450 -1.5707
 3339SOL     OW10261   5.565   2.924   1.274  0.4685  0.4448 -0.1098
 3339SOL    HW110262   5.535   2.849   1.326 -0.0874 -0.9022 -2.2500
 3339SOL    HW210263   5.518   2.999   1.311 -1.8091 -0.8442 -0.2040
 3340SOL     OW10264   0.196   0.142   0.686 -0.2670 -0.0014  0.7567
 3340SOL    HW110265   0.165   0.084   0.756  0.3303  0.7308  1.6567
 3340SOL    HW210266   0.161   0.104   0.606 -2.0141 -0.1602  1.5622
 3341SOL     OW10267   0.107   3.641   0.048  0.1375  0.0573  0.2518
 3341SOL    HW110268   0.118   3.618  -0.045 -0.4517 -0.5753  0.3269
 3341SOL    HW210269   0.122   3.559   0.095 -1.3311 -0.0611  0.5780
 3342SOL     OW10270   0.026   2.199   5.357 -0.2736  0.1279 -0.4687
 3342SOL    HW110271   0.075   2.191   5.438  0.2295 -1.1075 -0.8753
 3342SOL    HW210272   0.041   2.289   5.329  1.1368  0.0022 -0.1964
 3343SOL     OW10273   3.015   1.148   4.143 -0.0831 -0.3922 -0.2258
 3343SOL    HW110274   3.090   1.202   4.118 -1.0670  1.1997  0.0601
 3343SOL    HW210275   3.020   1.071   4.087  0.3189  0.9105 -2.0609
 3344SOL     OW10276   3.142   4.978   3.579 -0.4689 -0.3283 -0.0512
 3344SOL    HW110277   3.209   4.916   3.608 -0.7444 -0.6084 -0.0093
 3344SOL    HW210278   3.127   4.956   3.488  0.2989  0.4633 -0.3880
 3345SOL     OW10279   4.029   0.569   4.541 -0.2595 -0.1812 -0.3641
 3345SOL    HW110280   4.094   0.518   4.494 -0.5688 -0.8454 -0.0775
 3345SOL    HW210281   3.945   0.530   4.518 -0.7281  1.5897 -1.9323
 3346SOL     OW10282   3.863   3.261   2.679  0.2585 -0.4058 -0.7500
 3346SOL    HW110283   3.799   3.270   2.750  0.4725 -1.3897 -0.4030
 3346SOL    HW210284   3.939   3.309   2.710 -0.3651  0.9594 -1.2615
 3347SOL     OW10285   5.746   4.952   4.141  0.1423 -0.0969  0.2265
 3347SOL    HW110286   5.682   4.941   4.211 -0.2489 -1.2366 -0.2837
 3347SOL    HW210287   5.696   4.936   4.060  0.9394 -0.4743 -0.2080
 3348SOL     OW10288   3.376   3.484   6.028 -0.0297  0.1165  0.3131
 3348SOL    HW110289   3.423   3.558   6.068  0.6615  0.1119 -0.4753
 3348SOL    HW210290   3.419   3.471   5.944 -0.7515 -0.5978  0.0469
 3349SOL     OW10291   2.059   4.798   1.570 -0.2204  0.5183 -0.1369
 3349SOL    HW110292   2.152   4.781   1.586  0.0226  1.7133 -0.1257
 3349SOL    HW210293   2.013   4.731   1.619  0.6318  0.3625  0.4792
 3350SOL     OW10294   0.102   2.163   3.513 -0.5126 -0.0460  0.4144
 3350SOL    HW110295   0.142   2.248   3.496  1.5991 -0.3242  3.3786
 3350SOL    HW210296   0.013   2.184   3.543  0.2341  1.2088  1.8679
 3351SOL     OW10297   3.151   5.920   2.423 -0.1802  0.1593 -0.0391
 3351SOL    HW110298   3.229   5.956   2.380 -1.3021  1.6406 -0.9429
 3351SOL    HW210299   3.127   5.986   2.488 -0.1651 -0.7188  0.8715
 3352SOL     OW10300   1.539   5.376   4.834  0.3986  0.1900 -0.2018
 3352SOL    HW110301   1.491   5.293   4.834 -0.6826  0.7986 -0.3896
 3352SOL    HW210302   1.482   5.437   4.880  1.8253  0.4963  1.2306
 3353SOL     OW10303   2.212   4.909   1.876 -0.2647 -0.6007 -0.1037
 3353SOL    HW110304   2.120   4.933   1.884  0.1113  0.8990  0.1493
 3353SOL    HW210305   2.211   4.822   1.837 -1.7798 -0.3525 -0.6980
 3354SOL     OW10306   0.726   0.892   5.033  0.8126 -0.4446 -0.0449
 3354SOL    HW110307   0.645   0.851   5.064  0.4650 -0.2934 -0.7222
 3354SOL    HW210308   0.716   0.894   4.938  1.1672  0.5103 -0.0662
 3355SOL     OW10309   6.004   1.492   3.631 -0.5242 -0.3096  0.0633
 3355SOL    HW110310   5.921   1.487   3.679 -1.3509  1.0650 -1.1452
 3355SOL    HW210311   5.985   1.450   3.547  1.1649 -3.5446  1.1310
 3356SOL     OW10312   3.018   2.473   2.975  0.5161  0.4653 -0.1299
 3356SOL    HW110313   2.977   2.387   2.987  1.8056 -0.1032  0.4048
 3356SOL    HW210314   2.971   2.513   2.902 -0.7040 -0.3122  0.2062
 3357SOL     OW10315   3.315   0.896   3.830 -0.5880 -0.5630  0.1949
 3357SOL    HW110316   3.288   0.962   3.766 -1.7917  1.3535  2.5458
 3357SOL    HW210317   3.410   0.904   3.834 -0.3243 -1.5787 -2.1352
 3358SOL     OW10318   3.351   5.389   5.327  0.0441 -0.4797 -0.2121
 3358SOL    HW110319   3.412   5.457   5.357 -0.3029 -0.2345 -0.0546
 3358SOL    HW210320   3.296   5.371   5.403 -0.7544  0.0459 -0.6539
 3359SOL     OW10321   4.520   1.816   0.473 -0.4544 -0.1428  0.0985
 3359SOL    HW110322   4.461   1.777   0.537  1.5549  0.7636  2.7045
 3359SOL    HW210323   4.589   1.751   0.460 -1.4992 -0.8884 -2.3328
 3360SOL     OW10324   2.435   4.978   5.989 -0.3159 -0.3623 -0.2294
 3360SOL    HW110325   2.502   4.967   5.921 -0.4189 -0.8838 -0.2519
 3360SOL    HW210326   2.377   4.904   5.976 -0.4773 -0.3224  0.2726
 3361SOL     OW10327   3.994   2.343   0.524  0.4141  0.7164  0.1193
 3361SOL    HW110328   3.918   2.292   0.498  0.2965  1.6656 -1.5295
 3361SOL    HW210329   4.057   2.330   0.454  2.0189 -0.4499  1.6883
 3362SOL     OW10330   0.734   4.669   1.466 -0.3144  0.0851  0.0292
 3362SOL    HW110331   0.790   4.746   1.477  1.9317 -1.6886  1.8744
 3362SOL    HW210332   0.657   4.687   1.520  0.3054  0.9401  0.6505
 3363SOL     OW10333   1.400   2.236   3.644  0.8747  0.1384  0.2309
 3363SOL    HW110334   1.456   2.261   3.717  1.9808  0.5882 -0.7177
 3363SOL    HW210335   1.407   2.141   3.639  0.4723  0.0714  0.9517
 3364SOL     OW10336   4.877   5.857   5.089  0.1121  0.1617 -0.6690
 3364SOL    HW110337   4.784   5.879   5.096  0.5149  1.7595  0.2606
 3364SOL    HW210338   4.893   5.852   4.995 -0.9329 -0.2401 -0.8379
 3365SOL     OW10339   1.400   1.889   0.124  0.4305  0.2418 -0.3737
 3365SOL    HW110340   1.487   1.928   0.118 -0.0610  1.1807 -1.8730
 3365SOL    HW210341   1.371   1.909   0.214  1.1743  1.2030 -0.3295
 3366SOL     OW10342   0.875   5.455   5.150  0.2461 -0.0799  0.1259
 3366SOL    HW110343   0.796   5.415   5.115  0.6256 -0.8935  0.1682
 3366SOL    HW210344   0.909   5.508   5.078 -1.5215  2.1338  0.8091
 3367SOL     OW10345   2.393   3.347   1.252  0.5631  0.7800  0.2721
 3367SOL    HW110346   2.414   3.403   1.177 -2.0439 -0.3549 -1.4493
 3367SOL    HW210347   2.302   3.368   1.273  0.6932 -0.2062  1.9991
 3368SOL     OW10348   3.084   0.405   4.552 -0.1561 -0.3205  0.1955
 3368SOL    HW110349   3.163   0.354   4.538  0.4511  0.2866  1.2718
 3368SOL    HW210350   3.053   0.379   4.639 -1.6756 -1.2270 -0.5724
 3369SOL     OW10351   5.524   0.927   0.912  0.8303 -0.4132  0.3046
 3369SOL    HW110352   5.453   0.895   0.857  1.2517  1.0396 -1.1615
 3369SOL    HW210353   5.590   0.958   0.850  1.2684  1.4276  1.6212
 3370SOL     OW10354   1.518   4.825   2.955 -0.2477 -0.2143 -0.1733
 3370SOL    HW110355   1.563   4.749   2.993  0.4251  1.5179  2.8874
 3370SOL    HW210356   1.437   4.833   3.006 -1.1452  0.1654 -1.6022
 3371SOL     OW10357   5.209   4.201   0.494  0.1266 -0.2103  0.8097
 3371SOL    HW110358   5.161   4.236   0.418  1.1838 -2.4391 -1.0047
 3371SOL    HW210359   5.148   4.139   0.534 -0.8542  1.7764  2.5743
 3372SOL     OW10360   4.248   3.315   4.414 -0.0574 -0.2785  0.5640
 3372SOL    HW110361   4.254   3.327   4.508 -0.5979 -0.2977  0.6055
 3372SOL    HW210362   4.279   3.226   4.399  1.6822  0.3024  0.5204
 3373SOL     OW10363   4.964   2.273   2.422  0.2201  0.5080 -0.3969
 3373SOL    HW110364   5.054   2.284   2.391 -0.0705 -0.3844 -1.6223
 3373SOL    HW210365   4.945   2.180   2.407 -0.8517  0.6513  0.0057
 3374SOL     OW10366   0.253   1.324   5.643  0.1617 -0.2714 -0.4656
 3374SOL    HW110367   0.265   1.258   5.711  0.9871  1.6048  1.2902
 3374SOL    HW210368   0.341   1.340   5.609  0.2531  1.2266  0.4247
 3375SOL     OW10369   0.126   3.281   4.335  0.1739  0.0635  0.0540
 3375SOL    HW110370   0.153   3.301   4.425  0.3227  1.7512 -0.3257
 3375SOL    HW210371   0.051   3.222   4.345 -0.8359  1.4902  1.3595
 3376SOL     OW10372   4.353   2.407   1.812  0.0553 -0.0082 -0.0858
 3376SOL    HW110373   4.332   2.371   1.727 -1.4057 -0.8134  0.5873
 3376SOL    HW210374   4.429   2.357   1.842  0.4103  0.1069 -0.7880
 3377SOL     OW10375   6.053   3.112   5.552  0.2013 -0.7252 -0.2271
 3377SOL    HW110376   5.972   3.101   5.502  0.7639  1.1505 -1.6785
 3377SOL    HW210377   6.122   3.081   5.493  0.6461 -1.3936  0.6215
 3378SOL     OW10378   2.120   3.043   2.484  0.0409 -0.2692 -0.0670
 3378SOL    HW110379   2.135   2.998   2.400 -1.6303 -0.5067 -0.2620
 3378SOL    HW210380   2.131   2.975   2.550  0.2726 -0.3237 -0.1586
 3379SOL     OW10381   3.166   0.456   0.433 -0.1922 -0.2607 -0.0031
 3379SOL    HW110382   3.221   0.429   0.507 -1.0354 -0.0249  0.7176
 3379SOL    HW210383   3.199   0.542   0.408  0.3309 -0.4974 -0.1525
 3380SOL     OW10384   5.226   4.447   3.949 -0.1963 -0.5158 -0.4307
 3380SOL    HW110385   5.287   4.476   4.017 -1.1268 -2.0353  1.1065
 3380SOL    HW210386   5.277   4.385   3.897  0.0584 -0.5544 -0.1407
 3381SOL     OW10387   6.139   5.576   4.440  0.5563  0.2959  0.2119
 3381SOL    HW110388   6.188   5.508   4.486 -3.1109 -2.0487  1.1496
 3381SOL    HW210389   6.073   5.605   4.503 -0.3809  2.0019 -1.4446
 3382SOL     OW10390   4.908   2.904   5.786 -0.9085 -0.6107 -0.1006
 3382SOL    HW110391   5.003   2.903   5.780 -0.7585 -3.7584  1.2181
 3382SOL    HW210392   4.879   2.936   5.701  1.2742  0.4568 -0.5141
 3383SOL     OW10393   0.412   0.117   5.496  0.1612 -0.1080  0.0232
 3383SOL    HW110394   0.336   0.062   5.514  0.0859  0.0844  0.3057
 3383SOL    HW210395   0.477   0.057   5.459 -0.4240 -0.1102 -1.0324
 3384SOL     OW10396   1.265   0.335   4.458  0.3769  0.5467 -0.6579
 3384SOL    HW110397   1.312   0.417   4.446  0.2647  0.4203 -2.0818
 3384SOL    HW210398   1.185   0.360   4.505  0.3668  1.2471 -1.0299
 3385SOL     OW10399   4.163   2.374   0.276 -0.0584  0.7344  0.5631
 3385SOL    HW110400   4.238   2.349   0.222  0.5265 -0.0063  1.7100
 3385SOL    HW210401   4.183   2.462   0.306  0.6341  0.3282  1.3259
 3386SOL     OW10402   2.618   1.278   0.795  0.8094 -0.3339 -0.0925
 3386SOL    HW110403   2.712   1.268   0.783  1.2459  2.2141  0.5938
 3386SOL    HW210404   2.602   1.371   0.782 -1.6782 -0.7370 -0.4550
 3387SOL     OW10405   3.960   0.198   0.273  0.6411 -0.2755  0.1654
 3387SOL    HW110406   4.038   0.148   0.296 -0.0276 -2.4249 -1.8617
 3387SOL    HW210407   3.930   0.159   0.191 -1.9606  1.1850  0.3230
 3388SOL     OW10408   1.306   2.072   2.647 -0.3377  0.2444  0.6243
 3388SOL    HW110409   1.397   2.088   2.620 -0.4754  1.5350  0.8619
 3388SOL    HW210410   1.259   2.057   2.565  0.0846 -0.4602  0.4995
 3389SOL     OW10411   5.252   3.723   4.601  0.4947  0.3716 -0.2177
 3389SOL    HW110412   5.276   3.816   4.601 -1.5568  0.9616 -1.0348
 3389SOL    HW210413   5.187   3.715   4.671  0.6457 -0.4401 -0.1699
 3390SOL     OW10414   4.730   3.408   4.926  0.4553 -0.1316  0.1652
 3390SOL    HW110415   4.649   3.428   4.878  0.6334 -0.4931 -0.2989
 3390SOL    HW210416   4.795   3.467   4.888  0.3594  0.3182  0.6964
 3391SOL     OW10417   1.446   2.708   2.663  0.1624 -0.3358 -0.2645
 3391SOL    HW110418   1.394   2.736   2.738 -0.7310 -0.2286 -0.9078
 3391SOL    HW210419   1.536   2.705   2.695 -0.1631  0.0758  0.7010
 3392SOL     OW10420   4.723   4.939   0.557 -0.8233 -0.2342 -0.8373
 3392SOL    HW110421   4.746   4.969   0.469 -0.4232  0.2307 -0.5785
 3392SOL    HW210422   4.802   4.955   0.609 -1.5739  1.0395 -0.0219
 3393SOL     OW10423   0.623   3.292   5.587  0.1542  0.2557  0.6740
 3393SOL    HW110424   0.574   3.273   5.507  0.2824 -1.2964  0.9392
 3393SOL    HW210425   0.688   3.223   5.592  0.2040  0.3804  2.0915
 3394SOL     OW10426   4.204   4.033   5.273  0.4000 -0.1033 -0.6093
 3394SOL    HW110427   4.237   4.107   5.324 -2.4611  1.1591 -0.4249
 3394SOL    HW210428   4.182   3.967   5.338 -2.6144  1.2518 -0.0933
 3395SOL     OW10429   1.037   6.092   5.463  0.2191  0.4989 -0.5004
 3395SOL    HW110430   0.977   6.100   5.389 -1.0917 -0.2571  0.4428
 3395SOL    HW210431   1.057   5.998   5.468  2.2355  0.8149 -1.3306
 3396SOL     OW10432   0.150   5.080   4.785  0.3826 -0.2296 -0.1551
 3396SOL    HW110433   0.162   5.094   4.691 -0.2260 -0.2710 -0.2418
 3396SOL    HW210434   0.085   5.010   4.791  0.4539 -0.2615  0.3006
 3397SOL     OW10435   3.258   2.844   3.484 -0.1212  0.1278 -0.0500
 3397SOL    HW110436   3.215   2.899   3.418  0.6202 -0.5257 -1.0910
 3397SOL    HW210437   3.230   2.882   3.567  1.2333  2.8021 -0.7101
 3398SOL     OW10438   2.197   3.873   5.811  0.4017 -0.1743  0.0132
 3398SOL    HW110439   2.200   3.778   5.807 -1.3641 -0.2310 -0.8701
 3398SOL    HW210440   2.251   3.902   5.737  0.4437 -0.4925 -0.0796
 3399SOL     OW10441   3.747   1.923   2.003 -0.0488 -0.4896  0.2409
 3399SOL    HW110442   3.685   1.986   2.041 -0.2834  0.0900 -1.0580
 3399SOL    HW210443   3.801   1.976   1.944  0.2113 -1.3921 -0.3380
 3400SOL     OW10444   0.361   2.941   2.967 -0.2143  0.0638 -0.2590
 3400SOL    HW110445   0.295   2.875   2.989 -0.0719  0.2174  0.6575
 3400SOL    HW210446   0.416   2.899   2.901 -3.5153  1.2279 -4.2298
 3401SOL     OW10447   5.088   0.626   3.234  0.1582  0.4047  0.0438
 3401SOL    HW110448   5.082   0.636   3.139 -1.4698  0.2652  0.1165
 3401SOL    HW210449   5.152   0.555   3.245 -0.1819 -0.0904 -0.9730
 3402SOL     OW10450   4.046   1.234   4.337 -0.2633 -0.3553 -0.0885
 3402SOL    HW110451   4.008   1.318   4.310 -0.4583 -0.2266  0.5705
 3402SOL    HW210452   4.126   1.226   4.285 -1.7469 -1.2155 -2.4488
 3403SOL     OW10453   4.533   1.871   0.200 -0.4936  0.2267 -0.6739
 3403SOL    HW110454   4.505   1.830   0.282 -0.2582  1.3255 -0.0213
 3403SOL    HW210455   4.628   1.865   0.201 -0.3802  1.6461 -0.0716
 3404SOL     OW10456   1.693   2.885   4.798 -0.5154 -0.4349  0.5337
 3404SOL    HW110457   1.758   2.816   4.783 -1.0893 -1.7477  3.4146
 3404SOL    HW210458   1.741   2.966   4.779  1.4165 -1.4325  0.8269
 3405SOL     OW10459   2.049   2.802   5.316 -0.4247 -0.3861 -0.5124
 3405SOL    HW110460   2.065   2.889   5.279  2.0275 -0.5940 -0.1054
 3405SOL    HW210461   2.002   2.818   5.398  1.7627  0.7712  0.5951
 3406SOL     OW10462   3.919   1.112   6.135 -0.1392  0.1648 -0.0940
 3406SOL    HW110463   3.844   1.066   6.172 -1.5233  1.3094 -1.3680
 3406SOL    HW210464   3.881   1.178   6.078  1.8553  0.7026 -0.8788
 3407SOL     OW10465   5.253   1.299   4.960  0.0039 -0.3321  0.2170
 3407SOL    HW110466   5.319   1.244   5.003  0.1888  0.1698  0.5790
 3407SOL    HW210467   5.255   1.270   4.869  0.1589 -0.8706  0.3840
 3408SOL     OW10468   0.186   5.317   1.771 -0.9421 -0.2148  0.1357
 3408SOL    HW110469   0.091   5.305   1.769 -0.9030 -0.5599  0.3178
 3408SOL    HW210470   0.221   5.234   1.740 -0.6948 -0.1515  0.2483
 3409SOL     OW10471   2.040   5.027   0.709  0.3471  0.1359  0.2976
 3409SOL    HW110472   2.080   4.942   0.693 -1.4361 -0.8484  0.7871
 3409SOL    HW210473   2.055   5.044   0.802 -0.1788 -0.1488  0.4397
 3410SOL     OW10474   5.568   3.834   4.710 -0.0722  0.3770  0.0552
 3410SOL    HW110475   5.648   3.820   4.661 -0.5649 -0.2166 -0.6014
 3410SOL    HW210476   5.515   3.892   4.655 -0.8148 -0.6523 -0.3439
 3411SOL     OW10477   3.404   3.140   5.092  0.1031 -0.1313  0.3403
 3411SOL    HW110478   3.439   3.122   5.179 -0.8379  1.0089  0.9920
 3411SOL    HW210479   3.313   3.167   5.108  0.4373  1.8646 -0.7966
 3412SOL     OW10480   3.011   1.740   3.737  0.3780 -0.4635  0.1073
 3412SOL    HW110481   3.066   1.779   3.669 -0.3586 -1.1046 -0.8867
 3412SOL    HW210482   3.062   1.664   3.767  0.9169  0.0935  0.6161
 3413SOL     OW10483   3.391   1.726   2.001 -0.2128 -0.2215 -0.2780
 3413SOL    HW110484   3.328   1.734   1.930  0.1317  2.1539 -0.3931
 3413SOL    HW210485   3.476   1.720   1.957 -0.1225 -0.3515 -0.0854
 3414SOL     OW10486   1.443   3.927   0.490  0.5297  0.1639 -0.8784
 3414SOL    HW110487   1.396   4.010   0.498  1.7671  0.8921 -0.9203
 3414SOL    HW210488   1.531   3.946   0.524  1.7090 -0.3501 -3.4021
 3415SOL     OW10489   5.560   0.419   5.673 -0.3938  0.3168  0.2313
 3415SOL    HW110490   5.495   0.393   5.607  1.4346  0.2818 -1.6603
 3415SOL    HW210491   5.542   0.511   5.690 -0.7381  0.3972 -0.5246
 3416SOL     OW10492   2.476   2.532   2.136 -0.1056  0.3574 -0.2263
 3416SOL    HW110493   2.534   2.586   2.081 -1.4308  1.0213 -1.0265
 3416SOL    HW210494   2.512   2.542   2.224 -0.1971  2.4675 -0.3660
 3417SOL     OW10495   0.533   5.667   3.248 -0.1555 -0.1720  0.1839
 3417SOL    HW110496   0.482   5.735   3.291 -1.7882 -1.2186  0.0051
 3417SOL    HW210497   0.576   5.712   3.175  0.2248  0.9911  1.0947
 3418SOL     OW10498   5.722   0.161   2.421 -0.5353  0.4339  0.4470
 3418SOL    HW110499   5.773   0.150   2.501 -0.3755 -1.6200  0.1138
 3418SOL    HW210500   5.658   0.089   2.423 -0.2536  0.0715 -1.4496
 3419SOL     OW10501   0.949   2.979   0.131  0.1301 -0.5641  0.1729
 3419SOL    HW110502   0.970   3.033   0.207  2.6135 -0.2821 -0.6507
 3419SOL    HW210503   1.016   2.911   0.130 -1.0873 -1.8099 -0.6209
 3420SOL     OW10504   3.520   1.747   0.606 -0.7244  0.1029 -0.0767
 3420SOL    HW110505   3.604   1.714   0.574 -0.0648  2.5594 -1.0776
 3420SOL    HW210506   3.496   1.688   0.677  0.2678 -2.5528 -1.8001
 3421SOL     OW10507   5.147   0.017   2.038  0.5728 -0.0817  0.3972
 3421SOL    HW110508   5.202  -0.026   1.972  0.2197  1.6704 -1.1379
 3421SOL    HW210509   5.058  -0.013   2.018  0.7045 -1.2999  1.5526
 3422SOL     OW10510   0.418   0.552   3.018  0.1627  0.0271  0.3886
 3422SOL    HW110511   0.403   0.621   2.953 -2.7245  0.8287  1.7233
 3422SOL    HW210512   0.499   0.509   2.990 -0.6334  0.6629 -3.3733
 3423SOL     OW10513   1.549   1.663   5.524 -0.1925 -0.1754  0.4711
 3423SOL    HW110514   1.620   1.601   5.510  0.4739  0.8890 -1.2164
 3423SOL    HW210515   1.492   1.621   5.589  0.0088 -2.6935 -0.8496
 3424SOL     OW10516   5.711   5.095   5.717  0.1109 -0.3916 -0.0447
 3424SOL    HW110517   5.651   5.029   5.752  0.4932 -1.1148 -0.7287
 3424SOL    HW210518   5.792   5.047   5.699  0.2357  0.1538 -1.0062
 3425SOL     OW10519   3.621   2.808   5.442  0.6076 -0.1538  0.3676
 3425SOL    HW110520   3.636   2.861   5.520 -4.1856  2.2264  0.0001
 3425SOL    HW210521   3.579   2.729   5.475 -0.8949  0.5977  0.3161
 3426SOL     OW10522   0.709   4.144   4.219  0.4680 -0.1318 -0.1595
 3426SOL    HW110523   0.736   4.207   4.153  1.7299 -2.4143 -1.9797
 3426SOL    HW210524   0.646   4.191   4.273  4.0506  3.9592  1.0909
 3427SOL     OW10525   4.308   5.382   0.311 -0.2596  0.1491  0.4396
 3427SOL    HW110526   4.364   5.425   0.375  0.4404 -0.4073  0.2254
 3427SOL    HW210527   4.362   5.378   0.232 -0.6144 -0.3688  0.2210
 3428SOL     OW10528   0.285   4.440   0.571 -0.2954 -0.1958 -0.4435
 3428SOL    HW110529   0.359   4.415   0.515 -0.6130 -2.1736 -0.0658
 3428SOL    HW210530   0.212   4.386   0.540 -0.6708 -0.8092  1.3683
 3429SOL     OW10531   5.597   1.488   0.631 -0.6085 -0.3750 -0.1963
 3429SOL    HW110532   5.631   1.525   0.712 -1.5461  3.7626 -1.4307
 3429SOL    HW210533   5.674   1.478   0.574 -0.3555  0.1732  0.0431
 3430SOL     OW10534   5.041   1.655   5.218  0.5485  0.0273 -0.7941
 3430SOL    HW110535   5.092   1.698   5.286 -1.3850  0.6577  0.3127
 3430SOL    HW210536   5.077   1.566   5.213 -0.2480 -0.5629  2.1951
 3431SOL     OW10537   1.477   0.670   6.083  0.6174  0.1901 -0.5612
 3431SOL    HW110538   1.547   0.725   6.047 -0.3675  0.8220 -1.6245
 3431SOL    HW210539   1.457   0.608   6.012 -0.9483  1.0503 -0.9132
 3432SOL     OW10540   0.519   1.837   4.567 -1.0852  0.2283 -0.8160
 3432SOL    HW110541   0.596   1.893   4.569 -1.0789  0.2101  0.9231
 3432SOL    HW210542   0.535   1.777   4.495  0.9408 -0.3157  0.0090
 3433SOL     OW10543   2.452   2.620   0.322 -0.3370 -0.0117 -0.0821
 3433SOL    HW110544   2.442   2.551   0.389  0.2164  0.7750  0.8405
 3433SOL    HW210545   2.510   2.581   0.257  1.4127  0.1346  1.2958
 3434SOL     OW10546   0.640   4.287   4.718 -0.3733 -0.2118  0.0352
 3434SOL    HW110547   0.703   4.276   4.789  1.3831  0.6042 -1.3125
 3434SOL    HW210548   0.557   4.257   4.755  0.0455  1.7877  3.0296
 3435SOL     OW10549   3.264   5.768   1.901 -0.2586 -0.1812  0.4790
 3435SOL    HW110550   3.341   5.722   1.936  1.1848  0.4101 -1.7010
 3435SOL    HW210551   3.206   5.699   1.871 -0.5223 -0.6352  1.9716
 3436SOL     OW10552   1.107   5.805   2.903 -0.1518 -0.1288 -0.1422
 3436SOL    HW110553   1.139   5.894   2.891 -0.0449 -0.0900  0.4121
 3436SOL    HW210554   1.171   5.764   2.961  1.2709 -1.3937 -2.4639
 3437SOL     OW10555   5.969   3.074   3.363  0.4980 -0.0225 -0.6047
 3437SOL    HW110556   6.052   3.120   3.359  1.3305 -1.4419 -0.1043
 3437SOL    HW210557   5.962   3.044   3.453 -1.1958  1.1533 -0.2706
 3438SOL     OW10558   2.143   0.109   4.301  0.0385  0.3294  0.2156
 3438SOL    HW110559   2.131   0.025   4.257  1.0279 -0.1885  0.8881
 3438SOL    HW210560   2.055   0.145   4.310 -0.3082 -0.2021 -0.9058
 3439SOL     OW10561   4.887   5.032   4.703 -0.7914 -0.4931  0.3485
 3439SOL    HW110562   4.905   4.983   4.622  0.3112 -0.7941  0.7599
 3439SOL    HW210563   4.816   5.092   4.679  0.3705  0.3392 -1.2106
 3440SOL     OW10564   4.260   5.594   4.227  0.3640 -0.4312 -0.2895
 3440SOL    HW110565   4.265   5.520   4.167 -0.3083 -2.8313  2.4087
 3440SOL    HW210566   4.194   5.569   4.291  0.2534  2.4541  0.8837
 3441SOL     OW10567   3.420   4.283   3.042 -0.2521  0.4753  0.2218
 3441SOL    HW110568   3.330   4.290   3.074  0.2444  1.9007  1.5041
 3441SOL    HW210569   3.433   4.191   3.022 -2.2181  0.3713 -0.7232
 3442SOL     OW10570   2.820   0.460   4.953  0.2066  0.3054 -0.2448
 3442SOL    HW110571   2.823   0.478   4.859 -1.4188  1.9827 -0.0531
 3442SOL    HW210572   2.806   0.546   4.992  2.1584 -0.1815  1.6601
 3443SOL     OW10573   5.698   3.669   1.317  0.6178  0.2283  0.6088
 3443SOL    HW110574   5.674   3.663   1.224 -0.1104  2.6956  0.5440
 3443SOL    HW210575   5.786   3.707   1.317  0.5425  0.4104  0.9105
 3444SOL     OW10576   4.179   5.134   5.160  0.1943 -0.1820 -0.7949
 3444SOL    HW110577   4.262   5.125   5.114  2.1605  0.7806  2.2429
 3444SOL    HW210578   4.160   5.047   5.193 -0.6408 -0.6335 -2.3621
 3445SOL     OW10579   5.607   5.304   5.083 -0.5534  0.3050  0.3039
 3445SOL    HW110580   5.626   5.397   5.074  2.6934 -0.4172 -1.8068
 3445SOL    HW210581   5.676   5.271   5.140 -1.8385 -0.8313  1.2762
 3446SOL     OW10582   4.699   0.599   5.250  0.4043  0.3387  0.0998
 3446SOL    HW110583   4.722   0.629   5.338  0.5989 -1.7631  0.8355
 3446SOL    HW210584   4.628   0.657   5.222  1.1314  1.7895  1.1430
 3447SOL     OW10585   0.484   5.406   3.211  0.0372 -0.4890  0.2698
 3447SOL    HW110586   0.491   5.501   3.220 -0.5890 -0.3013 -0.9913
 3447SOL    HW210587   0.560   5.381   3.160 -0.2345 -0.5359 -0.1217
 3448SOL     OW10588   4.614   4.805   0.974 -0.1890 -0.0376  0.1426
 3448SOL    HW110589   4.542   4.808   1.037 -0.6341 -0.4576 -0.3429
 3448SOL    HW210590   4.606   4.887   0.925  0.5625  0.6090  1.0572
 3449SOL     OW10591   1.259   3.782   4.087  0.2028 -0.8763 -0.7165
 3449SOL    HW110592   1.306   3.700   4.104  1.2494  0.0856  1.4403
 3449SOL    HW210593   1.328   3.847   4.073 -0.5413  0.0165 -0.3753
 3450SOL     OW10594   5.317   1.164   2.192  0.5960 -0.0022 -0.8362
 3450SOL    HW110595   5.339   1.222   2.265  0.9803 -3.3991  2.0100
 3450SOL    HW210596   5.400   1.151   2.147  0.7750  0.5234 -0.6748
 3451SOL     OW10597   0.306   5.804   5.668 -0.0617  0.0025  0.1971
 3451SOL    HW110598   0.233   5.772   5.615  1.3383 -2.8099 -0.2447
 3451SOL    HW210599   0.372   5.830   5.604  0.9165 -1.6274  0.4692
 3452SOL     OW10600   4.244   2.450   5.276  0.1833 -0.2162 -0.3712
 3452SOL    HW110601   4.198   2.447   5.359  0.7523  2.9401  0.1904
 3452SOL    HW210602   4.179   2.425   5.210 -1.1365  0.2081  0.7515
 3453SOL     OW10603   4.308   5.945   4.939 -0.2559 -0.0848 -0.4112
 3453SOL    HW110604   4.313   5.852   4.914 -0.1653 -0.2381  0.1619
 3453SOL    HW210605   4.394   5.980   4.918 -0.5248  0.0631 -1.3406
 3454SOL     OW10606   1.979   6.133   5.334  0.0220  0.1646 -0.7303
 3454SOL    HW110607   1.973   6.040   5.309 -0.6252 -0.1819  0.5866
 3454SOL    HW210608   1.932   6.137   5.418  1.0142  1.4817 -0.2181
 3455SOL     OW10609   1.379   1.919   2.422 -0.5477 -0.0158  0.9194
 3455SOL    HW110610   1.378   1.994   2.363 -3.0390 -0.0712  0.7962
 3455SOL    HW210611   1.464   1.878   2.408  0.1158  1.7018 -0.3777
 3456SOL     OW10612   2.737   2.288   5.833  0.0470 -0.1918  0.0543
 3456SOL    HW110613   2.802   2.219   5.820 -0.5289 -0.5710 -0.9635
 3456SOL    HW210614   2.658   2.241   5.861  0.0259  0.1948  0.6440
 3457SOL     OW10615   2.915   1.560   4.956  0.5150  0.1233  0.3130
 3457SOL    HW110616   2.907   1.470   4.924  2.5932 -0.5670  1.5673
 3457SOL    HW210617   2.946   1.551   5.046  1.1735  2.1021  0.3298
 3458SOL     OW10618   5.501   2.586   1.709  0.2437 -0.2650  0.0849
 3458SOL    HW110619   5.418   2.602   1.755 -0.2120 -1.4110 -0.3120
 3458SOL    HW210620   5.480   2.520   1.644  1.0991  0.6426 -1.1679
 3459SOL     OW10621   1.249   3.655   1.894 -0.2223 -0.1929 -0.5192
 3459SOL    HW110622   1.178   3.624   1.839  1.2162  0.3383 -2.7812
 3459SOL    HW210623   1.288   3.575   1.929 -0.9478 -0.5536 -0.5131
 3460SOL     OW10624   5.170   4.792   0.836 -0.4887  0.1289  0.0886
 3460SOL    HW110625   5.078   4.796   0.863 -0.1355  0.3525  1.2993
 3460SOL    HW210626   5.193   4.700   0.844  0.1637  0.4286  2.5896
 3461SOL     OW10627   5.082   3.725   3.544  0.3776  0.6672 -0.0892
 3461SOL    HW110628   5.157   3.785   3.542  0.9496 -0.0453 -0.7240
 3461SOL    HW210629   5.045   3.730   3.456  0.1863  0.3791 -0.0253
 3462SOL     OW10630   3.171   0.736   4.765 -0.1703  0.3435 -0.5569
 3462SOL    HW110631   3.086   0.737   4.807  0.3297  1.1820  0.4742
 3462SOL    HW210632   3.206   0.649   4.782 -0.2897  0.4270  0.1277
 3463SOL     OW10633   0.740   0.875   0.803  0.1580  0.0401  0.3739
 3463SOL    HW110634   0.650   0.885   0.834 -0.6644 -0.3916 -1.7348
 3463SOL    HW210635   0.745   0.785   0.773  1.0920  0.2572 -0.1501
 3464SOL     OW10636   0.293   5.689   0.191  0.5916  0.0705 -0.0077
 3464SOL    HW110637   0.271   5.668   0.282 -0.6499 -0.2744 -0.3612
 3464SOL    HW210638   0.375   5.738   0.196  0.9180 -0.5681  1.2388
 3465SOL     OW10639   5.392   2.577   3.707  0.3144  0.1168  0.4320
 3465SOL    HW110640   5.474   2.621   3.730  1.1442 -0.8898 -0.5036
 3465SOL    HW210641   5.419   2.489   3.680 -1.1437 -0.4145  0.6583
 3466SOL     OW10642   3.405   4.393   0.173 -0.2231 -0.5328  0.4144
 3466SOL    HW110643   3.327   4.344   0.144  0.0399 -0.9819  0.4627
 3466SOL    HW210644   3.411   4.374   0.267 -0.5932  0.2556  0.6027
 3467SOL     OW10645   3.116   1.388   0.223  0.3874  0.4145 -0.0697
 3467SOL    HW110646   3.038   1.389   0.278 -0.7649  1.1091 -1.6510
 3467SOL    HW210647   3.113   1.471   0.176  2.1385  0.4842 -0.1198
 3468SOL     OW10648   1.707   3.344   5.215  0.1052 -0.0022  0.5381
 3468SOL    HW110649   1.644   3.302   5.157 -2.5319  2.5879  1.2634
 3468SOL    HW210650   1.740   3.418   5.164  2.1923 -0.9631  0.4021
 3469SOL     OW10651   3.916   5.156   5.090  0.2292 -0.1733 -0.2774
 3469SOL    HW110652   4.005   5.159   5.126  0.1997 -2.9957  0.2384
 3469SOL    HW210653   3.874   5.234   5.125  1.9746  0.2996  0.9264
 3470SOL     OW10654   1.993   2.130   5.944 -0.2509 -0.3444  0.1781
 3470SOL    HW110655   1.910   2.163   5.979 -0.7303 -0.7348 -0.5801
 3470SOL    HW210656   2.025   2.200   5.888 -0.7731 -0.7386 -0.6364
 3471SOL     OW10657   5.604   5.752   1.398  0.0931  0.3106  0.8586
 3471SOL    HW110658   5.568   5.668   1.424 -0.5833  0.4327  0.3696
 3471SOL    HW210659   5.596   5.807   1.476 -1.0551  0.4134  0.6845
 3472SOL     OW10660   4.884   0.803   0.047  0.1716  0.0329  0.5085
 3472SOL    HW110661   4.953   0.794   0.112  1.0729  0.7215 -0.3248
 3472SOL    HW210662   4.908   0.740  -0.022  1.0334  1.5493 -0.6528
 3473SOL     OW10663   0.842   2.657   2.184 -0.2392  0.1892 -0.1857
 3473SOL    HW110664   0.807   2.568   2.180  0.0555  0.0683 -0.0602
 3473SOL    HW210665   0.937   2.646   2.186 -0.2236  0.4216  1.7916
 3474SOL     OW10666   3.437   1.162   2.731 -0.2176  0.4827 -0.7969
 3474SOL    HW110667   3.530   1.147   2.750 -0.7388  1.1273  2.9374
 3474SOL    HW210668   3.400   1.074   2.721  0.4644  0.1437 -0.4343
 3475SOL     OW10669   4.908   2.432   5.211 -0.0422 -0.4783 -0.5649
 3475SOL    HW110670   4.841   2.498   5.225 -0.3421 -1.0951  1.1102
 3475SOL    HW210671   4.916   2.387   5.295  2.4654 -0.4322 -0.6919
 3476SOL     OW10672   1.143   5.048   1.847 -0.1955 -0.0941  0.3314
 3476SOL    HW110673   1.052   5.075   1.861  0.3412  1.8566  0.4425
 3476SOL    HW210674   1.194   5.115   1.892  1.3124 -0.9633 -0.0425
 3477SOL     OW10675   0.704   2.264   5.261 -0.1770 -0.6810  0.3449
 3477SOL    HW110676   0.722   2.224   5.176 -1.5623 -1.4319  0.3762
 3477SOL    HW210677   0.689   2.357   5.241 -0.3490 -0.8235 -0.2084
 3478SOL     OW10678   0.750   3.926   3.432  0.7439  0.2062 -0.5068
 3478SOL    HW110679   0.815   3.892   3.370 -0.4922 -2.3621 -0.5360
 3478SOL    HW210680   0.798   3.937   3.514  1.4794 -0.5524 -0.8198
 3479SOL     OW10681   2.434   3.206   2.685 -0.0212 -0.2901 -0.1544
 3479SOL    HW110682   2.438   3.261   2.763  2.8969  1.7452 -1.5140
 3479SOL    HW210683   2.364   3.245   2.632 -0.3085 -0.0893  0.3618
 3480SOL     OW10684   5.462   5.753   3.040  0.4746  0.1896  0.0654
 3480SOL    HW110685   5.413   5.697   3.100 -0.7724  0.5423 -0.6085
 3480SOL    HW210686   5.499   5.821   3.096  2.1869 -1.3496  0.9386
 3481SOL     OW10687   5.668   5.389   2.357 -0.1447  0.1737  0.4517
 3481SOL    HW110688   5.659   5.294   2.358  1.1991  0.0021 -0.8710
 3481SOL    HW210689   5.628   5.416   2.274 -0.1287  0.7143  0.6145
 3482SOL     OW10690   2.363   4.539   5.784 -0.5236 -0.3307  0.2548
 3482SOL    HW110691   2.334   4.627   5.805  1.9505  0.6829 -0.2198
 3482SOL    HW210692   2.340   4.526   5.692 -1.6239 -0.5440  0.5428
 3483SOL     OW10693   2.814   2.416   2.471 -0.4253  0.9117  0.3089
 3483SOL    HW110694   2.835   2.337   2.420  1.2116  1.3646  0.2133
 3483SOL    HW210695   2.828   2.389   2.562  0.7209  1.2191  0.2441
 3484SOL     OW10696   2.742   5.421   3.004  0.4340  0.1253  0.0178
 3484SOL    HW110697   2.828   5.379   3.013  1.4872  1.9555 -0.8268
 3484SOL    HW210698   2.708   5.426   3.093  1.1145 -0.7811  0.3450
 3485SOL     OW10699   4.985   1.547   2.626 -0.6204  0.1476 -0.1668
 3485SOL    HW110700   4.969   1.454   2.637 -1.4749  0.3678  0.5319
 3485SOL    HW210701   5.035   1.553   2.544 -0.3803 -0.9264 -0.1126
 3486SOL     OW10702   3.850   2.373   3.854 -0.1925 -0.3233 -0.1481
 3486SOL    HW110703   3.801   2.336   3.781 -1.1221  1.9339 -0.7813
 3486SOL    HW210704   3.833   2.467   3.848 -0.9068 -0.0715  3.3740
 3487SOL     OW10705   2.217   4.431   0.030  0.2551  0.0930  0.1865
 3487SOL    HW110706   2.135   4.387   0.055  1.2355 -1.3085  1.0717
 3487SOL    HW210707   2.200   4.524   0.047 -0.4682 -0.3812  2.4296
 3488SOL     OW10708   5.033   4.333   0.729 -0.0019 -0.1339  0.0277
 3488SOL    HW110709   5.021   4.255   0.675 -2.7787  0.0936  0.2083
 3488SOL    HW210710   4.979   4.318   0.806  0.7192  1.3006  0.8566
 3489SOL     OW10711   4.585   2.609   1.052 -0.5677  0.2680 -0.2519
 3489SOL    HW110712   4.504   2.560   1.062 -1.2966  1.4221 -0.3548
 3489SOL    HW210713   4.626   2.604   1.138 -1.1238  0.3193  0.0211
 3490SOL     OW10714   2.433   3.684   4.653  0.1180  0.7130  0.2522
 3490SOL    HW110715   2.339   3.667   4.664  0.3578 -2.9228 -1.7733
 3490SOL    HW210716   2.437   3.743   4.578 -0.5602  1.1988  0.5866
 3491SOL     OW10717   4.756   5.158   3.799 -0.2969  0.0920  0.0350
 3491SOL    HW110718   4.706   5.122   3.725 -0.8787 -1.7489  1.2637
 3491SOL    HW210719   4.694   5.216   3.844 -0.4144  0.0473 -0.0688
 3492SOL     OW10720   4.804   0.960   5.656  0.5586  0.5425  0.0184
 3492SOL    HW110721   4.823   0.933   5.746  1.2886  0.0019 -0.2912
 3492SOL    HW210722   4.878   1.014   5.630  0.5004  0.4448 -0.3638
 3493SOL     OW10723   1.178   2.038   3.805 -0.2652  0.3842 -0.2112
 3493SOL    HW110724   1.256   1.984   3.816 -0.6517 -0.6015 -1.8277
 3493SOL    HW210725   1.108   1.975   3.786 -1.5970  1.1896  1.6634
 3494SOL     OW10726   1.865   2.679   1.595  0.1419 -0.1771  0.2445
 3494SOL    HW110727   1.871   2.743   1.666 -0.4963  0.5350 -0.3200
 3494SOL    HW210728   1.817   2.725   1.525 -0.0560 -1.1650 -0.2938
 3495SOL     OW10729   2.748   4.804   4.943  0.2164 -0.2923  0.7018
 3495SOL    HW110730   2.831   4.826   4.900  1.2295 -0.5234  2.4286
 3495SOL    HW210731   2.754   4.710   4.959  0.0266 -0.1508  1.6384
 3496SOL     OW10732   0.479   1.616   4.896 -0.1102 -0.5851 -0.5129
 3496SOL    HW110733   0.419   1.640   4.826 -0.5821 -0.6983 -0.1527
 3496SOL    HW210734   0.446   1.662   4.973 -0.8789 -2.1208  0.1339
 3497SOL     OW10735   2.962   5.225   3.031  0.0656  0.6510 -0.0974
 3497SOL    HW110736   2.980   5.286   3.103  0.0169 -0.1700  0.6249
 3497SOL    HW210737   2.962   5.138   3.072 -1.4191  0.2722 -0.8073
 3498SOL     OW10738   4.047   4.232   3.294  0.1476 -0.4840 -0.0624
 3498SOL    HW110739   3.989   4.190   3.230 -0.0514  1.4797 -1.2469
 3498SOL    HW210740   4.028   4.325   3.285  2.0746  0.0413  0.9543
 3499SOL     OW10741   3.040   4.928   0.811  0.7017 -0.1717 -0.2552
 3499SOL    HW110742   2.990   4.846   0.810 -1.0341  0.7525 -3.1896
 3499SOL    HW210743   3.097   4.922   0.734  1.1752  1.0123 -0.0054
 3500SOL     OW10744   1.857   2.194   1.431 -0.1932 -0.3849 -0.1317
 3500SOL    HW110745   1.886   2.268   1.485 -1.5943 -1.4772  2.2596
 3500SOL    HW210746   1.802   2.141   1.489 -3.2601 -0.8078 -3.0904
 3501SOL     OW10747   4.745   1.663   0.467  0.1130 -0.2601  0.0114
 3501SOL    HW110748   4.807   1.591   0.452  1.1737  0.2956  1.5119
 3501SOL    HW210749   4.728   1.661   0.561 -1.0544  0.5035 -0.1593
 3502SOL     OW10750   2.768   3.801   5.361 -0.0243  0.1439 -0.0932
 3502SOL    HW110751   2.739   3.871   5.303  0.3465 -0.3586 -0.9087
 3502SOL    HW210752   2.711   3.727   5.340  0.0925 -0.0301  0.1945
 3503SOL     OW10753   3.423   3.165   4.319 -0.1512 -0.3345 -0.1400
 3503SOL    HW110754   3.488   3.228   4.350  0.2077 -0.7046 -0.1449
 3503SOL    HW210755   3.458   3.080   4.344 -0.8645 -0.5093  0.2865
 3504SOL     OW10756   2.652   1.762   4.578 -0.4330  0.3471  0.5790
 3504SOL    HW110757   2.656   1.849   4.540  1.1967  0.1552  0.2318
 3504SOL    HW210758   2.698   1.770   4.662  1.7960 -0.6166 -0.4682
 3505SOL     OW10759   5.164   0.012   3.272  0.1403 -0.0886 -0.0843
 3505SOL    HW110760   5.147  -0.028   3.358 -0.3878  1.3405  0.5214
 3505SOL    HW210761   5.099   0.082   3.266 -0.6479 -0.9329 -2.2155
 3506SOL     OW10762   5.536   4.669   0.362  0.4136 -0.2518  0.5651
 3506SOL    HW110763   5.595   4.612   0.311 -1.1549 -0.7188 -0.8228
 3506SOL    HW210764   5.507   4.613   0.434 -0.4304 -0.9549 -0.2936
 3507SOL     OW10765   1.171   5.993   2.658  0.1108  0.5042 -0.1638
 3507SOL    HW110766   1.211   6.066   2.612  0.9427  1.2690  1.6629
 3507SOL    HW210767   1.240   5.927   2.664 -0.1097  0.2568 -0.3605
 3508SOL     OW10768   3.946   5.261   3.556  0.0405 -0.3466  0.0870
 3508SOL    HW110769   3.942   5.250   3.461 -0.5114  1.4599 -0.1399
 3508SOL    HW210770   3.865   5.307   3.578  0.7492  0.3871  1.2419
 3509SOL     OW10771   1.141   4.467   1.022 -0.4982 -0.1957 -0.2522
 3509SOL    HW110772   1.137   4.491   0.930  1.3856 -0.1932 -0.3681
 3509SOL    HW210773   1.193   4.387   1.024  0.6588  0.5336  0.8926
 3510SOL     OW10774   3.266   2.317   5.646  0.3886 -0.8804 -0.0678
 3510SOL    HW110775   3.294   2.343   5.558  2.1443  0.7957  0.9181
 3510SOL    HW210776   3.193   2.376   5.666  1.5256  0.4198  0.4559
 3511SOL     OW10777   5.969   3.730   1.209 -0.1057  0.1149  0.6961
 3511SOL    HW110778   5.932   3.672   1.142  1.2457  2.0325 -1.9104
 3511SOL    HW210779   6.059   3.699   1.219 -0.3936 -0.3764  1.9802
 3512SOL     OW10780   3.567   4.836   1.730  0.2034 -0.1060  0.2993
 3512SOL    HW110781   3.474   4.837   1.752 -0.6437  1.0436 -2.7408
 3512SOL    HW210782   3.586   4.926   1.703  2.1414 -0.3853  0.6072
 3513SOL     OW10783   4.406   1.392   3.732 -0.2522 -0.1161  0.0143
 3513SOL    HW110784   4.313   1.380   3.752 -1.2717  1.1611 -3.2806
 3513SOL    HW210785   4.430   1.314   3.683 -0.1130  0.3495 -0.6673
 3514SOL     OW10786   3.109   0.110   1.533  0.6803  0.0018  0.0394
 3514SOL    HW110787   3.122   0.016   1.545 -0.4761 -0.1892 -0.0812
 3514SOL    HW210788   3.129   0.126   1.441 -1.7330 -0.6371 -0.6545
 3515SOL     OW10789   0.395   3.332   0.549  0.3417 -0.6928  0.0361
 3515SOL    HW110790   0.341   3.254   0.547 -1.5396  0.5534 -1.2002
 3515SOL    HW210791   0.337   3.403   0.521  2.7016  0.6935 -1.7734
 3516SOL     OW10792   5.682   1.001   0.697 -0.0092 -0.5222 -0.1182
 3516SOL    HW110793   5.725   1.084   0.674 -0.8742 -0.0606 -0.1270
 3516SOL    HW210794   5.628   0.981   0.621 -0.5324 -0.6005  0.2742
 3517SOL     OW10795   4.545   5.763   3.609 -0.0957  0.0952 -0.1015
 3517SOL    HW110796   4.630   5.743   3.648  0.8558  0.6948 -1.7509
 3517SOL    HW210797   4.544   5.858   3.601 -0.4894  0.0323 -0.9689
 3518SOL     OW10798   4.688   5.917   0.701  0.3874 -0.8138  0.0835
 3518SOL    HW110799   4.637   5.851   0.748 -0.7502 -0.2393 -0.2938
 3518SOL    HW210800   4.713   5.981   0.768 -0.1622 -0.6393  0.1281
 3519SOL     OW10801   1.301   3.409   4.376 -0.4355  0.0542  0.0299
 3519SOL    HW110802   1.250   3.338   4.415 -0.4220  0.3179  0.5298
 3519SOL    HW210803   1.391   3.387   4.397 -0.3838 -0.0762 -0.3102
 3520SOL     OW10804   4.017   2.672   0.066  0.1296 -0.2768  0.7087
 3520SOL    HW110805   4.060   2.702  -0.015 -0.9649  0.5059  0.3965
 3520SOL    HW210806   3.927   2.704   0.058 -0.1777 -0.8149  1.9182
 3521SOL     OW10807   4.971   4.887   5.066 -0.5266  0.1455  0.4523
 3521SOL    HW110808   5.023   4.809   5.088 -0.9061 -0.3449 -0.3592
 3521SOL    HW210809   5.027   4.937   5.007 -0.5216  0.2065  0.5077
 3522SOL     OW10810   4.139   0.601   3.775 -0.4834  0.6480  0.5355
 3522SOL    HW110811   4.173   0.645   3.697 -2.0709  0.5244 -0.2509
 3522SOL    HW210812   4.218   0.571   3.821  0.4792  0.5005 -1.1378
 3523SOL     OW10813   1.635   5.925   4.729 -0.0337 -0.2083  0.5357
 3523SOL    HW110814   1.660   6.017   4.727 -0.2243 -0.1462  0.9614
 3523SOL    HW210815   1.580   5.913   4.652  0.1300 -0.0064  0.3865
 3524SOL     OW10816   1.587   2.256   4.494 -0.4674  0.6402 -0.0399
 3524SOL    HW110817   1.535   2.179   4.472  1.7780 -0.9252 -0.1828
 3524SOL    HW210818   1.594   2.255   4.589 -0.4973  0.7178 -0.0364
 3525SOL     OW10819   4.008   3.005   2.413  0.6414 -0.2952  0.1037
 3525SOL    HW110820   3.970   3.075   2.360  0.0602 -0.0570  0.8293
 3525SOL    HW210821   4.070   2.962   2.354 -0.0697 -0.0968 -0.8119
 3526SOL     OW10822   2.834   2.118   1.617  0.5816 -0.9225 -0.1457
 3526SOL    HW110823   2.873   2.031   1.618  1.3684 -0.5895  1.4013
 3526SOL    HW210824   2.740   2.103   1.612  0.6078 -1.9400  1.5940
 3527SOL     OW10825   1.799   4.150   1.741 -0.0970  1.0289 -0.1675
 3527SOL    HW110826   1.753   4.079   1.696  1.5202  0.2555 -0.6817
 3527SOL    HW210827   1.734   4.219   1.750 -1.6152 -0.3675 -0.0043
 3528SOL     OW10828   1.614   1.649   2.675 -0.3603 -1.1714  0.4303
 3528SOL    HW110829   1.675   1.715   2.708  0.3800 -1.4168 -0.4158
 3528SOL    HW210830   1.533   1.664   2.725 -0.2851  0.5318  0.0987
 3529SOL     OW10831   3.965   0.857   3.095  0.0800 -0.6171  0.5845
 3529SOL    HW110832   4.045   0.846   3.145 -0.6096 -0.7069  1.7040
 3529SOL    HW210833   3.985   0.926   3.031  0.7413  0.0692  1.5122
 3530SOL     OW10834   5.873   1.263   0.032  0.0450 -0.4604 -0.3052
 3530SOL    HW110835   5.908   1.352   0.040  0.0770 -0.4827 -0.1816
 3530SOL    HW210836   5.886   1.239  -0.060 -1.7456  0.3868 -0.8139
 3531SOL     OW10837   5.159   1.433   4.479  0.0664 -0.2982 -0.2083
 3531SOL    HW110838   5.134   1.518   4.443  0.5630  0.2420  0.6599
 3531SOL    HW210839   5.110   1.426   4.561 -0.8225 -1.3663 -0.8104
 3532SOL     OW10840   5.549   2.022   4.229  0.5687 -0.0755  0.5215
 3532SOL    HW110841   5.481   1.955   4.229  0.6366 -0.1674  2.1353
 3532SOL    HW210842   5.514   2.092   4.283  1.7189 -0.0920  1.3154
 3533SOL     OW10843   0.193   4.955   1.796  0.2546  0.2548  0.4276
 3533SOL    HW110844   0.127   5.017   1.767 -0.9285 -1.6392 -1.1739
 3533SOL    HW210845   0.273   4.983   1.753  0.3009  1.9582  1.5482
 3534SOL     OW10846   1.086   5.496   5.998  0.2943  0.1604 -0.2259
 3534SOL    HW110847   1.006   5.450   6.023 -0.1232  0.6870 -0.5808
 3534SOL    HW210848   1.143   5.427   5.964  0.5983 -0.4627  1.4467
 3535SOL     OW10849   1.961   3.508   1.250  0.4853 -0.0111 -0.1517
 3535SOL    HW110850   1.906   3.430   1.258 -0.6588  0.6580 -1.0839
 3535SOL    HW210851   2.029   3.496   1.315 -0.9748 -0.7265  1.3208
 3536SOL     OW10852   1.117   0.763   3.255 -0.1164  0.0959  0.0111
 3536SOL    HW110853   1.193   0.762   3.313  0.3380  0.5938 -0.5632
 3536SOL    HW210854   1.133   0.691   3.194  0.4173  0.8469 -0.7551
 3537SOL     OW10855   5.803   1.917   3.204 -0.5986  0.2733 -0.1095
 3537SOL    HW110856   5.847   1.869   3.134  1.4223  1.3051  0.3929
 3537SOL    HW210857   5.729   1.861   3.229  0.3059 -1.4379 -1.1120
 3538SOL     OW10858   6.035   0.044   1.265 -0.1504  0.3725  0.1936
 3538SOL    HW110859   5.968  -0.022   1.246 -0.2959  0.4263  0.5235
 3538SOL    HW210860   6.106  -0.005   1.307 -0.1535  0.3859  0.2140
 3539SOL     OW10861   0.619   2.739   2.051 -0.2684 -0.1638 -0.1902
 3539SOL    HW110862   0.592   2.648   2.056 -0.1903 -0.2463 -1.0556
 3539SOL    HW210863   0.701   2.743   2.100  0.1184 -0.7291 -0.7700
 3540SOL     OW10864   4.352   2.092   5.183  0.2789  0.7462 -0.4322
 3540SOL    HW110865   4.377   2.035   5.110 -0.4391 -2.3981  1.5820
 3540SOL    HW210866   4.257   2.097   5.177  0.3147  1.5916 -0.4272
 3541SOL     OW10867   1.239   1.017   1.440 -0.0631 -0.3046 -0.3391
 3541SOL    HW110868   1.313   0.979   1.392 -0.0380  0.0051 -0.5445
 3541SOL    HW210869   1.188   1.062   1.374  0.4545  0.8922  0.0499
 3542SOL     OW10870   3.431   4.670   5.653  0.0132  0.0678  0.5681
 3542SOL    HW110871   3.508   4.616   5.666  0.2136  0.2457  0.1490
 3542SOL    HW210872   3.361   4.624   5.699  0.4788  0.1891  1.4154
 3543SOL     OW10873   1.603   5.340   0.288  0.4213  0.4319  0.3949
 3543SOL    HW110874   1.526   5.359   0.235  1.0846  0.3725 -0.6377
 3543SOL    HW210875   1.668   5.308   0.225  0.9563 -0.4918  1.3869
 3544SOL     OW10876   4.837   3.527   2.256  0.4018 -0.1004  0.1268
 3544SOL    HW110877   4.863   3.473   2.331  0.0496 -0.1633  0.2025
 3544SOL    HW210878   4.774   3.474   2.208  0.1298  0.2036  0.1456
 3545SOL     OW10879   2.205   4.856   4.507 -0.1738  0.5869  0.0728
 3545SOL    HW110880   2.215   4.948   4.484 -1.4838  0.6289 -0.4507
 3545SOL    HW210881   2.193   4.856   4.602  3.3354  0.5934  0.6135
 3546SOL     OW10882   5.057   3.044   6.073  0.7822 -0.2284  0.3052
 3546SOL    HW110883   5.068   3.090   5.990 -0.9900 -0.8534 -0.3159
 3546SOL    HW210884   5.089   3.106   6.139  0.7422  0.9059 -0.7139
 3547SOL     OW10885   3.228   1.901   4.615  0.1943  0.2449  0.0181
 3547SOL    HW110886   3.198   1.878   4.527 -0.2469  1.6535 -0.2296
 3547SOL    HW210887   3.267   1.821   4.649  0.9451 -0.1569 -1.6956
 3548SOL     OW10888   4.593   3.090   4.994 -0.3062 -0.0781  0.3388
 3548SOL    HW110889   4.526   3.131   4.939 -0.8899 -1.8337 -0.3278
 3548SOL    HW210890   4.625   3.161   5.050 -1.7386  1.1117 -0.2856
 3549SOL     OW10891   1.924   1.280   4.841 -0.2627  0.0238 -0.2718
 3549SOL    HW110892   1.974   1.327   4.773 -0.1323  1.2169  0.6221
 3549SOL    HW210893   1.991   1.234   4.891 -0.4418 -1.6823 -1.5269
 3550SOL     OW10894   1.425   0.832   1.299  0.4626  0.4923 -0.1812
 3550SOL    HW110895   1.503   0.825   1.354 -1.0595  0.3247  2.0426
 3550SOL    HW210896   1.458   0.817   1.210  2.7420 -0.9954  0.8178
 3551SOL     OW10897   1.173   2.525   5.951 -0.2900  0.0738  0.1650
 3551SOL    HW110898   1.217   2.581   6.014 -0.9842  0.0516  0.6890
 3551SOL    HW210899   1.083   2.558   5.949 -0.4554 -0.3948 -0.2580
 3552SOL     OW10900   2.369   5.842   2.223 -0.2177 -0.2230  0.5404
 3552SOL    HW110901   2.361   5.931   2.256  0.5901  0.7175 -1.5596
 3552SOL    HW210902   2.457   5.815   2.248  0.4642  0.5585 -0.8797
 3553SOL     OW10903   3.249   3.474   4.016  0.2576 -0.1281 -0.1326
 3553SOL    HW110904   3.290   3.388   4.027  0.9972  0.1240 -0.8526
 3553SOL    HW210905   3.259   3.517   4.101  1.6713 -0.0047 -0.3341
 3554SOL     OW10906   4.055   4.406   4.601  0.2665 -0.7006 -0.6620
 3554SOL    HW110907   4.043   4.332   4.660 -0.7729 -0.5047 -0.6076
 3554SOL    HW210908   4.129   4.381   4.545  1.5541 -0.7015  0.9736
 3555SOL     OW10909   1.644   0.317   5.472  0.0766  0.0813 -0.5599
 3555SOL    HW110910   1.624   0.285   5.384 -0.5113 -0.6365 -0.1798
 3555SOL    HW210911   1.739   0.327   5.473  0.2401 -1.1845 -0.8686
 3556SOL     OW10912   3.792   1.687   3.595 -0.1322 -0.0873  0.0672
 3556SOL    HW110913   3.795   1.718   3.685 -0.8910 -0.4212  0.2134
 3556SOL    HW210914   3.855   1.615   3.592 -0.8077 -0.7164  0.5920
 3557SOL     OW10915   5.512   4.748   3.238 -0.5411  0.4833  0.6208
 3557SOL    HW110916   5.427   4.708   3.259  0.2241 -0.8498  1.2885
 3557SOL    HW210917   5.552   4.766   3.323  0.9831 -1.4523  0.3732
 3558SOL     OW10918   2.266   4.362   0.572 -0.4201 -0.6702 -0.1340
 3558SOL    HW110919   2.347   4.362   0.622  0.0300 -1.5192 -0.8316
 3558SOL    HW210920   2.198   4.380   0.636  0.3816  0.9580  0.3201
 3559SOL     OW10921   4.468   2.888   4.222 -0.0019  0.1367  0.0148
 3559SOL    HW110922   4.415   2.967   4.211 -0.4644 -0.0799  0.6627
 3559SOL    HW210923   4.420   2.820   4.175  0.7351  0.3723 -1.1157
 3560SOL     OW10924   0.139   4.777   4.656 -0.1990 -0.1091  0.3876
 3560SOL    HW110925   0.091   4.714   4.602 -0.1277  0.4143 -0.2956
 3560SOL    HW210926   0.076   4.806   4.721  0.0041 -1.5266  1.2800
 3561SOL     OW10927   0.396   4.994   2.183  0.5455 -0.2560 -0.0968
 3561SOL    HW110928   0.359   4.943   2.255  0.0217 -0.8557 -0.7789
 3561SOL    HW210929   0.472   5.039   2.222  0.3513 -0.6684  0.7875
 3562SOL     OW10930   0.602   5.141   4.668  0.2091 -0.0242  0.2811
 3562SOL    HW110931   0.644   5.226   4.672  1.4811 -0.5995 -0.2886
 3562SOL    HW210932   0.569   5.134   4.578  2.9923 -1.3886 -0.7549
 3563SOL     OW10933   3.118   5.858   6.138 -0.3500  0.2208  0.6550
 3563SOL    HW110934   3.044   5.831   6.192  1.2914 -0.2130  2.8562
 3563SOL    HW210935   3.179   5.784   6.143  0.9151  1.2045  0.2477
 3564SOL     OW10936   2.989   3.127   1.618  0.3103 -0.5843  0.0214
 3564SOL    HW110937   3.025   3.215   1.620  0.5749 -0.6443 -1.3365
 3564SOL    HW210938   2.962   3.110   1.709  2.9159 -0.2397  0.9332
 3565SOL     OW10939   0.726   4.721   0.553 -0.0444  0.1122  0.4420
 3565SOL    HW110940   0.713   4.789   0.488 -2.1414  0.4148  1.0992
 3565SOL    HW210941   0.792   4.757   0.613 -0.3764  1.1194  0.2185
 3566SOL     OW10942   2.227   3.299   0.122 -0.2045  0.0390  0.1890
 3566SOL    HW110943   2.245   3.339   0.207 -1.3293 -0.1210  0.5152
 3566SOL    HW210944   2.218   3.372   0.062 -1.1138  0.2408  0.5557
 3567SOL     OW10945   0.679   1.889   0.099 -0.4229  0.2064  0.5484
 3567SOL    HW110946   0.656   1.808   0.142  0.7956 -0.4443  0.0272
 3567SOL    HW210947   0.595   1.933   0.082 -1.0578 -0.7470  1.1851
 3568SOL     OW10948   0.880   4.877   5.834 -0.2353  0.0667 -0.3420
 3568SOL    HW110949   0.949   4.847   5.776 -0.5652 -2.8623  0.6341
 3568SOL    HW210950   0.909   4.852   5.922 -2.7956 -2.0289  0.0331
 3569SOL     OW10951   2.540   0.299   1.155  0.0653  0.0402  0.1252
 3569SOL    HW110952   2.475   0.369   1.145  0.3464  0.4426  1.0076
 3569SOL    HW210953   2.499   0.238   1.217 -0.4893 -0.9694 -1.2095
 3570SOL     OW10954   5.977   5.434   1.817  0.4491  0.3135 -0.2816
 3570SOL    HW110955   5.959   5.340   1.812 -0.5131  0.4806 -0.2198
 3570SOL    HW210956   5.898   5.475   1.781  0.6141  1.1132  0.2486
 3571SOL     OW10957   4.315   0.045   2.515  0.1900 -0.2575  0.8490
 3571SOL    HW110958   4.243  -0.004   2.556 -0.3056  1.2532  1.8830
 3571SOL    HW210959   4.272   0.113   2.464  0.8781  0.0720  0.6908
 3572SOL     OW10960   5.552   2.373   2.796 -0.2623  0.5412  0.5364
 3572SOL    HW110961   5.594   2.448   2.837 -1.0832  0.3997  1.6574
 3572SOL    HW210962   5.522   2.319   2.868 -1.5243  0.1610 -0.2394
 3573SOL     OW10963   2.571   2.032   1.919  0.1195 -0.1254  0.7506
 3573SOL    HW110964   2.549   1.992   2.003 -0.0069 -0.5102  0.5400
 3573SOL    HW210965   2.594   2.122   1.940  1.1877 -0.5173  1.3433
 3574SOL     OW10966   4.081   0.405   4.131 -0.2615 -0.4216 -0.4108
 3574SOL    HW110967   4.028   0.426   4.055  0.6206  0.9913 -0.6545
 3574SOL    HW210968   4.096   0.489   4.175 -3.7133 -1.4293  3.3912
 3575SOL     OW10969   3.920   0.291   5.563  0.2394  0.7168 -0.4583
 3575SOL    HW110970   3.885   0.361   5.618  0.8165  0.1958  0.6053
 3575SOL    HW210971   3.875   0.301   5.479  0.0724  2.1541 -0.2229
 3576SOL     OW10972   1.097   5.307   5.200 -0.1030  0.1809  0.4729
 3576SOL    HW110973   1.081   5.216   5.175 -0.6443  0.0003  1.4260
 3576SOL    HW210974   1.009   5.343   5.215  0.0925  0.9546 -0.2015
 3577SOL     OW10975   1.589   2.394   0.638  0.4327  0.2852 -0.0912
 3577SOL    HW110976   1.500   2.429   0.636 -0.2715 -1.4259  0.3028
 3577SOL    HW210977   1.624   2.414   0.551 -0.2899  1.0493 -0.2197
 3578SOL     OW10978   0.057   4.969   2.063 -0.0841 -0.3710  0.1028
 3578SOL    HW110979   0.132   4.940   2.010 -0.3868  0.9883 -1.1335
 3578SOL    HW210980   0.016   4.888   2.093  0.8727 -1.1625 -0.6517
 3579SOL     OW10981   1.916   3.667   3.123 -0.3638 -0.4653  0.6088
 3579SOL    HW110982   1.866   3.586   3.136 -2.2098  0.6793  0.9962
 3579SOL    HW210983   1.864   3.717   3.061  0.5835  0.5683  0.6354
 3580SOL     OW10984   3.992   5.472   3.162 -0.0573  0.1489  0.1204
 3580SOL    HW110985   4.014   5.394   3.212 -1.3947 -0.5573 -0.3528
 3580SOL    HW210986   3.978   5.441   3.073  1.0209  1.1999 -0.4553
 3581SOL     OW10987   4.379   0.402   0.052 -0.0620 -0.0123  0.8660
 3581SOL    HW110988   4.451   0.431  -0.004 -0.3626 -0.2103  0.3745
 3581SOL    HW210989   4.391   0.451   0.133 -0.6085  1.5560  0.0274
 3582SOL     OW10990   2.017   1.042   0.628  0.8842 -0.6099 -0.1265
 3582SOL    HW110991   1.957   0.968   0.620  2.4239 -1.8694 -0.6108
 3582SOL    HW210992   1.967   1.109   0.675 -1.1869 -1.2192 -1.3439
 3583SOL     OW10993   2.040   1.954   3.630  0.2953 -0.3836  0.7400
 3583SOL    HW110994   2.076   1.918   3.549 -0.6771 -1.4142  0.7399
 3583SOL    HW210995   2.097   1.921   3.699  1.1913  0.5890  0.4836
 3584SOL     OW10996   4.583   1.356   3.193 -0.5809 -0.1766 -0.1549
 3584SOL    HW110997   4.652   1.329   3.254 -0.2905  0.5350 -0.1599
 3584SOL    HW210998   4.546   1.435   3.233  0.4737  1.0495 -1.5238
 3585SOL     OW10999   0.855   3.396   5.782  0.6157 -0.3830  0.8244
 3585SOL    HW111000   0.870   3.308   5.748  1.2454 -0.8847  2.3023
 3585SOL    HW211001   0.777   3.387   5.837  1.6863 -0.4566  2.3893
 3586SOL     OW11002   5.457   3.526   1.930 -0.3965 -1.0939  0.0464
 3586SOL    HW111003   5.364   3.508   1.919 -0.5123 -0.1615 -0.7328
 3586SOL    HW211004   5.474   3.509   2.022 -1.9475  1.1872  0.8537
 3587SOL     OW11005   3.597   1.357   0.838 -0.1272 -0.5450 -0.1183
 3587SOL    HW111006   3.563   1.272   0.864  0.1630 -0.9179 -0.9093
 3587SOL    HW211007   3.608   1.350   0.743  1.8572 -0.3401  0.0643
 3588SOL     OW11008   2.194   4.435   2.806  0.4864 -0.1666 -0.0682
 3588SOL    HW111009   2.280   4.394   2.792  1.5004  1.4778  0.9798
 3588SOL    HW211010   2.153   4.381   2.873  1.3158 -0.1485  0.4705
 3589SOL     OW11011   4.212   5.782   2.613 -0.2931 -0.0763 -0.1660
 3589SOL    HW111012   4.198   5.690   2.591 -1.3718  0.1119 -0.3053
 3589SOL    HW211013   4.224   5.783   2.707 -2.6961 -0.1278  0.2066
 3590SOL     OW11014   3.367   0.637   1.693 -0.2376  0.3066 -0.4729
 3590SOL    HW111015   3.362   0.567   1.628 -1.3712  1.1779 -1.3747
 3590SOL    HW211016   3.289   0.690   1.677  0.4147  1.5896  0.3967
 3591SOL     OW11017   3.680   2.803   2.857 -0.1536 -0.4263 -0.4245
 3591SOL    HW111018   3.606   2.854   2.892 -1.0746 -1.1085 -1.3352
 3591SOL    HW211019   3.695   2.840   2.770  2.2916  1.4326  0.6662
 3592SOL     OW11020   5.463   2.020   1.914  0.3394  0.4225 -0.1650
 3592SOL    HW111021   5.410   2.062   1.847  1.0950  0.7409 -0.5792
 3592SOL    HW211022   5.445   1.926   1.905 -0.7803  0.5866  0.2658
 3593SOL     OW11023   5.677   0.326   1.978 -0.2029  0.0256  0.5540
 3593SOL    HW111024   5.635   0.251   1.936 -1.0287 -0.5684  2.3437
 3593SOL    HW211025   5.770   0.305   1.976 -0.4349 -1.1136  1.1326
 3594SOL     OW11026   0.112   2.659   4.874  0.5999 -0.0447  0.4739
 3594SOL    HW111027   0.176   2.588   4.874  1.6312  0.8745  0.5184
 3594SOL    HW211028   0.028   2.614   4.863  1.3868 -1.1336 -1.7393
 3595SOL     OW11029   1.106   5.971   5.805  0.2535  0.0105  0.0862
 3595SOL    HW111030   1.183   5.973   5.749  0.1618 -1.1352 -0.1051
 3595SOL    HW211031   1.127   6.031   5.877  1.3146 -0.2755  0.0320
 3596SOL     OW11032   1.349   2.506   4.600 -0.1830  0.0066  0.5162
 3596SOL    HW111033   1.305   2.471   4.523 -0.9209  0.6119  0.6511
 3596SOL    HW211034   1.287   2.568   4.638  0.3748  0.1089  1.3055
 3597SOL     OW11035   4.806   2.832   2.013 -0.2122  0.2691  0.4625
 3597SOL    HW111036   4.823   2.906   2.071  1.4136  2.2998 -2.3635
 3597SOL    HW211037   4.768   2.871   1.935 -1.9555 -2.3021 -0.0924
 3598SOL     OW11038   2.546   1.614   0.588  0.7974  0.1948 -0.6804
 3598SOL    HW111039   2.606   1.629   0.515 -0.7425  0.4601 -1.9545
 3598SOL    HW211040   2.460   1.638   0.554  0.1267  1.2124  1.5217
 3599SOL     OW11041   3.836   1.711   5.944  0.0207  0.7278 -0.1550
 3599SOL    HW111042   3.909   1.667   5.900  0.1612  1.3626 -0.5609
 3599SOL    HW211043   3.773   1.728   5.874 -1.6956 -2.0779  0.5557
 3600SOL     OW11044   4.095   0.546   4.967 -0.3077 -0.2992  0.2037
 3600SOL    HW111045   4.140   0.566   5.050 -0.1796 -0.1090  0.0901
 3600SOL    HW211046   4.051   0.463   4.983  0.2039 -0.5644  0.2753
 3601SOL     OW11047   2.820   1.893   2.680 -0.1585  0.0516 -0.0413
 3601SOL    HW111048   2.786   1.805   2.698  0.6024 -0.2741 -0.1939
 3601SOL    HW211049   2.743   1.950   2.691 -1.0828 -0.8165 -1.7100
 3602SOL     OW11050   5.422   5.129   1.294 -0.5205  0.1260  0.6447
 3602SOL    HW111051   5.385   5.095   1.375 -0.4075 -2.8430 -0.4346
 3602SOL    HW211052   5.351   5.122   1.230  0.1488 -0.0845 -0.0957
 3603SOL     OW11053   3.836   1.820   1.442 -0.1115  0.5410 -0.3492
 3603SOL    HW111054   3.780   1.747   1.417  1.5294 -0.6197 -0.8335
 3603SOL    HW211055   3.878   1.849   1.361 -0.3401  1.7006 -0.0810
 3604SOL     OW11056   2.153   1.595   3.908 -0.1186 -0.5015  0.4358
 3604SOL    HW111057   2.248   1.597   3.896 -0.3266  1.8288 -1.7144
 3604SOL    HW211058   2.126   1.512   3.867  0.8644 -0.5557 -0.1386
 3605SOL     OW11059   4.522   5.046   4.425 -0.0485 -0.2030  0.4259
 3605SOL    HW111060   4.489   4.971   4.376 -0.8875  0.5953 -0.2723
 3605SOL    HW211061   4.490   5.032   4.514  0.8634 -1.2974  0.5919
 3606SOL     OW11062   5.148   1.769   5.823  0.3076  0.1311  0.8258
 3606SOL    HW111063   5.099   1.718   5.758  0.5068  1.0835 -0.1013
 3606SOL    HW211064   5.107   1.855   5.821  2.3310  1.1418 -0.4003
 3607SOL     OW11065   4.746   5.763   4.722  0.0013 -0.4577  0.0298
 3607SOL    HW111066   4.686   5.837   4.710 -0.4349 -0.9317 -0.7907
 3607SOL    HW211067   4.689   5.686   4.717  0.3054 -0.8377  1.7747
 3608SOL     OW11068   3.805   5.444   5.765 -0.0743 -0.1291  0.1099
 3608SOL    HW111069   3.862   5.436   5.689 -1.7265  1.5522 -1.4149
 3608SOL    HW211070   3.734   5.381   5.748 -1.1700  1.2202 -0.4955
 3609SOL     OW11071   2.075   4.941   3.846  0.3331  0.6117 -0.1525
 3609SOL    HW111072   2.027   4.974   3.771  0.9104  1.8678 -0.0034
 3609SOL    HW211073   2.165   4.973   3.833  0.4701  0.7568  0.9891
 3610SOL     OW11074   6.075   4.842   5.118 -0.3964 -0.0690 -0.3570
 3610SOL    HW111075   6.079   4.769   5.179 -0.5808  1.7811  2.0285
 3610SOL    HW211076   6.165   4.872   5.111 -0.5579  0.5353  0.0843
 3611SOL     OW11077   2.364   3.214   5.110  0.3065  0.7684 -0.0871
 3611SOL    HW111078   2.363   3.128   5.068  1.9096  0.5725  0.2189
 3611SOL    HW211079   2.438   3.259   5.070 -0.4461  1.9908 -0.1660
 3612SOL     OW11080   3.042   3.235   4.018  0.2201  0.4803  0.3340
 3612SOL    HW111081   3.109   3.208   3.955  2.6671 -0.2033  2.9883
 3612SOL    HW211082   3.048   3.331   4.020  0.6999  0.4554  0.1265
 3613SOL     OW11083   2.204   2.535   0.614 -0.1729  0.5213 -0.3703
 3613SOL    HW111084   2.133   2.548   0.677  0.1521  1.3246 -0.1588
 3613SOL    HW211085   2.271   2.597   0.641  1.0554 -0.9141  0.0531
 3614SOL     OW11086   1.576   2.367   4.221  0.2317 -0.3302  0.2387
 3614SOL    HW111087   1.631   2.445   4.216 -1.2426  0.6598 -2.1860
 3614SOL    HW211088   1.582   2.339   4.312  2.5232  1.3233  0.6805
 3615SOL     OW11089   4.457   0.465   4.302 -0.0451  0.1595 -0.5547
 3615SOL    HW111090   4.434   0.475   4.394 -0.1556  1.0199 -0.6680
 3615SOL    HW211091   4.483   0.553   4.274 -0.8933  0.1019 -1.5751
 3616SOL     OW11092   0.517   5.879   4.905  0.3486  0.1782 -0.2476
 3616SOL    HW111093   0.537   5.850   4.816 -0.1243  1.0479 -0.6541
 3616SOL    HW211094   0.600   5.873   4.952  0.1609 -2.3448 -0.1403
 3617SOL     OW11095   0.606   3.797   1.495 -0.2773  0.1612 -0.2655
 3617SOL    HW111096   0.661   3.781   1.572 -0.9596 -0.1886  0.1650
 3617SOL    HW211097   0.625   3.888   1.471 -0.2592  0.3665  0.4950
 3618SOL     OW11098   2.419   0.826   3.762 -0.3710 -0.2040 -0.1067
 3618SOL    HW111099   2.415   0.735   3.793 -0.2969 -0.4095 -0.6910
 3618SOL    HW211100   2.460   0.873   3.835  0.0694 -0.7333  0.0058
 3619SOL     OW11101   5.247   4.817   1.435  0.3308  0.4893 -0.1480
 3619SOL    HW111102   5.328   4.819   1.384  0.5295 -0.1540  0.1404
 3619SOL    HW211103   5.178   4.801   1.370  0.6240 -0.7287 -0.1791
 3620SOL     OW11104   4.007   4.203   2.366 -0.0499  0.2763  0.3132
 3620SOL    HW111105   3.970   4.282   2.404  1.1295  0.6390  0.7498
 3620SOL    HW211106   3.938   4.137   2.375 -1.3116  1.4125 -0.7009
 3621SOL     OW11107   4.112   4.420   1.600  0.3615 -0.0670 -0.4107
 3621SOL    HW111108   4.155   4.499   1.631  0.1167  0.1800 -0.7035
 3621SOL    HW211109   4.022   4.447   1.580  0.1426 -0.5233 -0.0546
 3622SOL     OW11110   5.110   3.704   6.000  0.6563  0.4759  0.0700
 3622SOL    HW111111   5.201   3.718   6.029  0.5689  0.7211  0.2316
 3622SOL    HW211112   5.117   3.691   5.905  0.7892  1.1918 -0.0214
 3623SOL     OW11113   0.239   4.113   3.375  0.3754 -0.2990 -0.0314
 3623SOL    HW111114   0.170   4.163   3.330 -0.7133 -0.6689  1.1579
 3623SOL    HW211115   0.257   4.039   3.316 -0.6489 -0.4972 -0.1178
 3624SOL     OW11116   2.919   3.563   5.139 -0.2764  0.1436 -0.4224
 3624SOL    HW111117   2.922   3.486   5.195 -0.9419  0.5711  0.2097
 3624SOL    HW211118   2.828   3.571   5.113 -0.3564  1.1219  0.1068
 3625SOL     OW11119   3.856   4.358   5.292  0.1178  0.4866 -0.4671
 3625SOL    HW111120   3.929   4.329   5.346 -0.1483  1.3859  0.4108
 3625SOL    HW211121   3.825   4.279   5.248  0.9602 -0.0860 -0.0466
 3626SOL     OW11122   1.951   6.065   0.614  0.3292  0.6912 -0.2547
 3626SOL    HW111123   2.044   6.087   0.620  0.4189  0.0700  0.9912
 3626SOL    HW211124   1.906   6.138   0.655 -0.0196  2.4748 -3.4825
 3627SOL     OW11125   5.416   4.921   4.630 -0.2694  0.1306  0.7965
 3627SOL    HW111126   5.388   5.005   4.666  2.6622  0.6487  2.1867
 3627SOL    HW211127   5.506   4.909   4.663  0.3043 -2.4173 -1.3194
 3628SOL     OW11128   3.733   4.394   0.860 -0.0345 -0.4618  0.3193
 3628SOL    HW111129   3.750   4.359   0.948  0.9509 -4.1746 -1.1514
 3628SOL    HW211130   3.816   4.433   0.833  0.1111 -0.6413  0.5004
 3629SOL     OW11131   2.919   2.233   3.877  0.1883 -0.2134 -0.2596
 3629SOL    HW111132   2.970   2.287   3.937  0.6070  1.4357 -2.0340
 3629SOL    HW211133   2.841   2.284   3.858  0.1986 -0.5681 -1.3419
 3630SOL     OW11134   2.739   4.953   4.136  0.5489  0.4124  0.4469
 3630SOL    HW111135   2.661   4.909   4.099  1.0963  0.5608 -0.9330
 3630SOL    HW211136   2.703   5.021   4.193 -0.3273 -1.4001  2.1839
 3631SOL     OW11137   0.207   5.347   1.031  0.0300  0.3266  0.4214
 3631SOL    HW111138   0.290   5.322   0.991 -1.5216  0.0597 -3.0138
 3631SOL    HW211139   0.210   5.443   1.035  0.6969  0.2910  0.8617
 3632SOL     OW11140   2.871   3.326   0.804 -0.0272 -0.3914 -0.4772
 3632SOL    HW111141   2.833   3.380   0.873  1.0785 -0.2337  0.0281
 3632SOL    HW211142   2.921   3.259   0.851  1.0140 -0.0862 -1.1181
 3633SOL     OW11143   5.460   0.030   5.689 -0.2166 -0.8623  0.5156
 3633SOL    HW111144   5.391  -0.031   5.660 -0.9507 -0.1758  0.7843
 3633SOL    HW211145   5.522   0.032   5.616 -1.7583  0.4256 -0.8337
 3634SOL     OW11146   4.711   3.611   1.478 -0.0112 -0.4012 -0.4919
 3634SOL    HW111147   4.633   3.614   1.533  1.3605 -0.9222  1.5815
 3634SOL    HW211148   4.699   3.681   1.415 -2.2261 -0.5904 -0.3567
 3635SOL     OW11149   2.803   2.438   0.806 -0.0550 -0.1165 -0.0659
 3635SOL    HW111150   2.894   2.462   0.824 -0.2026 -0.6688  1.5367
 3635SOL    HW211151   2.790   2.356   0.853 -1.1485 -0.5034 -0.9911
 3636SOL     OW11152   6.140   0.547   4.843  0.1272 -0.1172  0.1112
 3636SOL    HW111153   6.154   0.548   4.937  0.4456  0.9975  0.0651
 3636SOL    HW211154   6.082   0.622   4.826  2.0070  1.2137 -0.8338
 3637SOL     OW11155   3.114   3.798   1.886 -0.5985  0.4849 -0.1925
 3637SOL    HW111156   3.080   3.768   1.970 -0.5035 -1.2439 -0.7447
 3637SOL    HW211157   3.209   3.789   1.894 -0.4511  2.0964  0.1518
 3638SOL     OW11158   0.505   3.965   5.697 -0.0720  0.2172  0.2754
 3638SOL    HW111159   0.529   3.965   5.790 -2.4436 -2.5384  1.0405
 3638SOL    HW211160   0.549   3.888   5.661 -1.3360 -0.3093 -0.1815
 3639SOL     OW11161   5.979   4.681   1.137 -0.1824 -0.0576  0.1451
 3639SOL    HW111162   5.938   4.724   1.063  0.7169 -0.0604 -0.3663
 3639SOL    HW211163   6.033   4.749   1.178  1.2483 -0.6620 -0.6697
 3640SOL     OW11164   2.163   5.501   5.649 -0.0677 -0.0779  0.8519
 3640SOL    HW111165   2.108   5.471   5.577 -0.7137 -0.3307  1.4325
 3640SOL    HW211166   2.157   5.431   5.714 -1.4710  1.1789  2.1609
 3641SOL     OW11167   0.699   4.088   2.856  0.1012  0.7941 -0.1208
 3641SOL    HW111168   0.679   4.159   2.917 -1.5175  0.4242 -0.1575
 3641SOL    HW211169   0.621   4.082   2.800 -0.7872 -2.3408  1.1921
 3642SOL     OW11170   5.414   1.195   5.165 -0.1407  0.0170  0.2692
 3642SOL    HW111171   5.490   1.229   5.213 -1.0943  3.4979 -0.4043
 3642SOL    HW211172   5.357   1.159   5.233  1.3620 -1.2121  0.9381
 3643SOL     OW11173   3.988   4.641   4.712  0.0863  0.1793  0.1172
 3643SOL    HW111174   4.010   4.553   4.681  0.1558  0.0528  0.5260
 3643SOL    HW211175   3.924   4.627   4.782  0.1385  0.4481  0.2197
 3644SOL     OW11176   4.237   1.290   5.923  0.2216  0.0181 -0.1822
 3644SOL    HW111177   4.203   1.328   6.004 -0.2647 -0.2662 -0.2486
 3644SOL    HW211178   4.330   1.274   5.941  0.3901  1.0436 -0.0871
 3645SOL     OW11179   3.207   0.234   0.247 -0.3161 -0.2318 -0.3606
 3645SOL    HW111180   3.167   0.243   0.161  2.4342  1.6325 -1.5699
 3645SOL    HW211181   3.217   0.324   0.278  1.4134 -0.7081  0.5625
 3646SOL     OW11182   4.826   1.876   3.922  0.1872  0.1669 -0.5269
 3646SOL    HW111183   4.775   1.856   3.843  0.1358  0.0216 -0.4573
 3646SOL    HW211184   4.917   1.875   3.892  0.1987 -0.3672 -0.4868
 3647SOL     OW11185   3.397   0.619   3.013  0.1796  0.1127  0.3359
 3647SOL    HW111186   3.458   0.578   3.074  0.7294 -1.8385 -1.4213
 3647SOL    HW211187   3.424   0.711   3.010  1.8358 -0.3132  0.9888
 3648SOL     OW11188   5.037   0.797   4.922 -0.0444  0.0090 -0.1368
 3648SOL    HW111189   4.947   0.824   4.939  0.3534 -0.1241  2.6788
 3648SOL    HW211190   5.086   0.879   4.919 -0.2313  0.0990 -1.9240
 3649SOL     OW11191   5.170   5.629   5.430 -0.3078 -0.7387 -0.4046
 3649SOL    HW111192   5.130   5.637   5.517 -1.5628  1.5029 -1.0924
 3649SOL    HW211193   5.165   5.536   5.409 -0.2383 -1.2830  1.7798
 3650SOL     OW11194   3.431   0.260   5.667 -0.5604 -0.1760  0.4307
 3650SOL    HW111195   3.425   0.295   5.756 -2.6757  1.4292 -0.2732
 3650SOL    HW211196   3.341   0.252   5.638 -0.0889 -3.5674 -0.5700
 3651SOL     OW11197   3.474   2.891   2.202  0.6061 -0.0227 -0.5045
 3651SOL    HW111198   3.528   2.814   2.220  1.4236  0.6482  0.0062
 3651SOL    HW211199   3.510   2.927   2.120  0.2771 -0.1414 -0.7013
 3652SOL     OW11200   0.819   4.339   2.536  0.0148 -0.5175  0.2693
 3652SOL    HW111201   0.909   4.356   2.508  0.5794 -1.8696  1.1110
 3652SOL    HW211202   0.789   4.270   2.476 -0.0395 -0.8816  0.7127
 3653SOL     OW11203   1.443   4.201   3.729 -0.1039 -0.0370 -0.2496
 3653SOL    HW111204   1.470   4.113   3.757  2.4152  0.7642  0.0958
 3653SOL    HW211205   1.413   4.243   3.810  1.7709  0.4338  0.2330
 3654SOL     OW11206   3.139   1.021   1.710 -1.3436  0.0266  0.6313
 3654SOL    HW111207   3.225   1.047   1.678 -0.8181 -1.7867  0.4998
 3654SOL    HW211208   3.100   1.103   1.742  1.2271  0.5941  2.6320
 3655SOL     OW11209   3.701   5.284   5.452 -0.6917  0.0075 -0.2192
 3655SOL    HW111210   3.653   5.331   5.520  0.3069  0.1104  0.4284
 3655SOL    HW211211   3.650   5.204   5.438 -1.4269  0.4371 -0.0549
 3656SOL     OW11212   5.902   3.548   1.703 -0.4017 -0.2114 -0.5013
 3656SOL    HW111213   5.886   3.642   1.700 -0.2867 -0.1038  1.1624
 3656SOL    HW211214   5.860   3.514   1.624  1.0372  1.4129 -2.0328
 3657SOL     OW11215   0.002   2.931   2.910  0.9491  0.0301  0.5011
 3657SOL    HW111216   0.026   2.922   3.002 -0.7958  0.3643  1.0321
 3657SOL    HW211217   0.004   3.025   2.894 -0.1970  0.0951  0.6458
 3658SOL     OW11218   3.163   2.953   3.712  0.4711 -0.4429 -1.2912
 3658SOL    HW111219   3.179   3.031   3.764  2.4233 -1.2058 -0.6688
 3658SOL    HW211220   3.170   2.880   3.775  0.1500 -1.2177 -2.1283
 3659SOL     OW11221   4.645   2.830   2.690 -0.1864 -0.2776 -0.0997
 3659SOL    HW111222   4.690   2.861   2.612 -0.5433 -0.2920 -0.3139
 3659SOL    HW211223   4.555   2.814   2.662 -0.5612  0.6245  0.5407
 3660SOL     OW11224   3.202   1.544   3.688 -0.0887  0.0747  0.0787
 3660SOL    HW111225   3.262   1.593   3.631  1.7818 -2.2154 -0.0941
 3660SOL    HW211226   3.208   1.454   3.657 -2.8880 -0.4286  0.7735
 3661SOL     OW11227   2.503   0.919   2.878  0.0166 -0.0165 -0.2937
 3661SOL    HW111228   2.577   0.970   2.845 -0.5379 -0.7291 -2.8767
 3661SOL    HW211229   2.466   0.877   2.800 -2.6412 -0.3099  1.0101
 3662SOL     OW11230   2.868   5.803   4.655  0.1288  0.4477 -0.2598
 3662SOL    HW111231   2.876   5.809   4.751 -0.7436  3.1299 -0.2644
 3662SOL    HW211232   2.774   5.790   4.640  0.3214 -0.4426 -0.7713
 3663SOL     OW11233   3.535   1.333   1.989 -0.1171 -0.1982  0.5233
 3663SOL    HW111234   3.575   1.409   2.030  0.0390 -0.5259  0.9894
 3663SOL    HW211235   3.608   1.288   1.945 -0.4875  0.8360 -1.2290
 3664SOL     OW11236   5.064   2.425   1.352 -0.5830 -0.5737  0.2618
 3664SOL    HW111237   5.102   2.503   1.393 -0.1424 -1.1206  0.9160
 3664SOL    HW211238   4.990   2.458   1.301  0.5054  0.4705 -0.6936
 3665SOL     OW11239   1.650   4.893   3.306 -0.5134 -0.5836 -0.2422
 3665SOL    HW111240   1.651   4.807   3.347 -1.6016 -1.7686 -2.4845
 3665SOL    HW211241   1.646   4.875   3.212 -0.3510  1.9282 -0.8227
 3666SOL     OW11242   4.101   0.761   1.013  0.2111  0.2507 -0.3428
 3666SOL    HW111243   4.121   0.674   0.980  0.4530  0.2642 -0.2372
 3666SOL    HW211244   4.036   0.796   0.952  0.3710  0.1286 -0.5834
 3667SOL     OW11245   2.119   0.858   3.719  0.8866  0.4442  0.2103
 3667SOL    HW111246   2.101   0.889   3.808 -0.2619  1.1440 -0.2417
 3667SOL    HW211247   2.065   0.780   3.709  0.0044  1.0940 -0.2844
 3668SOL     OW11248   1.069   3.905   5.395  0.2656 -0.3445 -0.0516
 3668SOL    HW111249   0.994   3.963   5.406  1.0939  0.6978  0.2577
 3668SOL    HW211250   1.069   3.849   5.472  0.2256  0.1429  0.3035
 3669SOL     OW11251   2.389   6.117   4.814 -0.1384  0.6894 -0.4238
 3669SOL    HW111252   2.447   6.187   4.844 -2.0703  2.4389 -0.5472
 3669SOL    HW211253   2.409   6.043   4.871  1.2280  1.6687  0.4351
 3670SOL     OW11254   1.687   2.488   0.290 -0.2359 -0.1515  0.3079
 3670SOL    HW111255   1.729   2.508   0.206 -0.5484 -2.1446 -0.3624
 3670SOL    HW211256   1.758   2.461   0.347 -0.1006  0.6444  0.5366
 3671SOL     OW11257   2.663   4.520   3.003  0.0153  0.0449  0.1433
 3671SOL    HW111258   2.601   4.593   3.011  1.8558  1.7230 -0.1621
 3671SOL    HW211259   2.654   4.491   2.913 -0.6307 -0.0343  0.2267
 3672SOL     OW11260   0.288   4.330   3.049  0.4841  1.0199  0.4033
 3672SOL    HW111261   0.306   4.236   3.060  1.1034  1.2415  1.3913
 3672SOL    HW211262   0.298   4.345   2.955 -0.9212 -0.1560  0.0447
 3673SOL     OW11263   3.427   1.652   1.369 -0.2008 -0.0522  0.5104
 3673SOL    HW111264   3.494   1.655   1.300 -1.8984 -0.0500 -1.2094
 3673SOL    HW211265   3.443   1.730   1.421  0.7551  0.2660 -0.2301
 3674SOL     OW11266   4.001   1.069   4.671  0.1225 -0.3426  0.2273
 3674SOL    HW111267   4.079   1.024   4.637  1.2264  0.9583  0.9537
 3674SOL    HW211268   4.017   1.162   4.654 -2.4763 -0.1505 -2.0135
 3675SOL     OW11269   5.872   6.076   4.759  0.0030 -0.1359 -0.0032
 3675SOL    HW111270   5.956   6.120   4.769  0.2067 -0.8475  1.8793
 3675SOL    HW211271   5.861   6.065   4.665  1.0120  1.8245 -0.3922
 3676SOL     OW11272   6.125   4.914   1.222  0.4723 -0.0730 -0.1351
 3676SOL    HW111273   6.086   4.981   1.278 -0.3669 -1.5115  1.0762
 3676SOL    HW211274   6.218   4.937   1.218  0.4834  0.2821  1.5801
 3677SOL     OW11275   3.993   6.013   3.046 -0.0307  0.0794 -0.2510
 3677SOL    HW111276   4.037   6.024   3.131 -0.2171 -1.5481  0.0962
 3677SOL    HW211277   3.971   6.102   3.019  1.2005  0.7363  0.7786
 3678SOL     OW11278   3.462   0.232   1.215  0.1879  0.2932 -0.0817
 3678SOL    HW111279   3.537   0.288   1.236 -0.1319  0.5560  0.3648
 3678SOL    HW211280   3.394   0.293   1.186 -0.3020  0.1832  0.8059
 3679SOL     OW11281   2.312   3.146   5.879 -0.2589  0.1630 -0.2284
 3679SOL    HW111282   2.389   3.185   5.921 -0.8939 -0.7701  1.9290
 3679SOL    HW211283   2.251   3.219   5.869  0.9611  0.9908 -2.2924
 3680SOL     OW11284   0.147   5.390   5.129  0.1176  0.4518  0.2482
 3680SOL    HW111285   0.080   5.346   5.076 -2.1849  0.9722  2.5425
 3680SOL    HW211286   0.174   5.324   5.193  1.3353  0.4697 -0.2224
 3681SOL     OW11287   1.084   3.030   5.494 -0.3135  0.6107 -0.0701
 3681SOL    HW111288   0.995   3.046   5.524 -0.2447  1.3998 -0.2512
 3681SOL    HW211289   1.100   2.937   5.512 -0.9652  0.6028  0.4884
 3682SOL     OW11290   2.547   4.492   2.726  0.0312 -0.1686  0.5417
 3682SOL    HW111291   2.584   4.550   2.659 -0.7970 -0.8358 -0.5337
 3682SOL    HW211292   2.495   4.429   2.676  1.2216 -2.1096  1.6244
 3683SOL     OW11293   5.763   3.454   1.449 -0.0435  0.3597 -0.2157
 3683SOL    HW111294   5.701   3.521   1.422 -0.6497  0.1419  0.6272
 3683SOL    HW211295   5.734   3.375   1.404 -0.0295  0.3857 -0.2714
 3684SOL     OW11296   2.323   5.967   0.047  0.1007 -0.1190 -0.2343
 3684SOL    HW111297   2.270   6.040   0.081  1.5667  0.8069  0.1792
 3684SOL    HW211298   2.261   5.911   0.001 -1.4011  0.3994  1.0549
 3685SOL     OW11299   2.995   4.964   2.645 -0.4233 -0.0914 -0.1896
 3685SOL    HW111300   2.968   4.902   2.712 -1.2664  0.6706  0.2079
 3685SOL    HW211301   2.920   4.970   2.586  0.3750 -0.8833 -1.3207
 3686SOL     OW11302   4.899   1.492   3.869 -0.1807 -0.0597 -0.5526
 3686SOL    HW111303   4.815   1.447   3.883  0.1011 -0.2674  0.6353
 3686SOL    HW211304   4.965   1.423   3.879  0.2518  0.5355  1.1857
 3687SOL     OW11305   1.752   3.129   2.744 -0.1657 -0.0548  0.1570
 3687SOL    HW111306   1.665   3.104   2.712 -0.3979  0.5378  0.2962
 3687SOL    HW211307   1.741   3.138   2.838 -0.3503  1.4833  0.0154
 3688SOL     OW11308   3.704   4.602   0.340 -0.5390  0.0307 -0.0965
 3688SOL    HW111309   3.758   4.647   0.274  0.0753 -1.2583 -0.5063
 3688SOL    HW211310   3.615   4.632   0.323 -0.3332  0.0246 -1.2766
 3689SOL     OW11311   5.952   1.498   5.072  0.0348 -0.0291 -0.0266
 3689SOL    HW111312   5.934   1.560   5.002 -0.1082  0.0299  0.0611
 3689SOL    HW211313   6.034   1.456   5.047 -0.3695 -0.5090 -0.5872
 3690SOL     OW11314   4.223   3.537   1.574 -0.0448 -0.4262 -0.3190
 3690SOL    HW111315   4.209   3.578   1.489 -0.8227  2.2855  1.0073
 3690SOL    HW211316   4.135   3.509   1.602  0.1601 -1.0148 -0.2495
 3691SOL     OW11317   2.533   2.861   0.242 -0.0955  0.5876 -0.4981
 3691SOL    HW111318   2.509   2.929   0.306  1.0509  1.0712 -0.5656
 3691SOL    HW211319   2.487   2.783   0.273  0.3270  0.8467  0.8473
 3692SOL     OW11320   4.819   4.860   5.575 -0.8505  0.7006 -0.0367
 3692SOL    HW111321   4.778   4.854   5.489 -0.7885 -0.7215  0.0147
 3692SOL    HW211322   4.763   4.921   5.624 -1.2681  0.9878 -0.8551
 3693SOL     OW11323   2.862   1.067   3.883 -0.6723 -0.5841  0.1222
 3693SOL    HW111324   2.787   1.033   3.933  0.2972 -1.2274  1.1938
 3693SOL    HW211325   2.853   1.026   3.797 -1.6914 -0.4409  0.1403
 3694SOL     OW11326   0.191   5.837   3.924  0.1341  0.2323  0.1115
 3694SOL    HW111327   0.234   5.876   4.000 -1.5473 -0.9509  1.7591
 3694SOL    HW211328   0.098   5.838   3.946 -0.1138 -3.7721 -0.0802
 3695SOL     OW11329   2.190   1.563   1.625  0.1178  0.2797  0.3340
 3695SOL    HW111330   2.267   1.507   1.610  0.2762  0.4972  0.3195
 3695SOL    HW211331   2.156   1.581   1.537 -1.2412 -1.5728  0.4295
 3696SOL     OW11332   5.904   5.170   4.017 -0.2620 -0.1787 -0.2971
 3696SOL    HW111333   5.809   5.167   4.026 -0.1694 -0.2896  0.7804
 3696SOL    HW211334   5.933   5.226   4.090  0.6882 -2.3422  1.0860
 3697SOL     OW11335   4.442   3.558   4.452  0.1778  0.3785 -0.6061
 3697SOL    HW111336   4.450   3.473   4.496  1.0451  1.6927  2.0217
 3697SOL    HW211337   4.414   3.537   4.363 -0.2051 -2.6050  0.1113
 3698SOL     OW11338   0.024   2.406   3.697 -0.5876  0.3802 -0.3434
 3698SOL    HW111339  -0.024   2.325   3.712 -0.5633  0.2148 -1.1113
 3698SOL    HW211340  -0.038   2.464   3.654 -0.2865  0.3904 -0.7659
 3699SOL     OW11341   3.306   5.287   0.112  0.2953  0.8057  0.0277
 3699SOL    HW111342   3.275   5.271   0.023  1.4122  2.9571 -0.8319
 3699SOL    HW211343   3.246   5.353   0.147 -0.7927 -0.8088  1.3274
 3700SOL     OW11344   5.256   2.254   1.248  0.6874 -0.8710  0.6619
 3700SOL    HW111345   5.217   2.337   1.277 -1.0979 -1.3660 -0.1767
 3700SOL    HW211346   5.237   2.193   1.319 -0.5670 -1.2325  0.0402
 3701SOL     OW11347   4.657   4.471   1.292 -0.6147  0.1557  0.3683
 3701SOL    HW111348   4.683   4.428   1.373  1.0658  1.4257  0.5529
 3701SOL    HW211349   4.596   4.540   1.319  1.8366  2.2152  0.9352
 3702SOL     OW11350   4.848   4.685   3.724 -0.0614  0.0420 -0.5461
 3702SOL    HW111351   4.824   4.593   3.711  1.0816 -0.2606 -0.5909
 3702SOL    HW211352   4.783   4.718   3.786  0.1986 -1.1076  0.3712
 3703SOL     OW11353   3.268   2.840   0.434  0.0180 -0.2923  0.0436
 3703SOL    HW111354   3.177   2.818   0.413 -0.0017  0.0128 -0.1844
 3703SOL    HW211355   3.292   2.908   0.371  0.4810 -0.5421 -0.0555
 3704SOL     OW11356   5.087   1.253   4.254 -0.0862  0.0578 -0.3015
 3704SOL    HW111357   5.155   1.311   4.289 -0.1273 -0.6758  1.0626
 3704SOL    HW211358   5.037   1.225   4.331 -0.2733 -1.5120 -0.9525
 3705SOL     OW11359   4.003   2.911   3.422  0.5599  0.3724  0.2307
 3705SOL    HW111360   4.051   2.833   3.451 -1.2064 -0.7827  0.2298
 3705SOL    HW211361   4.023   2.918   3.329 -1.0131 -1.4923 -0.3117
 3706SOL     OW11362   0.589   1.880   0.829 -0.0015 -0.2584 -0.0105
 3706SOL    HW111363   0.595   1.937   0.905 -0.6725 -0.2857  0.0640
 3706SOL    HW211364   0.601   1.939   0.754 -0.8734  0.0244  0.0591
 3707SOL     OW11365   4.164   4.357   0.105 -0.0586 -0.3170  0.6749
 3707SOL    HW111366   4.220   4.286   0.138  1.9906 -0.0888 -1.9298
 3707SOL    HW211367   4.186   4.432   0.160 -0.9901 -1.2282  2.3701
 3708SOL     OW11368   5.485   5.463   4.681 -0.0666  0.1711 -0.7453
 3708SOL    HW111369   5.447   5.383   4.717 -0.3085  0.9941  0.9062
 3708SOL    HW211370   5.534   5.433   4.604 -2.2938 -1.1976 -1.7418
 3709SOL     OW11371   3.277   3.559   1.560 -0.8717  0.1312 -0.2889
 3709SOL    HW111372   3.194   3.605   1.578  0.0829  1.4661  0.9655
 3709SOL    HW211373   3.276   3.484   1.620 -2.4381 -1.6076 -2.3446
 3710SOL     OW11374   5.633   1.697   5.726 -1.0939  0.8587 -0.5694
 3710SOL    HW111375   5.577   1.760   5.680 -0.0846  0.7618 -2.0226
 3710SOL    HW211376   5.721   1.733   5.719 -0.4746 -0.6911 -1.4911
 3711SOL     OW11377   5.345   5.904   2.017 -0.1826  0.2601  0.1474
 3711SOL    HW111378   5.281   5.855   2.069 -0.9121  2.4779  1.4366
 3711SOL    HW211379   5.389   5.961   2.080  1.2204  0.7077 -1.1727
 3712SOL     OW11380   1.776   5.079   0.537  0.2001  0.1980  0.1296
 3712SOL    HW111381   1.851   5.024   0.559  0.2979  0.5414  0.6717
 3712SOL    HW211382   1.776   5.082   0.441  0.3953 -0.4608  0.1031
 3713SOL     OW11383   0.599   4.841   2.408 -0.2212  0.1505 -0.1567
 3713SOL    HW111384   0.585   4.771   2.344  0.0597  1.0167 -1.1866
 3713SOL    HW211385   0.646   4.798   2.480 -1.1352 -0.9902 -0.2059
 3714SOL     OW11386   1.534   0.009   1.178  0.0556 -0.0265  0.7355
 3714SOL    HW111387   1.607   0.071   1.180 -0.3850  0.6533 -1.6328
 3714SOL    HW211388   1.459   0.061   1.207  0.2754 -0.4253  2.0831
 3715SOL     OW11389   1.460   0.368   1.004  0.7095  0.1159  0.5766
 3715SOL    HW111390   1.542   0.345   1.047  1.6221  0.1137 -1.0580
 3715SOL    HW211391   1.474   0.346   0.912 -0.5603  1.5700 -0.0196
 3716SOL     OW11392   0.510   5.042   0.254 -0.1671  0.1650 -0.5900
 3716SOL    HW111393   0.465   4.958   0.241 -0.7045  0.5508 -1.3636
 3716SOL    HW211394   0.560   5.054   0.173 -0.3129  0.7139 -0.6020
 3717SOL     OW11395   5.557   3.767   4.245 -0.0356 -0.7196 -0.2390
 3717SOL    HW111396   5.485   3.770   4.308 -0.8270  0.5936 -1.1487
 3717SOL    HW211397   5.538   3.692   4.190 -0.1937 -0.9393  0.1134
 3718SOL     OW11398   4.418   2.807   2.533  0.2409 -0.0583 -0.2681
 3718SOL    HW111399   4.401   2.897   2.505 -3.6841 -0.6268 -0.2952
 3718SOL    HW211400   4.380   2.753   2.463 -1.5657 -1.5904  1.7577
 3719SOL     OW11401   3.309   0.023   5.083  0.1209  0.3764 -0.0733
 3719SOL    HW111402   3.289  -0.067   5.108 -0.2520  0.1205 -1.2460
 3719SOL    HW211403   3.286   0.028   4.991  0.4937  1.5762 -0.1158
 3720SOL     OW11404   3.373   1.962   2.239  0.0597 -0.0552 -0.1349
 3720SOL    HW111405   3.455   1.950   2.287  0.7199 -0.0611 -1.2171
 3720SOL    HW211406   3.361   1.879   2.192 -0.5629 -0.0462  0.0070
 3721SOL     OW11407   3.581   6.006   4.318 -0.4464  0.0420 -0.3383
 3721SOL    HW111408   3.556   5.979   4.230  0.2986  0.4533 -0.6862
 3721SOL    HW211409   3.659   5.954   4.338  2.1920  3.1033 -1.7737
 3722SOL     OW11410   1.585   3.522   6.044  0.4968 -0.1565 -0.8765
 3722SOL    HW111411   1.590   3.489   6.133  0.2870  1.1880 -0.3541
 3722SOL    HW211412   1.500   3.490   6.012 -0.7377  1.6620  0.3932
 3723SOL     OW11413   1.562   3.653   1.188 -0.1820 -0.7164 -0.0969
 3723SOL    HW111414   1.511   3.713   1.134 -1.0411 -2.1273 -0.9096
 3723SOL    HW211415   1.653   3.682   1.177 -0.5126  0.0317 -0.9595
 3724SOL     OW11416   2.014   0.601   4.044  0.3788  0.1400 -0.1278
 3724SOL    HW111417   1.998   0.631   4.133  0.6697  1.6211 -0.5523
 3724SOL    HW211418   1.927   0.590   4.006  0.2652  0.3266  0.0764
 3725SOL     OW11419   1.934   3.135   6.131  0.2365  0.5221  0.6836
 3725SOL    HW111420   1.992   3.066   6.164 -1.3633 -0.6968  1.1222
 3725SOL    HW211421   1.917   3.190   6.207 -0.3497 -0.0077  0.9489
 3726SOL     OW11422   3.730   4.203   5.703  0.6876 -0.2362 -0.0217
 3726SOL    HW111423   3.719   4.280   5.758  0.8976  1.1520 -1.8574
 3726SOL    HW211424   3.811   4.162   5.736  0.6427  0.3726  0.8934
 3727SOL     OW11425   1.960   4.946   3.603 -0.4738 -0.7474  0.3721
 3727SOL    HW111426   1.894   4.978   3.541 -0.9305  1.9764  2.0905
 3727SOL    HW211427   2.021   4.895   3.549 -0.6928  1.6764 -2.4136
 3728SOL     OW11428   1.127   0.037   4.215  0.3178  0.2177  0.0777
 3728SOL    HW111429   1.151   0.121   4.177 -1.3866  0.5475 -0.3700
 3728SOL    HW211430   1.090   0.059   4.301 -0.0166 -0.0758  0.0135
 3729SOL     OW11431   3.647   0.254   3.386 -0.0614  0.1927  0.5076
 3729SOL    HW111432   3.633   0.341   3.348  0.1269  0.0099  0.0124
 3729SOL    HW211433   3.740   0.237   3.374 -0.4036 -0.8324 -1.0619
 3730SOL     OW11434   0.340   3.548   2.310  0.2837  0.0174 -0.6192
 3730SOL    HW111435   0.303   3.494   2.240  0.1278 -0.3267 -0.2745
 3730SOL    HW211436   0.411   3.494   2.347  0.2127  0.1007 -0.3603
 3731SOL     OW11437   4.564   5.294   3.512 -0.0379  0.2646 -0.9477
 3731SOL    HW111438   4.618   5.365   3.477  0.8309  0.1626  0.1489
 3731SOL    HW211439   4.623   5.244   3.568 -1.9113  2.0136  2.9467
 3732SOL     OW11440   2.334   5.640   1.913 -0.2452  0.0678  0.4061
 3732SOL    HW111441   2.294   5.614   1.996  0.6976  2.9670  1.8983
 3732SOL    HW211442   2.396   5.570   1.894 -1.4396 -1.3307  1.4092
 3733SOL     OW11443   1.375   5.469   5.997 -0.5894  0.7269  0.1698
 3733SOL    HW111444   1.358   5.561   5.981  1.9260  1.3155  0.3226
 3733SOL    HW211445   1.470   5.465   6.013 -1.1325 -1.2395  4.2691
 3734SOL     OW11446   5.030   5.205   3.875  0.1150  0.0176  0.4326
 3734SOL    HW111447   5.063   5.292   3.850 -1.4705  0.6037  0.2683
 3734SOL    HW211448   4.935   5.210   3.860  0.1492 -2.2263 -1.0322
 3735SOL     OW11449   1.952   0.142   3.669 -0.2518 -0.0087  0.0675
 3735SOL    HW111450   1.888   0.157   3.599  0.2175  0.2643 -0.3119
 3735SOL    HW211451   2.028   0.107   3.624 -0.2420 -0.6263  0.5609
 3736SOL     OW11452   0.452   3.505   4.857  0.1611  0.0411 -0.2105
 3736SOL    HW111453   0.357   3.505   4.842  0.2576  0.6839 -0.8392
 3736SOL    HW211454   0.478   3.414   4.841 -0.4608 -0.3341  0.7773
 3737SOL     OW11455   1.636   2.944   3.057 -0.3512 -0.1721 -0.1458
 3737SOL    HW111456   1.698   3.016   3.067  0.0330 -0.5110 -0.1001
 3737SOL    HW211457   1.657   2.884   3.128 -0.2487 -0.6429 -0.5761
 3738SOL     OW11458   0.973   5.672   3.587  0.9307  0.3171  0.0235
 3738SOL    HW111459   1.012   5.585   3.591  1.2957  0.5001  0.5031
 3738SOL    HW211460   0.908   5.666   3.517  1.1432 -0.2621 -0.1261
 3739SOL     OW11461   2.960   2.391   4.233  0.4150  0.1096 -0.2659
 3739SOL    HW111462   2.944   2.485   4.226  2.8314  0.5309 -0.8608
 3739SOL    HW211463   2.877   2.355   4.266 -0.6543  2.3811 -0.3060
 3740SOL     OW11464   0.543   3.983   5.992 -0.3733  0.5210 -0.1780
 3740SOL    HW111465   0.505   3.921   6.054  0.7709 -0.1259 -0.1019
 3740SOL    HW211466   0.534   4.068   6.036  0.9799  0.0088  1.1855
 3741SOL     OW11467   1.285   0.792   4.268 -0.0397 -0.1264  0.3433
 3741SOL    HW111468   1.257   0.838   4.347 -1.2287  0.9300 -0.6624
 3741SOL    HW211469   1.353   0.848   4.231  0.7332 -0.7725  0.7488
 3742SOL     OW11470   0.166   6.056   0.864 -0.3989 -0.0434 -0.2226
 3742SOL    HW111471   0.127   5.994   0.802 -0.5444  0.0717 -0.2485
 3742SOL    HW211472   0.260   6.040   0.858 -0.2316  1.2492 -1.8886
 3743SOL     OW11473   2.099   3.884   1.528 -0.0352 -0.1903  0.5290
 3743SOL    HW111474   2.135   3.831   1.599  1.7996  0.1706 -0.0855
 3743SOL    HW211475   2.158   3.868   1.454  0.2159  2.2301  0.1360
 3744SOL     OW11476   0.689   0.497   5.374  0.6899  0.6732 -0.0676
 3744SOL    HW111477   0.726   0.554   5.307  2.0853  0.0337  0.1360
 3744SOL    HW211478   0.760   0.437   5.397  0.0681  0.5047  1.5568
 3745SOL     OW11479   4.441   3.935   3.747 -0.4334 -0.0700 -0.0413
 3745SOL    HW111480   4.414   3.961   3.659 -1.1940  0.1174  0.2430
 3745SOL    HW211481   4.443   3.839   3.744 -2.1922 -0.1390  0.2317
 3746SOL     OW11482   5.157   3.747   2.803 -0.2487 -0.0059  0.2163
 3746SOL    HW111483   5.232   3.694   2.775  0.7544  1.0190  0.9103
 3746SOL    HW211484   5.089   3.682   2.824  0.1825 -0.9273 -1.0651
 3747SOL     OW11485   2.259   1.663   6.091  0.0438 -0.1986 -0.2312
 3747SOL    HW111486   2.311   1.602   6.039 -0.2123  0.0671 -0.8080
 3747SOL    HW211487   2.214   1.718   6.026 -0.0364  0.3435  0.2727
 3748SOL     OW11488   2.500   1.048   2.507  0.7765  0.6756 -0.2077
 3748SOL    HW111489   2.574   1.101   2.539  0.0872  1.6024 -0.1100
 3748SOL    HW211490   2.452   1.107   2.450  0.8268 -0.3319 -1.3283
 3749SOL     OW11491   1.460   1.016   5.750 -0.2334  0.3275  0.1055
 3749SOL    HW111492   1.500   1.103   5.739  0.4568 -0.1392 -1.1843
 3749SOL    HW211493   1.486   0.990   5.839 -1.9011  2.1479  1.2097
 3750SOL     OW11494   4.208   3.452   0.950 -0.1525 -0.0054  0.1222
 3750SOL    HW111495   4.179   3.476   0.862 -0.1546  0.3179  0.2097
 3750SOL    HW211496   4.129   3.422   0.994 -0.1399 -0.2299 -0.0054
 3751SOL     OW11497   3.348   4.612   0.813  0.0634  0.0812 -0.8407
 3751SOL    HW111498   3.402   4.665   0.754  2.2014 -1.4702 -0.3939
 3751SOL    HW211499   3.377   4.636   0.901 -1.1984  0.4031 -0.4781
 3752SOL     OW11500   0.010   3.907   2.181 -0.0195 -0.2388 -0.3452
 3752SOL    HW111501  -0.012   3.886   2.090  1.3443  0.1015 -0.7860
 3752SOL    HW211502   0.023   3.822   2.223 -0.1402 -0.3886 -0.6148
 3753SOL     OW11503   3.988   4.481   5.694 -0.0937  0.2661  0.0709
 3753SOL    HW111504   4.041   4.470   5.615  0.8351 -1.1651  0.8586
 3753SOL    HW211505   4.038   4.542   5.748  1.2339 -1.6753  1.1488
 3754SOL     OW11506   0.435   3.804   0.029  0.0638 -0.1571 -0.3066
 3754SOL    HW111507   0.343   3.815   0.005  0.0339  0.3148  0.0160
 3754SOL    HW211508   0.439   3.827   0.122  0.2894 -1.3830  0.0077
 3755SOL     OW11509   4.887   5.048   1.682 -0.1762  0.1912  0.3292
 3755SOL    HW111510   4.956   4.983   1.679 -0.7142 -0.5473  2.3120
 3755SOL    HW211511   4.807   5.000   1.662 -0.3763  0.6205  0.0708
 3756SOL     OW11512   1.473   5.015   0.216  0.3944 -0.1881 -0.1812
 3756SOL    HW111513   1.429   5.064   0.285 -1.4681 -0.7288 -0.9264
 3756SOL    HW211514   1.475   4.925   0.248  0.5856 -0.2344 -0.3232
 3757SOL     OW11515   3.780   3.849   5.445  0.0058  0.4124  0.0850
 3757SOL    HW111516   3.770   3.915   5.513  0.0667  0.3692  0.1358
 3757SOL    HW211517   3.691   3.814   5.432  0.2012 -0.5407  1.1121
 3758SOL     OW11518   0.665   3.645   0.451 -0.6844 -0.2523 -0.2997
 3758SOL    HW111519   0.656   3.560   0.408 -1.4667  0.7174 -2.1194
 3758SOL    HW211520   0.575   3.675   0.465 -0.4145  0.8688 -0.8821
 3759SOL     OW11521   0.351   0.140   4.337 -0.0257  0.7394  0.4222
 3759SOL    HW111522   0.297   0.210   4.373  1.4599  2.4330 -0.4846
 3759SOL    HW211523   0.335   0.143   4.242 -0.8092 -0.9533  0.4621
 3760SOL     OW11524   5.529   1.111   1.987 -0.2539 -0.0436  0.4420
 3760SOL    HW111525   5.516   1.029   1.939  0.9067  0.2452 -0.4146
 3760SOL    HW211526   5.486   1.177   1.932  0.3518  0.1654  0.2079
 3761SOL     OW11527   4.233   3.688   4.726  0.0158  0.3406 -0.7130
 3761SOL    HW111528   4.203   3.613   4.778 -1.1526  1.1697 -0.1318
 3761SOL    HW211529   4.271   3.748   4.791  0.3025  0.5637 -1.0822
 3762SOL     OW11530   5.306   5.290   4.062 -0.2005  0.5775 -0.2312
 3762SOL    HW111531   5.306   5.317   3.970 -0.2148 -0.7131 -0.6266
 3762SOL    HW211532   5.341   5.366   4.109 -2.1765  2.0784 -1.0189
 3763SOL     OW11533   1.498   0.919   4.127  0.4170  0.3202  0.3090
 3763SOL    HW111534   1.577   0.940   4.177  0.4138  1.5387 -0.1687
 3763SOL    HW211535   1.531   0.874   4.049  0.4242 -1.5511  1.3277
 3764SOL     OW11536   4.421   5.925   5.869 -0.0168 -0.2726 -0.1281
 3764SOL    HW111537   4.516   5.936   5.856  0.5214 -1.6288  2.1375
 3764SOL    HW211538   4.410   5.833   5.893 -1.9776 -0.2151 -0.6406
 3765SOL     OW11539   3.977   2.499   3.544  0.2722  0.2930 -0.9193
 3765SOL    HW111540   4.014   2.572   3.595 -0.6116 -0.3247  0.6985
 3765SOL    HW211541   3.890   2.530   3.518 -0.7869 -0.6887  1.1745
 3766SOL     OW11542   3.176   1.624   4.889  0.3601  0.2090 -0.6185
 3766SOL    HW111543   3.217   1.541   4.913  0.3764  0.3363 -0.2011
 3766SOL    HW211544   3.082   1.608   4.899  0.3616  0.2276 -0.5732
 3767SOL     OW11545   0.541   6.075   4.047  0.0035 -0.1707  0.3352
 3767SOL    HW111546   0.520   6.034   3.962  0.3625  2.7381 -1.2715
 3767SOL    HW211547   0.462   6.124   4.070  1.0270  1.7357 -0.0452
 3768SOL     OW11548   3.947   3.192   5.956  0.4634 -0.0970 -0.8731
 3768SOL    HW111549   3.983   3.272   5.916  1.1845 -0.6247 -1.3056
 3768SOL    HW211550   4.020   3.156   6.007  0.3050 -0.7550 -1.1035
 3769SOL     OW11551   0.317   0.498   1.796  0.7985  0.6417 -0.4796
 3769SOL    HW111552   0.304   0.462   1.709  0.4910  0.3207 -0.3049
 3769SOL    HW211553   0.391   0.450   1.832  0.9202  0.7684 -0.5604
 3770SOL     OW11554   2.110   3.150   1.158  0.2858 -0.3579  0.3374
 3770SOL    HW111555   2.128   3.204   1.081 -0.4369 -1.0397 -0.3132
 3770SOL    HW211556   2.192   3.103   1.173 -0.3201 -2.1100 -1.5490
 3771SOL     OW11557   1.322   0.064   4.932 -0.5448  0.4337 -0.0125
 3771SOL    HW111558   1.380  -0.007   4.959  0.7708  1.7422  0.7180
 3771SOL    HW211559   1.248   0.058   4.993 -0.7372 -0.6448 -0.3249
 3772SOL     OW11560   4.123   0.096   2.184 -0.7716  0.2405  0.3819
 3772SOL    HW111561   4.079   0.057   2.260 -1.6355 -0.0683 -0.2564
 3772SOL    HW211562   4.069   0.171   2.160 -0.0176  0.8671  0.5957
 3773SOL     OW11563   3.978   0.271   1.772  0.3272 -0.1909 -0.0540
 3773SOL    HW111564   3.921   0.202   1.737 -1.5585  0.7692  0.9648
 3773SOL    HW211565   3.940   0.352   1.739  2.2670  0.4455 -0.8855
 3774SOL     OW11566   2.994   3.353   5.289 -0.0499 -0.1129 -0.5845
 3774SOL    HW111567   2.953   3.287   5.345  1.2124 -0.2209  0.2378
 3774SOL    HW211568   3.028   3.419   5.349 -3.2505  2.5833 -1.4392
 3775SOL     OW11569   2.274   3.580   4.270 -0.0568 -0.7257 -0.0625
 3775SOL    HW111570   2.197   3.575   4.214 -1.6233  1.1761  1.7657
 3775SOL    HW211571   2.268   3.501   4.325 -0.2881 -0.9767 -0.4467
 3776SOL     OW11572   3.040   0.365   0.041 -0.5247 -0.1615  0.4575
 3776SOL    HW111573   3.065   0.400  -0.044 -2.8486 -0.0133 -0.2427
 3776SOL    HW211574   2.997   0.438   0.085  1.0957 -0.0828  2.0218
 3777SOL     OW11575   4.625   1.165   1.401 -0.3027  0.1816  0.3313
 3777SOL    HW111576   4.573   1.106   1.456  0.1941 -0.3102  0.2840
 3777SOL    HW211577   4.560   1.220   1.357 -0.7102  1.0974  1.9543
 3778SOL     OW11578   4.100   5.783   0.037  0.3725  0.2202 -1.1306
 3778SOL    HW111579   4.154   5.818  -0.034  0.0458  0.9222 -1.0463
 3778SOL    HW211580   4.091   5.690   0.017 -0.4082  0.5533 -2.4795
 3779SOL     OW11581   2.805   2.934   3.375  0.0816 -0.1028  0.1580
 3779SOL    HW111582   2.868   2.983   3.428  0.6666 -1.5862  0.8884
 3779SOL    HW211583   2.722   2.945   3.422 -0.2787  1.8711 -0.8171
 3780SOL     OW11584   4.414   1.148   0.126  0.1875 -0.2909 -0.2026
 3780SOL    HW111585   4.493   1.147   0.181  0.4947  2.6278 -0.4403
 3780SOL    HW211586   4.446   1.172   0.039 -0.8647  0.3039 -0.4459
 3781SOL     OW11587   3.230   5.931   4.619 -0.1282 -0.4652  0.4786
 3781SOL    HW111588   3.200   5.925   4.528  1.3479 -0.5186 -0.0334
 3781SOL    HW211589   3.159   5.895   4.671 -0.0849 -2.5839 -0.8385
 3782SOL     OW11590   0.737   5.014   4.020  0.5659  0.1344 -0.3531
 3782SOL    HW111591   0.701   4.929   3.995  0.5303  0.5225 -1.7434
 3782SOL    HW211592   0.664   5.061   4.060  0.0514  0.1819 -1.3185
 3783SOL     OW11593   0.738   1.462   2.700 -0.0250  0.8993  0.0629
 3783SOL    HW111594   0.754   1.434   2.610  2.0328  0.0271  0.6568
 3783SOL    HW211595   0.683   1.393   2.737  0.3985  0.4712 -0.0948
 3784SOL     OW11596   1.236   0.547   3.841  0.1287 -0.2730 -0.1567
 3784SOL    HW111597   1.147   0.513   3.848 -0.6865  1.3571 -1.7945
 3784SOL    HW211598   1.257   0.579   3.929 -0.9342 -0.5431  0.2095
 3785SOL     OW11599   3.768   3.611   4.298 -0.0497 -0.0925 -0.3688
 3785SOL    HW111600   3.834   3.543   4.312 -1.4144 -1.5578 -0.6791
 3785SOL    HW211601   3.740   3.598   4.207  0.5298  1.7251 -0.8398
 3786SOL     OW11602   6.040   4.834   0.300 -0.1596 -0.6273  0.0855
 3786SOL    HW111603   6.021   4.855   0.392  0.1692  1.3484 -0.2514
 3786SOL    HW211604   6.136   4.828   0.297 -0.2207 -1.9907  0.0896
 3787SOL     OW11605   3.813   4.058   4.828  0.3141  0.1800  0.5222
 3787SOL    HW111606   3.721   4.058   4.855  0.1091 -1.9739 -0.0658
 3787SOL    HW211607   3.812   4.027   4.738  1.7162 -1.0665  0.9025
 3788SOL     OW11608   2.775   4.845   3.104 -0.0707  0.1394  0.1672
 3788SOL    HW111609   2.693   4.884   3.136 -0.0292  0.4012 -0.0426
 3788SOL    HW211610   2.782   4.763   3.152  0.5978  1.0635  1.7340
 3789SOL     OW11611   5.597   2.195   6.036  0.4327 -0.4692  0.6579
 3789SOL    HW111612   5.602   2.100   6.044  1.8304 -0.5093 -0.3188
 3789SOL    HW211613   5.671   2.218   5.980 -0.7813  1.0617 -0.3753
 3790SOL     OW11614   3.136   3.233   2.042  0.1653 -0.0020  0.0892
 3790SOL    HW111615   3.102   3.171   1.976 -1.7819 -0.5279  1.4806
 3790SOL    HW211616   3.072   3.228   2.113  1.2399  1.9001  1.2460
 3791SOL     OW11617   3.601   0.016   6.087 -0.4398  0.1173  0.0434
 3791SOL    HW111618   3.576  -0.075   6.070 -0.3287  0.2257 -0.7406
 3791SOL    HW211619   3.656   0.039   6.013 -1.0365  1.0479 -0.1218
 3792SOL     OW11620   2.864   4.605   5.081 -0.4069 -0.0845 -0.4971
 3792SOL    HW111621   2.888   4.656   5.159 -0.3260  2.1436 -1.9012
 3792SOL    HW211622   2.887   4.515   5.104 -0.3805  0.4718  2.0454
 3793SOL     OW11623   1.726   5.626   4.404  0.5902 -0.3954  0.3269
 3793SOL    HW111624   1.735   5.534   4.378  3.3279  0.0314 -0.5236
 3793SOL    HW211625   1.739   5.675   4.324 -2.5821  0.8173  0.4137
 3794SOL     OW11626   6.036   4.125   2.288  0.0470  0.0613 -0.0017
 3794SOL    HW111627   6.084   4.043   2.294  0.5068  0.2487 -0.8683
 3794SOL    HW211628   6.094   4.191   2.328 -0.8775 -0.2242  1.9128
 3795SOL     OW11629   4.007   2.444   1.683 -0.0740 -0.6523 -0.2588
 3795SOL    HW111630   3.947   2.392   1.737  0.2871  0.0162  0.8400
 3795SOL    HW211631   4.010   2.399   1.599 -0.0901 -2.1746  0.5169
 3796SOL     OW11632   4.344   3.996   3.110  0.1289  0.1241  0.6806
 3796SOL    HW111633   4.358   4.085   3.080 -1.7902  0.0011 -0.7062
 3796SOL    HW211634   4.309   4.005   3.199  0.7704  0.6908  0.8810
 3797SOL     OW11635   3.682   3.807   2.221  0.1543 -0.1360 -0.2509
 3797SOL    HW111636   3.726   3.858   2.153  2.6405 -3.3812 -1.3435
 3797SOL    HW211637   3.602   3.775   2.180  0.2305  0.2129 -0.6730
 3798SOL     OW11638   4.335   2.813   5.760 -0.1295 -0.0812  0.2480
 3798SOL    HW111639   4.272   2.831   5.690 -0.5346  1.3483  0.9355
 3798SOL    HW211640   4.281   2.779   5.832  0.2726 -1.4699 -0.0894
 3799SOL     OW11641   1.626   0.904   5.025 -0.0689 -0.3969 -0.0494
 3799SOL    HW111642   1.715   0.935   5.012  0.2643 -1.0120  0.7027
 3799SOL    HW211643   1.636   0.818   5.066 -0.9650 -1.6178 -2.2580
 3800SOL     OW11644   1.026   3.622   5.573  0.3421  0.1610  0.1431
 3800SOL    HW111645   0.934   3.593   5.569  0.0511  1.1575 -1.9941
 3800SOL    HW211646   1.076   3.541   5.576 -0.5784 -0.4127  2.6793
 3801SOL     OW11647   3.416   5.132   3.449  0.0042 -0.3266  0.0154
 3801SOL    HW111648   3.448   5.119   3.538  0.5275  0.0230 -0.1159
 3801SOL    HW211649   3.371   5.216   3.451 -1.3922 -1.0444  0.3221
 3802SOL     OW11650   4.519   5.097   4.091 -0.3215 -0.6561 -0.7462
 3802SOL    HW111651   4.579   5.123   4.161  0.7394 -1.9231 -1.1487
 3802SOL    HW211652   4.563   5.024   4.048 -0.8182  0.2794 -2.9317
 3803SOL     OW11653   5.552   2.005   0.433  0.1480 -0.2484 -0.0697
 3803SOL    HW111654   5.632   2.011   0.485  0.3358  0.5842 -0.4285
 3803SOL    HW211655   5.583   1.978   0.346 -0.0862 -0.9507  0.0564
 3804SOL     OW11656   0.953   2.200   2.033  0.3923  0.3553 -0.1071
 3804SOL    HW111657   0.955   2.147   2.112 -1.1006 -0.5953 -0.6760
 3804SOL    HW211658   0.970   2.139   1.961 -0.5075  0.7785 -0.7038
 3805SOL     OW11659   3.464   2.437   4.015  0.3146 -0.2493 -0.1873
 3805SOL    HW111660   3.450   2.392   4.098 -1.5945  1.6049  0.5927
 3805SOL    HW211661   3.487   2.368   3.954  1.8949 -1.6783  1.8485
 3806SOL     OW11662   0.272   2.048   5.738  0.2987 -0.8093 -0.0622
 3806SOL    HW111663   0.361   2.028   5.768  0.5250  1.5470  1.1332
 3806SOL    HW211664   0.284   2.119   5.675 -0.6457 -1.5657 -1.1174
 3807SOL     OW11665   0.672   5.726   3.030 -0.1463  0.6047 -0.3226
 3807SOL    HW111666   0.752   5.675   3.021 -0.1358  0.4044  0.7043
 3807SOL    HW211667   0.660   5.768   2.945  0.7831  0.2605 -0.6372
 3808SOL     OW11668   3.469   0.465   4.397  0.1951  0.2377  0.5845
 3808SOL    HW111669   3.379   0.437   4.380  0.2091  1.3618 -1.7008
 3808SOL    HW211670   3.459   0.543   4.452 -0.1412 -0.3055  1.3168
 3809SOL     OW11671   5.108   1.655   2.094  0.0286  0.0349 -0.0368
 3809SOL    HW111672   5.066   1.740   2.106  0.2506  0.0740  0.4939
 3809SOL    HW211673   5.200   1.671   2.115 -0.0322 -0.4609  0.6627
 3810SOL     OW11674   2.260   0.841   2.960  0.5887  0.7786  0.4753
 3810SOL    HW111675   2.239   0.877   3.046  1.8194  2.0697  0.2786
 3810SOL    HW211676   2.352   0.866   2.946  0.6690 -0.1603 -0.8446
 3811SOL     OW11677   1.885   3.706   2.799  0.0593 -0.4490 -0.6003
 3811SOL    HW111678   1.795   3.735   2.782 -0.6662 -1.3714  1.3382
 3811SOL    HW211679   1.912   3.663   2.718 -0.8555  0.7338 -1.5720
 3812SOL     OW11680   0.340   0.476   2.110  0.1152 -0.1306 -0.3851
 3812SOL    HW111681   0.246   0.487   2.098  0.2820 -0.8679 -2.9266
 3812SOL    HW211682   0.349   0.399   2.166 -0.7540  0.8924  1.2557
 3813SOL     OW11683   5.036   4.496   5.912 -0.2220  0.3106 -0.2540
 3813SOL    HW111684   5.040   4.447   5.830  1.2640  1.2275 -0.7792
 3813SOL    HW211685   4.982   4.572   5.892 -0.7011  0.0230 -0.0735
 3814SOL     OW11686   5.837   3.937   4.962 -0.2601  0.4352 -0.6031
 3814SOL    HW111687   5.819   4.002   4.894  0.1430  1.7239  0.4621
 3814SOL    HW211688   5.905   3.978   5.016 -2.7810  0.9541  2.4850
 3815SOL     OW11689   4.026   5.372   2.454 -0.0034 -0.2578 -0.3439
 3815SOL    HW111690   4.069   5.304   2.403  0.3040  0.1303 -0.6144
 3815SOL    HW211691   4.097   5.429   2.483 -0.3731  0.8818 -1.5219
 3816SOL     OW11692   5.833   0.626   3.291  0.1169  0.2515  0.8324
 3816SOL    HW111693   5.779   0.548   3.277 -1.1585  0.9268  1.8465
 3816SOL    HW211694   5.837   0.668   3.205  0.0339 -0.4295  0.4884
 3817SOL     OW11695   1.276   2.449   3.380  0.2591  0.1541 -0.4879
 3817SOL    HW111696   1.219   2.487   3.313 -1.1742 -0.4705  0.3428
 3817SOL    HW211697   1.253   2.495   3.461  0.0102 -1.0108  0.1129
 3818SOL     OW11698   4.144   2.012   5.381  0.0764 -0.0510  0.3516
 3818SOL    HW111699   4.236   2.019   5.356 -0.8363  1.9919 -3.0369
 3818SOL    HW211700   4.112   1.934   5.337 -0.3590  0.7089 -0.7286
 3819SOL     OW11701   1.026   0.372   4.617  0.1072  0.0522 -0.1233
 3819SOL    HW111702   1.052   0.317   4.690  0.4170 -2.5107 -2.0254
 3819SOL    HW211703   0.979   0.445   4.657 -0.3230 -1.5790  2.5701
 3820SOL     OW11704   5.224   2.992   3.620 -0.0109  0.0826 -0.4257
 3820SOL    HW111705   5.144   2.940   3.615 -1.7345  2.5557 -0.5396
 3820SOL    HW211706   5.260   2.989   3.531 -1.6632  1.3478 -1.1813
 3821SOL     OW11707   4.268   3.115   5.065  0.1171 -0.0507  0.3433
 3821SOL    HW111708   4.310   3.151   5.144  2.7743  0.9011 -1.3729
 3821SOL    HW211709   4.271   3.020   5.077  0.1536  0.0825  1.5169
 3822SOL     OW11710   1.006   0.694   1.411  0.9822 -0.0435  0.6800
 3822SOL    HW111711   1.001   0.790   1.415 -0.0716 -0.0402 -0.2903
 3822SOL    HW211712   0.931   0.664   1.462  0.6757 -0.3238  0.0750
 3823SOL     OW11713   0.009   0.424   2.543  0.1021  0.2304 -0.4300
 3823SOL    HW111714  -0.020   0.339   2.508  1.5512 -0.0876 -0.9231
 3823SOL    HW211715  -0.024   0.488   2.480 -0.2294 -0.0459 -0.5424
 3824SOL     OW11716   4.200   1.604   0.241  0.2701  0.1591 -0.5933
 3824SOL    HW111717   4.187   1.643   0.328  0.0159  0.2097 -0.6506
 3824SOL    HW211718   4.268   1.539   0.253  1.4886  1.3667 -0.7139
 3825SOL     OW11719   3.098   4.256   3.675  0.0728 -0.4337  0.2591
 3825SOL    HW111720   3.104   4.314   3.599  1.0257 -1.0808 -0.1822
 3825SOL    HW211721   3.124   4.170   3.642  0.0106 -0.8284  1.2036
 3826SOL     OW11722   0.254   3.962   4.723  0.5833 -0.3796 -0.3487
 3826SOL    HW111723   0.322   3.930   4.663  1.0366 -0.4794  0.2099
 3826SOL    HW211724   0.277   3.924   4.807  0.0670 -0.0692 -0.0651
 3827SOL     OW11725   2.697   2.917   5.160 -0.4070 -0.7417  0.5684
 3827SOL    HW111726   2.658   2.969   5.230 -0.4363 -1.2956  0.9711
 3827SOL    HW211727   2.747   2.849   5.206  2.1449  0.7048  0.1132
 3828SOL     OW11728   0.961   4.831   4.476 -0.0497  0.3683  0.0941
 3828SOL    HW111729   1.046   4.807   4.440  0.9560  3.4951  0.0318
 3828SOL    HW211730   0.903   4.838   4.400 -0.3921 -1.6652  0.1274
 3829SOL     OW11731   2.214   1.057   3.463  1.5987 -0.2934 -0.3688
 3829SOL    HW111732   2.124   1.032   3.441  1.6594 -1.4023  0.5615
 3829SOL    HW211733   2.218   1.151   3.443  0.2052 -0.1953 -0.3030
 3830SOL     OW11734   1.285   2.982   1.125 -0.0362  0.0810 -0.1764
 3830SOL    HW111735   1.373   3.019   1.121 -0.8563  2.1369 -0.1939
 3830SOL    HW211736   1.247   3.021   1.203 -1.2690 -0.0218 -0.7109
 3831SOL     OW11737   1.609   3.907   3.366  0.6821 -0.4542 -0.0023
 3831SOL    HW111738   1.625   3.991   3.410 -0.8578  0.0259 -0.2931
 3831SOL    HW211739   1.618   3.841   3.435 -2.1548  0.3186  1.2442
 3832SOL     OW11740   2.040   5.362   6.131 -0.3103 -0.0145 -0.1968
 3832SOL    HW111741   2.053   5.457   6.128  0.5007 -0.1215 -0.8704
 3832SOL    HW211742   2.125   5.326   6.104  0.2023 -0.9941  2.4733
 3833SOL     OW11743   1.675   1.055   1.201  0.2980 -0.1171  0.2003
 3833SOL    HW111744   1.768   1.036   1.202  0.3626  0.2096  0.4826
 3833SOL    HW211745   1.634   0.979   1.242  0.4118 -0.3972 -0.2028
 3834SOL     OW11746   1.931   3.191   3.945  0.0467  0.2800  0.2909
 3834SOL    HW111747   1.872   3.264   3.963 -1.4600 -0.8094 -0.0482
 3834SOL    HW211748   1.975   3.174   4.028  0.3480  1.4936  0.3987
 3835SOL     OW11749   0.825   3.867   0.337  0.5417 -1.0649 -0.4473
 3835SOL    HW111750   0.825   3.810   0.261 -2.5112 -0.6233 -0.8745
 3835SOL    HW211751   0.751   3.837   0.390  0.8352  0.4857  0.9237
 3836SOL     OW11752   4.482   1.223   2.253 -0.0133  0.4031 -0.0548
 3836SOL    HW111753   4.502   1.247   2.344  0.7755  0.9156 -0.3530
 3836SOL    HW211754   4.439   1.138   2.260  0.6280  0.1272  0.7630
 3837SOL     OW11755   1.972   3.034   1.489 -0.4164  0.0951  0.4646
 3837SOL    HW111756   2.031   2.966   1.521  2.6215  2.5393  0.5124
 3837SOL    HW211757   1.932   2.997   1.411  0.2383 -2.1012  1.1162
 3838SOL     OW11758   4.959   3.936   5.549 -0.1560 -0.3473  0.8769
 3838SOL    HW111759   4.976   3.850   5.510  2.0265  0.0691  0.7716
 3838SOL    HW211760   4.932   3.991   5.475  0.8081 -0.3608  0.5038
 3839SOL     OW11761   1.344   1.729   3.054 -0.4323  0.0521  0.5941
 3839SOL    HW111762   1.420   1.779   3.082 -0.2656  0.5020 -0.5860
 3839SOL    HW211763   1.352   1.723   2.958 -0.6975 -1.8222  0.6307
 3840SOL     OW11764   5.088   4.649   5.116 -0.4472 -0.1680 -0.3849
 3840SOL    HW111765   5.072   4.602   5.198  0.0432 -0.5377 -0.4953
 3840SOL    HW211766   5.182   4.663   5.114 -0.6595  1.5582  0.0274
 3841SOL     OW11767   1.168   3.503   3.653 -0.5471 -0.0732  0.2046
 3841SOL    HW111768   1.225   3.435   3.615  0.4096  0.5807  0.4578
 3841SOL    HW211769   1.154   3.475   3.743  0.3764  0.3880  0.4994
 3842SOL     OW11770   0.695   4.239   2.307 -0.1363 -0.0454  0.6346
 3842SOL    HW111771   0.670   4.329   2.323 -0.7902 -0.1224  0.0774
 3842SOL    HW211772   0.627   4.204   2.250 -0.1082 -1.0154  1.1658
 3843SOL     OW11773   2.756   1.040   2.827  0.2173 -0.6139 -0.2511
 3843SOL    HW111774   2.812   1.019   2.902 -0.9332  1.3983  1.2874
 3843SOL    HW211775   2.734   1.133   2.840 -1.0400 -0.5526 -2.4216
 3844SOL     OW11776   0.663   1.610   0.279  0.0422 -0.4276  0.9588
 3844SOL    HW111777   0.584   1.569   0.243  0.1787 -0.1751  0.3580
 3844SOL    HW211778   0.728   1.540   0.280  0.7367  0.0754 -1.5001
 3845SOL     OW11779   1.751   5.668   4.136  0.1270  0.6035  0.1808
 3845SOL    HW111780   1.683   5.634   4.078 -0.1835  1.3257  0.1112
 3845SOL    HW211781   1.769   5.755   4.102  0.9756  0.4788  0.3017
 3846SOL     OW11782   0.912   4.101   3.980  0.2438  0.2907  0.5003
 3846SOL    HW111783   0.862   4.183   3.969  0.4187  0.2913 -0.3426
 3846SOL    HW211784   0.967   4.096   3.902 -0.0479 -0.8315  0.3562
 3847SOL     OW11785   0.986   3.865   4.742 -0.2828  0.4503 -0.3524
 3847SOL    HW111786   0.952   3.867   4.831  0.5685  2.7124  0.0100
 3847SOL    HW211787   1.076   3.832   4.752 -0.6373 -0.6001 -0.5792
 3848SOL     OW11788   4.925   2.939   1.714 -0.0607 -0.1623  0.1529
 3848SOL    HW111789   4.940   2.938   1.808  0.8747 -0.0892  0.0111
 3848SOL    HW211790   4.978   3.011   1.681  1.3288 -1.5002 -0.6847
 3849SOL     OW11791   1.245   3.759   4.721  0.5195  0.5063  0.1439
 3849SOL    HW111792   1.276   3.669   4.717 -0.5115  0.1735 -0.6958
 3849SOL    HW211793   1.265   3.795   4.634 -0.0998  0.7342  0.0928
 3850SOL     OW11794   2.715   5.833   2.553 -0.6509  0.3596 -0.2714
 3850SOL    HW111795   2.762   5.787   2.623  0.5119 -0.4829 -1.5570
 3850SOL    HW211796   2.739   5.925   2.565  1.4156 -0.0323 -0.8774
 3851SOL     OW11797   2.764   0.412   1.267 -0.2141 -0.1168  0.2290
 3851SOL    HW111798   2.682   0.383   1.227 -0.4560  0.6381  0.1688
 3851SOL    HW211799   2.737   0.468   1.340  0.2498  0.1675  0.1846
 3852SOL     OW11800   3.442   1.956   0.035 -0.1377 -0.1844  0.4393
 3852SOL    HW111801   3.405   1.868   0.040  1.8279 -1.0460  0.6961
 3852SOL    HW211802   3.537   1.942   0.025  0.0751  1.8819 -1.1545
 3853SOL     OW11803   5.708   2.770   2.699 -0.1731 -0.0851  0.6202
 3853SOL    HW111804   5.703   2.701   2.633 -1.3535 -1.3335  1.9538
 3853SOL    HW211805   5.782   2.746   2.755 -0.4688 -0.1647  0.9783
 3854SOL     OW11806   0.636   5.751   2.681 -0.3822  0.0608 -0.3462
 3854SOL    HW111807   0.647   5.734   2.588  2.1975 -0.2774 -0.0716
 3854SOL    HW211808   0.590   5.835   2.686 -1.2344 -0.2895 -1.8922
 3855SOL     OW11809   6.004   5.698   4.668 -0.3939 -0.1959  0.2949
 3855SOL    HW111810   6.049   5.718   4.749  0.6524 -2.2683  0.2897
 3855SOL    HW211811   5.914   5.680   4.694 -1.0647  2.8118  0.4497
 3856SOL     OW11812   1.470   2.414   3.131 -0.3580  0.0628  0.3663
 3856SOL    HW111813   1.384   2.452   3.115  0.0712  0.8586 -0.1098
 3856SOL    HW211814   1.452   2.333   3.179 -1.3145  0.7328  1.1885
 3857SOL     OW11815   2.881   5.671   2.724 -0.3416 -0.0452 -0.4718
 3857SOL    HW111816   2.899   5.594   2.671 -0.7404 -0.6114  0.2066
 3857SOL    HW211817   2.957   5.728   2.711 -0.9455  0.3921 -2.6173
 3858SOL     OW11818   1.892   4.511   3.708  0.3972 -0.2797  0.0716
 3858SOL    HW111819   1.809   4.465   3.696  0.2184  0.1290 -0.2897
 3858SOL    HW211820   1.956   4.441   3.722 -0.3363 -0.5482  2.7141
 3859SOL     OW11821   4.619   5.606   5.133 -0.1817  0.0442  0.2123
 3859SOL    HW111822   4.659   5.638   5.213  1.9970 -0.0196 -0.7777
 3859SOL    HW211823   4.581   5.684   5.092 -0.5480  0.2181  0.8628
 3860SOL     OW11824   3.771   2.959   0.671  0.5168  1.0442 -0.3128
 3860SOL    HW111825   3.787   2.869   0.642 -0.0153  0.5953  0.7465
 3860SOL    HW211826   3.675   2.968   0.670  0.5744  2.1175 -1.8714
 3861SOL     OW11827   5.142   0.414   5.780 -0.2442 -0.1937 -0.0159
 3861SOL    HW111828   5.218   0.370   5.743  3.0247  2.9365  2.2305
 3861SOL    HW211829   5.112   0.474   5.711  0.8888  0.1941 -0.1861
 3862SOL     OW11830   5.088   2.046   0.948 -0.3782  0.0424  0.2755
 3862SOL    HW111831   5.021   2.000   0.896 -0.1546  0.3289 -0.2659
 3862SOL    HW211832   5.093   1.995   1.029 -1.1854 -0.0410  0.2875
 3863SOL     OW11833   0.350   2.408   0.009  0.0294  0.1982 -0.7266
 3863SOL    HW111834   0.415   2.425   0.077  0.9930 -0.9456 -1.3163
 3863SOL    HW211835   0.328   2.315   0.019 -0.6730  0.2926 -1.2565
 3864SOL     OW11836   6.074   2.896   1.632 -0.4051  0.0507  0.5853
 3864SOL    HW111837   6.032   2.833   1.573  0.4297 -0.0107  0.0312
 3864SOL    HW211838   6.146   2.847   1.672  1.7057  1.1884 -1.5648
 3865SOL     OW11839   5.287   1.510   0.696  0.4050 -0.3481 -0.6839
 3865SOL    HW111840   5.365   1.522   0.641  2.3028  0.2062  1.9124
 3865SOL    HW211841   5.266   1.598   0.729 -0.3906 -0.7098 -0.1840
 3866SOL     OW11842   5.784   1.947   0.569  0.3082  0.4420 -0.0267
 3866SOL    HW111843   5.846   1.948   0.496 -0.0553 -1.5798 -0.4178
 3866SOL    HW211844   5.811   2.021   0.624  1.7285  0.8935 -1.2596
 3867SOL     OW11845   1.549   3.245   4.685 -0.1510  0.5256 -0.1163
 3867SOL    HW111846   1.632   3.198   4.680 -0.9486 -0.8047 -2.1696
 3867SOL    HW211847   1.499   3.197   4.752  0.4460  0.8888  0.6052
 3868SOL     OW11848   5.048   1.552   3.188 -0.4133  0.2775 -0.0814
 3868SOL    HW111849   4.978   1.587   3.243  1.2777  0.2974  2.2137
 3868SOL    HW211850   5.026   1.460   3.178 -0.3011  0.0334  1.5333
 3869SOL     OW11851   3.728   5.355   3.406  0.7606 -0.2436 -0.5136
 3869SOL    HW111852   3.677   5.391   3.478  2.8823 -1.8205  1.9567
 3869SOL    HW211853   3.664   5.308   3.352 -0.8795  0.9108  0.3377
 3870SOL     OW11854   2.555   1.283   4.286  0.4237 -0.1145  0.3857
 3870SOL    HW111855   2.650   1.298   4.284  0.6413 -1.2906 -1.6828
 3870SOL    HW211856   2.546   1.192   4.315 -0.0779  0.0157  0.6475
 3871SOL     OW11857   5.327   0.186   4.009  0.4504 -0.4114 -0.7627
 3871SOL    HW111858   5.294   0.097   4.017  0.7889 -0.4294  0.6145
 3871SOL    HW211859   5.414   0.183   4.049 -0.4103  1.0038  1.3824
 3872SOL     OW11860   0.810   0.146   4.658  0.0762  0.2355  0.8074
 3872SOL    HW111861   0.792   0.218   4.719 -3.3519 -0.2905  0.6278
 3872SOL    HW211862   0.773   0.177   4.575 -1.0328 -1.4895  0.6176
 3873SOL     OW11863   1.191   4.109   4.714 -0.5513  0.6102  0.0226
 3873SOL    HW111864   1.179   4.016   4.691 -0.8124  0.5647  0.3463
 3873SOL    HW211865   1.120   4.154   4.669 -1.3503  0.4658  1.0930
 3874SOL     OW11866   1.348   5.407   1.310  0.6422  0.7250  0.3874
 3874SOL    HW111867   1.268   5.418   1.258  0.2388  1.9732  1.2269
 3874SOL    HW211868   1.418   5.401   1.246  0.0286  0.9694 -0.3241
 3875SOL     OW11869   0.940   3.464   4.082  0.0430  0.0440 -0.2566
 3875SOL    HW111870   0.846   3.452   4.097  0.2188 -0.9673  0.1510
 3875SOL    HW211871   0.968   3.525   4.150 -0.6214  1.7631 -1.4645
 3876SOL     OW11872   1.254   2.053   1.457  0.4848  0.2560 -0.2262
 3876SOL    HW111873   1.249   1.975   1.402  0.5883 -0.1593  0.3481
 3876SOL    HW211874   1.217   2.027   1.541  0.7712  0.7430  0.0601
 3877SOL     OW11875   4.989   0.007   3.834  0.8910 -0.0391 -0.7086
 3877SOL    HW111876   5.043  -0.065   3.866 -2.1426 -1.4595  1.6808
 3877SOL    HW211877   4.953  -0.025   3.751  1.5003 -0.1980 -0.9184
 3878SOL     OW11878   3.105   4.754   4.422  0.0111 -0.2873 -0.3132
 3878SOL    HW111879   3.057   4.745   4.339 -1.0570 -0.9671  0.3681
 3878SOL    HW211880   3.159   4.675   4.427  1.6226  0.6888 -1.3020
 3879SOL     OW11881   2.739   4.249   5.254  0.0791  0.2551 -0.3821
 3879SOL    HW111882   2.683   4.323   5.231  0.2269  0.0762 -1.3860
 3879SOL    HW211883   2.824   4.269   5.214  0.2292 -0.2811 -0.3477
 3880SOL     OW11884   4.708   2.560   2.241  0.2081  0.0754 -0.6333
 3880SOL    HW111885   4.730   2.470   2.217 -0.5680 -0.5621  0.9250
 3880SOL    HW211886   4.776   2.585   2.304 -0.7767 -0.2265  0.5942
 3881SOL     OW11887   4.823   1.658   3.474 -0.3585 -0.1349  0.1020
 3881SOL    HW111888   4.731   1.648   3.498 -0.5197  0.0751 -0.4140
 3881SOL    HW211889   4.822   1.670   3.379  0.2615 -0.8561 -0.0039
 3882SOL     OW11890   3.645   2.645   4.076  0.1626  0.4144  0.1598
 3882SOL    HW111891   3.698   2.616   4.150 -0.2497  2.5454  1.3906
 3882SOL    HW211892   3.594   2.568   4.051  0.1945 -0.3376  2.2267
 3883SOL     OW11893   1.966   1.942   3.166  0.7038  0.3427 -0.0608
 3883SOL    HW111894   1.904   1.874   3.138  0.1880  0.1815  1.3758
 3883SOL    HW211895   1.918   2.024   3.155  1.0425  0.4221 -1.0384
 3884SOL     OW11896   5.148   3.902   2.422 -0.3939 -0.0806  0.4785
 3884SOL    HW111897   5.092   3.949   2.360  1.2472  1.4823  0.1139
 3884SOL    HW211898   5.118   3.811   2.416 -2.2348  0.5319 -0.3849
 3885SOL     OW11899   1.791   3.325   6.006 -0.0637  0.0911 -0.0657
 3885SOL    HW111900   1.832   3.411   6.017 -0.2037  0.2030 -0.4132
 3885SOL    HW211901   1.855   3.263   6.041 -0.5000  0.4349  1.4162
 3886SOL     OW11902   2.218   2.125   2.615 -0.1152  0.4931  0.3975
 3886SOL    HW111903   2.291   2.127   2.676  1.7654  0.2809 -1.6964
 3886SOL    HW211904   2.252   2.167   2.536 -1.2914 -2.0290 -1.6121
 3887SOL     OW11905   5.136   0.001   4.068  0.2642 -0.1912 -0.0320
 3887SOL    HW111906   5.077   0.067   4.032  1.1667  1.6459  1.6711
 3887SOL    HW211907   5.101  -0.016   4.156  0.8765 -0.9231  0.0740
 3888SOL     OW11908   4.158   0.876   1.797 -0.0111 -0.7533  0.7993
 3888SOL    HW111909   4.244   0.858   1.835  0.2498  0.9998  1.0988
 3888SOL    HW211910   4.101   0.809   1.836  1.1688 -1.8999  0.6544
 3889SOL     OW11911   1.269   4.724   2.704 -0.3255 -0.2702  0.2920
 3889SOL    HW111912   1.232   4.734   2.616 -1.3758 -3.0190  0.3296
 3889SOL    HW211913   1.363   4.732   2.691 -0.5585  1.8144 -0.6305
 3890SOL     OW11914   5.339   0.388   2.620 -0.4672  0.0883  0.4173
 3890SOL    HW111915   5.375   0.455   2.562  1.4377 -1.9090 -0.8875
 3890SOL    HW211916   5.246   0.384   2.599 -0.6797  2.4150  0.7175
 3891SOL     OW11917   2.424   1.653   1.828 -0.0270 -0.0509 -0.0090
 3891SOL    HW111918   2.366   1.577   1.822 -0.9544  0.7057 -1.3731
 3891SOL    HW211919   2.378   1.714   1.886 -0.5590  0.4877 -0.9708
 3892SOL     OW11920   3.482   3.334   3.714  0.0793  0.2115  0.0856
 3892SOL    HW111921   3.513   3.423   3.696  0.0115  0.0959 -0.6215
 3892SOL    HW211922   3.547   3.297   3.774 -0.1088  0.8730  0.7236
 3893SOL     OW11923   1.266   2.643   1.392  0.3764 -0.1274 -0.4793
 3893SOL    HW111924   1.176   2.632   1.424  0.4176  2.2431  0.7437
 3893SOL    HW211925   1.312   2.566   1.425 -0.8453 -0.5385  0.3931
 3894SOL     OW11926   4.153   0.010   0.383 -0.4949 -0.5253 -0.2707
 3894SOL    HW111927   4.157  -0.084   0.366  0.3039 -0.8516  1.4811
 3894SOL    HW211928   4.218   0.048   0.324 -0.0640 -1.2118 -0.2483
 3895SOL     OW11929   2.297   5.551   1.169 -0.5592 -0.7682 -0.9630
 3895SOL    HW111930   2.221   5.600   1.139 -0.0238  2.2152  1.9735
 3895SOL    HW211931   2.372   5.606   1.145  0.3716 -1.6809 -0.2622
 3896SOL     OW11932   3.718   4.392   2.623 -0.1814  0.0625  0.1964
 3896SOL    HW111933   3.672   4.310   2.636 -1.9722  1.3388  2.6524
 3896SOL    HW211934   3.657   4.446   2.572 -0.2126  0.7625  0.9439
 3897SOL     OW11935   0.024   5.911   2.806  0.0230 -0.0940  0.4402
 3897SOL    HW111936   0.091   5.959   2.757 -0.5752  0.2272 -0.0894
 3897SOL    HW211937   0.020   5.956   2.890 -0.6246  0.9175 -0.0945
 3898SOL     OW11938   5.244   5.682   2.379 -0.2356 -0.2653  0.2866
 3898SOL    HW111939   5.262   5.776   2.374 -1.3067 -0.1103 -1.4126
 3898SOL    HW211940   5.302   5.650   2.448  1.3870  1.3492 -0.2431
 3899SOL     OW11941   3.865   5.022   3.676  0.3827 -0.5762 -0.1270
 3899SOL    HW111942   3.891   5.108   3.645 -0.9662  0.0234  0.3376
 3899SOL    HW211943   3.933   4.997   3.738  0.5689  0.3319  0.0396
 3900SOL     OW11944   2.938   2.193   2.950  0.5762 -0.3411 -0.1425
 3900SOL    HW111945   2.949   2.133   3.024 -0.1813  1.4884  1.5391
 3900SOL    HW211946   3.005   2.166   2.888  0.6552 -2.5215  0.7840
 3901SOL     OW11947   1.256   4.365   1.793  0.2637  0.6486 -0.8428
 3901SOL    HW111948   1.168   4.340   1.820  0.7708  0.3980  0.6779
 3901SOL    HW211949   1.250   4.459   1.775  0.0329  1.0205  0.9537
 3902SOL     OW11950   4.982   2.604   4.862  0.4781  0.8143 -0.2624
 3902SOL    HW111951   4.901   2.561   4.890  0.7904  0.0082 -0.5608
 3902SOL    HW211952   5.026   2.629   4.944 -0.2384  1.5973 -0.1031
 3903SOL     OW11953   2.326   0.509   3.598  0.0493 -0.3403  0.7389
 3903SOL    HW111954   2.277   0.487   3.676 -2.0612 -1.8205 -0.8943
 3903SOL    HW211955   2.308   0.437   3.537  0.0129  1.6614 -1.7791
 3904SOL     OW11956   2.849   1.620   2.679 -0.3881 -0.3591 -0.3106
 3904SOL    HW111957   2.766   1.574   2.694 -2.0184  2.8653  1.4575
 3904SOL    HW211958   2.855   1.625   2.583 -1.0924 -2.4156 -0.5328
 3905SOL     OW11959   0.566   1.201   2.664  0.4452  0.0291 -0.0727
 3905SOL    HW111960   0.497   1.200   2.729 -1.2660  0.0965 -1.7977
 3905SOL    HW211961   0.607   1.114   2.671 -1.2120 -0.8156 -0.4115
 3906SOL     OW11962   0.162   5.453   2.376  0.1230  0.5601 -0.3837
 3906SOL    HW111963   0.072   5.476   2.399  0.0305  0.7061 -0.8760
 3906SOL    HW211964   0.157   5.361   2.351  0.8638 -0.7834  3.6605
 3907SOL     OW11965   4.667   6.135   4.405 -0.3258 -0.5745  0.5517
 3907SOL    HW111966   4.651   6.161   4.314 -0.0735 -1.8544  0.1212
 3907SOL    HW211967   4.744   6.079   4.401 -0.6034 -1.0474  1.4814
 3908SOL     OW11968   3.096   3.621   3.879  0.0943 -0.1884  0.2060
 3908SOL    HW111969   3.046   3.550   3.838 -1.3179 -0.5984  2.5004
 3908SOL    HW211970   3.180   3.580   3.900 -0.0599 -0.6603 -0.0639
 3909SOL     OW11971   5.983   4.706   3.445 -0.2332  0.0206 -0.2201
 3909SOL    HW111972   6.073   4.704   3.413 -0.4775 -0.1813 -0.9268
 3909SOL    HW211973   5.984   4.769   3.517  0.7401 -0.9637  0.6454
 3910SOL     OW11974   5.778   4.201   2.339 -0.3288 -0.2615 -0.0857
 3910SOL    HW111975   5.753   4.174   2.250 -0.9672  1.0633 -0.3280
 3910SOL    HW211976   5.868   4.169   2.349 -1.1753 -2.8688 -0.1454
 3911SOL     OW11977   2.751   5.586   3.639  0.1652  0.2053 -0.0612
 3911SOL    HW111978   2.690   5.589   3.713 -1.1007 -2.9504 -0.8247
 3911SOL    HW211979   2.756   5.676   3.608 -1.6409  1.0926  1.9968
 3912SOL     OW11980   3.640   4.619   2.083  1.0991  0.2444 -0.1694
 3912SOL    HW111981   3.627   4.707   2.118 -0.5453  0.4229 -1.1497
 3912SOL    HW211982   3.597   4.620   1.997 -1.4029 -2.2756  0.9220
 3913SOL     OW11983   5.983   4.936   3.637  0.0558 -0.1465 -0.3586
 3913SOL    HW111984   5.980   4.982   3.554 -0.5546  1.6389  0.5995
 3913SOL    HW211985   6.014   5.001   3.700 -1.2462 -0.9038  1.1516
 3914SOL     OW11986   3.567   2.537   5.512  0.6124  0.2722  0.2774
 3914SOL    HW111987   3.541   2.518   5.422  0.7116  0.9580  0.1022
 3914SOL    HW211988   3.645   2.483   5.527 -0.2273 -0.9608  0.4448
 3915SOL     OW11989   5.367   0.660   3.106  0.3533 -0.2594  0.0247
 3915SOL    HW111990   5.355   0.565   3.105  2.1346 -0.5547  1.0588
 3915SOL    HW211991   5.413   0.680   3.025 -1.8114  0.0766 -1.2058
 3916SOL     OW11992   0.358   3.128   5.212  0.2079 -0.1555 -0.0441
 3916SOL    HW111993   0.415   3.063   5.171 -1.1312 -1.1212 -0.4545
 3916SOL    HW211994   0.325   3.180   5.139  1.2590  1.0124  0.2836
 3917SOL     OW11995   0.816   4.383   2.027  0.0830  0.0415 -0.8258
 3917SOL    HW111996   0.837   4.418   2.114  1.2590  1.3246 -1.5788
 3917SOL    HW211997   0.735   4.333   2.040  0.5587 -0.2978  1.1033
 3918SOL     OW11998   2.008   4.231   0.039 -0.1258 -0.1198 -0.9288
 3918SOL    HW111999   1.948   4.246  -0.035  1.4173 -0.7654 -2.3735
 3918SOL    HW212000   2.049   4.146   0.020  1.8020  0.6439 -0.4061
 3919SOL     OW12001   3.424   0.816   2.308 -0.6697 -0.4560  0.4962
 3919SOL    HW112002   3.399   0.771   2.389  1.5610 -0.4210  1.2861
 3919SOL    HW212003   3.515   0.841   2.322 -0.9333  1.6705 -1.1174
 3920SOL     OW12004   4.840   3.836   1.728  0.1468 -0.6330 -0.4602
 3920SOL    HW112005   4.858   3.791   1.645  1.1927 -1.9522  0.4298
 3920SOL    HW212006   4.818   3.765   1.789 -0.7215  0.3247  0.3833
 3921SOL     OW12007   1.156   5.046   4.317 -0.0262 -0.1005 -0.5778
 3921SOL    HW112008   1.068   5.025   4.348  0.1856 -0.8759 -0.4660
 3921SOL    HW212009   1.144   5.116   4.253 -0.9056 -1.3111 -1.7945
 3922SOL     OW12010   4.045   0.616   1.984  0.0289  0.6698 -0.5163
 3922SOL    HW112011   4.021   0.677   2.053  1.2174  0.0958  0.4287
 3922SOL    HW212012   4.134   0.588   2.006 -0.3909 -1.2054 -1.0640
 3923SOL     OW12013   1.772   2.031   3.615  0.2923 -0.0924  0.5369
 3923SOL    HW112014   1.850   1.975   3.618  0.3184 -0.1169 -0.4228
 3923SOL    HW212015   1.796   2.108   3.667  0.6521 -0.4734  0.9429
 3924SOL     OW12016   3.394   3.611   4.855  0.1232  0.5028 -0.4615
 3924SOL    HW112017   3.396   3.517   4.871 -1.6859  0.7070  1.4196
 3924SOL    HW212018   3.390   3.650   4.942  1.5796  2.3842 -1.1801
 3925SOL     OW12019   4.299   5.482   1.262  0.6360  0.0501  0.5529
 3925SOL    HW112020   4.212   5.519   1.279  1.2534  2.3304 -0.8111
 3925SOL    HW212021   4.359   5.538   1.311  1.5098  0.0037 -0.4291
 3926SOL     OW12022   2.193   4.458   4.499  0.5998  0.5896 -0.0943
 3926SOL    HW112023   2.117   4.496   4.455 -1.0127 -2.3687 -0.1203
 3926SOL    HW212024   2.251   4.430   4.429 -1.0918 -2.3811 -0.4948
 3927SOL     OW12025   5.107   2.658   5.587  0.2170 -0.4051  0.1055
 3927SOL    HW112026   5.089   2.583   5.644 -2.0694 -0.3175 -0.4054
 3927SOL    HW212027   5.137   2.726   5.647  0.3542 -1.0993  0.8503
 3928SOL     OW12028   0.568   0.144   3.128 -0.0559 -0.1918  0.1843
 3928SOL    HW112029   0.601   0.232   3.144  0.5288  0.0936 -2.1311
 3928SOL    HW212030   0.581   0.098   3.210  1.0587  1.4677  0.9979
 3929SOL     OW12031   4.837   0.162   1.869 -0.1832 -0.1049 -0.8119
 3929SOL    HW112032   4.895   0.220   1.820  0.3819 -1.3064 -1.6262
 3929SOL    HW212033   4.866   0.074   1.845 -1.0154 -0.7284  0.3804
 3930SOL     OW12034   0.081   4.022   3.141  0.0759 -0.1192 -0.0377
 3930SOL    HW112035   0.033   3.940   3.156 -0.5838  0.0919 -0.8773
 3930SOL    HW212036   0.120   4.011   3.054 -1.8192  1.2428 -1.1589
 3931SOL     OW12037   2.140   5.372   0.882 -0.4116 -0.5463 -0.4469
 3931SOL    HW112038   2.168   5.308   0.947  0.3505 -0.2286 -0.4520
 3931SOL    HW212039   2.221   5.396   0.836 -0.9955 -1.0586 -1.7791
 3932SOL     OW12040   2.880   2.064   2.484 -0.2618 -0.0089 -0.2647
 3932SOL    HW112041   2.845   2.019   2.561 -2.1233 -0.3388 -1.2375
 3932SOL    HW212042   2.965   2.023   2.468 -0.5447 -1.0164  0.7045
 3933SOL     OW12043   4.662   5.546   3.464 -0.0662 -0.1035  0.0541
 3933SOL    HW112044   4.637   5.634   3.491  2.9631  1.0598 -0.6287
 3933SOL    HW212045   4.613   5.531   3.383  0.3486  1.5186 -0.5309
 3934SOL     OW12046   5.146   5.642   1.400 -0.5313  0.5993  0.2381
 3934SOL    HW112047   5.079   5.682   1.455 -0.0736  0.4575  0.9140
 3934SOL    HW212048   5.135   5.684   1.314  0.2352  2.5475  1.0441
 3935SOL     OW12049   1.909   4.844   5.789 -0.0112 -0.8963 -0.4148
 3935SOL    HW112050   1.846   4.775   5.768 -0.1299 -0.7212 -0.6486
 3935SOL    HW212051   1.926   4.887   5.705  1.1642 -1.5534 -0.5367
 3936SOL     OW12052   5.248   2.874   0.035 -0.7357  0.1148 -0.7462
 3936SOL    HW112053   5.170   2.923   0.012 -1.7483 -0.3690  1.3651
 3936SOL    HW212054   5.225   2.782   0.018 -0.8491 -0.0746  0.3195
 3937SOL     OW12055   4.776   5.311   4.925  0.1161 -0.6123 -0.1044
 3937SOL    HW112056   4.858   5.356   4.939  0.0414 -0.7542  0.8418
 3937SOL    HW212057   4.774   5.293   4.831  0.0254  1.5599 -0.5535
 3938SOL     OW12058   0.543   4.473   1.316  0.0235  0.1221  0.1710
 3938SOL    HW112059   0.601   4.449   1.244 -1.3622  0.5564 -1.1242
 3938SOL    HW212060   0.537   4.569   1.311 -0.2787  0.1347  0.7132
 3939SOL     OW12061   4.084   5.531   4.425  0.1449 -0.0793 -0.1761
 3939SOL    HW112062   4.032   5.601   4.465 -0.6488  0.0862 -1.4287
 3939SOL    HW212063   4.030   5.453   4.433  0.5929 -0.3495  0.3063
 3940SOL     OW12064   5.831   4.271   5.951 -0.1016 -0.2255  0.2822
 3940SOL    HW112065   5.836   4.257   5.856  0.7996  0.7303  0.1722
 3940SOL    HW212066   5.800   4.360   5.961 -2.7650 -1.1411  0.9493
 3941SOL     OW12067   4.815   4.819   3.104 -0.1890  0.2400  0.2413
 3941SOL    HW112068   4.750   4.888   3.100  1.2673  1.6506 -0.3891
 3941SOL    HW212069   4.870   4.842   3.179  0.2830 -0.2576  0.0555
 3942SOL     OW12070   4.266   4.759   1.956 -0.3131 -0.3749  0.0113
 3942SOL    HW112071   4.182   4.803   1.943 -0.7244 -1.4533 -1.2524
 3942SOL    HW212072   4.279   4.708   1.875  1.3459 -0.5703  0.3632
 3943SOL     OW12073   0.207   3.324   1.382 -0.3755  0.1173  0.4647
 3943SOL    HW112074   0.140   3.364   1.436  0.3123  0.0537  1.3965
 3943SOL    HW212075   0.159   3.275   1.315 -1.2626 -0.6961  1.6694
 3944SOL     OW12076   3.502   5.681   0.987  0.0424 -0.1464  0.1758
 3944SOL    HW112077   3.537   5.706   0.902 -0.2264  0.7823  0.3283
 3944SOL    HW212078   3.516   5.757   1.043 -2.8352  0.6184  0.0477
 3945SOL     OW12079   0.388   4.379   4.120 -0.0471 -0.0573  0.1676
 3945SOL    HW112080   0.311   4.418   4.162  0.6597 -0.3162  1.8165
 3945SOL    HW212081   0.390   4.289   4.153 -0.5034 -0.9017 -1.9827
 3946SOL     OW12082   5.036   5.986   5.927 -0.0505 -0.5617  0.2553
 3946SOL    HW112083   5.015   5.936   6.006 -0.9934 -0.9484 -0.2295
 3946SOL    HW212084   5.076   6.067   5.960 -1.2409 -0.3333  1.1730
 3947SOL     OW12085   1.605   6.016   2.643 -0.1625 -0.3771  0.2103
 3947SOL    HW112086   1.548   5.971   2.581  0.1464  0.2350 -0.5414
 3947SOL    HW212087   1.547   6.046   2.713 -0.6015 -0.6115 -0.0508
 3948SOL     OW12088   3.315   3.175   4.672  0.0950  0.2799 -0.0406
 3948SOL    HW112089   3.370   3.109   4.629  0.1110 -0.4988  1.1347
 3948SOL    HW212090   3.228   3.135   4.674 -0.0799  0.6550 -0.0603
 3949SOL     OW12091   1.807   0.576   1.175  0.5116  0.0265  0.1509
 3949SOL    HW112092   1.891   0.598   1.135  0.2522  2.0998  0.6447
 3949SOL    HW212093   1.829   0.545   1.262  0.8275 -0.7560 -0.1945
 3950SOL     OW12094   2.288   4.131   3.876  0.2359 -0.0398 -0.3250
 3950SOL    HW112095   2.209   4.118   3.824  0.1100 -1.0209  0.0925
 3950SOL    HW212096   2.349   4.064   3.845  1.0912  1.0161 -0.9817
 3951SOL     OW12097   5.655   4.302   2.693 -0.1091 -0.2441  0.1737
 3951SOL    HW112098   5.645   4.286   2.599  0.7955 -1.0282  0.1877
 3951SOL    HW212099   5.638   4.395   2.704 -1.9464 -0.4514 -0.4983
 3952SOL     OW12100   0.555   2.984   0.519  0.0978  0.3940  0.0319
 3952SOL    HW112101   0.506   2.920   0.571  0.1786 -1.5470 -2.1304
 3952SOL    HW212102   0.577   3.053   0.581 -0.9249 -1.1559  2.2576
 3953SOL     OW12103   4.309   1.970   5.807  0.2609 -0.5764  0.0025
 3953SOL    HW112104   4.328   1.905   5.740  0.1517 -0.9276  0.3131
 3953SOL    HW212105   4.395   2.004   5.833  0.5526 -2.4928  1.7447
 3954SOL     OW12106   4.236   5.186   5.940  0.2921  0.9353  0.1840
 3954SOL    HW112107   4.214   5.126   5.869 -0.8266  1.8233 -0.2516
 3954SOL    HW212108   4.280   5.259   5.897  0.0595  1.2501  0.4781
 3955SOL     OW12109   0.559   5.380   1.690  0.1302  0.5904 -0.3208
 3955SOL    HW112110   0.535   5.290   1.667  0.7540  0.7598 -1.6804
 3955SOL    HW212111   0.486   5.411   1.745 -1.3070  0.0919 -1.8701
 3956SOL     OW12112   1.116   5.456   0.512 -0.1375  0.0775 -0.1973
 3956SOL    HW112113   1.021   5.462   0.521 -0.0410  0.0620  0.9521
 3956SOL    HW212114   1.141   5.541   0.474 -0.4682  0.7105  0.9391
 3957SOL     OW12115   4.761   1.330   6.136 -0.1907 -0.0859  0.2319
 3957SOL    HW112116   4.798   1.358   6.052  0.6648  0.4223  0.7613
 3957SOL    HW212117   4.817   1.257   6.163 -2.0771 -2.0720 -0.8772
 3958SOL     OW12118   2.723   5.016   5.120 -0.6612  0.9150  0.3310
 3958SOL    HW112119   2.756   4.985   5.204  0.2643  2.6054  0.6254
 3958SOL    HW212120   2.780   4.975   5.055 -1.7034 -0.8171  0.4382
 3959SOL     OW12121   2.971   1.736   4.588 -0.1977 -0.0376 -0.0604
 3959SOL    HW112122   2.881   1.745   4.619 -0.2408 -0.6176 -0.0060
 3959SOL    HW212123   3.022   1.795   4.644 -0.5310  0.2627 -0.0645
 3960SOL     OW12124   3.760   4.890   5.254 -0.0134 -0.2073  0.3719
 3960SOL    HW112125   3.765   4.949   5.179  0.3707 -0.1025  0.4758
 3960SOL    HW212126   3.839   4.909   5.305  0.5516 -1.4013 -0.0194
 3961SOL     OW12127   5.421   0.579   1.575 -0.1358 -0.1180  0.3997
 3961SOL    HW112128   5.501   0.598   1.623 -1.5553  0.9192  2.5043
 3961SOL    HW212129   5.408   0.485   1.584  2.1290 -0.8417 -2.2520
 3962SOL     OW12130   3.685   1.381   5.353 -0.6211 -0.3551 -0.7981
 3962SOL    HW112131   3.742   1.319   5.398 -0.7843  0.0603  0.0004
 3962SOL    HW212132   3.663   1.337   5.271  1.6172 -0.1276 -1.5879
 3963SOL     OW12133   0.706   3.590   1.284 -0.0242  0.2254 -0.1726
 3963SOL    HW112134   0.797   3.610   1.306 -0.4129  1.0239  0.7686
 3963SOL    HW212135   0.655   3.637   1.350 -1.1175 -0.2278 -0.6862
 3964SOL     OW12136   1.530   3.940   3.775 -0.1076  0.6129  0.3966
 3964SOL    HW112137   1.482   3.860   3.757  0.1209  0.9900 -2.2599
 3964SOL    HW212138   1.617   3.911   3.802 -0.3455 -0.0291  0.4889
 3965SOL     OW12139   2.947   3.035   3.571 -0.2646  0.8067 -0.0386
 3965SOL    HW112140   2.923   3.118   3.613 -1.2786  0.6628 -0.3053
 3965SOL    HW212141   3.020   3.002   3.622 -0.5251  1.3591  0.7023
 3966SOL     OW12142   1.549   4.808   2.680 -0.1460 -0.6377  0.6115
 3966SOL    HW112143   1.633   4.766   2.659 -0.2467 -1.2598  1.4026
 3966SOL    HW212144   1.546   4.809   2.775  0.1444  1.8274  0.6580
 3967SOL     OW12145   0.700   0.847   1.145 -0.5394  0.6124 -0.2900
 3967SOL    HW112146   0.728   0.768   1.098  0.9399  0.1175  1.2856
 3967SOL    HW212147   0.737   0.919   1.096 -1.4810  0.3108 -1.4750
 3968SOL     OW12148   5.332   1.294   1.259 -0.5835  0.4698 -0.5836
 3968SOL    HW112149   5.362   1.275   1.171  0.0535  0.3460 -0.3480
 3968SOL    HW212150   5.366   1.222   1.312 -0.6171  0.7536 -0.1706
 3969SOL     OW12151   2.225   3.044   2.841 -0.1114 -0.1497 -0.0440
 3969SOL    HW112152   2.139   3.033   2.801 -0.7431 -1.6308  1.6106
 3969SOL    HW212153   2.281   2.981   2.795  0.2017  0.9604 -1.2648
 3970SOL     OW12154   4.113   3.792   5.722 -0.5034  0.2184 -0.1627
 3970SOL    HW112155   4.025   3.761   5.742  0.2328 -1.1013  1.2522
 3970SOL    HW212156   4.102   3.885   5.705 -2.1367  0.1404  0.2834
 3971SOL     OW12157   5.473   5.564   1.559 -0.2100  0.2234  0.1408
 3971SOL    HW112158   5.419   5.634   1.595  0.6185  0.0666  1.7614
 3971SOL    HW212159   5.422   5.484   1.572 -1.6155  0.5243 -2.6274
 3972SOL     OW12160   2.142   3.661   3.861  0.6943 -0.3129 -0.2375
 3972SOL    HW112161   2.231   3.673   3.827  1.0206  1.1974  1.0038
 3972SOL    HW212162   2.154   3.606   3.939  0.4890 -0.4670 -0.3155
 3973SOL     OW12163   3.767   3.233   5.063  0.5621 -0.0641  0.0477
 3973SOL    HW112164   3.773   3.140   5.040  0.0550  0.2830 -1.5662
 3973SOL    HW212165   3.691   3.238   5.121 -0.2093 -0.4866 -0.8981
 3974SOL     OW12166   1.984   0.283   4.866 -0.3884  0.8385  0.3767
 3974SOL    HW112167   1.969   0.195   4.899  0.2900  0.9131  0.9281
 3974SOL    HW212168   1.943   0.285   4.780 -2.1626  0.6103  1.1671
 3975SOL     OW12169   1.097   0.617   2.905  0.4145  0.2028  0.1780
 3975SOL    HW112170   1.128   0.696   2.861 -1.6894  0.4212 -1.0342
 3975SOL    HW212171   1.067   0.560   2.834 -1.6606 -0.0624  1.1829
 3976SOL     OW12172   0.326   2.628   1.910 -0.1452 -0.0963 -0.0637
 3976SOL    HW112173   0.385   2.657   1.839 -1.3309  1.3812 -0.4795
 3976SOL    HW212174   0.376   2.559   1.954  2.1731  1.4757 -0.0152
 3977SOL     OW12175   2.763   1.305   3.704  0.5463  0.0245 -0.4689
 3977SOL    HW112176   2.846   1.341   3.735  0.4317 -0.8054  0.8644
 3977SOL    HW212177   2.784   1.216   3.676  0.1482 -0.1442 -0.2449
 3978SOL     OW12178   3.873   5.118   0.655  0.1122  0.0098  0.0057
 3978SOL    HW112179   3.840   5.151   0.739  0.3646  0.9145 -0.2412
 3978SOL    HW212180   3.795   5.083   0.612 -0.7130  2.5585 -0.7737
 3979SOL     OW12181   1.323   0.200   0.238  0.0359  0.2246 -0.3106
 3979SOL    HW112182   1.333   0.120   0.186 -1.3089 -0.1214 -0.0749
 3979SOL    HW212183   1.319   0.270   0.174  0.4814  0.0293 -0.5576
 3980SOL     OW12184   3.463   3.808   0.803  0.6707 -0.0663 -0.1241
 3980SOL    HW112185   3.399   3.879   0.811 -0.8120 -1.2535 -0.9030
 3980SOL    HW212186   3.539   3.849   0.763  0.2144  1.2930  0.3443
 3981SOL     OW12187   5.319   4.806   2.023  1.0122 -0.8057  0.5481
 3981SOL    HW112188   5.399   4.839   2.065  0.7056  2.4651 -1.1637
 3981SOL    HW212189   5.302   4.867   1.952 -3.0736 -1.3593  0.8263
 3982SOL     OW12190   5.695   2.653   5.672 -0.2817  0.2269 -0.0592
 3982SOL    HW112191   5.783   2.651   5.710 -0.6354  0.3270  0.7763
 3982SOL    HW212192   5.710   2.637   5.578  0.6241  0.2501  0.0662
 3983SOL     OW12193   1.727   2.357   2.715 -0.0882  0.0872  0.0691
 3983SOL    HW112194   1.691   2.364   2.627 -1.0416  1.0575  0.5183
 3983SOL    HW212195   1.813   2.398   2.710  0.4535 -1.0994 -0.7160
 3984SOL     OW12196   0.815   5.395   3.956  0.2032  0.6065  0.2834
 3984SOL    HW112197   0.788   5.455   3.886 -1.1157  0.6839  0.8146
 3984SOL    HW212198   0.750   5.324   3.953 -0.6047  1.2054  2.1468
 3985SOL     OW12199   3.509   4.534   2.515  0.9007 -0.3143 -0.0817
 3985SOL    HW112200   3.507   4.630   2.509 -1.8195 -0.3103 -0.4008
 3985SOL    HW212201   3.526   4.505   2.425  1.5664 -0.1515 -0.0142
 3986SOL     OW12202   4.535   6.008   5.606 -0.0114  0.4252  0.2891
 3986SOL    HW112203   4.549   5.915   5.626  1.7723  0.8090  1.0647
 3986SOL    HW212204   4.490   6.042   5.683  2.0902  0.7882  1.4410
 3987SOL     OW12205   1.041   0.725   4.524  0.1850  0.1842 -0.3103
 3987SOL    HW112206   1.111   0.790   4.536 -0.7689  1.2228 -0.1813
 3987SOL    HW212207   0.970   0.756   4.580 -0.7310 -0.3163 -1.1656
 3988SOL     OW12208   2.434   5.760   5.272 -0.1965 -0.0360 -0.3986
 3988SOL    HW112209   2.515   5.712   5.255  2.0580  3.3947 -0.2450
 3988SOL    HW212210   2.427   5.761   5.368 -0.6234 -0.5744 -0.4180
 3989SOL     OW12211   5.977   2.191   3.546  0.0838  0.3906 -0.4962
 3989SOL    HW112212   5.904   2.230   3.498  1.1686  2.7162 -0.4360
 3989SOL    HW212213   5.946   2.186   3.636 -1.6929 -3.3059 -1.1533
 3990SOL     OW12214   2.147   0.578   3.020 -0.0569  0.2962  0.4855
 3990SOL    HW112215   2.187   0.650   2.971  1.3207 -1.2961 -0.9034
 3990SOL    HW212216   2.220   0.519   3.039 -1.2016 -0.9842  1.1094
 3991SOL     OW12217   2.614   3.093   1.682  0.2851 -0.7275  0.2854
 3991SOL    HW112218   2.690   3.148   1.702  0.5791 -1.3354  0.8585
 3991SOL    HW212219   2.595   3.111   1.590  1.0507 -0.4856  0.1680
 3992SOL     OW12220   3.871   6.075   5.256  0.6066  0.2403  0.4244
 3992SOL    HW112221   3.848   6.002   5.197 -0.9240  1.0802 -0.0724
 3992SOL    HW212222   3.794   6.087   5.311 -0.5237  3.4791 -1.6053
 3993SOL     OW12223   6.035   2.545   5.534  0.4167  0.1047 -0.3409
 3993SOL    HW112224   6.129   2.535   5.547  0.2333  1.0367  2.1083
 3993SOL    HW212225   5.998   2.555   5.622 -1.8844  0.5751 -1.2634
 3994SOL     OW12226   4.861   5.843   0.519 -0.1102 -0.2277  0.3079
 3994SOL    HW112227   4.792   5.896   0.561 -2.0284 -1.8983 -0.5418
 3994SOL    HW212228   4.923   5.825   0.590 -0.8501  0.8163  1.2740
 3995SOL     OW12229   3.403   6.028   2.732  0.5507  0.3025  0.4926
 3995SOL    HW112230   3.431   5.945   2.695 -0.0145  0.1812  0.3169
 3995SOL    HW212231   3.413   6.018   2.826  0.1670 -0.0931  0.4949
 3996SOL     OW12232   5.834   3.230   1.250 -0.3640  0.3633  0.1557
 3996SOL    HW112233   5.745   3.196   1.257 -0.5323  0.7858  0.0937
 3996SOL    HW212234   5.881   3.163   1.200 -0.4166 -0.2856  0.9478
 3997SOL     OW12235   1.850   4.183   3.543  0.4713 -0.5936 -0.5345
 3997SOL    HW112236   1.923   4.239   3.571  0.5909 -0.5628 -0.9124
 3997SOL    HW212237   1.889   4.121   3.482  0.8155 -2.5534  1.5415
 3998SOL     OW12238   4.027   0.135   5.213 -1.2573  0.1185  0.0692
 3998SOL    HW112239   4.091   0.103   5.150 -0.9983  0.5743  0.0914
 3998SOL    HW212240   3.968   0.062   5.227 -1.6259  0.1814 -1.0959
 3999SOL     OW12241   0.572   4.535   3.671  0.2932 -0.4148 -0.4407
 3999SOL    HW112242   0.580   4.460   3.613  0.2818  0.5642 -1.7351
 3999SOL    HW212243   0.484   4.570   3.653  0.9605  0.9577 -1.1643
 4000SOL     OW12244   6.020   0.424   4.547 -0.0238 -0.2252 -0.3491
 4000SOL    HW112245   6.110   0.394   4.559 -0.1578 -1.1466 -1.4961
 4000SOL    HW212246   5.978   0.355   4.495 -1.4888  0.0287  0.4282
 4001SOL     OW12247   1.597   0.740   0.493  0.5011 -0.0926 -0.6845
 4001SOL    HW112248   1.505   0.759   0.512  0.4902 -0.9131  0.1453
 4001SOL    HW212249   1.600   0.726   0.398 -0.2908 -0.3798 -0.6703
 4002SOL     OW12250   0.428   0.213   1.434  0.2158 -0.2313 -0.0506
 4002SOL    HW112251   0.447   0.281   1.370 -3.0775 -1.0105 -2.0678
 4002SOL    HW212252   0.473   0.136   1.402 -1.4963 -0.6424 -1.6126
 4003SOL     OW12253   2.657   0.703   1.991  0.2455 -0.3411 -0.0910
 4003SOL    HW112254   2.710   0.705   2.070  1.0193  1.1950 -0.6002
 4003SOL    HW212255   2.567   0.714   2.021  0.5258  0.1270  0.5929
 4004SOL     OW12256   3.760   0.718   2.096  0.1602  0.0166 -0.1918
 4004SOL    HW112257   3.738   0.811   2.099  0.3171  0.2254 -2.7662
 4004SOL    HW212258   3.847   0.713   2.137 -0.4258  0.7437  1.2118
 4005SOL     OW12259   4.229   0.889   4.845  0.1354  0.2323 -0.1755
 4005SOL    HW112260   4.161   0.824   4.823  2.2910 -1.6594 -1.7304
 4005SOL    HW212261   4.254   0.927   4.761  0.1058  1.8904  0.5377
 4006SOL     OW12262   3.448   1.828   2.620 -0.1285  0.2504  0.4053
 4006SOL    HW112263   3.445   1.918   2.587  0.4095 -0.5837 -2.2114
 4006SOL    HW212264   3.369   1.787   2.585  1.5701 -1.2680 -1.9698
 4007SOL     OW12265   4.134   6.141   4.996  0.1938 -0.2885  0.2198
 4007SOL    HW112266   4.062   6.124   4.934  0.6519 -0.9070 -0.1584
 4007SOL    HW212267   4.203   6.080   4.970 -0.5062 -2.4180  2.8942
 4008SOL     OW12268   0.439   0.574   4.782 -0.2873  0.4450  0.2552
 4008SOL    HW112269   0.451   0.664   4.752  0.3724  0.1284 -0.4738
 4008SOL    HW212270   0.351   0.550   4.752  1.0910 -0.5710 -3.4507
 4009SOL     OW12271   1.029   5.135   0.502  0.4479 -0.1111 -0.4754
 4009SOL    HW112272   1.054   5.072   0.434 -2.3450 -1.8521 -0.0411
 4009SOL    HW212273   0.936   5.151   0.487 -0.7354 -1.7589  3.6937
 4010SOL     OW12274   3.958   3.955   0.671  0.1810  0.6827  0.8934
 4010SOL    HW112275   3.902   3.959   0.749  0.6399 -0.5116  1.3097
 4010SOL    HW212276   3.914   4.011   0.607 -1.1795  0.2553  1.4080
 4011SOL     OW12277   0.401   2.938   0.747 -0.7278  0.2337  0.0966
 4011SOL    HW112278   0.471   2.881   0.779  0.2140  1.1422 -0.2973
 4011SOL    HW212279   0.324   2.912   0.798 -0.2907 -1.2701  0.0296
 4012SOL     OW12280   2.126   5.580   0.678 -0.1001  0.7708  0.1815
 4012SOL    HW112281   2.112   5.498   0.725 -0.7426  0.5416 -0.3795
 4012SOL    HW212282   2.216   5.575   0.647  0.4069  1.0322  1.5658
 4013SOL     OW12283   4.652   4.132   3.653 -0.0978  0.6543  0.1427
 4013SOL    HW112284   4.644   4.091   3.567  0.1834  0.2194  0.3193
 4013SOL    HW212285   4.602   4.076   3.712  0.3397  0.5275  0.3988
 4014SOL     OW12286   0.315   3.457   3.600 -0.3682 -0.3595 -0.5205
 4014SOL    HW112287   0.292   3.494   3.686 -1.0240  1.4957 -1.4470
 4014SOL    HW212288   0.256   3.500   3.539  1.1391 -0.4528 -2.1190
 4015SOL     OW12289   5.665   2.377   3.083  0.2215 -0.0880 -0.2861
 4015SOL    HW112290   5.632   2.444   3.143 -0.5678  0.5342 -1.3957
 4015SOL    HW212291   5.686   2.303   3.140  0.7223  0.9350  0.9125
 4016SOL     OW12292   5.004   0.686   5.363  0.1662  0.0270  0.4964
 4016SOL    HW112293   5.013   0.594   5.386  1.1048  0.5303  2.3433
 4016SOL    HW212294   4.953   0.724   5.434  1.8560  1.3770  1.0597
 4017SOL     OW12295   6.114   4.358   5.056  0.0160 -0.1032  0.8800
 4017SOL    HW112296   6.143   4.448   5.044 -0.8593  0.1467  0.5581
 4017SOL    HW212297   6.038   4.364   5.114 -1.1498 -0.4282 -0.5335
 4018SOL     OW12298   5.442   1.763   1.884  0.7019 -0.1494 -0.1959
 4018SOL    HW112299   5.504   1.735   1.953 -0.5251  0.1779  1.0907
 4018SOL    HW212300   5.412   1.682   1.844 -0.5764 -0.5676  1.4980
 4019SOL     OW12301   2.736   1.697   3.619 -0.4806  0.7765  0.2274
 4019SOL    HW112302   2.718   1.757   3.546 -0.9217 -0.1788 -0.4678
 4019SOL    HW212303   2.828   1.710   3.639 -0.1982  0.6322 -0.9034
 4020SOL     OW12304   2.175   0.097   0.615  0.1730 -0.3246  0.3675
 4020SOL    HW112305   2.246   0.113   0.552 -0.2481 -0.0957 -0.0544
 4020SOL    HW212306   2.220   0.083   0.698  0.6908  0.3021  0.2018
 4021SOL     OW12307   5.847   5.399   2.854 -0.1523  0.8909  0.4555
 4021SOL    HW112308   5.819   5.456   2.783  0.7881  0.5092 -0.2420
 4021SOL    HW212309   5.911   5.452   2.903  0.8115  0.4252 -0.2625
 4022SOL     OW12310   1.065   4.803   5.621  0.0162  0.1927 -0.1571
 4022SOL    HW112311   1.083   4.745   5.547 -2.1233  1.0825 -1.4823
 4022SOL    HW212312   1.121   4.879   5.607 -0.9169  0.7037 -1.3867
 4023SOL     OW12313   0.962   1.428   2.047 -0.0855 -0.0001  0.4642
 4023SOL    HW112314   0.954   1.488   2.122  0.7996  1.6398 -0.6950
 4023SOL    HW212315   1.051   1.442   2.014  0.1442 -1.9616  0.1106
 4024SOL     OW12316   2.384   4.838   3.554  0.2921  0.3966  0.5471
 4024SOL    HW112317   2.422   4.879   3.632  0.9998  1.7006 -0.4427
 4024SOL    HW212318   2.306   4.793   3.586  0.7628  0.5968  2.0594
 4025SOL     OW12319   5.628   2.525   1.946 -0.4015 -0.6419  0.2246
 4025SOL    HW112320   5.708   2.577   1.949 -0.1270 -1.0280  3.3886
 4025SOL    HW212321   5.583   2.554   1.867  0.9952  2.4330  0.4165
 4026SOL     OW12322   4.298   5.453   2.304 -0.2214 -0.3202 -0.0497
 4026SOL    HW112323   4.361   5.525   2.303  1.2645 -1.5682 -0.2017
 4026SOL    HW212324   4.240   5.470   2.230 -1.1211  1.6983  1.0244
 4027SOL     OW12325   3.621   0.510   1.790  0.2052  0.9700  0.0773
 4027SOL    HW112326   3.537   0.540   1.756 -0.7172 -0.4154  1.0662
 4027SOL    HW212327   3.636   0.563   1.869  0.2512  1.1736 -0.0653
 4028SOL     OW12328   2.282   4.596   4.739  0.2230 -0.3275 -0.2697
 4028SOL    HW112329   2.255   4.552   4.658  1.8195 -0.6086 -0.6852
 4028SOL    HW212330   2.215   4.572   4.803 -0.3878 -1.1467 -1.1856
 4029SOL     OW12331   2.782   3.833   2.357  0.3664 -0.2685  0.4932
 4029SOL    HW112332   2.701   3.787   2.336 -0.1362  0.7594  0.1398
 4029SOL    HW212333   2.804   3.804   2.446 -2.8211  2.7271  2.5306
 4030SOL     OW12334   2.514   5.763   3.135 -0.2142  0.2740  0.8273
 4030SOL    HW112335   2.503   5.668   3.145  1.7001 -0.0713  0.0443
 4030SOL    HW212336   2.506   5.798   3.224  0.1365 -0.7549  1.2745
 4031SOL     OW12337   3.320   2.606   1.282  0.2243  0.3083  0.6807
 4031SOL    HW112338   3.237   2.561   1.270  0.8745 -0.9729  0.7663
 4031SOL    HW212339   3.321   2.674   1.215  0.0131 -1.0253 -0.7347
 4032SOL     OW12340   0.036   2.634   3.151 -0.4186  0.0499 -0.6408
 4032SOL    HW112341   0.068   2.555   3.195  0.2541  1.0704  0.7523
 4032SOL    HW212342   0.108   2.662   3.095 -0.5917 -0.2044 -0.9978
 4033SOL     OW12343   4.477   5.030   1.464 -0.6573  0.2955 -0.1218
 4033SOL    HW112344   4.525   5.100   1.510 -1.2027  0.5639  0.0468
 4033SOL    HW212345   4.385   5.053   1.475 -0.7935  0.6567 -1.8318
 4034SOL     OW12346   3.114   1.943   5.736 -0.4742  0.6245  0.0273
 4034SOL    HW112347   3.199   1.984   5.748 -1.5316  3.4938 -1.3937
 4034SOL    HW212348   3.081   1.978   5.653 -3.2892  0.1435  0.8219
 4035SOL     OW12349   2.901   6.108   0.212  0.4490 -0.1656  0.0021
 4035SOL    HW112350   2.822   6.141   0.254  1.3220  0.7045  1.0027
 4035SOL    HW212351   2.872   6.028   0.167 -0.8280 -0.3098  1.0154
 4036SOL     OW12352   2.835   5.156   0.329 -1.0158 -0.5318 -0.2377
 4036SOL    HW112353   2.871   5.208   0.401  0.2872 -2.4009  0.5687
 4036SOL    HW212354   2.820   5.219   0.259  0.3363  0.9514  0.7141
 4037SOL     OW12355   3.031   1.567   5.195  0.2347  0.2503  0.0252
 4037SOL    HW112356   3.082   1.495   5.233  0.1771  0.0837 -0.2145
 4037SOL    HW212357   2.995   1.613   5.271 -1.8081 -1.4477  0.2001
 4038SOL     OW12358   2.484   2.216   3.865 -0.5968  0.1800 -0.1211
 4038SOL    HW112359   2.530   2.162   3.801 -1.1896 -2.1688  1.3354
 4038SOL    HW212360   2.395   2.182   3.865 -0.4309 -0.4036  2.4596
 4039SOL     OW12361   0.484   0.975   4.153 -0.2277 -0.2601  0.3030
 4039SOL    HW112362   0.520   1.037   4.090  0.9907 -0.5872  0.6480
 4039SOL    HW212363   0.470   0.894   4.104  0.2472 -0.3624  0.3325
 4040SOL     OW12364   2.428   5.463   3.367  0.4672  0.3893 -0.3988
 4040SOL    HW112365   2.344   5.473   3.322  1.0893 -0.2025 -1.7247
 4040SOL    HW212366   2.419   5.518   3.445 -0.9012  0.8751 -0.8613
 4041SOL     OW12367   2.931   3.198   4.910  0.4219 -0.4390  0.6378
 4041SOL    HW112368   2.954   3.156   4.827 -1.1810 -1.4355  0.6552
 4041SOL    HW212369   2.953   3.290   4.897  0.6031 -0.6553 -0.7362
 4042SOL     OW12370   4.502   3.181   4.048 -1.4618 -0.2403  0.2246
 4042SOL    HW112371   4.531   3.235   3.975  0.0894  2.2602  2.5288
 4042SOL    HW212372   4.557   3.103   4.043  0.9420  1.3280  0.4850
 4043SOL     OW12373   0.895   5.820   5.667 -0.0764  0.2137 -0.5430
 4043SOL    HW112374   0.968   5.817   5.728 -1.2854  1.3485  1.0568
 4043SOL    HW212375   0.935   5.812   5.581  1.5572 -3.2743  0.3679
 4044SOL     OW12376   2.700   3.593   6.035 -0.4684 -0.0308 -0.1928
 4044SOL    HW112377   2.762   3.593   6.107 -2.0797  0.0368  1.2666
 4044SOL    HW212378   2.728   3.665   5.978  0.0238  0.8553  1.1243
 4045SOL     OW12379   0.853   4.859   4.221 -0.1954  0.3745  0.2445
 4045SOL    HW112380   0.799   4.900   4.154 -1.6337 -0.3600  0.9284
 4045SOL    HW212381   0.890   4.781   4.178  0.1864  0.7762 -0.1639
 4046SOL     OW12382   3.261   3.555   3.055  0.0251 -0.3179  0.5279
 4046SOL    HW112383   3.339   3.588   3.011  1.0423 -1.4866  1.3690
 4046SOL    HW212384   3.296   3.504   3.129 -1.5416 -0.7344  1.0056
 4047SOL     OW12385   1.678   2.718   0.503  0.1443 -0.2684 -0.4409
 4047SOL    HW112386   1.751   2.765   0.463 -0.7777  1.1455 -0.5194
 4047SOL    HW212387   1.692   2.626   0.478  1.2036  0.1543 -1.4923
 4048SOL     OW12388   4.659   0.969   0.758  0.4211  0.3658  0.1838
 4048SOL    HW112389   4.661   0.875   0.739  0.4332  0.2791  0.6002
 4048SOL    HW212390   4.612   1.007   0.684  0.7272  0.0757 -0.1673
 4049SOL     OW12391   3.329   1.324   1.403  0.1001 -0.7382  0.7429
 4049SOL    HW112392   3.247   1.278   1.383 -0.0299 -0.0464 -0.4411
 4049SOL    HW212393   3.301   1.406   1.443 -0.0888  1.0863 -2.6962
 4050SOL     OW12394   0.156   5.322   4.261 -0.9418 -0.3663  0.0799
 4050SOL    HW112395   0.237   5.297   4.307 -0.3598 -0.5710 -1.0116
 4050SOL    HW212396   0.186   5.371   4.185 -1.8758 -0.1097 -0.1343
 4051SOL     OW12397   5.668   4.060   3.209 -0.6249  0.3066  0.0164
 4051SOL    HW112398   5.665   4.094   3.120 -1.8171 -1.4522 -0.6669
 4051SOL    HW212399   5.741   4.106   3.250 -1.0532  2.3392 -1.3446
 4052SOL     OW12400   4.419   3.976   1.951  0.5273 -0.1805  0.3823
 4052SOL    HW112401   4.338   4.026   1.949  1.5659  1.6443 -2.7877
 4052SOL    HW212402   4.488   4.042   1.962  1.8733 -0.8900 -2.7977
 4053SOL     OW12403   2.065   4.086   3.701  0.5050 -0.0760  0.0150
 4053SOL    HW112404   1.981   4.061   3.740 -1.1352  1.1575 -2.4424
 4053SOL    HW212405   2.099   4.005   3.663 -0.9838 -0.1520 -1.2818
 4054SOL     OW12406   4.708   4.951   2.770  0.3529 -0.4383  0.1968
 4054SOL    HW112407   4.726   5.044   2.785 -0.5378 -0.1673 -0.3129
 4054SOL    HW212408   4.718   4.940   2.675  0.0065 -0.7615  0.1954
 4055SOL     OW12409   2.948   2.768   1.931  0.3594 -0.7209 -0.5859
 4055SOL    HW112410   2.910   2.790   2.016  0.3282  0.0878 -0.7990
 4055SOL    HW212411   2.888   2.703   1.894 -1.4227  1.2535 -1.3436
 4056SOL     OW12412   5.294   3.458   0.762  0.5807  0.5401  0.6221
 4056SOL    HW112413   5.223   3.522   0.765 -0.6464 -0.7833  1.1080
 4056SOL    HW212414   5.374   3.510   0.751 -0.5786  1.9909 -1.6283
 4057SOL     OW12415   2.138   2.680   3.713  0.0476  0.1112 -0.4777
 4057SOL    HW112416   2.118   2.660   3.804  1.1979 -2.6853 -0.7607
 4057SOL    HW212417   2.224   2.723   3.715  1.0710 -1.8442 -0.3215
 4058SOL     OW12418   3.971   1.954   2.308 -0.3455 -0.3713  0.3350
 4058SOL    HW112419   3.891   1.915   2.344  0.0064  0.7268  2.4917
 4058SOL    HW212420   3.944   2.042   2.281 -0.1528 -0.4793 -0.2118
 4059SOL     OW12421   1.331   2.088   0.572  0.1806 -0.2186 -0.5589
 4059SOL    HW112422   1.265   2.088   0.642 -0.0735 -1.4037 -0.7792
 4059SOL    HW212423   1.324   2.176   0.533 -0.6925 -0.0455 -0.0440
 4060SOL     OW12424   0.475   5.029   4.964 -0.0352  0.0489  0.1949
 4060SOL    HW112425   0.530   5.028   5.042 -2.3981 -0.5788  1.9513
 4060SOL    HW212426   0.393   4.987   4.991 -1.0393  0.0187 -2.5649
 4061SOL     OW12427   3.216   0.822   5.092 -0.1367  0.0396 -0.1001
 4061SOL    HW112428   3.263   0.746   5.061  0.2905  0.4568 -0.4880
 4061SOL    HW212429   3.267   0.897   5.061 -0.4309  0.4826  0.4520
 4062SOL     OW12430   5.297   0.835   0.789  0.0333 -0.5477  0.2199
 4062SOL    HW112431   5.216   0.885   0.779  0.3818 -0.0781 -0.3303
 4062SOL    HW212432   5.273   0.761   0.844  0.0727  1.5456  3.2782
 4063SOL     OW12433   1.231   5.081   0.716  0.3843 -0.4133  0.3729
 4063SOL    HW112434   1.193   5.000   0.748  1.6373 -0.5731  1.5641
 4063SOL    HW212435   1.158   5.129   0.677 -1.2158 -0.3232  3.2667
 4064SOL     OW12436   5.592   0.154   4.417  0.5298  0.6007 -0.3528
 4064SOL    HW112437   5.589   0.218   4.487  0.0893  0.5390 -0.3136
 4064SOL    HW212438   5.682   0.121   4.418  0.1602 -0.4829  1.1755
 4065SOL     OW12439   5.940   3.510   3.905  0.1530 -0.5252 -0.0356
 4065SOL    HW112440   5.952   3.605   3.908 -0.0664 -0.5174  0.8889
 4065SOL    HW212441   6.024   3.474   3.934  0.3916 -0.6323 -0.8335
 4066SOL     OW12442   4.037   5.013   1.595 -0.6341 -0.6680 -0.5120
 4066SOL    HW112443   4.100   5.085   1.595 -1.7420  0.3279 -0.3531
 4066SOL    HW212444   4.021   4.994   1.687  0.7798 -2.1684 -0.5339
 4067SOL     OW12445   5.190   2.307   0.629  0.3470  0.3660 -0.3407
 4067SOL    HW112446   5.187   2.372   0.558  0.1669 -0.1642 -0.8253
 4067SOL    HW212447   5.129   2.342   0.694  1.6076  1.5978  0.2157
 4068SOL     OW12448   2.262   2.609   2.309 -0.3306  0.7267  0.8153
 4068SOL    HW112449   2.331   2.567   2.258 -0.0716  1.1376  0.8261
 4068SOL    HW212450   2.181   2.569   2.277 -0.0715 -0.0268  1.0592
 4069SOL     OW12451   5.840   4.591   3.213 -0.1815  0.1476 -0.1954
 4069SOL    HW112452   5.816   4.591   3.306  2.9471 -3.0898  0.8579
 4069SOL    HW212453   5.871   4.681   3.197 -1.5912  1.0200  1.6068
 4070SOL     OW12454   1.892   3.239   5.741  0.1536  0.0822 -0.1747
 4070SOL    HW112455   1.917   3.308   5.802 -2.0001 -0.7529  1.8102
 4070SOL    HW212456   1.796   3.239   5.742  0.0549 -1.0642 -2.3742
 4071SOL     OW12457   2.216   3.079   5.481  0.4117 -0.0573  0.6351
 4071SOL    HW112458   2.127   3.048   5.493  0.3207  0.2577  0.7822
 4071SOL    HW212459   2.270   3.000   5.489  0.0924 -0.3782 -0.2635
 4072SOL     OW12460   0.517   4.286   2.094 -0.6935 -0.0492 -0.2749
 4072SOL    HW112461   0.475   4.242   2.020 -1.2353 -1.5221  0.8687
 4072SOL    HW212462   0.445   4.318   2.148 -0.3192  0.2414  0.0581
 4073SOL     OW12463   3.680   1.535   0.032 -0.0840  0.5570  0.2199
 4073SOL    HW112464   3.673   1.597   0.104 -0.0235  1.6212 -0.6582
 4073SOL    HW212465   3.711   1.588  -0.042 -1.1760 -0.2601 -0.8642
 4074SOL     OW12466   4.839   1.412   5.816 -0.1647 -0.4286 -0.3395
 4074SOL    HW112467   4.930   1.386   5.801 -0.1448 -0.9769  0.6462
 4074SOL    HW212468   4.787   1.345   5.772 -0.1074  0.4465 -1.7907
 4075SOL     OW12469   5.896   0.777   1.913 -0.0973 -0.2448 -0.2303
 4075SOL    HW112470   5.926   0.694   1.951 -1.6711 -1.0787 -0.7027
 4075SOL    HW212471   5.938   0.844   1.966  2.8886 -1.2684 -1.0965
 4076SOL     OW12472   4.477   1.811   3.778  0.1537 -0.0027 -0.3099
 4076SOL    HW112473   4.427   1.791   3.699  0.4660  0.7084 -0.6964
 4076SOL    HW212474   4.568   1.812   3.749  0.6596 -3.0905  0.7243
 4077SOL     OW12475   4.284   3.986   0.436  0.3677  0.8652  0.1112
 4077SOL    HW112476   4.357   3.929   0.458 -0.7611 -0.4506  0.5597
 4077SOL    HW212477   4.274   4.042   0.513 -0.4269 -0.3943  0.9493
 4078SOL     OW12478   3.111   4.101   1.951  0.4299  0.0595 -0.0069
 4078SOL    HW112479   3.087   4.171   1.890 -2.9052 -1.3521 -0.5272
 4078SOL    HW212480   3.077   4.022   1.911  1.4588 -1.4706  1.9837
 4079SOL     OW12481   5.854   4.570   1.567 -0.0357  0.2183 -0.2543
 4079SOL    HW112482   5.899   4.654   1.569 -1.0855  0.7966  0.0613
 4079SOL    HW212483   5.880   4.530   1.484  3.1421 -0.7019  1.0535
 4080SOL     OW12484   3.769   3.231   3.715  0.5754  0.3672  0.2495
 4080SOL    HW112485   3.830   3.160   3.733  0.3854  0.0755 -0.2508
 4080SOL    HW212486   3.785   3.254   3.624  0.6238  0.9599  0.3992
 4081SOL     OW12487   2.722   3.656   2.749  0.0753 -0.2082 -0.0057
 4081SOL    HW112488   2.793   3.711   2.783  0.3295  1.7373 -3.2351
 4081SOL    HW212489   2.739   3.569   2.785  2.5345  0.7528  1.4012
 4082SOL     OW12490   1.036   5.043   4.029 -0.3305  0.0605 -0.5249
 4082SOL    HW112491   1.066   5.122   3.985 -0.5756  0.0631 -0.6929
 4082SOL    HW212492   0.960   5.015   3.978  0.8066 -1.2990 -1.5684
 4083SOL     OW12493   0.786   5.656   3.411 -0.4053 -0.0756 -0.1998
 4083SOL    HW112494   0.842   5.706   3.351  0.6585  1.1136  1.6923
 4083SOL    HW212495   0.719   5.618   3.355  0.8859  0.4757 -2.2187
 4084SOL     OW12496   5.943   2.054   1.012 -0.2802 -0.9435 -0.0237
 4084SOL    HW112497   6.030   2.016   1.025  0.6376  1.3902  1.1145
 4084SOL    HW212498   5.955   2.148   1.025 -3.1544 -0.6359  1.2800
 4085SOL     OW12499   2.171   1.039   0.404  0.4334 -0.3004  0.1108
 4085SOL    HW112500   2.115   1.040   0.482  1.2011 -0.5978  0.6663
 4085SOL    HW212501   2.249   0.991   0.430  0.5163 -0.7743 -0.9735
 4086SOL     OW12502   3.742   2.079   0.528 -0.4497 -0.0526  0.2952
 4086SOL    HW112503   3.652   2.049   0.521 -1.1105  2.0138 -1.3226
 4086SOL    HW212504   3.761   2.118   0.442  1.6312  0.4888  0.9283
 4087SOL     OW12505   3.054   3.685   0.440  0.0122  0.2805  0.9994
 4087SOL    HW112506   3.110   3.607   0.444 -1.9322 -1.1338  2.5530
 4087SOL    HW212507   3.094   3.746   0.501  1.1810  0.2655  0.2812
 4088SOL     OW12508   2.298   3.320   0.668  0.0890  0.0552 -0.1911
 4088SOL    HW112509   2.293   3.407   0.709  0.8737  0.4099 -0.8286
 4088SOL    HW212510   2.329   3.262   0.737 -1.0161  0.1520  0.4093
 4089SOL     OW12511   5.901   2.846   0.322  0.0659 -0.2213  0.3822
 4089SOL    HW112512   5.811   2.815   0.314  0.4865 -1.7407  1.1870
 4089SOL    HW212513   5.948   2.774   0.364  1.8977  0.1168 -0.9566
 4090SOL     OW12514   4.334   0.067   3.235  0.2445 -0.2748 -0.4399
 4090SOL    HW112515   4.360   0.151   3.274  1.3316  0.5170 -2.7079
 4090SOL    HW212516   4.245   0.081   3.204 -0.0394 -0.4050  0.2789
 4091SOL     OW12517   3.983   4.951   5.434 -0.5059 -0.4460  0.3916
 4091SOL    HW112518   3.952   5.025   5.485  0.9450 -0.7279  1.7757
 4091SOL    HW212519   4.078   4.960   5.435 -0.3984 -1.2235 -1.1404
 4092SOL     OW12520   2.534   0.899   3.527  0.2761 -0.1865  0.2235
 4092SOL    HW112521   2.538   0.813   3.486 -0.4885  0.0617 -0.4037
 4092SOL    HW212522   2.534   0.882   3.621 -0.9757 -0.9461  0.1087
 4093SOL     OW12523   1.001   2.798   4.172  0.6003  0.3103  0.2184
 4093SOL    HW112524   1.091   2.780   4.144  0.4278 -1.0235  0.4792
 4093SOL    HW212525   0.966   2.855   4.103  0.8124 -1.3089 -1.3088
 4094SOL     OW12526   2.692   2.174   0.970 -0.3187  0.4380  0.0816
 4094SOL    HW112527   2.621   2.200   0.912 -0.5316  0.2719  0.2692
 4094SOL    HW212528   2.655   2.179   1.058 -0.4774 -0.8543  0.1011
 4095SOL     OW12529   2.611   3.839   2.988  0.5911  0.2613 -0.0863
 4095SOL    HW112530   2.572   3.843   2.900 -0.0986  0.3181  0.2194
 4095SOL    HW212531   2.705   3.847   2.972  0.5827 -0.9886 -0.9265
 4096SOL     OW12532   5.117   1.519   2.363  0.1443 -0.5073 -0.0317
 4096SOL    HW112533   5.051   1.459   2.327  1.2972 -1.2874 -0.9578
 4096SOL    HW212534   5.144   1.572   2.288 -0.2584  0.6154  0.6023
 4097SOL     OW12535   1.586   1.145   2.368 -0.0679 -0.1410 -0.5762
 4097SOL    HW112536   1.509   1.169   2.317 -0.4472  0.3437  0.2146
 4097SOL    HW212537   1.628   1.228   2.390  0.5170 -0.3852 -0.7314
 4098SOL     OW12538   0.247   2.911   0.305 -0.3591  0.0612  0.6880
 4098SOL    HW112539   0.164   2.958   0.296 -1.4110 -1.8413 -0.2558
 4098SOL    HW212540   0.299   2.940   0.230 -1.6275 -1.3892 -0.8267
 4099SOL     OW12541   4.008   1.673   1.945 -0.2411  0.7178 -0.1536
 4099SOL    HW112542   3.946   1.732   1.901 -0.4288  0.4026 -0.3138
 4099SOL    HW212543   4.047   1.727   2.013 -0.4641  1.0116 -0.2527
 4100SOL     OW12544   0.326   2.936   1.985  0.2936  0.0394 -0.5677
 4100SOL    HW112545   0.299   2.845   1.973  1.5734 -0.5655  0.7774
 4100SOL    HW212546   0.418   2.937   1.958  1.3884  0.0337  2.7242
 4101SOL     OW12547   0.827   2.197   5.949 -0.4819 -0.9188 -0.0100
 4101SOL    HW112548   0.797   2.207   5.859 -0.8863 -0.4803  0.1646
 4101SOL    HW212549   0.922   2.200   5.944 -0.5041  1.1494 -0.2266
 4102SOL     OW12550   5.305   2.862   4.682  0.9280  0.0641  0.3565
 4102SOL    HW112551   5.337   2.787   4.732 -1.3267 -0.3252  1.3303
 4102SOL    HW212552   5.382   2.918   4.670  2.0020 -0.8816  2.3957
 4103SOL     OW12553   4.136   1.946   4.001  0.0199 -0.2086 -0.2847
 4103SOL    HW112554   4.063   1.893   4.031 -0.8796  1.8717  1.4983
 4103SOL    HW212555   4.098   2.003   3.934  0.0169  0.7732  0.5338
 4104SOL     OW12556   4.502   3.815   4.549  0.3837 -1.1429  0.4847
 4104SOL    HW112557   4.454   3.808   4.632 -3.2189  0.2324 -1.2291
 4104SOL    HW212558   4.500   3.727   4.513 -0.1494 -1.2862  0.8491
 4105SOL     OW12559   2.231   1.301   2.625  0.1484  0.3275  0.3335
 4105SOL    HW112560   2.292   1.374   2.611  0.6023 -0.1034  0.0231
 4105SOL    HW212561   2.287   1.229   2.656 -0.0435 -0.3734 -0.8853
 4106SOL     OW12562   1.705   2.600   4.190 -0.5402 -0.7532  0.1763
 4106SOL    HW112563   1.631   2.623   4.245  0.5512 -1.3034  1.9500
 4106SOL    HW212564   1.747   2.684   4.170 -0.9174 -0.5543  0.2085
 4107SOL     OW12565   0.008   2.348   0.030 -0.2718  0.1192 -0.2405
 4107SOL    HW112566  -0.071   2.332  -0.021 -1.2992  0.7156  1.1218
 4107SOL    HW212567  -0.021   2.349   0.121  0.9155  2.5434  0.1872
 4108SOL     OW12568   2.559   1.901   4.888  0.0322  0.4390 -0.0046
 4108SOL    HW112569   2.556   1.811   4.857 -1.9621  0.9092 -1.3897
 4108SOL    HW212570   2.648   1.912   4.922  0.8520 -1.5425 -1.3301
 4109SOL     OW12571   4.130   0.509   2.819 -0.3047 -0.0400  0.6597
 4109SOL    HW112572   4.179   0.436   2.781 -0.8648 -0.8069  1.3742
 4109SOL    HW212573   4.086   0.549   2.744  1.8137  1.0440 -0.1080
 4110SOL     OW12574   3.093   5.582   6.046  0.7317  0.0100 -0.6947
 4110SOL    HW112575   3.009   5.553   6.012 -0.6746  1.0975  1.6209
 4110SOL    HW212576   3.096   5.676   6.028 -0.1883  0.6814  2.1868
 4111SOL     OW12577   1.653   0.027   3.347 -0.2690  0.1831 -0.1446
 4111SOL    HW112578   1.669   0.094   3.414 -0.0841 -1.5050  1.5831
 4111SOL    HW212579   1.595  -0.035   3.389 -1.6843 -0.0008 -2.2416
 4112SOL     OW12580   5.630   3.864   2.526 -0.0066 -0.0624 -0.5133
 4112SOL    HW112581   5.549   3.872   2.477  1.0334  1.3746 -2.1173
 4112SOL    HW212582   5.673   3.787   2.488 -0.3553 -0.4953 -0.0423
 4113SOL     OW12583   0.909   4.885   0.666 -0.3172  0.2301  1.0213
 4113SOL    HW112584   0.934   4.964   0.618 -1.7085  0.0437 -0.0830
 4113SOL    HW212585   0.982   4.869   0.726  1.3359  0.6956 -0.7789
 4114SOL     OW12586   6.054   5.110   5.443 -0.6432 -0.0475 -0.2748
 4114SOL    HW112587   6.040   5.025   5.485  0.2736 -0.1020 -0.0409
 4114SOL    HW212588   5.973   5.159   5.458 -0.1249  0.1866  2.2023
 4115SOL     OW12589   0.370   3.863   5.001  0.3160 -0.0621  0.0235
 4115SOL    HW112590   0.455   3.822   4.989  0.7354  0.9593 -0.5910
 4115SOL    HW212591   0.331   3.817   5.075  1.2213 -0.8174  0.0390
 4116SOL     OW12592   0.683   1.320   4.944  0.3355  0.6203 -0.1858
 4116SOL    HW112593   0.728   1.337   4.861  0.5606 -2.2744 -0.7891
 4116SOL    HW212594   0.751   1.282   5.000  0.0457  2.0044  1.1583
 4117SOL     OW12595   2.280   0.515   2.142  0.0805 -0.4700  0.1646
 4117SOL    HW112596   2.196   0.471   2.156 -0.4079  0.4124  0.0728
 4117SOL    HW212597   2.264   0.574   2.068  1.6505 -2.5197 -1.9702
 4118SOL     OW12598   3.745   4.003   4.559 -0.1455 -0.1126 -0.6125
 4118SOL    HW112599   3.789   3.954   4.490  0.9790  0.2526 -0.1717
 4118SOL    HW212600   3.763   4.095   4.540  0.6600 -0.0260  0.4657
 4119SOL     OW12601   1.187   4.635   1.695 -0.2703  0.1574 -0.5050
 4119SOL    HW112602   1.148   4.675   1.616  0.9176  0.5429 -0.9145
 4119SOL    HW212603   1.168   4.697   1.765 -0.5600  0.2461 -0.6584
 4120SOL     OW12604   2.236   0.510   0.385 -0.6908  0.8216  0.4823
 4120SOL    HW112605   2.326   0.478   0.384 -0.1809  2.1137  1.5110
 4120SOL    HW212606   2.228   0.558   0.302 -0.5393  0.4127  0.2292
 4121SOL     OW12607   0.037   4.835   3.004 -0.1172  0.0660 -0.0334
 4121SOL    HW112608   0.089   4.758   2.982 -0.0686 -0.2161  0.9967
 4121SOL    HW212609   0.089   4.909   2.974 -0.7424 -0.3029 -2.2392
 4122SOL     OW12610   5.986   5.653   3.510 -0.8068  0.1444 -0.0756
 4122SOL    HW112611   5.901   5.627   3.474 -0.0969  0.5741 -2.1978
 4122SOL    HW212612   6.050   5.619   3.447  0.5231  0.9705  0.7892
 4123SOL     OW12613   1.567   1.498   0.499 -0.5648  0.4562 -0.3531
 4123SOL    HW112614   1.535   1.431   0.558 -1.0291 -0.8913 -2.0494
 4123SOL    HW212615   1.643   1.459   0.456 -0.5088  1.2114 -0.9794
 4124SOL     OW12616   2.322   0.456   5.551  0.1159  0.1402  0.6440
 4124SOL    HW112617   2.409   0.443   5.589  0.3958 -1.1304 -0.3375
 4124SOL    HW212618   2.264   0.463   5.627  0.8504 -0.7969  1.3235
 4125SOL     OW12619   5.155   4.582   4.499 -0.0422  0.7007  0.6749
 4125SOL    HW112620   5.136   4.661   4.548  1.8506  0.8521  1.2512
 4125SOL    HW212621   5.131   4.603   4.408 -1.2902  1.2554  1.1109
 4126SOL     OW12622   3.630   1.540   4.233 -0.2629  0.1719  0.1077
 4126SOL    HW112623   3.592   1.522   4.319 -1.3114 -0.5535 -0.4926
 4126SOL    HW212624   3.649   1.634   4.235 -2.2537  0.6080  0.3840
 4127SOL     OW12625   3.681   5.169   0.179  0.2608 -0.3689 -0.4997
 4127SOL    HW112626   3.668   5.254   0.137 -1.7679 -0.6127 -0.4504
 4127SOL    HW212627   3.640   5.106   0.120  0.7205 -1.1778  0.0225
 4128SOL     OW12628   0.058   0.624   1.770 -0.5025  0.3886 -0.3919
 4128SOL    HW112629   0.146   0.587   1.763 -0.8203 -0.7409  1.1615
 4128SOL    HW212630  -0.000   0.550   1.752 -1.1459  0.7347  0.2385
 4129SOL     OW12631   2.156   5.422   2.323 -0.1157 -0.2364 -0.1840
 4129SOL    HW112632   2.064   5.407   2.344 -0.3811  0.0802 -1.0846
 4129SOL    HW212633   2.179   5.353   2.261  0.3528 -0.5116  0.2841
 4130SOL     OW12634   3.642   5.469   0.758  0.2294 -0.4012  0.1802
 4130SOL    HW112635   3.611   5.516   0.681 -0.8451 -0.2726  0.6716
 4130SOL    HW212636   3.735   5.489   0.763  0.7297 -1.8019 -2.0629
 4131SOL     OW12637   2.157   4.400   5.898  0.1526  0.1790 -0.0445
 4131SOL    HW112638   2.172   4.424   5.989  2.3152 -0.9122 -0.0520
 4131SOL    HW212639   2.228   4.441   5.850 -0.8804  0.6283 -1.2641
 4132SOL     OW12640   2.294   3.285   2.151 -0.0831  0.0298 -0.4893
 4132SOL    HW112641   2.309   3.299   2.244  0.2805  0.2805 -0.5826
 4132SOL    HW212642   2.226   3.219   2.147  0.0508 -0.1361 -0.0457
 4133SOL     OW12643   4.758   5.815   1.386  0.2725  0.2573 -0.6058
 4133SOL    HW112644   4.838   5.815   1.438 -0.0406 -0.7448 -0.0974
 4133SOL    HW212645   4.748   5.905   1.357  1.2239  0.5301 -0.1225
 4134SOL     OW12646   1.239   2.110   1.964 -0.3290  0.0833 -0.3542
 4134SOL    HW112647   1.165   2.091   1.906 -0.7520  2.9165 -0.9114
 4134SOL    HW212648   1.316   2.086   1.912 -0.7948 -0.8800 -0.6183
 4135SOL     OW12649   4.498   5.194   5.368 -0.5383 -0.3889  0.2084
 4135SOL    HW112650   4.557   5.138   5.316 -0.3076 -0.5515  0.6448
 4135SOL    HW212651   4.423   5.138   5.388 -0.0173 -0.7546  1.1933
 4136SOL     OW12652   5.676   1.012   3.470 -0.1711 -0.0448  0.2824
 4136SOL    HW112653   5.690   0.940   3.408  2.1682  0.1347  0.5232
 4136SOL    HW212654   5.707   1.090   3.423  0.0371  0.3466  1.0537
 4137SOL     OW12655   4.907   0.657   5.969  0.1173 -0.6774  0.5187
 4137SOL    HW112656   4.833   0.597   5.959  1.0693 -2.0989  1.4888
 4137SOL    HW212657   4.943   0.666   5.881 -1.7980  0.8888 -0.1636
 4138SOL     OW12658   4.337   5.831   2.239  0.2812 -0.3621 -0.2907
 4138SOL    HW112659   4.426   5.803   2.220  0.0914 -0.5850 -0.8687
 4138SOL    HW212660   4.347   5.909   2.294  0.8531  0.7426 -1.8912
 4139SOL     OW12661   1.805   5.406   1.909 -0.7597 -0.2779 -0.6034
 4139SOL    HW112662   1.777   5.384   1.820 -0.6305  1.3808 -1.0808
 4139SOL    HW212663   1.888   5.453   1.897 -1.6864  1.6457  0.2498
 4140SOL     OW12664   4.630   5.011   3.201  0.2900 -1.0246 -0.0174
 4140SOL    HW112665   4.563   5.063   3.156 -0.4808 -1.5419  0.4996
 4140SOL    HW212666   4.583   4.934   3.233  1.1016 -1.3069  0.5292
 4141SOL     OW12667   3.053   4.028   4.837  0.0115  0.2618  0.3056
 4141SOL    HW112668   3.027   3.949   4.790  0.7563  0.1780  0.0320
 4141SOL    HW212669   3.006   4.023   4.920 -0.3768 -0.1877  0.0639
 4142SOL     OW12670   5.678   0.665   4.744  0.8396  0.5217 -0.1006
 4142SOL    HW112671   5.713   0.616   4.819 -0.2135  1.2056  0.8861
 4142SOL    HW212672   5.587   0.635   4.737  1.5610 -1.3499 -2.7095
 4143SOL     OW12673   3.709   5.396   3.910  0.3658  0.4413 -0.6523
 4143SOL    HW112674   3.778   5.427   3.968  1.0515  1.0116 -1.7292
 4143SOL    HW212675   3.708   5.301   3.924 -0.6773  0.7177  1.5128
 4144SOL     OW12676   4.261   4.554   5.560  0.6101  0.1045 -0.3472
 4144SOL    HW112677   4.195   4.609   5.603  1.4315 -1.0112  2.5706
 4144SOL    HW212678   4.330   4.616   5.533  2.1885  0.6416  4.1219
 4145SOL     OW12679   3.994   0.448   0.103 -0.1164 -0.0465  0.4332
 4145SOL    HW112680   4.015   0.357   0.120  1.1288 -0.0204 -0.8735
 4145SOL    HW212681   3.932   0.471   0.173 -2.4793 -2.5822 -0.6570
 4146SOL     OW12682   2.590   3.653   1.822  0.4684  0.4997  0.2482
 4146SOL    HW112683   2.620   3.636   1.911 -0.1779 -0.2994  0.3233
 4146SOL    HW212684   2.522   3.720   1.832 -0.0961 -0.0951  0.4373
 4147SOL     OW12685   5.842   2.627   2.299 -0.0506 -0.0288  0.7403
 4147SOL    HW112686   5.917   2.677   2.267 -0.2696 -0.2278 -0.1060
 4147SOL    HW212687   5.766   2.677   2.271 -0.3065 -1.2639 -0.9397
 4148SOL     OW12688   2.697   4.474   0.207  0.1386 -0.3083 -0.9543
 4148SOL    HW112689   2.647   4.433   0.277 -2.4392  0.4178 -2.2611
 4148SOL    HW212690   2.747   4.543   0.251 -1.3499  0.0817  0.2028
 4149SOL     OW12691   0.273   0.811   2.969  0.4022  0.0094 -0.1116
 4149SOL    HW112692   0.336   0.882   2.968 -0.6456  0.9579 -0.4952
 4149SOL    HW212693   0.261   0.791   3.062  0.8312  0.2180 -0.0102
 4150SOL     OW12694   4.979   5.853   0.018  0.4473 -0.1263 -0.0399
 4150SOL    HW112695   5.039   5.778   0.020  0.1948 -0.4226 -1.9741
 4150SOL    HW212696   4.935   5.851   0.103  1.7509 -1.0685  0.6502
 4151SOL     OW12697   2.776   3.302   2.511  0.7479 -0.0884 -0.4946
 4151SOL    HW112698   2.792   3.238   2.581  2.1803 -0.1202 -0.8242
 4151SOL    HW212699   2.861   3.311   2.468  0.2929  1.2434 -1.1320
 4152SOL     OW12700   5.780   0.212   5.572  0.0626 -0.0649  0.0543
 4152SOL    HW112701   5.694   0.251   5.556  0.1016  0.3832  0.9051
 4152SOL    HW212702   5.828   0.280   5.620  0.1362 -1.1590  1.5801
 4153SOL     OW12703   3.140   0.464   0.880  0.1413 -0.1817 -0.1500
 4153SOL    HW112704   3.097   0.548   0.864 -1.9294 -1.3414 -0.9732
 4153SOL    HW212705   3.102   0.433   0.963  1.4866  0.0187  0.5720
 4154SOL     OW12706   5.805   2.477   0.825  0.0464 -0.1865  0.3769
 4154SOL    HW112707   5.739   2.475   0.757  1.0235 -0.2800 -0.5963
 4154SOL    HW212708   5.800   2.565   0.861 -0.0184  0.0849 -0.2876
 4155SOL     OW12709   5.240   4.610   3.061 -0.4913  0.2069 -0.5136
 4155SOL    HW112710   5.259   4.603   3.154 -2.1167 -1.6898 -0.2510
 4155SOL    HW212711   5.297   4.545   3.020 -0.9125 -0.1108 -0.6134
 4156SOL     OW12712   1.955   5.385   5.825  0.0624  0.2798  0.6852
 4156SOL    HW112713   1.958   5.476   5.853 -1.4339  0.8236 -0.8180
 4156SOL    HW212714   1.862   5.367   5.812  0.4379 -1.0946 -0.2209
 4157SOL     OW12715   1.183   1.202   4.134  0.3366  0.4873 -0.2480
 4157SOL    HW112716   1.170   1.117   4.092  3.0760 -0.4562  0.5934
 4157SOL    HW212717   1.095   1.231   4.157 -0.6738 -3.0077  1.0761
 4158SOL     OW12718   5.542   2.523   3.308 -0.0398 -0.3833 -0.3285
 4158SOL    HW112719   5.476   2.501   3.243  0.5349 -0.1418 -1.0116
 4158SOL    HW212720   5.505   2.495   3.391 -0.4926 -1.3413 -0.8424
 4159SOL     OW12721   1.275   1.426   2.432  0.6679 -0.4496 -0.2332
 4159SOL    HW112722   1.312   1.384   2.509  2.1333  0.1701 -0.5657
 4159SOL    HW212723   1.265   1.517   2.457  0.3414 -0.4121 -0.4967
 4160SOL     OW12724   0.734   3.484   0.839 -0.4894 -0.2924 -0.2458
 4160SOL    HW112725   0.794   3.479   0.913 -1.1948  1.6385  0.5232
 4160SOL    HW212726   0.789   3.508   0.764 -0.0954  0.0383  0.1470
 4161SOL     OW12727   2.613   5.010   3.726 -0.1473 -0.3041  0.1422
 4161SOL    HW112728   2.551   4.985   3.795 -0.8993 -2.1083 -1.1156
 4161SOL    HW212729   2.681   4.943   3.730 -1.6637 -2.1659 -2.6397
 4162SOL     OW12730   0.748   1.990   5.625  0.0059  0.3002 -0.6222
 4162SOL    HW112731   0.806   1.969   5.552  1.2666  0.2696  0.3580
 4162SOL    HW212732   0.769   2.082   5.646  0.7155 -0.1238  0.6185
 4163SOL     OW12733   1.662   0.109   3.038  0.0220  0.0333  0.3816
 4163SOL    HW112734   1.718   0.056   2.982  0.0225  0.8058 -0.3710
 4163SOL    HW212735   1.640   0.052   3.112  1.0813 -0.5614  0.2472
 4164SOL     OW12736   5.598   4.053   4.191 -0.6120 -0.5280 -0.2014
 4164SOL    HW112737   5.682   4.057   4.237 -1.2856 -0.1751  1.0647
 4164SOL    HW212738   5.584   3.960   4.173 -0.0336 -0.6040 -0.2756
 4165SOL     OW12739   2.097   5.477   2.939  0.0995 -0.4286 -0.1280
 4165SOL    HW112740   2.094   5.570   2.918  0.0015 -0.1732  0.9504
 4165SOL    HW212741   2.174   5.467   2.995 -1.5104 -0.4162  2.2649
 4166SOL     OW12742   6.084   5.160   1.326  0.5692  0.3245 -0.4576
 4166SOL    HW112743   6.058   5.166   1.418  0.9463 -3.5818  0.0538
 4166SOL    HW212744   6.179   5.164   1.327  0.5616  0.6857 -0.7494
 4167SOL     OW12745   3.821   0.718   2.641  0.1433  1.3791  0.3975
 4167SOL    HW112746   3.801   0.665   2.718  1.7535  0.4544  0.2265
 4167SOL    HW212747   3.893   0.672   2.598 -3.1249 -0.5065 -3.9555
 4168SOL     OW12748   3.440   3.741   2.949 -0.1642 -0.4749  0.0746
 4168SOL    HW112749   3.513   3.712   2.894  0.0592 -0.2963  0.2705
 4168SOL    HW212750   3.380   3.785   2.889  0.6211  0.7347  0.1372
 4169SOL     OW12751   3.285   5.706   2.508 -0.3110  0.2853 -0.1297
 4169SOL    HW112752   3.242   5.640   2.563  1.4452 -0.1210  0.8400
 4169SOL    HW212753   3.219   5.775   2.497 -1.7906 -1.0695 -0.1819
 4170SOL     OW12754   3.978   3.876   1.086 -0.2313 -0.1619  0.0629
 4170SOL    HW112755   4.049   3.811   1.085 -0.2024 -0.3173  3.0164
 4170SOL    HW212756   3.898   3.824   1.081 -0.1740 -0.3798  1.0660
 4171SOL     OW12757   1.580   4.887   4.103  0.4870  0.7605  0.0062
 4171SOL    HW112758   1.535   4.953   4.155  0.4890 -0.2410  1.3258
 4171SOL    HW212759   1.673   4.902   4.119  0.5712  1.5114 -1.0747
 4172SOL     OW12760   4.023   2.869   1.642 -0.1371  0.3104 -0.0472
 4172SOL    HW112761   4.081   2.799   1.611 -0.8352  0.0020 -0.6966
 4172SOL    HW212762   3.939   2.851   1.599 -0.3293  1.5556 -0.2379
 4173SOL     OW12763   1.520   2.930   0.574 -0.1928 -0.3463 -0.5021
 4173SOL    HW112764   1.536   2.836   0.572 -0.9030 -0.5056  0.3650
 4173SOL    HW212765   1.433   2.940   0.535 -1.5101 -0.4328  2.1579
 4174SOL     OW12766   2.008   2.316   5.299  0.2045 -0.1634 -0.3072
 4174SOL    HW112767   2.042   2.246   5.244 -2.9870 -0.6302 -1.9151
 4174SOL    HW212768   2.062   2.392   5.277  1.5653 -1.2969 -1.0620
 4175SOL     OW12769   4.709   1.871   3.671  0.0441  0.2799  0.0470
 4175SOL    HW112770   4.694   1.964   3.654  0.8001  0.3229 -0.4674
 4175SOL    HW212771   4.728   1.833   3.585 -1.7573 -0.6650  0.0232
 4176SOL     OW12772   3.919   0.294   4.325  0.0957  0.6968  0.1933
 4176SOL    HW112773   3.839   0.309   4.274 -0.1002  0.2823  0.3790
 4176SOL    HW212774   3.989   0.329   4.270 -0.1042  0.1902 -0.3933
 4177SOL     OW12775   2.744   2.761   0.070 -0.1358 -0.0124  0.7242
 4177SOL    HW112776   2.649   2.768   0.063 -0.4339  0.4983  3.7251
 4177SOL    HW212777   2.773   2.852   0.085  0.7996 -0.1999  0.1203
 4178SOL     OW12778   3.543   5.776   1.522  0.0750  0.3272  0.3292
 4178SOL    HW112779   3.537   5.720   1.600  2.0359  0.1611  0.4219
 4178SOL    HW212780   3.500   5.857   1.547 -1.6426 -0.6426  0.6566
 4179SOL     OW12781   0.369   3.790   4.147  0.2930  1.2593  0.2854
 4179SOL    HW112782   0.297   3.734   4.177  1.3577  0.6022  1.6801
 4179SOL    HW212783   0.336   3.827   4.065 -0.3655 -1.5938 -0.8646
 4180SOL     OW12784   1.043   5.016   5.032 -0.2768  0.0687  0.3555
 4180SOL    HW112785   1.072   5.028   4.942  1.7453 -1.6426  0.7088
 4180SOL    HW212786   0.965   4.962   5.025 -0.3263  0.2267 -0.3650
 4181SOL     OW12787   2.576   1.504   3.717 -0.5462 -0.6468  0.2198
 4181SOL    HW112788   2.635   1.572   3.685  0.7500 -1.4850  0.7330
 4181SOL    HW212789   2.631   1.426   3.725 -1.4893 -1.2104  1.6981
 4182SOL     OW12790   3.014   4.392   5.418 -0.4676 -0.1540  0.5756
 4182SOL    HW112791   2.990   4.324   5.355  0.0695  1.3794 -1.3804
 4182SOL    HW212792   3.066   4.346   5.485  0.3842 -1.5790 -1.0031
 4183SOL     OW12793   0.008   2.033   6.033  0.1889 -0.0024  0.5316
 4183SOL    HW112794   0.039   2.104   5.978  2.3112 -1.8398 -0.8123
 4183SOL    HW212795  -0.067   2.070   6.080  0.1590  2.5529 -1.3273
 4184SOL     OW12796   1.946   1.747   5.476  0.1711 -0.1507  0.3311
 4184SOL    HW112797   2.033   1.721   5.448  0.5127  0.7455  0.5027
 4184SOL    HW212798   1.917   1.810   5.410  1.0217  2.0391  1.9116
 4185SOL     OW12799   2.966   4.265   0.200  0.2001 -0.0837  0.2214
 4185SOL    HW112800   2.969   4.312   0.283 -0.6004 -0.5199  0.5113
 4185SOL    HW212801   2.872   4.254   0.182  0.3050  1.2529 -1.4660
 4186SOL     OW12802   4.750   3.354   4.035 -0.1429 -0.2412  0.1953
 4186SOL    HW112803   4.841   3.376   4.053 -0.3880  0.3226  0.7710
 4186SOL    HW212804   4.747   3.342   3.940  0.3170  0.7707  0.0383
 4187SOL     OW12805   1.125   3.925   3.891  0.1338  1.0820  0.7422
 4187SOL    HW112806   1.046   3.909   3.941  0.6136  0.3324  1.2848
 4187SOL    HW212807   1.193   3.875   3.936  1.0192  2.0596  0.5553
 4188SOL     OW12808   2.739   4.005   1.803 -0.4876 -0.2832 -0.5423
 4188SOL    HW112809   2.750   3.939   1.871  0.5668  0.9131  0.4988
 4188SOL    HW212810   2.787   3.969   1.728  0.8893 -0.3109  0.3078
 4189SOL     OW12811   3.184   1.556   1.429 -0.1503 -0.4752  0.0365
 4189SOL    HW112812   3.274   1.584   1.413  0.6969 -3.3267 -0.8180
 4189SOL    HW212813   3.132   1.606   1.367  1.3204 -1.1438 -1.8338
 4190SOL     OW12814   3.154   5.822   3.466 -0.3377  0.6737 -0.5441
 4190SOL    HW112815   3.141   5.847   3.557 -1.0039  0.5392 -0.5969
 4190SOL    HW212816   3.235   5.865   3.440  1.0912 -1.0738  0.7622
 4191SOL     OW12817   5.512   6.064   3.890  0.5498  0.3226 -0.1149
 4191SOL    HW112818   5.540   5.982   3.848  1.4108  0.3803  0.3223
 4191SOL    HW212819   5.573   6.075   3.963 -1.1482 -0.0024  1.4541
 4192SOL     OW12820   5.130   5.600   0.032 -0.0105 -0.4476 -0.7098
 4192SOL    HW112821   5.160   5.582   0.122 -1.6351 -0.2055 -0.0933
 4192SOL    HW212822   5.063   5.533   0.016 -0.5463  0.2278 -1.3082
 4193SOL     OW12823   0.037   1.672   5.482  0.2735 -0.0709  0.0530
 4193SOL    HW112824   0.008   1.752   5.437 -0.7231 -0.2337  0.3913
 4193SOL    HW212825   0.026   1.603   5.417  4.1267  0.4452 -1.3697
 4194SOL     OW12826   5.058   4.546   1.952 -0.2787  0.4469 -0.6047
 4194SOL    HW112827   5.080   4.539   1.859  0.9307 -2.2128 -0.2247
 4194SOL    HW212828   5.023   4.459   1.974 -0.2527  0.9345  1.4821
 4195SOL     OW12829   3.451   2.986   2.840 -0.2271  0.6578 -0.5347
 4195SOL    HW112830   3.375   2.928   2.850  0.6539 -0.5318 -0.5048
 4195SOL    HW212831   3.450   3.041   2.918 -0.3741 -0.1845  0.0663
 4196SOL     OW12832   3.966   3.312   1.372 -0.0377  0.6929 -0.1808
 4196SOL    HW112833   3.961   3.361   1.290 -1.7362  1.5041  0.3467
 4196SOL    HW212834   3.884   3.262   1.375  0.0811  0.5463  0.9217
 4197SOL     OW12835   5.656   5.732   0.204 -0.2459  0.1263  0.6419
 4197SOL    HW112836   5.689   5.820   0.224 -4.8473  2.1876  0.6021
 4197SOL    HW212837   5.707   5.673   0.259  1.9725  2.9700  1.8961
 4198SOL     OW12838   2.344   4.280   0.990 -0.7896  0.0436 -0.0133
 4198SOL    HW112839   2.427   4.305   1.032 -1.4255  2.6548 -0.1492
 4198SOL    HW212840   2.311   4.208   1.044  1.1802 -0.5609  0.4773
 4199SOL     OW12841   1.016   2.265   2.891 -0.2468 -0.4230 -0.9064
 4199SOL    HW112842   1.086   2.211   2.855 -0.2982 -1.7490  0.8526
 4199SOL    HW212843   0.945   2.258   2.827  0.6726 -0.2872 -1.9723
 4200SOL     OW12844   0.824   2.569   5.877  0.2087  0.0282  0.3194
 4200SOL    HW112845   0.870   2.543   5.957  0.6671 -0.2545 -0.0281
 4200SOL    HW212846   0.870   2.647   5.847  0.2852 -0.0876  0.1285
 4201SOL     OW12847   2.730   2.475   3.606  0.5905  0.6323  0.3767
 4201SOL    HW112848   2.775   2.391   3.605 -1.0964 -0.3100 -0.5054
 4201SOL    HW212849   2.770   2.526   3.536  1.8853  0.7480  1.1687
 4202SOL     OW12850   3.985   1.034   5.788  0.3097 -0.6835 -0.1161
 4202SOL    HW112851   4.004   1.109   5.732  1.7167  0.0612  1.2777
 4202SOL    HW212852   3.895   1.047   5.817  1.1209  1.5720  1.6388
 4203SOL     OW12853   2.416   1.191   2.824  0.1493  0.5478 -0.0108
 4203SOL    HW112854   2.433   1.098   2.838  1.4424  0.6418 -0.7975
 4203SOL    HW212855   2.349   1.213   2.889 -0.2471 -0.9447  0.1184
 4204SOL     OW12856   2.495   0.571   0.146 -0.2473 -0.3563 -0.0766
 4204SOL    HW112857   2.512   0.499   0.208 -0.5250 -0.2651  0.1072
 4204SOL    HW212858   2.407   0.600   0.167  0.4457  1.1212  0.9437
 4205SOL     OW12859   5.601   1.279   5.323  0.6213 -0.1326 -0.1491
 4205SOL    HW112860   5.677   1.275   5.266  0.8472  0.4704  0.1019
 4205SOL    HW212861   5.610   1.362   5.370  0.3253 -0.5155  0.6000
 4206SOL     OW12862   4.510   4.413   1.649 -0.1948 -0.1824  0.2316
 4206SOL    HW112863   4.592   4.363   1.637  0.5920  0.8880  0.9758
 4206SOL    HW212864   4.475   4.421   1.560  0.8389 -0.1231 -0.1938
 4207SOL     OW12865   4.169   4.192   1.353  0.5398 -0.4027 -0.7340
 4207SOL    HW112866   4.087   4.241   1.344  0.8087 -0.1120 -1.6457
 4207SOL    HW212867   4.233   4.258   1.380 -0.0236 -1.0589  2.6463
 4208SOL     OW12868   1.728   1.355   2.474  0.3354 -0.0566  0.3891
 4208SOL    HW112869   1.790   1.427   2.463 -0.1793  0.4615  0.8600
 4208SOL    HW212870   1.710   1.353   2.568 -1.7161  0.9538  0.0782
 4209SOL     OW12871   2.531   4.527   4.968 -0.4268  0.3636  0.3018
 4209SOL    HW112872   2.605   4.498   4.915 -1.8298 -1.6724 -0.6669
 4209SOL    HW212873   2.456   4.525   4.909 -1.7899 -0.5535  1.9456
 4210SOL     OW12874   4.659   0.538   1.863 -0.2949  0.4478 -0.2242
 4210SOL    HW112875   4.690   0.540   1.772  0.8013  1.0176  0.1508
 4210SOL    HW212876   4.622   0.451   1.873  1.5321 -0.4149 -0.5951
 4211SOL     OW12877   3.986   0.786   5.188  0.4928 -0.2857 -0.3047
 4211SOL    HW112878   4.005   0.703   5.233  0.7587 -0.6305 -1.0267
 4211SOL    HW212879   4.051   0.847   5.222  2.8326 -1.3522 -2.4732
 4212SOL     OW12880   2.646   1.074   4.486 -0.9732  0.2580 -0.6029
 4212SOL    HW112881   2.722   1.113   4.444  0.1740 -0.8112  0.4224
 4212SOL    HW212882   2.601   1.149   4.527  0.6518  0.7006  0.4953
 4213SOL     OW12883   4.449   0.047   6.033 -0.0616 -0.0581 -0.1580
 4213SOL    HW112884   4.355   0.042   6.048  0.2145 -1.2584  1.3683
 4213SOL    HW212885   4.470  -0.034   5.987  0.2536  0.1636 -0.4091
 4214SOL     OW12886   0.334   0.305   5.731 -0.2142  0.1018  0.4330
 4214SOL    HW112887   0.403   0.262   5.781 -1.3910 -0.2857  1.7910
 4214SOL    HW212888   0.329   0.255   5.649  2.1713  1.1387 -0.4502
 4215SOL     OW12889   5.956   1.103   4.772  0.0243 -0.0257 -0.1802
 4215SOL    HW112890   5.889   1.045   4.734  1.2961 -0.0509 -2.5988
 4215SOL    HW212891   6.038   1.056   4.758  0.6903  0.3262  2.1116
 4216SOL     OW12892   3.118   3.196   5.108  0.5989  0.2423  0.3584
 4216SOL    HW112893   3.069   3.245   5.174 -1.6873 -0.7521 -0.5174
 4216SOL    HW212894   3.064   3.200   5.030  1.5266 -1.6294 -0.4330
 4217SOL     OW12895   2.840   4.049   2.600  0.5775  0.3994 -0.1114
 4217SOL    HW112896   2.928   4.079   2.618  0.9709 -1.1545  0.7056
 4217SOL    HW212897   2.846   3.953   2.600 -1.5316  0.1480  2.4229
 4218SOL     OW12898   1.942   0.211   1.975  0.0377 -0.6535  0.1627
 4218SOL    HW112899   1.901   0.297   1.976  0.0273 -0.6596  0.5073
 4218SOL    HW212900   1.981   0.204   1.888 -0.9946 -0.7922 -0.3115
 4219SOL     OW12901   5.756   5.524   1.677  0.6594 -0.2369  0.0583
 4219SOL    HW112902   5.752   5.494   1.586  0.9538 -0.1221  0.0076
 4219SOL    HW212903   5.724   5.449   1.728  1.4833 -0.6887 -0.0615
 4220SOL     OW12904   2.420   0.810   2.660  0.6701  0.2258 -1.0468
 4220SOL    HW112905   2.438   0.874   2.592 -0.1478  0.0314 -1.4548
 4220SOL    HW212906   2.416   0.726   2.614  0.7868  0.0028 -0.6562
 4221SOL     OW12907   2.808   4.868   5.364 -0.4174 -0.2045 -0.3983
 4221SOL    HW112908   2.867   4.796   5.384 -0.6027 -0.2291  0.0758
 4221SOL    HW212909   2.775   4.896   5.449 -0.6777  0.1573 -0.6160
 4222SOL     OW12910   1.205   0.955   4.783 -0.1013 -0.2692  0.3324
 4222SOL    HW112911   1.219   0.880   4.841 -0.0999 -0.0358  0.6330
 4222SOL    HW212912   1.118   0.987   4.805 -0.2433 -0.3883 -0.0346
 4223SOL     OW12913   4.063   1.473   0.930 -0.2417  0.1535  0.1759
 4223SOL    HW112914   4.078   1.385   0.964  1.0901  0.1231 -0.4428
 4223SOL    HW212915   4.108   1.531   0.990 -0.7056  0.3865  0.3075
 4224SOL     OW12916   2.705   5.686   0.733  0.4440 -0.5012 -0.1673
 4224SOL    HW112917   2.699   5.710   0.640  1.8553 -0.4470 -0.2666
 4224SOL    HW212918   2.684   5.592   0.735 -2.0470 -0.0219 -0.1780
 4225SOL     OW12919   2.576   5.153   2.640 -0.1103  0.6579  0.1816
 4225SOL    HW112920   2.498   5.131   2.690 -0.0557  0.0404 -0.0007
 4225SOL    HW212921   2.633   5.198   2.702  0.1385 -0.4737  0.8005
 4226SOL     OW12922   1.620   4.114   1.082 -0.4690 -0.1220 -0.1381
 4226SOL    HW112923   1.664   4.088   1.001 -2.2365  0.9094 -1.4934
 4226SOL    HW212924   1.665   4.195   1.109 -0.3199 -0.0961 -0.4651
 4227SOL     OW12925   0.831   1.387   5.921 -0.0749  0.1493  0.2676
 4227SOL    HW112926   0.907   1.332   5.903  1.1501  2.2514 -1.4341
 4227SOL    HW212927   0.856   1.438   5.998 -0.3277 -0.0701  0.5019
 4228SOL     OW12928   3.416   3.479   2.014 -0.1450  0.4570  0.1062
 4228SOL    HW112929   3.491   3.517   1.968  0.5631 -0.9239  0.0630
 4228SOL    HW212930   3.449   3.395   2.048 -1.4274  0.2231  0.8252
 4229SOL     OW12931   1.063   3.545   3.177  0.4055  0.4140 -0.0828
 4229SOL    HW112932   0.973   3.512   3.183  1.5397 -2.8219  1.0582
 4229SOL    HW212933   1.076   3.594   3.258 -0.5746  1.7790 -0.7111
 4230SOL     OW12934   3.805   2.595   5.944 -0.2317  0.3851  0.6528
 4230SOL    HW112935   3.761   2.514   5.971  0.0350  0.4935  1.4346
 4230SOL    HW212936   3.794   2.654   6.018  1.7823  0.1913  1.1492
 4231SOL     OW12937   3.541   2.905   3.642  0.5764 -0.0363  0.4262
 4231SOL    HW112938   3.571   2.925   3.553  1.2127  1.7798  0.9860
 4231SOL    HW212939   3.466   2.848   3.631  0.9124 -0.1909 -1.2616
 4232SOL     OW12940   5.245   4.649   5.959 -0.0879 -0.3245 -0.0047
 4232SOL    HW112941   5.215   4.733   5.925  0.7428 -0.4906 -1.2464
 4232SOL    HW212942   5.167   4.594   5.961 -0.4729  0.2216 -0.0228
 4233SOL     OW12943   1.302   2.686   0.011  0.1634 -0.1843  0.0783
 4233SOL    HW112944   1.353   2.745   0.067 -0.4016  1.0655 -0.6578
 4233SOL    HW212945   1.276   2.614   0.068  1.6911 -0.2242  0.7744
 4234SOL     OW12946   1.321   2.445   4.142 -0.2477 -0.2533  0.4026
 4234SOL    HW112947   1.301   2.377   4.078  1.3982  0.1805 -0.6615
 4234SOL    HW212948   1.408   2.422   4.175 -1.0918 -0.5090  2.5960
 4235SOL     OW12949   4.038   4.730   5.005 -0.1228 -0.2333  0.2327
 4235SOL    HW112950   4.068   4.813   4.968  0.0821  0.0997  1.1217
 4235SOL    HW212951   4.079   4.725   5.091 -0.7348 -0.9027  0.5039
 4236SOL     OW12952   1.804   1.602   3.700 -0.3192 -0.4814  0.4750
 4236SOL    HW112953   1.886   1.596   3.650 -0.1357  1.1222  0.5397
 4236SOL    HW212954   1.742   1.643   3.640 -0.6431 -0.3130  0.9165
 4237SOL     OW12955   3.742   3.198   5.567  0.2183 -0.4657 -0.4815
 4237SOL    HW112956   3.715   3.113   5.601 -2.2080 -0.1506 -1.3665
 4237SOL    HW212957   3.835   3.189   5.549  0.1523 -2.7214  0.0143
 4238SOL     OW12958   2.602   2.929   0.591  0.1046 -0.2184 -0.1022
 4238SOL    HW112959   2.665   2.987   0.548 -0.7525 -0.7286 -2.1276
 4238SOL    HW212960   2.656   2.862   0.633  0.9588  0.2268 -0.4608
 4239SOL     OW12961   2.486   4.053   5.946  0.1740 -0.6652  0.0769
 4239SOL    HW112962   2.475   4.106   6.024  1.6839 -2.5209  1.6457
 4239SOL    HW212963   2.567   4.085   5.906 -0.0568 -0.3896 -0.1741
 4240SOL     OW12964   5.844   5.873   4.955 -0.4313  0.2070 -0.3489
 4240SOL    HW112965   5.859   5.956   4.910 -0.8163  0.2146 -0.4694
 4240SOL    HW212966   5.928   5.828   4.952 -0.2800  0.4975 -0.4797
 4241SOL     OW12967   4.641   5.024   5.710  0.5158 -0.0837 -0.7181
 4241SOL    HW112968   4.564   5.020   5.654 -0.2794 -0.0974  0.3489
 4241SOL    HW212969   4.606   5.020   5.799  1.7851 -0.6891 -0.2255
 4242SOL     OW12970   5.979   0.965   5.717 -0.4858  0.3364  0.1672
 4242SOL    HW112971   5.958   0.873   5.706  0.2898 -0.0807  1.8769
 4242SOL    HW212972   6.052   0.980   5.656 -0.2706 -0.3177  0.2564
 4243SOL     OW12973   0.765   5.970   3.466 -0.2385  0.4699  0.1671
 4243SOL    HW112974   0.735   5.962   3.557 -1.8378 -2.4945 -0.4783
 4243SOL    HW212975   0.834   5.905   3.459 -0.6019  0.1852 -0.8808
 4244SOL     OW12976   1.826   4.509   4.676  0.1337 -0.1183 -0.7294
 4244SOL    HW112977   1.800   4.523   4.767 -0.9312  0.0592 -1.0477
 4244SOL    HW212978   1.743   4.503   4.628  0.6659 -0.8864 -1.5871
 4245SOL     OW12979   5.214   2.015   3.488 -0.2945 -0.5325  0.2148
 4245SOL    HW112980   5.141   1.978   3.439 -0.7450  0.2931  0.2481
 4245SOL    HW212981   5.187   2.105   3.508  1.2666  0.2736 -0.9686
 4246SOL     OW12982   0.387   5.857   1.109  0.5722 -0.7187  0.3930
 4246SOL    HW112983   0.396   5.952   1.107 -0.2899 -0.5987  1.5877
 4246SOL    HW212984   0.476   5.824   1.092  0.7329  0.2666 -0.8471
 4247SOL     OW12985   1.608   5.096   2.577 -0.3640  0.4085  0.1688
 4247SOL    HW112986   1.622   5.073   2.669  0.0764 -0.2327 -0.0484
 4247SOL    HW212987   1.567   5.183   2.579 -2.6509 -0.6209  1.0435
 4248SOL     OW12988   2.377   4.203   0.024 -0.2810 -0.0827  0.1924
 4248SOL    HW112989   2.356   4.152   0.103 -0.5185  0.1428  0.2752
 4248SOL    HW212990   2.314   4.275   0.024 -0.7151 -0.4542 -0.5600
 4249SOL     OW12991   2.126   2.655   3.969 -0.2830 -0.6632 -0.4378
 4249SOL    HW112992   2.188   2.709   4.017 -1.0162 -0.6583  0.5352
 4249SOL    HW212993   2.099   2.587   4.031 -0.9629 -0.8877 -0.9605
 4250SOL     OW12994   4.877   3.677   4.131 -0.5618 -0.7947  0.3006
 4250SOL    HW112995   4.963   3.642   4.104 -0.3144  1.3632 -2.1870
 4250SOL    HW212996   4.898   3.747   4.192 -0.6978 -1.3798  1.0311
 4251SOL     OW12997   5.917   1.734   4.352  0.0872  0.5198  0.4104
 4251SOL    HW112998   5.914   1.691   4.437 -0.4593  0.8192  0.5491
 4251SOL    HW212999   6.005   1.772   4.346  0.0896  0.5847  0.8818
 4252SOL     OW13000   2.641   4.176   2.757  0.3610 -0.3366  0.1511
 4252SOL    HW113001   2.696   4.222   2.819 -0.1475 -0.8628  1.0070
 4252SOL    HW213002   2.696   4.165   2.679  0.9303  0.5053  0.4238
 4253SOL     OW13003   4.586   0.348   0.836  0.3514  0.3636 -0.0090
 4253SOL    HW113004   4.551   0.342   0.747  2.3496 -0.5209 -0.7854
 4253SOL    HW213005   4.509   0.343   0.892 -0.9990  1.3206 -1.6742
 4254SOL     OW13006   1.520   5.327   4.467  0.5036 -0.2518  0.2001
 4254SOL    HW113007   1.598   5.293   4.510  0.4784  0.2733  0.6732
 4254SOL    HW213008   1.449   5.272   4.500  0.7635 -1.3198 -0.9170
 4255SOL     OW13009   2.833   0.298   5.479  0.2101 -0.3985 -0.2630
 4255SOL    HW113010   2.926   0.273   5.480  0.4815  0.3947 -1.7443
 4255SOL    HW213011   2.787   0.221   5.511  1.4016 -0.6537  0.9256
 4256SOL     OW13012   2.898   1.116   0.791  0.5541  0.1649 -0.5800
 4256SOL    HW113013   2.903   1.034   0.742 -0.1840  1.3146 -2.6725
 4256SOL    HW213014   2.935   1.182   0.733  2.4133  1.1654  1.5825
 4257SOL     OW13015   2.015   4.451   5.245  0.4447  0.9056  0.1879
 4257SOL    HW113016   1.980   4.540   5.241 -0.5263  0.6886  2.2737
 4257SOL    HW213017   1.954   4.399   5.193 -0.6694  1.0369  1.3023
 4258SOL     OW13018   5.644   6.004   2.991  0.0116 -0.1191 -0.6141
 4258SOL    HW113019   5.586   6.037   3.060  0.4902 -0.4893 -0.0284
 4258SOL    HW213020   5.591   6.007   2.912 -1.0815 -1.2253  0.0542
 4259SOL     OW13021   4.205   1.128   1.497 -0.1445  0.3634  0.1130
 4259SOL    HW113022   4.228   1.217   1.524  0.7023 -0.2649  1.5859
 4259SOL    HW213023   4.289   1.081   1.495 -0.6509 -0.5585  0.0210
 4260SOL     OW13024   3.859   4.317   2.925 -0.6076  0.7523  0.4486
 4260SOL    HW113025   3.802   4.262   2.872 -0.4715  0.8999  0.1469
 4260SOL    HW213026   3.812   4.327   3.008 -0.0679 -0.8329  0.9830
 4261SOL     OW13027   5.117   0.542   0.006 -0.3506 -0.0507 -0.4984
 4261SOL    HW113028   5.083   0.458   0.037  0.5429  0.4471  2.1179
 4261SOL    HW213029   5.046   0.580  -0.045 -3.5141  0.5486  3.8649
 4262SOL     OW13030   0.661   5.811   1.053 -0.3844 -0.0180 -0.3454
 4262SOL    HW113031   0.709   5.732   1.076 -0.6351  0.4177  1.8582
 4262SOL    HW213032   0.717   5.883   1.085 -1.4765  0.5642  0.3177
 4263SOL     OW13033   5.354   3.807   1.240 -0.6241 -0.0949  0.4666
 4263SOL    HW113034   5.390   3.895   1.232 -0.2591 -0.3195 -0.6118
 4263SOL    HW213035   5.307   3.793   1.157 -0.4649 -1.0038  0.5195
 4264SOL     OW13036   2.769   5.968   1.890  0.8382  0.0097 -0.4077
 4264SOL    HW113037   2.756   5.888   1.940  2.3003 -1.3365 -2.0611
 4264SOL    HW213038   2.692   5.974   1.833 -0.7903  1.5048  1.7678
 4265SOL     OW13039   5.313   2.329   1.893  0.2767  0.0652 -0.2293
 4265SOL    HW113040   5.391   2.348   1.945 -0.5373 -1.4435  1.6111
 4265SOL    HW213041   5.258   2.407   1.904 -0.0647 -0.3882  1.5674
 4266SOL     OW13042   2.635   5.619   5.156 -0.3886 -0.0658 -0.3986
 4266SOL    HW113043   2.714   5.659   5.121 -0.6913  2.2564  1.3465
 4266SOL    HW213044   2.665   5.535   5.192  0.8955 -0.0355 -1.3130
 4267SOL     OW13045   0.724   1.605   4.799  0.2058 -1.0008 -0.2314
 4267SOL    HW113046   0.749   1.513   4.791 -0.2067 -1.0942 -0.4661
 4267SOL    HW213047   0.632   1.603   4.825 -0.1016 -0.6541 -1.2570
 4268SOL     OW13048   0.459   5.836   2.223  0.4622 -0.5439 -0.0323
 4268SOL    HW113049   0.370   5.814   2.251  0.7043 -1.7793 -0.1807
 4268SOL    HW213050   0.451   5.855   2.130 -0.1328  2.3742  0.4947
 4269SOL     OW13051   2.761   0.849   0.830  0.1829  0.2370 -0.0143
 4269SOL    HW113052   2.680   0.900   0.821 -1.1310 -1.5737  0.8290
 4269SOL    HW213053   2.762   0.794   0.751  1.6107  1.5243 -0.9435
 4270SOL     OW13054   4.189   1.248   2.244  0.0617  0.6789  0.1976
 4270SOL    HW113055   4.110   1.297   2.221  0.8843  0.7981 -2.8286
 4270SOL    HW213056   4.191   1.249   2.340 -3.8076  0.2935  0.4437
 4271SOL     OW13057   4.022   1.664   4.983 -0.0079  0.6349  0.4413
 4271SOL    HW113058   4.109   1.628   4.968 -0.0759 -0.1163  1.6931
 4271SOL    HW213059   3.989   1.685   4.896  0.7241 -0.7121 -0.1875
 4272SOL     OW13060   0.945   4.199   1.124 -0.3288 -0.2267 -0.3329
 4272SOL    HW113061   1.002   4.195   1.047  0.3999 -1.1373  0.2314
 4272SOL    HW213062   1.006   4.211   1.197 -0.8056 -1.6900  0.3374
 4273SOL     OW13063   4.082   2.749   3.643  0.1440 -0.0712 -0.1130
 4273SOL    HW113064   4.108   2.731   3.733 -2.4716 -0.2723  0.6858
 4273SOL    HW213065   4.084   2.844   3.635 -0.3441 -0.0175  0.4011
 4274SOL     OW13066   5.685   4.377   3.144  0.0895  0.2333  0.0001
 4274SOL    HW113067   5.743   4.331   3.083 -1.9051 -1.4793 -0.7194
 4274SOL    HW213068   5.740   4.444   3.183  1.9369  0.1972 -2.3318
 4275SOL     OW13069   4.714   1.749   2.872  0.1441  0.0037  0.3062
 4275SOL    HW113070   4.761   1.796   2.941  0.1894 -0.5757  0.6805
 4275SOL    HW213071   4.768   1.760   2.794  1.1868 -1.0823  0.8484
 4276SOL     OW13072   0.908   1.299   3.010  0.0040 -0.1496 -0.3987
 4276SOL    HW113073   0.854   1.268   3.083 -0.1118 -0.0195 -0.4265
 4276SOL    HW213074   0.981   1.344   3.052  0.7813 -1.4216 -0.3352
 4277SOL     OW13075   3.465   0.899   3.037  0.1674  0.3653  0.5251
 4277SOL    HW113076   3.446   0.992   3.043  2.2502  0.8343  0.4930
 4277SOL    HW213077   3.528   0.883   3.107  1.1741 -0.6338 -0.5788
 4278SOL     OW13078   5.593   0.407   1.162  0.8907 -0.8099 -0.0011
 4278SOL    HW113079   5.545   0.334   1.122  0.5782 -0.3617 -0.4481
 4278SOL    HW213080   5.678   0.370   1.184  0.3085 -1.6622  0.9295
 4279SOL     OW13081   3.044   5.228   3.645  0.4684  0.2662  0.7451
 4279SOL    HW113082   3.075   5.140   3.626 -0.6004  0.0254  0.0081
 4279SOL    HW213083   3.062   5.241   3.738  1.5144 -0.3475  0.6470
 4280SOL     OW13084   4.419   3.068   2.529  0.2730  0.3086 -0.5990
 4280SOL    HW113085   4.502   3.088   2.487 -0.2926 -0.3644 -2.1360
 4280SOL    HW213086   4.362   3.142   2.507  0.7065  1.2681  1.3007
 4281SOL     OW13087   3.789   2.816   1.503 -0.2351 -0.4380  0.0870
 4281SOL    HW113088   3.737   2.868   1.563 -0.1608  1.9216 -1.7401
 4281SOL    HW213089   3.726   2.758   1.460 -0.5267 -0.9936  1.2101
 4282SOL     OW13090   2.590   2.511   4.737  0.0391 -0.5342  0.2205
 4282SOL    HW113091   2.506   2.466   4.738  0.7906 -2.0594  1.9332
 4282SOL    HW213092   2.584   2.574   4.809  0.0879 -0.0799 -0.1698
 4283SOL     OW13093   2.621   3.610   2.084 -0.1990  0.9387  0.4974
 4283SOL    HW113094   2.627   3.523   2.124 -1.0765  0.5817 -0.1050
 4283SOL    HW213095   2.578   3.664   2.150 -1.6047  0.3650  0.0915
 4284SOL     OW13096   5.474   4.410   3.317 -0.2549  0.7376 -0.4520
 4284SOL    HW113097   5.546   4.414   3.253 -0.1011  2.4382 -0.2297
 4284SOL    HW213098   5.504   4.464   3.390  0.0035 -1.9504  1.5987
 4285SOL     OW13099   3.280   1.782   5.102 -0.0446 -0.7486  0.1155
 4285SOL    HW113100   3.237   1.731   5.033  0.6592  0.9691 -1.6933
 4285SOL    HW213101   3.359   1.733   5.123 -0.6857 -1.7150  0.3151
 4286SOL     OW13102   3.630   3.550   3.648  0.6533  0.1721  0.5038
 4286SOL    HW113103   3.606   3.630   3.603  0.8044  0.0207  0.1509
 4286SOL    HW213104   3.722   3.563   3.673  1.7802 -1.1382 -2.4182
 4287SOL     OW13105   3.329   2.427   0.845 -0.4359 -0.0312  0.2645
 4287SOL    HW113106   3.368   2.448   0.930  1.0766  0.3241 -0.4744
 4287SOL    HW213107   3.388   2.361   0.808 -1.2821 -0.4513 -0.3535
 4288SOL     OW13108   3.725   1.795   0.821 -0.6555 -0.3337  0.3702
 4288SOL    HW113109   3.748   1.776   0.730  0.9251  0.1817  0.6255
 4288SOL    HW213110   3.723   1.709   0.864 -0.8581 -0.5304 -0.0271
 4289SOL     OW13111   4.192   4.138   0.669  0.4144  0.3702  0.3406
 4289SOL    HW113112   4.115   4.107   0.717  0.0838 -0.5118 -0.7210
 4289SOL    HW213113   4.157   4.190   0.596  0.7957 -0.2714 -0.3136
 4290SOL     OW13114   0.635   5.078   1.811 -0.0511 -0.3860  0.7727
 4290SOL    HW113115   0.592   5.085   1.725 -1.3786  2.0625  1.5469
 4290SOL    HW213116   0.612   4.991   1.842 -0.4456 -0.9132 -0.8810
 4291SOL     OW13117   3.102   1.178   3.454 -0.0217 -0.1980 -0.2567
 4291SOL    HW113118   3.078   1.267   3.481  1.5456 -0.2747  1.6148
 4291SOL    HW213119   3.140   1.189   3.366 -2.1859  0.5542 -1.1768
 4292SOL     OW13120   4.721   2.694   4.947  0.5207 -0.9440 -0.4402
 4292SOL    HW113121   4.720   2.763   5.014 -0.4541 -1.4751  0.1199
 4292SOL    HW213122   4.713   2.741   4.864 -0.6778 -0.3906 -0.0344
 4293SOL     OW13123   1.410   2.040   4.729  0.0509  0.5522 -0.6258
 4293SOL    HW113124   1.475   1.984   4.772 -0.5203 -0.5124 -1.1064
 4293SOL    HW213125   1.326   2.007   4.760 -0.2964  2.2953  0.4637
 4294SOL     OW13126   2.414   4.226   1.559 -0.0556 -0.0312  0.0084
 4294SOL    HW113127   2.441   4.210   1.469 -2.5215  4.1998 -1.8124
 4294SOL    HW213128   2.495   4.247   1.605  1.5508 -4.2738 -0.4352
 4295SOL     OW13129   3.834   3.079   1.701 -0.0072 -0.4946 -0.2102
 4295SOL    HW113130   3.858   3.131   1.778  1.1180  0.6813 -1.3069
 4295SOL    HW213131   3.913   3.031   1.679  0.4430  0.9751 -1.9864
 4296SOL     OW13132   0.155   3.297   4.632 -0.4263  0.3807 -0.0780
 4296SOL    HW113133   0.191   3.218   4.672 -2.5000 -0.9928 -0.7994
 4296SOL    HW213134   0.063   3.297   4.657 -0.2850  3.2237  0.8460
 4297SOL     OW13135   3.160   0.006   0.081 -0.1793  0.2205  0.5605
 4297SOL    HW113136   3.132  -0.078   0.046 -0.8176  0.9433 -0.7351
 4297SOL    HW213137   3.168  -0.008   0.175 -2.6072 -0.6778  0.6846
 4298SOL     OW13138   1.967   2.943   2.794 -0.2472 -0.4402  0.6490
 4298SOL    HW113139   1.886   2.985   2.764 -0.7556 -0.6053  1.7277
 4298SOL    HW213140   1.951   2.850   2.780  0.4894 -0.3807 -0.8129
 4299SOL     OW13141   3.617   4.430   0.617  0.0072 -0.2911 -0.0690
 4299SOL    HW113142   3.645   4.422   0.708 -0.9899  0.8568  0.3698
 4299SOL    HW213143   3.653   4.514   0.588 -1.3477  0.3309 -0.0619
 4300SOL     OW13144   0.487   2.676   1.679  0.9257 -0.3076  0.2959
 4300SOL    HW113145   0.534   2.625   1.614  0.3514  0.9442 -1.1818
 4300SOL    HW213146   0.492   2.766   1.648 -1.4390  0.0333  0.6552
 4301SOL     OW13147   4.309   3.951   1.294  0.2446 -0.1390  0.2779
 4301SOL    HW113148   4.257   4.031   1.288  0.0129 -0.3134 -0.0839
 4301SOL    HW213149   4.257   3.892   1.348  1.2127  0.5601  2.0518
 4302SOL     OW13150   1.789   3.852   0.418  0.3063 -0.2116  0.4440
 4302SOL    HW113151   1.716   3.808   0.375  0.1303  0.8779 -0.4259
 4302SOL    HW213152   1.748   3.908   0.484  0.2136  1.4329 -0.9614
 4303SOL     OW13153   4.762   4.484   0.435 -0.5720  0.8260 -0.2995
 4303SOL    HW113154   4.715   4.526   0.363 -1.4218  1.4418  0.5870
 4303SOL    HW213155   4.752   4.390   0.420 -4.9700  0.7790  1.5536
 4304SOL     OW13156   1.849   5.736   2.539 -0.2340  0.6354 -0.3980
 4304SOL    HW113157   1.817   5.783   2.462  0.3347  0.7534 -0.5659
 4304SOL    HW213158   1.940   5.764   2.548  0.3083 -0.8753 -0.8478
 4305SOL     OW13159   0.020   4.432   3.486  0.2867  0.0720 -0.5038
 4305SOL    HW113160  -0.009   4.515   3.450 -0.6277 -0.6015 -1.3618
 4305SOL    HW213161   0.058   4.385   3.412  1.6014  0.0547  0.1517
 4306SOL     OW13162   1.451   4.461   2.465  0.1636  0.3228  0.5805
 4306SOL    HW113163   1.515   4.531   2.448 -0.6848  1.0742  0.3780
 4306SOL    HW213164   1.381   4.477   2.401 -0.3435 -0.3346  0.9564
 4307SOL     OW13165   1.715   4.495   1.308 -0.2669 -0.0643 -0.1174
 4307SOL    HW113166   1.763   4.413   1.313 -0.3709 -0.0891  0.7476
 4307SOL    HW213167   1.652   4.490   1.380 -2.4836 -0.5966 -1.9849
 4308SOL     OW13168   2.406   2.242   3.500  0.5329  0.0588  0.0082
 4308SOL    HW113169   2.360   2.302   3.558  0.6580  0.1252  0.0400
 4308SOL    HW213170   2.345   2.226   3.427 -0.1596 -1.0542  0.7876
 4309SOL     OW13171   2.859   0.977   0.551  0.0164 -0.0140  0.2037
 4309SOL    HW113172   2.766   0.999   0.556 -0.0969 -0.6429  1.2921
 4309SOL    HW213173   2.860   0.882   0.535  0.4787  0.1058 -0.5197
 4310SOL     OW13174   2.554   2.062   1.543 -0.4316  0.0770 -0.1429
 4310SOL    HW113175   2.500   2.097   1.614 -0.3768  0.2329 -0.1779
 4310SOL    HW213176   2.523   1.972   1.532 -1.3454  0.4555 -0.7920
 4311SOL     OW13177   2.783   1.652   1.536 -0.2842  0.1409 -0.1403
 4311SOL    HW113178   2.772   1.708   1.613 -0.8239  1.1217 -0.9086
 4311SOL    HW213179   2.842   1.702   1.479  0.5992 -0.8474 -0.1189
 4312SOL     OW13180   4.165   2.968   4.378  0.5174  0.1610 -0.2695
 4312SOL    HW113181   4.078   2.931   4.362  1.1787 -1.8060  0.4565
 4312SOL    HW213182   4.196   2.993   4.291 -0.5449  0.4341 -0.5987
 4313SOL     OW13183   2.947   0.665   0.152  0.4506  0.3642  0.4877
 4313SOL    HW113184   3.012   0.688   0.086 -0.9136  2.6986 -0.1610
 4313SOL    HW213185   2.890   0.601   0.109 -0.6151  2.0953 -0.7879
 4314SOL     OW13186   4.278   4.646   1.702  0.1408 -0.3953 -0.0671
 4314SOL    HW113187   4.362   4.603   1.684  0.1657 -0.2981 -0.1814
 4314SOL    HW213188   4.268   4.709   1.631  1.3777  1.6926  1.5127
 4315SOL     OW13189   4.449   2.252   2.464 -0.0092  0.3245 -0.2249
 4315SOL    HW113190   4.427   2.259   2.371 -0.5734  0.9652 -0.0529
 4315SOL    HW213191   4.479   2.340   2.487 -3.4907  1.3480  1.0901
 4316SOL     OW13192   1.088   4.383   2.500 -0.6312  0.4264 -0.5713
 4316SOL    HW113193   1.155   4.319   2.526 -0.0953  2.0032  2.4108
 4316SOL    HW213194   1.132   4.439   2.436  0.2836  0.2926 -0.0843
 4317SOL     OW13195   3.025   1.523   1.047  0.3141 -0.1145 -0.7342
 4317SOL    HW113196   3.068   1.444   1.016  3.0107  0.8599  0.2705
 4317SOL    HW213197   3.027   1.583   0.972  0.5566 -0.1313 -0.7412
 4318SOL     OW13198   0.272   2.453   4.819  0.1038  0.4387 -0.6387
 4318SOL    HW113199   0.293   2.410   4.736  1.8972  2.0799 -1.1088
 4318SOL    HW213200   0.355   2.457   4.866  0.2023  3.7935 -0.8735
 4319SOL     OW13201   0.123   4.228   4.626  0.0009 -0.3112  0.3521
 4319SOL    HW113202   0.147   4.242   4.718 -1.1307 -2.0712  0.9520
 4319SOL    HW213203   0.155   4.141   4.605 -2.6143 -1.2954  0.1122
 4320SOL     OW13204   5.242   0.649   0.376  0.4786 -0.1087 -0.1613
 4320SOL    HW113205   5.153   0.682   0.368  0.5706  0.0146 -0.6647
 4320SOL    HW213206   5.290   0.719   0.420  0.0608 -0.6435  1.1962
 4321SOL     OW13207   2.681   0.952   4.773  0.0180 -0.2960 -0.1801
 4321SOL    HW113208   2.744   0.927   4.705 -0.5928 -0.2379 -0.7738
 4321SOL    HW213209   2.709   1.039   4.801 -0.0156 -0.1083 -0.7137
 4322SOL     OW13210   0.403   3.484   5.733  0.2720  0.0753  0.2664
 4322SOL    HW113211   0.340   3.460   5.666 -0.0435 -0.4867  0.7579
 4322SOL    HW213212   0.484   3.438   5.708  0.5812  1.0232 -0.5194
 4323SOL     OW13213   1.950   0.968   6.048 -0.3867 -0.0887  0.1251
 4323SOL    HW113214   1.941   1.004   5.960 -2.4908 -0.8027 -0.0163
 4323SOL    HW213215   1.880   1.010   6.099  0.1148 -0.4770  1.1762
 4324SOL     OW13216   0.951   3.854   4.457 -0.3110 -0.3909 -0.1893
 4324SOL    HW113217   0.968   3.947   4.441  0.9677 -0.8641 -1.8104
 4324SOL    HW213218   0.971   3.841   4.550 -1.7742  1.1824  0.4012
 4325SOL     OW13219   2.564   2.253   4.124 -0.0189  0.2853 -0.0089
 4325SOL    HW113220   2.521   2.208   4.051 -0.6336 -0.4646  0.7834
 4325SOL    HW213221   2.527   2.341   4.124  0.8199  0.6629 -1.2727
 4326SOL     OW13222   1.118   5.312   0.260  0.2572 -0.6545  0.1172
 4326SOL    HW113223   1.036   5.361   0.271  0.9536  0.5637  0.0499
 4326SOL    HW213224   1.163   5.322   0.344  1.0887  0.1517 -0.4022
 4327SOL     OW13225   4.209   3.004   2.750 -0.2080  0.2883  0.0295
 4327SOL    HW113226   4.292   2.999   2.703 -0.6989  0.8282 -0.9258
 4327SOL    HW213227   4.177   2.914   2.753 -0.2540  0.2729 -0.8344
 4328SOL     OW13228   4.214   1.471   3.083  0.2622  0.3250 -0.1796
 4328SOL    HW113229   4.156   1.537   3.047  1.4963  1.8649  0.5565
 4328SOL    HW213230   4.272   1.448   3.011  1.1949  1.6481  0.1124
 4329SOL     OW13231   0.080   1.896   2.615 -0.5239 -0.1079  0.3977
 4329SOL    HW113232   0.119   1.903   2.527 -0.5397 -0.4379  0.3644
 4329SOL    HW213233   0.132   1.956   2.669 -1.0372  0.7302 -0.0180
 4330SOL     OW13234   2.357   2.273   4.475 -0.5753  0.4776  0.6229
 4330SOL    HW113235   2.287   2.222   4.516 -0.3132  0.4630  1.0577
 4330SOL    HW213236   2.411   2.209   4.430 -0.3089  0.3743  1.0775
 4331SOL     OW13237   2.397   3.989   2.134  0.5772 -0.2631 -0.9482
 4331SOL    HW113238   2.318   4.042   2.121  0.3401 -0.0729  0.9654
 4331SOL    HW213239   2.444   4.035   2.203  1.8161 -1.0020 -1.2866
 4332SOL     OW13240   2.608   0.123   5.505  0.5396  0.5951 -0.5441
 4332SOL    HW113241   2.584   0.169   5.585 -0.0754  0.9515 -0.9255
 4332SOL    HW213242   2.572   0.035   5.517  2.5397 -0.1274  0.5950
 4333SOL     OW13243   3.388   0.529   0.991  0.1165 -0.3516 -0.8977
 4333SOL    HW113244   3.298   0.515   0.963 -0.1781 -1.7643  0.6146
 4333SOL    HW213245   3.382   0.547   1.085  1.2180  2.3124 -1.2454
 4334SOL     OW13246   2.203   3.283   2.979 -0.2051  0.2633 -0.0322
 4334SOL    HW113247   2.200   3.195   2.940 -3.3490 -0.1027  0.8414
 4334SOL    HW213248   2.270   3.328   2.927 -1.4281 -1.3647 -3.3517
 4335SOL     OW13249   2.854   3.188   1.184  0.4557  0.6414  0.4027
 4335SOL    HW113250   2.894   3.179   1.097  2.5740  0.4251  1.3232
 4335SOL    HW213251   2.917   3.240   1.234 -0.9782  1.2322  1.6788
 4336SOL     OW13252   3.852   0.447   1.382  0.0697 -0.0244 -0.1708
 4336SOL    HW113253   3.765   0.421   1.351 -0.0899 -0.7034  0.7958
 4336SOL    HW213254   3.867   0.533   1.343 -1.7084  0.8169  0.8649
 4337SOL     OW13255   5.383   0.575   6.138 -0.8601  0.6111 -0.2272
 4337SOL    HW113256   5.401   0.516   6.211 -0.1125  1.7917  0.5651
 4337SOL    HW213257   5.287   0.576   6.132 -0.9109  0.0488  0.3398
 4338SOL     OW13258   1.242   0.732   5.495 -0.1016 -0.0627  0.3317
 4338SOL    HW113259   1.292   0.652   5.477 -0.1117  0.1433 -0.6650
 4338SOL    HW213260   1.307   0.802   5.494 -0.2863  0.1079 -0.1951
 4339SOL     OW13261   5.482   5.476   0.264  0.1198  0.5447  0.0247
 4339SOL    HW113262   5.409   5.444   0.316  0.1730  0.5838  0.1230
 4339SOL    HW213263   5.462   5.567   0.246  0.2526  0.6173  0.2409
 4340SOL     OW13264   4.915   1.954   1.466 -0.4007  0.0803 -0.0657
 4340SOL    HW113265   4.855   1.932   1.394 -1.4341 -0.7555  1.0084
 4340SOL    HW213266   4.899   1.886   1.531  0.2958  0.9996  1.0867
 4341SOL     OW13267   2.745   4.131   0.359 -0.2707 -0.4369  0.3252
 4341SOL    HW113268   2.800   4.196   0.401 -0.7011 -0.1987  0.5213
 4341SOL    HW213269   2.802   4.055   0.347  0.1724 -0.0937  0.2775
 4342SOL     OW13270   4.314   0.223   5.090 -0.3748 -0.2923 -0.0343
 4342SOL    HW113271   4.274   0.173   5.018  0.5212 -1.1171  0.0261
 4342SOL    HW213272   4.245   0.283   5.118 -1.0445 -0.5915 -0.9750
 4343SOL     OW13273   3.212   2.780   1.731 -0.6050 -0.2465 -0.3967
 4343SOL    HW113274   3.157   2.775   1.653 -2.2522  1.4294  0.5683
 4343SOL    HW213275   3.151   2.766   1.804  0.6966 -0.6826  0.6426
 4344SOL     OW13276   5.614   2.096   5.138 -0.4306 -0.1426  0.0144
 4344SOL    HW113277   5.705   2.124   5.131 -0.3813 -0.0206  1.0096
 4344SOL    HW213278   5.615   2.030   5.208 -1.3454  0.9596  1.1015
 4345SOL     OW13279   1.702   5.019   6.138  0.1201 -0.3217  0.8740
 4345SOL    HW113280   1.648   4.990   6.212 -1.0694  1.2111  0.6673
 4345SOL    HW213281   1.729   5.108   6.161  0.5027 -0.1619 -0.1332
 4346SOL     OW13282   5.837   0.999   2.715  0.3486  0.4246 -0.2165
 4346SOL    HW113283   5.913   0.941   2.710 -1.3006 -2.0562  1.5123
 4346SOL    HW213284   5.813   0.999   2.808 -3.3191 -1.1113 -0.9889
 4347SOL     OW13285   2.194   5.448   3.941  0.0740 -0.0165  0.4404
 4347SOL    HW113286   2.237   5.384   3.998  0.6138  0.4865  0.6025
 4347SOL    HW213287   2.102   5.421   3.940 -0.2367  0.7672  2.6754
 4348SOL     OW13288   5.404   3.230   2.349 -0.3476  0.5020 -0.1072
 4348SOL    HW113289   5.487   3.254   2.390  0.2541 -0.6769 -0.6187
 4348SOL    HW213290   5.356   3.313   2.343  0.4375  1.0553  0.9561
 4349SOL     OW13291   0.302   3.214   2.274  0.3104 -0.0651  0.1017
 4349SOL    HW113292   0.298   3.119   2.291  1.7325 -0.4124 -1.2561
 4349SOL    HW213293   0.396   3.233   2.271  0.0319  1.3370  0.0338
 4350SOL     OW13294   0.165   1.289   4.742  0.9887 -0.2202 -0.1568
 4350SOL    HW113295   0.239   1.312   4.798  0.4832  3.0935 -0.6015
 4350SOL    HW213296   0.194   1.312   4.654  0.1727 -0.9754 -0.6330
 4351SOL     OW13297   5.816   2.943   1.175 -0.5262  0.7098 -0.0494
 4351SOL    HW113298   5.788   2.989   1.095  0.5559  0.0867 -0.8129
 4351SOL    HW213299   5.734   2.925   1.222 -1.3004  0.1838 -1.5289
 4352SOL     OW13300   5.394   1.844   2.602 -0.1617 -0.2319 -0.3349
 4352SOL    HW113301   5.432   1.931   2.613 -1.7127  0.3930  0.2892
 4352SOL    HW213302   5.333   1.853   2.529 -0.2452 -0.8421 -0.3486
 4353SOL     OW13303   5.593   1.562   4.699 -0.2455 -0.0448 -0.4166
 4353SOL    HW113304   5.586   1.630   4.765  2.1117 -0.3448  0.2095
 4353SOL    HW213305   5.596   1.480   4.748  1.0447 -0.3036 -0.8796
 4354SOL     OW13306   1.957   4.258   0.929  0.3300  0.0009  0.1416
 4354SOL    HW113307   1.994   4.264   1.017  0.4822 -0.7288  0.1356
 4354SOL    HW213308   1.872   4.301   0.935 -0.5371 -1.7071  1.1559
 4355SOL     OW13309   2.235   5.596   4.388  0.6338  0.2023 -0.2205
 4355SOL    HW113310   2.271   5.663   4.329 -0.5808  1.4836  0.4265
 4355SOL    HW213311   2.307   5.534   4.400  1.9062  1.5090 -0.6820
 4356SOL     OW13312   4.814   6.082   4.124  0.5243 -0.1172 -0.1386
 4356SOL    HW113313   4.762   6.152   4.085  0.4936 -0.9940 -1.7338
 4356SOL    HW213314   4.783   6.002   4.081 -1.2443 -1.5537  3.3937
 4357SOL     OW13315   2.330   2.006   3.304 -0.0560  0.5641 -0.4613
 4357SOL    HW113316   2.257   2.067   3.315 -1.0761 -0.7737  0.6429
 4357SOL    HW213317   2.400   2.058   3.266 -2.2737  1.4153 -3.7616
 4358SOL     OW13318   1.151   0.942   2.838  0.0423  0.0790  0.0264
 4358SOL    HW113319   1.137   0.957   2.931 -0.1044  0.0218  0.0144
 4358SOL    HW213320   1.084   0.995   2.794 -0.6380 -0.7864 -0.0070
 4359SOL     OW13321   5.601   0.099   1.860 -0.5655  0.0752 -0.2500
 4359SOL    HW113322   5.664   0.027   1.865 -0.0077  0.6085  0.7136
 4359SOL    HW213323   5.517   0.056   1.844 -0.3416 -0.8683  0.9232
 4360SOL     OW13324   0.358   5.994   0.370 -0.5503 -0.7532  0.0162
 4360SOL    HW113325   0.400   5.908   0.371 -0.7839 -0.8844  1.9035
 4360SOL    HW213326   0.372   6.029   0.459 -1.2240  0.7860 -0.4449
 4361SOL     OW13327   1.684   4.504   5.280 -0.3852  0.1417  0.3207
 4361SOL    HW113328   1.676   4.503   5.184 -0.2100  0.2820  0.3057
 4361SOL    HW213329   1.633   4.428   5.308  0.2381 -0.3820  0.0700
 4362SOL     OW13330   6.040   3.088   2.517 -0.6604  0.3648 -0.7585
 4362SOL    HW113331   5.990   3.013   2.549  1.0053 -0.1150  0.9074
 4362SOL    HW213332   6.129   3.054   2.505 -0.5077  1.3616 -2.9600
 4363SOL     OW13333   4.997   2.177   4.849  0.1593 -0.0580  0.2787
 4363SOL    HW113334   4.965   2.262   4.817 -1.7484 -0.5235  0.8533
 4363SOL    HW213335   5.084   2.197   4.884  0.1775  1.4550 -0.5068
 4364SOL     OW13336   4.754   6.064   1.270 -0.1868  1.1782 -0.5494
 4364SOL    HW113337   4.735   6.149   1.310 -2.5212  0.3484  0.2894
 4364SOL    HW213338   4.715   6.069   1.183  0.4213  1.2305 -0.8259
 4365SOL     OW13339   0.051   2.840   6.132 -0.1550 -0.4287  0.1893
 4365SOL    HW113340   0.110   2.775   6.172  1.6593  1.4894  0.8229
 4365SOL    HW213341   0.110   2.900   6.085 -1.9233 -0.3450 -2.0917
 4366SOL     OW13342   1.186   2.220   3.221 -0.6770 -0.0281  0.1020
 4366SOL    HW113343   1.227   2.293   3.268 -1.1178 -0.3307  0.9807
 4366SOL    HW213344   1.093   2.240   3.222 -0.8047 -0.6016  0.3726
 4367SOL     OW13345   2.232   5.802   4.745 -0.7431 -0.7317 -0.2001
 4367SOL    HW113346   2.275   5.845   4.670 -1.2639  0.9619  0.4261
 4367SOL    HW213347   2.140   5.825   4.736 -1.0979 -2.0125  0.0026
 4368SOL     OW13348   1.678   3.275   0.640  0.1277 -0.0130  0.0048
 4368SOL    HW113349   1.748   3.323   0.683  0.4252 -0.9848  0.6357
 4368SOL    HW213350   1.615   3.255   0.709  0.7746 -1.8891  0.1159
 4369SOL     OW13351   4.776   0.826   2.420  0.1365  0.2117 -0.1595
 4369SOL    HW113352   4.780   0.731   2.421 -0.1182  0.1886 -0.7753
 4369SOL    HW213353   4.763   0.851   2.511  0.4478 -0.3289  0.0397
 4370SOL     OW13354   2.089   1.804   3.375 -0.1412  0.1425  0.0620
 4370SOL    HW113355   2.182   1.819   3.357 -0.0092  0.9853  1.3522
 4370SOL    HW213356   2.044   1.868   3.320  0.1064  0.5865  0.3685
 4371SOL     OW13357   3.673   0.247   1.997  0.1379 -0.0720 -0.3156
 4371SOL    HW113358   3.582   0.258   1.969  0.4268  2.0618 -0.6081
 4371SOL    HW213359   3.693   0.155   1.979 -1.7564 -0.4313 -0.8152
 4372SOL     OW13360   4.518   1.307   6.017  0.9944 -0.2284 -0.5516
 4372SOL    HW113361   4.501   1.401   6.009 -1.8269 -0.2830  2.8399
 4372SOL    HW213362   4.608   1.301   6.050  1.3747  1.1703 -1.2475
 4373SOL     OW13363   5.949   3.727   0.293  0.1424 -0.8436 -0.1122
 4373SOL    HW113364   5.859   3.759   0.294  1.0202  1.8931  1.0114
 4373SOL    HW213365   5.948   3.652   0.233 -2.3761  0.6177 -2.0562
 4374SOL     OW13366   0.265   2.318   3.007 -0.5093 -0.0926 -0.0334
 4374SOL    HW113367   0.350   2.291   3.042  0.2218  1.8091 -0.1993
 4374SOL    HW213368   0.226   2.238   2.973  1.6161 -0.8819 -0.7704
 4375SOL     OW13369   1.886   0.728   3.650  0.2611 -0.6912 -0.2072
 4375SOL    HW113370   1.858   0.726   3.558 -1.0338 -1.3562  0.1703
 4375SOL    HW213371   1.875   0.637   3.680  1.6458 -0.6967  0.3384
 4376SOL     OW13372   0.773   1.524   4.395  0.0289  0.0240  0.7796
 4376SOL    HW113373   0.822   1.485   4.323 -0.5944  0.2644  0.2096
 4376SOL    HW213374   0.766   1.455   4.460  1.1867  0.0125  0.9115
 4377SOL     OW13375   3.865   2.191   0.285 -0.1781  0.0515 -0.0980
 4377SOL    HW113376   3.886   2.259   0.220  0.8877 -1.2718 -1.1959
 4377SOL    HW213377   3.902   2.111   0.249 -0.7871 -1.0048  1.5091
 4378SOL     OW13378   2.924   6.114   0.652 -0.3296 -0.1201 -0.4158
 4378SOL    HW113379   2.977   6.034   0.656 -1.0476 -0.6478 -1.2416
 4378SOL    HW213380   2.988   6.184   0.643  0.3245 -0.5681  0.5734
 4379SOL     OW13381   0.606   2.737   0.866 -0.9556 -0.0706 -0.3164
 4379SOL    HW113382   0.561   2.658   0.835 -0.8591  0.1326 -0.9869
 4379SOL    HW213383   0.697   2.724   0.840 -0.4039 -0.8919  1.8169
 4380SOL     OW13384   2.643   2.289   2.034 -0.3787  0.5873  0.5689
 4380SOL    HW113385   2.662   2.235   2.110  0.7457 -0.7271 -0.5867
 4380SOL    HW213386   2.610   2.371   2.070 -3.7587 -1.3451  2.3925
 4381SOL     OW13387   1.164   2.533   4.379 -0.1929  0.2417  0.3530
 4381SOL    HW113388   1.176   2.549   4.285  0.5514 -0.1517  0.3694
 4381SOL    HW213389   1.103   2.460   4.384  1.2169 -1.0157  0.0962
 4382SOL     OW13390   0.279   4.220   0.260 -0.2845 -0.2116  0.2808
 4382SOL    HW113391   0.226   4.235   0.339 -4.6865  0.1531 -2.3618
 4382SOL    HW213392   0.310   4.308   0.236  0.3926 -0.2081  1.1075
 4383SOL     OW13393   5.210   2.504   5.857  0.6759 -0.8641  0.1054
 4383SOL    HW113394   5.290   2.475   5.814  1.0990 -1.2448  1.1276
 4383SOL    HW213395   5.142   2.447   5.821  1.0857 -1.4410  0.2411
 4384SOL     OW13396   0.241   5.047   1.294 -0.3114 -0.0868  0.3392
 4384SOL    HW113397   0.263   5.024   1.385  0.1070 -1.6335 -0.1211
 4384SOL    HW213398   0.248   5.142   1.291  1.7783 -0.1418  1.4023
 4385SOL     OW13399   1.402   4.241   5.813  0.2787 -0.4808 -0.1142
 4385SOL    HW113400   1.385   4.296   5.890 -1.1457 -0.7705 -0.1871
 4385SOL    HW213401   1.333   4.264   5.752  0.8362 -0.9522 -0.9336
 4386SOL     OW13402   4.380   1.937   2.112  0.2262 -0.6313 -0.5617
 4386SOL    HW113403   4.426   1.948   2.195  1.8833  0.6677 -1.5804
 4386SOL    HW213404   4.443   1.966   2.046 -1.6203 -0.0252 -2.1584
 4387SOL     OW13405   4.710   3.330   0.566 -0.0209  0.2581  0.0425
 4387SOL    HW113406   4.710   3.254   0.624 -1.6067 -0.1045 -0.4049
 4387SOL    HW213407   4.766   3.304   0.493  0.2545 -0.0797  0.3652
 4388SOL     OW13408   6.096   4.462   2.872  0.6767  0.4800  0.6063
 4388SOL    HW113409   6.114   4.480   2.964  1.0606  2.2548  0.2161
 4388SOL    HW213410   6.030   4.527   2.847  1.4913  0.8681 -0.6756
 4389SOL     OW13411   4.029   3.441   4.825  0.2107  0.4356  0.4158
 4389SOL    HW113412   4.023   3.395   4.909  0.9281  1.3828  1.0025
 4389SOL    HW213413   3.953   3.499   4.824  0.0237  0.1928  0.2541
 4390SOL     OW13414   2.925   3.420   1.977  0.3177 -0.4540 -0.0892
 4390SOL    HW113415   3.013   3.393   1.951  0.7041 -0.8315  1.5411
 4390SOL    HW213416   2.924   3.413   2.072 -1.2435  0.2794 -0.0136
 4391SOL     OW13417   0.907   4.315   0.020 -0.2169 -0.1963 -0.2968
 4391SOL    HW113418   0.884   4.245   0.080 -0.2704  0.6599  0.6995
 4391SOL    HW213419   1.002   4.323   0.025 -0.3927  1.4331  1.5060
 4392SOL     OW13420   5.184   5.027   0.399 -0.0388  0.0939 -0.9920
 4392SOL    HW113421   5.120   5.085   0.357  2.0565  1.1302 -2.9807
 4392SOL    HW213422   5.259   5.083   0.416  1.1829 -1.5420 -0.7744
 4393SOL     OW13423   0.109   1.685   3.487  0.2415  0.1921  0.1169
 4393SOL    HW113424   0.083   1.625   3.417  1.3115  0.3541 -0.4445
 4393SOL    HW213425   0.035   1.744   3.497  0.0531  0.1368 -0.8541
 4394SOL     OW13426   4.625   3.941   4.169 -0.3788  0.0673 -0.6739
 4394SOL    HW113427   4.683   3.954   4.094 -0.2862  2.7755 -0.2352
 4394SOL    HW213428   4.603   4.030   4.198 -1.3604 -0.8873  1.7859
 4395SOL     OW13429   3.822   4.037   0.431  0.4752  0.0026  0.7382
 4395SOL    HW113430   3.729   4.059   0.425  0.4513  0.6470  2.9240
 4395SOL    HW213431   3.865   4.100   0.372 -0.4242 -0.2071 -0.1834
 4396SOL     OW13432   2.637   1.889   3.016 -0.5460  0.2657  0.0027
 4396SOL    HW113433   2.698   1.815   3.017 -1.1268 -0.2240  0.8491
 4396SOL    HW213434   2.553   1.849   2.994 -0.7395  0.7748 -0.1721
 4397SOL     OW13435   1.151   2.995   3.293 -0.3813 -0.3687  0.3432
 4397SOL    HW113436   1.075   3.012   3.349 -1.0369 -0.3847 -0.5170
 4397SOL    HW213437   1.115   2.991   3.204  0.8450  1.1974 -0.2741
 4398SOL     OW13438   1.150   0.178   5.363  0.3162 -0.1750  0.3558
 4398SOL    HW113439   1.110   0.105   5.409 -0.2658 -0.4814 -0.6046
 4398SOL    HW213440   1.236   0.189   5.404  0.9691 -2.2613 -0.3544
 4399SOL     OW13441   5.964   0.463   4.213 -0.4345  0.0732 -0.3398
 4399SOL    HW113442   5.932   0.402   4.280 -0.3162  0.4913  0.1013
 4399SOL    HW213443   5.911   0.542   4.226  0.1380  0.4388 -0.2155
 4400SOL     OW13444   2.516   1.429   1.054  0.1191  0.5461  0.8495
 4400SOL    HW113445   2.527   1.334   1.054 -2.1098  0.2150 -0.7464
 4400SOL    HW213446   2.540   1.456   0.966  3.9867  2.0420  2.1496
 4401SOL     OW13447   0.936   4.142   4.398 -0.5870  0.1576 -0.0270
 4401SOL    HW113448   0.940   4.212   4.463 -1.0936  2.8918 -2.7103
 4401SOL    HW213449   0.848   4.149   4.362 -0.1506 -0.9109 -1.3554
 4402SOL     OW13450   0.666   5.240   4.363 -0.2496 -0.8487  0.1832
 4402SOL    HW113451   0.735   5.231   4.296 -0.2687 -0.2107  0.0693
 4402SOL    HW213452   0.670   5.332   4.388  0.0602 -1.1844  1.4025
 4403SOL     OW13453   0.095   0.692   0.303 -0.2252  0.2704 -0.1410
 4403SOL    HW113454   0.168   0.751   0.286  1.2979 -1.4176  0.2522
 4403SOL    HW213455   0.027   0.719   0.240  1.6521  0.2977 -2.2740
 4404SOL     OW13456   1.872   5.045   2.492  0.2625 -0.5008 -0.5216
 4404SOL    HW113457   1.872   5.019   2.400  0.0900 -0.5728 -0.5034
 4404SOL    HW213458   1.783   5.077   2.508  0.6064  0.5781 -0.6729
 4405SOL     OW13459   5.823   1.253   2.923  0.5935 -0.5428  0.0675
 4405SOL    HW113460   5.733   1.248   2.955  0.1561  0.3368 -0.9669
 4405SOL    HW213461   5.862   1.328   2.969  0.3740 -0.1029 -0.4478
 4406SOL     OW13462   3.182   4.290   0.057 -0.3464  0.2772 -0.3141
 4406SOL    HW113463   3.147   4.335  -0.020  0.5605  1.2982 -0.1657
 4406SOL    HW213464   3.107   4.275   0.113 -0.7631  1.1112 -0.6321
 4407SOL     OW13465   4.407   0.665   0.190 -0.0616 -0.2472  0.9761
 4407SOL    HW113466   4.323   0.698   0.158  0.6594  0.6056 -0.1234
 4407SOL    HW213467   4.471   0.726   0.154  0.8672  0.5618  3.7500
 4408SOL     OW13468   0.841   3.910   1.073  0.3604  0.9405 -0.0578
 4408SOL    HW113469   0.904   3.891   1.142 -0.2608  1.1203  0.5672
 4408SOL    HW213470   0.801   3.993   1.098 -0.8201  0.3585  0.0841
 4409SOL     OW13471   2.927   1.599   0.474  0.5427 -0.2619 -0.1005
 4409SOL    HW113472   2.847   1.595   0.422  0.8854 -1.1973 -0.5864
 4409SOL    HW213473   2.942   1.693   0.487  0.6067  0.0355 -1.9605
 4410SOL     OW13474   5.339   0.074   1.056  0.1781  0.0565  0.2635
 4410SOL    HW113475   5.255   0.119   1.047  0.4281  0.4190 -0.2940
 4410SOL    HW213476   5.332   0.028   1.139 -1.0503 -0.9403 -0.3534
 4411SOL     OW13477   6.100   0.658   2.865  0.4703  0.3244  0.0067
 4411SOL    HW113478   6.152   0.707   2.928  2.0015 -1.3436  0.1203
 4411SOL    HW213479   6.052   0.594   2.918  1.6714 -1.0080 -0.4508
 4412SOL     OW13480   1.174   2.292   5.209 -0.0485  0.0828  0.3556
 4412SOL    HW113481   1.158   2.244   5.128 -0.0368  1.3856 -0.4473
 4412SOL    HW213482   1.107   2.260   5.270 -0.1162 -0.8370 -0.1873
 4413SOL     OW13483   0.499   2.264   1.168 -0.1674 -0.5823  0.0088
 4413SOL    HW113484   0.421   2.305   1.132 -0.3631 -1.1731 -0.2464
 4413SOL    HW213485   0.563   2.335   1.174 -1.2557  0.3220  1.8789
 4414SOL     OW13486   0.969   2.040   4.309  0.1858 -0.2723 -0.3205
 4414SOL    HW113487   0.940   2.036   4.218 -0.5687 -0.1778 -0.0876
 4414SOL    HW213488   0.999   2.130   4.321 -1.2695  0.2085 -0.0252
 4415SOL     OW13489   4.240   5.500   2.586  0.1901 -0.0069 -0.6928
 4415SOL    HW113490   4.284   5.453   2.515  0.4513 -4.0338  1.8306
 4415SOL    HW213491   4.309   5.517   2.650 -0.6314  0.5086  0.0846
 4416SOL     OW13492   0.739   0.410   0.319 -0.1329 -0.1320  0.1892
 4416SOL    HW113493   0.655   0.452   0.334 -0.5961 -1.1028  0.4216
 4416SOL    HW213494   0.723   0.317   0.339  0.7952 -0.4522 -0.4923
 4417SOL     OW13495   4.352   3.157   2.942 -0.0291 -0.1510 -0.2072
 4417SOL    HW113496   4.439   3.126   2.918  0.1904  0.3751 -0.1111
 4417SOL    HW213497   4.291   3.097   2.899  0.3818 -0.6291 -0.1233
 4418SOL     OW13498   0.857   4.395   5.585  0.0024  0.7433  0.5050
 4418SOL    HW113499   0.895   4.460   5.644 -1.0844 -0.2555  2.4047
 4418SOL    HW213500   0.897   4.312   5.611  0.6511  0.4626 -1.2346
 4419SOL     OW13501   3.753   1.152   3.146  0.5271  0.5493 -0.0080
 4419SOL    HW113502   3.671   1.127   3.189  1.6144 -0.3851  1.6385
 4419SOL    HW213503   3.779   1.234   3.188  0.0770  1.2542 -1.0681
 4420SOL     OW13504   5.626   4.389   4.627  0.7189  0.9379  0.1593
 4420SOL    HW113505   5.590   4.366   4.713  0.9972 -3.8735 -0.7677
 4420SOL    HW213506   5.574   4.465   4.600 -2.7286 -0.2477  2.5957
 4421SOL     OW13507   0.866   0.289   3.062 -0.3250 -0.5138 -0.1169
 4421SOL    HW113508   0.884   0.195   3.059  2.2342 -0.0784 -0.5087
 4421SOL    HW213509   0.825   0.302   3.147 -1.4168 -2.0560 -0.3522
 4422SOL     OW13510   4.273   4.349   2.260  0.1144 -0.2523 -0.2703
 4422SOL    HW113511   4.193   4.314   2.300 -1.1039  2.0564 -0.5554
 4422SOL    HW213512   4.243   4.398   2.184  1.2489  3.7326  1.5578
 4423SOL     OW13513   1.785   4.804   4.546 -0.4970  0.1175  0.4629
 4423SOL    HW113514   1.782   4.729   4.605 -0.6103  1.0668  1.7017
 4423SOL    HW213515   1.787   4.766   4.458 -1.5123 -1.3055  1.0358
 4424SOL     OW13516   3.124   0.080   1.218 -0.5302 -0.4650 -0.3834
 4424SOL    HW113517   3.153   0.168   1.241 -1.4296 -0.3460  0.3302
 4424SOL    HW213518   3.051   0.093   1.157 -1.2441 -0.6846  0.4080
 4425SOL     OW13519   3.406   2.034   2.869 -0.4118  0.6649 -0.5578
 4425SOL    HW113520   3.325   2.076   2.842 -0.8903 -0.3743 -0.8073
 4425SOL    HW213521   3.398   2.023   2.964 -1.4841 -1.2282 -0.8150
 4426SOL     OW13522   5.244   3.679   3.266 -0.0965  0.3048 -0.1905
 4426SOL    HW113523   5.290   3.753   3.225 -1.4840 -0.3391 -3.2304
 4426SOL    HW213524   5.155   3.711   3.279 -0.3023 -0.3286 -0.0512
 4427SOL     OW13525   4.535   0.057   0.990 -0.5520 -0.3702 -0.5267
 4427SOL    HW113526   4.542   0.115   1.066  2.2924  0.2020 -1.1205
 4427SOL    HW213527   4.479   0.105   0.929  0.1836  0.9084 -0.2364
 4428SOL     OW13528   2.685   2.432   3.915 -0.0453  0.1883  0.1501
 4428SOL    HW113529   2.608   2.377   3.929 -0.0101  0.5801  2.1028
 4428SOL    HW213530   2.721   2.446   4.002  0.3833  2.6987 -0.3520
 4429SOL     OW13531   1.617   2.383   1.155  0.2222 -0.0720  0.0528
 4429SOL    HW113532   1.589   2.303   1.200 -0.5026  1.6443  2.8901
 4429SOL    HW213533   1.535   2.430   1.136  0.6918  0.5295 -0.5464
 4430SOL     OW13534   2.522   6.099   1.482  0.1207 -0.1077  0.0457
 4430SOL    HW113535   2.464   6.068   1.552 -0.3077  0.3470 -0.0980
 4430SOL    HW213536   2.599   6.044   1.488 -0.2510 -0.5997  0.3699
 4431SOL     OW13537   0.729   3.973   5.117 -0.2785  0.1782  0.0010
 4431SOL    HW113538   0.774   4.020   5.187  0.6744  0.2669 -0.6525
 4431SOL    HW213539   0.676   3.907   5.162  0.6463 -0.0444  0.7941
 4432SOL     OW13540   3.926   1.437   2.224 -0.1170 -0.1868 -0.2547
 4432SOL    HW113541   3.921   1.422   2.130  2.6866 -0.3158 -0.4843
 4432SOL    HW213542   3.835   1.444   2.253 -1.0430  0.4858 -3.0514
 4433SOL     OW13543   3.384   1.522   5.815  0.4682  0.3201  0.1375
 4433SOL    HW113544   3.363   1.505   5.907  0.6541 -0.6929 -0.0016
 4433SOL    HW213545   3.324   1.591   5.789  0.2761  0.4724  0.9629
 4434SOL     OW13546   1.429   2.830   4.789  0.2637  0.3986  0.8860
 4434SOL    HW113547   1.522   2.847   4.778  0.8234 -2.8836 -0.6770
 4434SOL    HW213548   1.422   2.786   4.873 -0.1230  1.7875  1.6095
 4435SOL     OW13549   4.502   4.399   3.999 -0.5530  0.3022 -0.3519
 4435SOL    HW113550   4.557   4.323   3.985  1.5191  1.5736  0.4641
 4435SOL    HW213551   4.412   4.367   3.988  0.2750 -2.1259 -0.4291
 4436SOL     OW13552   2.374   1.522   1.280  0.1364 -0.0900  0.0230
 4436SOL    HW113553   2.430   1.513   1.203 -0.2562 -0.0555 -0.2684
 4436SOL    HW213554   2.305   1.583   1.254  0.2195  0.2299  0.5277
 4437SOL     OW13555   2.009   4.888   6.097  0.1059  0.5090 -0.0664
 4437SOL    HW113556   2.048   4.808   6.131  0.1761  1.3694  1.9872
 4437SOL    HW213557   1.927   4.859   6.056 -0.4554 -0.5186  1.6847
 4438SOL     OW13558   2.728   0.891   0.103  0.2859  0.2087 -0.1693
 4438SOL    HW113559   2.798   0.825   0.109  0.7399  0.6851 -0.1659
 4438SOL    HW213560   2.775   0.974   0.096 -0.2848  0.5006 -0.5289
 4439SOL     OW13561   0.878   1.778   5.139  0.4940  0.2502  0.2540
 4439SOL    HW113562   0.896   1.722   5.063 -0.5374  0.6233 -0.2934
 4439SOL    HW213563   0.910   1.729   5.214  3.1783  0.6168 -0.5441
 4440SOL     OW13564   3.292   5.666   1.443  0.2927  0.0520  0.2717
 4440SOL    HW113565   3.352   5.673   1.369  1.0610  0.7166  0.9430
 4440SOL    HW213566   3.303   5.748   1.491 -1.4786  0.3738  0.1822
 4441SOL     OW13567   0.040   1.017   5.536 -0.1617  0.1315  0.9921
 4441SOL    HW113568   0.093   0.937   5.540 -0.2274  0.0507  0.3621
 4441SOL    HW213569   0.104   1.088   5.538  0.2557  0.0259 -2.7070
 4442SOL     OW13570   3.987   5.221   3.030  0.2860 -0.9683 -0.0378
 4442SOL    HW113571   3.995   5.220   2.934  0.0529 -0.2305 -0.0700
 4442SOL    HW213572   3.900   5.184   3.047  0.5356 -1.5873 -0.0797
 4443SOL     OW13573   1.453   4.198   2.187  0.2917  0.3261  0.2280
 4443SOL    HW113574   1.413   4.243   2.262  0.7040  0.7274  0.2112
 4443SOL    HW213575   1.516   4.138   2.227 -0.9777 -1.0032  0.3075
 4444SOL     OW13576   5.924   0.206   1.922 -0.1050 -0.0558  0.0050
 4444SOL    HW113577   5.866   0.134   1.946  0.1516  0.2835  1.8541
 4444SOL    HW213578   6.002   0.163   1.887 -0.1807 -0.6731  0.5575
 4445SOL     OW13579   3.137   1.508   2.994 -0.4133 -0.0835 -0.0931
 4445SOL    HW113580   3.150   1.418   3.022  1.0154  0.7963  2.4711
 4445SOL    HW213581   3.184   1.515   2.910 -0.9471 -1.7920 -0.5583
 4446SOL     OW13582   3.729   1.371   1.354 -0.4275 -0.0440  0.2309
 4446SOL    HW113583   3.734   1.371   1.449 -0.2307 -0.9259  0.2262
 4446SOL    HW213584   3.660   1.309   1.333 -2.0910  1.8212 -0.1491
 4447SOL     OW13585   3.465   0.719   4.523 -0.1690  0.0695  0.0309
 4447SOL    HW113586   3.492   0.811   4.512 -1.4822  0.5183  0.3393
 4447SOL    HW213587   3.478   0.702   4.617  0.6100 -0.2508 -0.1290
 4448SOL     OW13588   0.345   5.861   2.669  0.1525 -0.4337 -0.0493
 4448SOL    HW113589   0.327   5.854   2.762 -1.3743  0.0902 -0.2757
 4448SOL    HW213590   0.370   5.773   2.642  0.2994 -0.6535  0.7818
 4449SOL     OW13591   3.495   0.140   0.447  0.2730  0.0464 -0.0958
 4449SOL    HW113592   3.451   0.196   0.384 -1.6763  1.2179  2.1518
 4449SOL    HW213593   3.568   0.192   0.480 -0.6151  0.7086  0.8731
 4450SOL     OW13594   0.448   2.759   6.048  0.0158  0.1821 -0.1161
 4450SOL    HW113595   0.527   2.718   6.084  0.4690  0.7743 -0.4166
 4450SOL    HW213596   0.379   2.735   6.110  0.6135  0.4561  0.6841
 4451SOL     OW13597   3.742   0.533   4.472 -0.0128 -0.3692  0.2649
 4451SOL    HW113598   3.666   0.508   4.418 -0.0757  0.4609 -0.0509
 4451SOL    HW213599   3.703   0.570   4.552  0.0104  1.1492 -0.3901
 4452SOL     OW13600   3.423   1.256   3.783 -0.1019 -0.5391  0.5839
 4452SOL    HW113601   3.439   1.327   3.845  0.8246 -1.1416  1.0609
 4452SOL    HW213602   3.506   1.244   3.738 -0.9855  0.4508 -1.4294
 4453SOL     OW13603   0.403   0.932   0.430 -0.6519 -0.2174 -0.1180
 4453SOL    HW113604   0.362   0.862   0.380  0.3567 -1.0279  0.1528
 4453SOL    HW213605   0.487   0.947   0.385 -0.2111 -0.2067  0.6885
 4454SOL     OW13606   2.262   4.749   5.027 -0.3216  0.1147 -0.2415
 4454SOL    HW113607   2.293   4.838   5.046  0.6373 -0.4580  1.0817
 4454SOL    HW213608   2.312   4.723   4.950  0.4205  0.2453  0.1791
 4455SOL     OW13609   2.361   0.124   5.687 -0.1233  0.2934  0.4185
 4455SOL    HW113610   2.330   0.105   5.598  0.0531  1.0083  0.2012
 4455SOL    HW213611   2.295   0.183   5.723 -0.2394 -0.0656  0.7953
 4456SOL     OW13612   0.296   0.199   4.795  0.3865 -0.6402  0.2341
 4456SOL    HW113613   0.290   0.221   4.888  1.2760 -1.0226  0.3934
 4456SOL    HW213614   0.283   0.104   4.791 -3.4869 -0.2221 -0.4541
 4457SOL     OW13615   2.160   5.449   3.228 -0.5543 -0.0706 -0.1439
 4457SOL    HW113616   2.096   5.400   3.279  1.3392 -0.6525  1.8587
 4457SOL    HW213617   2.112   5.522   3.190 -2.4961 -0.8750  0.6776
 4458SOL     OW13618   2.259   2.061   1.036  0.3600  0.1870  0.4182
 4458SOL    HW113619   2.199   1.990   1.057 -1.1614  0.0357 -3.4956
 4458SOL    HW213620   2.345   2.019   1.030 -0.2964 -1.1017 -0.4927
 4459SOL     OW13621   3.598   4.159   0.803  0.0019 -0.1832  0.2378
 4459SOL    HW113622   3.641   4.240   0.829  0.7465 -0.3774 -0.3593
 4459SOL    HW213623   3.667   4.093   0.808 -0.3628 -0.6032 -0.2095
 4460SOL     OW13624   5.394   3.057   1.075  0.2287  0.3693  0.2228
 4460SOL    HW113625   5.403   3.040   1.169 -0.9078  0.4686  0.3657
 4460SOL    HW213626   5.484   3.068   1.044  0.7922 -1.8142  0.8757
 4461SOL     OW13627   1.397   5.724   1.272  0.2727  0.3626  0.3834
 4461SOL    HW113628   1.341   5.741   1.196 -0.1586 -1.3421  0.2832
 4461SOL    HW213629   1.478   5.688   1.235 -0.0383 -0.7202  0.7132
 4462SOL     OW13630   5.275   5.511   4.456 -0.2818  0.3970  0.0914
 4462SOL    HW113631   5.311   5.514   4.368 -1.5385  0.6222 -0.4386
 4462SOL    HW213632   5.291   5.422   4.487  1.5309  0.7518  0.2468
 4463SOL     OW13633   5.184   1.716   4.166 -0.1745  0.5513 -0.0178
 4463SOL    HW113634   5.091   1.693   4.166  0.3200 -1.7726  1.9936
 4463SOL    HW213635   5.215   1.689   4.080 -0.6538 -2.1216  0.5770
 4464SOL     OW13636   2.673   1.525   4.081 -0.2814 -0.0702 -0.0881
 4464SOL    HW113637   2.702   1.616   4.083  0.8932 -0.4377  0.4530
 4464SOL    HW213638   2.594   1.524   4.136  0.2241  0.4560  0.6711
 4465SOL     OW13639   2.805   5.831   1.346  0.0405  0.3910 -0.7804
 4465SOL    HW113640   2.783   5.741   1.324 -0.8241  0.5745 -0.6920
 4465SOL    HW213641   2.891   5.846   1.305  1.7337 -1.4368  1.7856
 4466SOL     OW13642   2.357   0.366   0.892 -0.5056  0.3915 -0.5692
 4466SOL    HW113643   2.324   0.425   0.824  0.1362  0.6168 -0.6929
 4466SOL    HW213644   2.430   0.319   0.850 -1.3293 -0.8786 -0.6448
 4467SOL     OW13645   2.992   2.726   2.769  0.3611  0.5253 -0.4462
 4467SOL    HW113646   2.948   2.740   2.686 -0.2839 -1.4431 -0.4867
 4467SOL    HW213647   2.926   2.746   2.835 -0.3146 -1.3344 -0.4956
 4468SOL     OW13648   2.702   2.194   2.270 -0.0208  0.8252 -0.1208
 4468SOL    HW113649   2.636   2.205   2.339  0.1266  1.2310 -0.0395
 4468SOL    HW213650   2.762   2.128   2.305 -0.0187  0.9349  0.0853
 4469SOL     OW13651   2.950   0.924   5.551 -0.2560  0.1381  0.2155
 4469SOL    HW113652   2.854   0.925   5.551 -0.2863 -0.3523  1.5362
 4469SOL    HW213653   2.974   0.951   5.462 -1.6115 -0.2309 -0.2947
 4470SOL     OW13654   5.205   1.234   0.689 -0.0293 -0.1692 -0.4500
 4470SOL    HW113655   5.198   1.253   0.595  1.7997 -0.4474 -0.6824
 4470SOL    HW213656   5.257   1.306   0.725 -0.5183 -0.1879  0.3052
 4471SOL     OW13657   5.099   2.203   5.983  0.0853 -0.0497 -0.1008
 4471SOL    HW113658   5.174   2.239   5.936  0.6719 -1.4700 -0.3132
 4471SOL    HW213659   5.110   2.233   6.073  0.3591  0.5685 -0.3332
 4472SOL     OW13660   1.102   2.780   0.289  0.4560 -0.3190 -0.2441
 4472SOL    HW113661   1.113   2.696   0.334  0.4427 -1.5983 -2.5056
 4472SOL    HW213662   1.016   2.774   0.247 -0.1837  1.4406  0.7038
 4473SOL     OW13663   5.697   4.339   4.993 -0.5917 -0.0847 -0.1302
 4473SOL    HW113664   5.607   4.337   4.960 -0.2522  3.2556 -1.6213
 4473SOL    HW213665   5.735   4.418   4.955  3.2435 -1.7016 -0.1123
 4474SOL     OW13666   4.885   3.943   2.848 -0.2389  0.3978 -0.3051
 4474SOL    HW113667   4.840   3.892   2.915  1.7111  0.0637  0.8256
 4474SOL    HW213668   4.954   3.884   2.816  0.4897  1.4579 -0.7449
 4475SOL     OW13669   5.489   3.076   3.637  0.5241 -0.1171 -0.3257
 4475SOL    HW113670   5.398   3.090   3.660  0.3249  0.4578 -1.4074
 4475SOL    HW213671   5.490   3.070   3.542  1.4867 -1.1177 -0.2811
 4476SOL     OW13672   0.379   4.524   5.524 -0.3360 -0.2396 -0.2432
 4476SOL    HW113673   0.371   4.497   5.616  1.4918 -1.1525 -0.3018
 4476SOL    HW213674   0.316   4.469   5.478 -0.1257 -0.9303  0.2702
 4477SOL     OW13675   5.217   1.776   0.788  0.3665 -0.1791  0.2849
 4477SOL    HW113676   5.302   1.806   0.757  0.5135 -0.7788  0.0905
 4477SOL    HW213677   5.180   1.851   0.834  1.0725  0.0318  0.5192
 4478SOL     OW13678   5.664   3.161   1.897 -0.4221 -0.3660  0.1223
 4478SOL    HW113679   5.629   3.248   1.880  0.5123 -0.3120 -1.7321
 4478SOL    HW213680   5.701   3.133   1.814  2.9847 -0.8371  1.6362
 4479SOL     OW13681   0.802   0.563   1.597  0.3409 -0.4011  0.3416
 4479SOL    HW113682   0.810   0.503   1.671  1.9071 -1.4852 -0.6474
 4479SOL    HW213683   0.794   0.506   1.520  0.4629  0.6649 -0.4929
 4480SOL     OW13684   2.974   2.323   1.468 -0.3857  0.0786 -0.4073
 4480SOL    HW113685   3.038   2.312   1.538  0.4898  0.5016 -1.1401
 4480SOL    HW213686   2.905   2.260   1.490 -0.3293  0.4923  1.0576
 4481SOL     OW13687   1.192   4.772   1.923 -0.2279  0.3761 -0.0823
 4481SOL    HW113688   1.188   4.867   1.914  0.1977  0.7647  3.0459
 4481SOL    HW213689   1.280   4.753   1.954 -1.0297 -0.7684  1.6451
 4482SOL     OW13690   2.675   4.217   5.556  0.3420 -0.1590 -0.2594
 4482SOL    HW113691   2.636   4.301   5.581 -1.9392 -0.7960 -1.4516
 4482SOL    HW213692   2.709   4.232   5.468  1.7306  0.0068  0.2673
 4483SOL     OW13693   3.609   4.029   4.002  0.2888  0.3000  0.6353
 4483SOL    HW113694   3.623   3.973   4.078  2.3119  0.8025  0.6958
 4483SOL    HW213695   3.518   4.056   4.009  0.1241 -0.5447  2.2821
 4484SOL     OW13696   5.600   4.824   5.741 -0.0178  0.0883  0.5861
 4484SOL    HW113697   5.674   4.770   5.714 -1.1395 -0.4136 -1.6842
 4484SOL    HW213698   5.571   4.785   5.824  0.6354 -1.3559  0.1678
 4485SOL     OW13699   2.853   2.171   1.895 -0.0199 -0.2981 -0.0936
 4485SOL    HW113700   2.784   2.225   1.934  0.8584  0.8151 -0.0241
 4485SOL    HW213701   2.828   2.164   1.803  1.0971  2.4080 -0.7164
 4486SOL     OW13702   5.435   3.681   4.939 -0.1338 -0.1746 -0.0353
 4486SOL    HW113703   5.491   3.711   5.011  1.6735 -0.7185 -1.1334
 4486SOL    HW213704   5.486   3.700   4.860 -2.3608  1.0968 -1.2720
 4487SOL     OW13705   5.226   1.944   2.406 -0.4380 -0.6006  0.4854
 4487SOL    HW113706   5.260   1.965   2.319 -0.2931 -0.0546  0.6651
 4487SOL    HW213707   5.131   1.944   2.396 -0.4600  0.5576  0.5530
 4488SOL     OW13708   2.316   0.253   1.823  0.3212  0.0465 -0.1735
 4488SOL    HW113709   2.383   0.282   1.761  1.8817 -1.6185  0.6638
 4488SOL    HW213710   2.352   0.273   1.909 -0.6483 -0.0893  0.2724
 4489SOL     OW13711   2.792   1.288   5.552  0.1709 -0.1266 -0.1114
 4489SOL    HW113712   2.805   1.292   5.457 -0.9279  2.0516 -0.2365
 4489SOL    HW213713   2.801   1.379   5.581 -0.5913 -0.5936  1.7152
 4490SOL     OW13714   5.198   2.872   2.214 -0.4004 -0.2972  0.0290
 4490SOL    HW113715   5.283   2.889   2.173  1.0621 -2.0543  2.0973
 4490SOL    HW213716   5.199   2.925   2.293 -2.5289  1.8556 -1.2525
 4491SOL     OW13717   1.185   2.772   0.670  0.6587 -0.0432 -0.6855
 4491SOL    HW113718   1.154   2.832   0.738  1.4867  1.0481 -1.2224
 4491SOL    HW213719   1.213   2.830   0.599 -1.3114 -1.1543 -2.4907
 4492SOL     OW13720   0.644   3.466   1.700 -0.1072  0.2964  0.0735
 4492SOL    HW113721   0.565   3.489   1.649 -0.1570  0.3071  0.1547
 4492SOL    HW213722   0.678   3.551   1.729 -0.3413  0.2606  0.4493
 4493SOL     OW13723   1.017   3.911   5.046  0.3672  1.2094 -0.3048
 4493SOL    HW113724   1.044   3.843   5.108 -0.8245  1.1804  0.2107
 4493SOL    HW213725   0.922   3.902   5.041  0.3578  1.7863 -1.4840
 4494SOL     OW13726   0.604   5.637   3.869 -0.4915 -0.1977 -0.1281
 4494SOL    HW113727   0.645   5.718   3.837  1.2786 -0.4814  1.2720
 4494SOL    HW213728   0.575   5.592   3.790  1.8189  0.1019 -1.2343
 4495SOL     OW13729   3.060   3.214   0.161 -0.3351  0.7189 -0.1323
 4495SOL    HW113730   3.097   3.260   0.087  0.5339 -0.2563 -0.3225
 4495SOL    HW213731   3.112   3.244   0.236  0.0141  0.3015 -0.2061
 4496SOL     OW13732   4.220   1.553   3.328  0.4124  0.5932  0.1584
 4496SOL    HW113733   4.169   1.497   3.387 -0.5276  1.6056  0.3589
 4496SOL    HW213734   4.212   1.512   3.242  0.7332 -0.2096  0.5083
 4497SOL     OW13735   3.865   1.679   3.142  0.5339 -0.1412 -0.0897
 4497SOL    HW113736   3.911   1.608   3.186 -0.8452 -0.8758  0.1932
 4497SOL    HW213737   3.841   1.739   3.213 -0.0806 -0.4090 -0.0701
 4498SOL     OW13738   3.754   0.113   5.006 -0.7968  0.4667  0.3399
 4498SOL    HW113739   3.714   0.093   4.921 -2.0744  0.6736  0.8675
 4498SOL    HW213740   3.807   0.036   5.026 -1.1381  0.0577 -0.2795
 4499SOL     OW13741   2.339   6.037   1.666 -0.3454  0.5884 -0.5264
 4499SOL    HW113742   2.361   6.042   1.759 -2.4043 -1.0412  0.1245
 4499SOL    HW213743   2.247   6.062   1.662 -0.2864  0.6664 -2.1548
 4500SOL     OW13744   2.073   0.355   2.185 -0.6910 -0.1577 -0.1793
 4500SOL    HW113745   2.029   0.326   2.105  1.6400 -0.7368 -1.3410
 4500SOL    HW213746   2.102   0.274   2.227 -0.6715  0.2092  0.5292
 4501SOL     OW13747   2.246   5.956   5.197  0.4504 -0.3883 -0.0148
 4501SOL    HW113748   2.291   6.038   5.179  0.7345 -0.4510  0.4044
 4501SOL    HW213749   2.315   5.894   5.217  0.2090 -0.6079  0.1521
 4502SOL     OW13750   5.291   1.275   0.405 -0.1069 -0.0692 -0.0635
 4502SOL    HW113751   5.255   1.223   0.332 -0.3011 -0.5827  0.3905
 4502SOL    HW213752   5.362   1.221   0.440  0.2067  0.3270 -0.0825
 4503SOL     OW13753   5.085   4.749   5.558  0.1557  0.1885  0.7019
 4503SOL    HW113754   5.012   4.808   5.578 -0.1534 -0.2723  0.9567
 4503SOL    HW213755   5.154   4.807   5.525 -0.4915  0.5734 -0.0145
 4504SOL     OW13756   5.357   1.691   2.217 -0.3564  0.2551 -0.3422
 4504SOL    HW113757   5.396   1.779   2.214 -2.1080  1.2011  1.7143
 4504SOL    HW213758   5.430   1.633   2.239  0.2537  1.7388  1.8846
 4505SOL     OW13759   0.776   5.100   2.954  0.4065 -0.3766  0.3796
 4505SOL    HW113760   0.713   5.053   2.898  0.6381 -1.1915  0.7854
 4505SOL    HW213761   0.839   5.138   2.892 -0.9179  1.1460 -0.0857
 4506SOL     OW13762   4.867   5.056   5.954  0.3040  0.2019  0.1108
 4506SOL    HW113763   4.794   5.060   6.016 -1.1715 -2.3032 -1.3247
 4506SOL    HW213764   4.826   5.071   5.868  1.4910 -1.0165 -0.7066
 4507SOL     OW13765   0.661   1.814   2.701  0.2886 -0.3369  0.9058
 4507SOL    HW113766   0.630   1.865   2.776 -0.3356  1.7140 -0.6639
 4507SOL    HW213767   0.602   1.738   2.698 -0.6889  0.3607  1.5824
 4508SOL     OW13768   2.545   1.690   2.717 -0.0386  0.0959  0.6293
 4508SOL    HW113769   2.510   1.675   2.805  0.2154 -0.8253  0.5913
 4508SOL    HW213770   2.551   1.602   2.679 -1.1549  0.5748 -0.7110
 4509SOL     OW13771   5.337   1.879   4.914  0.2239 -0.3428  0.4422
 4509SOL    HW113772   5.373   1.794   4.889 -1.4827 -1.2348  0.8204
 4509SOL    HW213773   5.382   1.942   4.858 -0.4533 -1.8112 -1.8786
 4510SOL     OW13774   4.938   6.089   1.735 -0.6674  0.2891  0.3439
 4510SOL    HW113775   5.001   6.034   1.781 -1.8185 -0.0535  1.5879
 4510SOL    HW213776   4.988   6.129   1.664  0.4654 -1.5162  0.0497
 4511SOL     OW13777   0.751   0.159   0.451  0.3279 -0.4444  0.7431
 4511SOL    HW113778   0.706   0.095   0.505  2.2114 -2.1863  0.3907
 4511SOL    HW213779   0.787   0.108   0.378  1.8136  1.0315  0.3704
 4512SOL     OW13780   2.354   1.457   0.341 -0.4087  0.5139  0.7657
 4512SOL    HW113781   2.276   1.436   0.392  0.4772 -2.1290  1.1611
 4512SOL    HW213782   2.330   1.437   0.251 -0.5721  0.9520  0.7076
 4513SOL     OW13783   0.467   4.635   2.257 -0.4001 -0.4860 -0.0190
 4513SOL    HW113784   0.469   4.632   2.161 -0.3229  1.4102 -0.1225
 4513SOL    HW213785   0.374   4.647   2.279 -0.3450 -0.2642  0.0997
 4514SOL     OW13786   0.256   5.724   4.482 -0.6300  0.3631 -0.2764
 4514SOL    HW113787   0.174   5.683   4.455 -0.2766 -0.1191 -0.6500
 4514SOL    HW213788   0.324   5.661   4.454 -0.2316 -0.0401  1.5027
 4515SOL     OW13789   5.062   4.613   4.251  0.4290  0.1094  0.0050
 4515SOL    HW113790   5.024   4.621   4.163 -1.0431 -2.0373  0.3685
 4515SOL    HW213791   4.992   4.575   4.303  1.7701 -0.0117  1.7838
 4516SOL     OW13792   5.940   0.178   0.022  0.2707 -0.4923  0.3083
 4516SOL    HW113793   5.969   0.113   0.087 -0.2491 -0.8279  0.2047
 4516SOL    HW213794   5.898   0.246   0.074  1.9693  0.4329  0.5525
 4517SOL     OW13795   1.587   1.928   0.616  0.2927  0.1611  0.1196
 4517SOL    HW113796   1.534   2.007   0.605  0.6705  0.6105  1.3458
 4517SOL    HW213797   1.524   1.856   0.610 -0.2736  0.6286  0.3440
 4518SOL     OW13798   1.869   1.591   5.677 -0.3738  0.3408 -0.2211
 4518SOL    HW113799   1.873   1.647   5.600 -0.2387 -0.4073 -0.7729
 4518SOL    HW213800   1.929   1.519   5.657 -1.5305 -0.6861 -0.1124
 4519SOL     OW13801   4.194   1.217   3.976  0.6159  0.0194  0.1582
 4519SOL    HW113802   4.217   1.256   4.060 -0.8361  2.3055 -0.4207
 4519SOL    HW213803   4.101   1.197   3.983  0.9338 -1.7166 -0.2275
 4520SOL     OW13804   1.381   3.479   4.730 -0.4200  0.0806  0.1855
 4520SOL    HW113805   1.406   3.387   4.734  1.0957  0.5150  3.0313
 4520SOL    HW213806   1.292   3.481   4.766 -0.5268 -0.2767 -0.0488
 4521SOL     OW13807   0.688   2.796   5.200  0.2206 -0.0049  0.6410
 4521SOL    HW113808   0.641   2.857   5.143 -0.3187 -0.7177  0.3209
 4521SOL    HW213809   0.643   2.802   5.285 -2.5432 -2.9592 -0.4352
 4522SOL     OW13810   0.543   5.479   4.101  0.3865 -0.4795  0.3439
 4522SOL    HW113811   0.564   5.392   4.068  0.2146  0.3666 -2.1509
 4522SOL    HW213812   0.577   5.539   4.035  0.2097  1.3658  1.8410
 4523SOL     OW13813   2.441   6.104   1.930 -0.0117 -0.3411  0.4332
 4523SOL    HW113814   2.508   6.120   1.997  1.2766  1.4899 -1.1758
 4523SOL    HW213815   2.411   6.192   1.905 -1.1306 -1.0220 -0.7227
 4524SOL     OW13816   4.173   2.545   3.235 -0.0653 -0.4300 -0.4054
 4524SOL    HW113817   4.156   2.596   3.315  1.3541 -0.0872 -0.3052
 4524SOL    HW213818   4.212   2.608   3.175 -0.5245 -0.8470 -1.1574
 4525SOL     OW13819   4.717   1.193   2.114  0.4736 -0.1572  0.2146
 4525SOL    HW113820   4.698   1.215   2.023 -0.0857  1.4622  0.6800
 4525SOL    HW213821   4.638   1.218   2.162  1.0880 -0.1481  1.2595
 4526SOL     OW13822   2.283   1.861   4.564 -0.2653 -0.2126  0.4328
 4526SOL    HW113823   2.290   1.766   4.574 -2.4606 -0.6223 -1.2591
 4526SOL    HW213824   2.320   1.878   4.478 -0.5802  0.3760  0.4133
 4527SOL     OW13825   1.786   0.833   5.322 -0.0786 -0.3528  0.8116
 4527SOL    HW113826   1.789   0.743   5.288 -1.1119 -1.1334  2.6601
 4527SOL    HW213827   1.710   0.835   5.379 -0.3751  1.8833  0.4323
 4528SOL     OW13828   5.144   1.934   5.546 -0.1381 -0.0265  0.3414
 4528SOL    HW113829   5.228   1.907   5.581  0.1547 -0.0250 -0.3504
 4528SOL    HW213830   5.087   1.942   5.623  0.4277 -0.2434  0.7854
 4529SOL     OW13831   3.296   2.454   2.999  0.6141  0.5841 -0.5713
 4529SOL    HW113832   3.202   2.453   2.981  0.5916 -0.4390 -0.4060
 4529SOL    HW213833   3.336   2.452   2.912  0.5043  2.2523 -0.6979
 4530SOL     OW13834   5.950   0.499   1.988 -0.0788 -0.6071 -0.5013
 4530SOL    HW113835   5.942   0.417   2.038  0.3691 -0.2394  0.1939
 4530SOL    HW213836   5.975   0.471   1.900 -2.3907 -1.3637 -0.9777
 4531SOL     OW13837   0.084   2.680   4.240  0.1219  0.1841  0.6409
 4531SOL    HW113838   0.101   2.698   4.148  1.5639 -1.1921  0.5946
 4531SOL    HW213839   0.005   2.625   4.239  0.4583 -0.2938  0.1797
 4532SOL     OW13840   5.990   3.566   0.054  0.2586 -0.1253  0.1345
 4532SOL    HW113841   6.049   3.641   0.058 -0.2492  0.2280  1.5288
 4532SOL    HW213842   6.028   3.502   0.116 -0.0906 -0.4403  0.0274
 4533SOL     OW13843   1.338   0.499   2.460  0.0171 -0.2635 -0.0951
 4533SOL    HW113844   1.325   0.557   2.535  1.3060 -0.0754  0.0075
 4533SOL    HW213845   1.251   0.462   2.443 -0.5179  0.5389  0.7840
 4534SOL     OW13846   3.052   2.051   4.463  0.1742 -0.3720  0.4390
 4534SOL    HW113847   3.045   2.144   4.486 -2.1467 -0.5040  0.5273
 4534SOL    HW213848   3.006   2.005   4.534  1.5232 -1.6363  0.5387
 4535SOL     OW13849   2.423   1.221   2.283 -0.0787 -0.6016  0.1574
 4535SOL    HW113850   2.442   1.143   2.231  0.2198 -0.5746  0.2267
 4535SOL    HW213851   2.434   1.294   2.222 -4.7865 -0.7740 -1.2665
 4536SOL     OW13852   4.816   1.375   4.178  0.0337 -0.0786  0.4415
 4536SOL    HW113853   4.771   1.309   4.125  0.7070 -2.4081  2.5627
 4536SOL    HW213854   4.908   1.348   4.176  1.0003  2.8108 -1.2879
 4537SOL     OW13855   1.676   6.067   4.413  0.1485 -0.1547 -0.1636
 4537SOL    HW113856   1.741   6.012   4.457  0.1520  1.3511  1.8929
 4537SOL    HW213857   1.593   6.021   4.427  0.4270 -0.7578 -0.4611
 4538SOL     OW13858   2.706   5.659   6.035  0.2759  0.2719  0.1471
 4538SOL    HW113859   2.691   5.658   5.941 -0.8484 -0.5642  0.3143
 4538SOL    HW213860   2.744   5.573   6.054  0.1561  0.2974  0.5142
 4539SOL     OW13861   0.404   2.165   2.243 -0.6669  0.2904 -0.5848
 4539SOL    HW113862   0.499   2.150   2.245 -0.4745  0.4364 -3.5361
 4539SOL    HW213863   0.378   2.137   2.155 -3.2635  0.8536 -0.0618
 4540SOL     OW13864   1.311   0.756   0.618 -0.0866  0.1230 -0.5217
 4540SOL    HW113865   1.386   0.724   0.666  1.7735  1.8226 -2.1114
 4540SOL    HW213866   1.273   0.679   0.576  0.2165 -0.8727  0.9786
 4541SOL     OW13867   4.231   0.378   1.700  0.2317  0.0286  0.1047
 4541SOL    HW113868   4.261   0.402   1.788 -1.5181 -0.8468  1.0048
 4541SOL    HW213869   4.147   0.336   1.715  0.3939 -1.1254 -1.9230
 4542SOL     OW13870   4.428   1.978   1.713  1.0789 -0.3268 -0.4398
 4542SOL    HW113871   4.471   1.899   1.744  1.0922 -0.1016  0.1376
 4542SOL    HW213872   4.496   2.045   1.714  1.1628 -0.3907 -1.2955
 4543SOL     OW13873   5.857   0.281   1.154  0.2620 -0.1852  0.3558
 4543SOL    HW113874   5.804   0.228   1.094  0.7242  0.8571 -1.0250
 4543SOL    HW213875   5.916   0.218   1.195 -0.3776 -0.9972  0.0737
 4544SOL     OW13876   3.903   5.993   1.519  0.6781  0.1272 -0.3110
 4544SOL    HW113877   3.905   5.937   1.597 -1.3094  0.2315 -0.1402
 4544SOL    HW213878   3.896   5.932   1.446  0.4270  0.0876 -0.2554
 4545SOL     OW13879   5.575   1.459   2.274  0.6513  0.1453 -0.2205
 4545SOL    HW113880   5.599   1.493   2.361  1.1678  0.7714 -0.5993
 4545SOL    HW213881   5.487   1.422   2.287  1.1570 -0.7551  0.8187
 4546SOL     OW13882   0.832   3.935   6.051 -0.2883 -0.0092  0.1184
 4546SOL    HW113883   0.888   3.999   6.008 -0.0983  1.5727  2.5794
 4546SOL    HW213884   0.743   3.971   6.042 -0.3091  0.0596  0.6085
 4547SOL     OW13885   1.648   3.762   2.256  0.2319  0.5871  0.2605
 4547SOL    HW113886   1.584   3.740   2.324  0.4876  2.4862  1.1802
 4547SOL    HW213887   1.714   3.692   2.261 -0.2083  0.2323  1.3527
 4548SOL     OW13888   1.877   4.528   1.929  0.5583 -0.7251 -0.1401
 4548SOL    HW113889   1.799   4.501   1.882  0.7533 -0.3277 -0.7077
 4548SOL    HW213890   1.855   4.518   2.021  0.2223 -1.6621 -0.3114
 4549SOL     OW13891   3.820   3.760   1.532  0.0976 -0.2319 -0.5091
 4549SOL    HW113892   3.840   3.678   1.487 -1.7431 -0.2389 -1.3879
 4549SOL    HW213893   3.846   3.829   1.471  2.4209 -0.0637  0.5525
 4550SOL     OW13894   1.269   4.154   5.463  0.1170 -0.9598  0.3481
 4550SOL    HW113895   1.232   4.192   5.543  1.0190 -1.2490  0.9193
 4550SOL    HW213896   1.196   4.108   5.423 -0.9750  1.1652 -0.2722
 4551SOL     OW13897   4.483   4.557   3.158 -0.0927 -0.0399  0.3085
 4551SOL    HW113898   4.569   4.556   3.116 -1.4164 -0.1002 -2.6190
 4551SOL    HW213899   4.421   4.552   3.086 -2.6032  0.7036  2.2774
 4552SOL     OW13900   3.787   1.620   5.128  0.5463  0.1281 -0.7402
 4552SOL    HW113901   3.869   1.644   5.084  2.4804 -0.8780  1.9900
 4552SOL    HW213902   3.777   1.527   5.110  0.8260 -0.0724  0.0830
 4553SOL     OW13903   5.597   1.452   5.862 -0.3457 -0.1615 -0.1672
 4553SOL    HW113904   5.660   1.507   5.907 -1.1365  0.7743 -0.1688
 4553SOL    HW213905   5.580   1.496   5.779 -1.1486 -0.2831 -0.0832
 4554SOL     OW13906   4.188   3.772   0.114 -0.1562 -0.2671 -0.3660
 4554SOL    HW113907   4.275   3.760   0.151 -0.4788  0.2741  0.6327
 4554SOL    HW213908   4.132   3.790   0.190 -1.2751 -1.3114 -0.9118
 4555SOL     OW13909   1.758   3.040   3.710 -0.1957  0.2289 -0.8870
 4555SOL    HW113910   1.821   2.976   3.746  0.2634  1.6048  0.9006
 4555SOL    HW213911   1.812   3.104   3.665 -0.3336  1.0798  0.1194
 4556SOL     OW13912   5.459   3.423   3.372  0.1092  0.2219  0.5210
 4556SOL    HW113913   5.416   3.411   3.457 -0.9650  1.4209  0.1728
 4556SOL    HW213914   5.398   3.383   3.309  0.3267  0.3971  0.1994
 4557SOL     OW13915   2.427   1.635   4.771  0.3457  0.2885 -0.1485
 4557SOL    HW113916   2.500   1.660   4.713  0.2958 -0.5799 -0.6013
 4557SOL    HW213917   2.438   1.541   4.784  0.1006  0.3977  0.9226
 4558SOL     OW13918   1.719   0.981   0.417 -0.0571  0.0906  0.4033
 4558SOL    HW113919   1.701   0.907   0.475  2.2063 -1.5401 -0.8060
 4558SOL    HW213920   1.658   0.970   0.344  0.1911 -0.5531  0.2832
 4559SOL     OW13921   2.721   3.414   3.519  0.1058  0.1460 -0.4656
 4559SOL    HW113922   2.644   3.467   3.501 -0.6354 -1.3019 -1.7654
 4559SOL    HW213923   2.770   3.414   3.437  0.2806 -0.8375 -0.3798
 4560SOL     OW13924   4.598   5.901   5.121 -0.0052 -0.1837  0.4702
 4560SOL    HW113925   4.586   5.973   5.058  0.3387 -0.2669  0.3086
 4560SOL    HW213926   4.545   5.927   5.197  0.0841  0.2241  0.3975
 4561SOL     OW13927   2.509   4.170   2.313  0.2033 -0.3660  0.1163
 4561SOL    HW113928   2.508   4.246   2.256 -2.3360  0.2441  0.8606
 4561SOL    HW213929   2.602   4.148   2.322  0.8716  1.4912 -1.5840
 4562SOL     OW13930   3.056   4.775   4.871 -0.0217 -0.5972  0.3820
 4562SOL    HW113931   3.135   4.723   4.881  0.3442  0.0093  0.7411
 4562SOL    HW213932   3.069   4.850   4.929  0.3954  0.9650 -1.5927
 4563SOL     OW13933   1.056   4.256   2.186 -0.0095 -0.2673  0.7765
 4563SOL    HW113934   0.991   4.323   2.200  0.6661  0.7446 -0.6491
 4563SOL    HW213935   1.138   4.304   2.170  1.0336 -1.4785  2.1905
 4564SOL     OW13936   3.947   1.531   0.295 -0.0679  0.3411  0.1987
 4564SOL    HW113937   3.963   1.443   0.329  0.7627 -0.2809 -1.7377
 4564SOL    HW213938   4.027   1.555   0.249 -1.8089  0.2510 -3.1408
 4565SOL     OW13939   1.393   2.019   4.461  0.4204  0.4911 -0.2031
 4565SOL    HW113940   1.304   1.986   4.461  0.1624  1.0373 -2.2450
 4565SOL    HW213941   1.416   2.029   4.554 -1.3216 -0.4262  0.3555
 4566SOL     OW13942   1.766   1.255   0.507  0.1503  0.0244  0.3536
 4566SOL    HW113943   1.815   1.306   0.443 -0.7817  0.7977  0.2298
 4566SOL    HW213944   1.776   1.164   0.478 -0.7502  0.4043 -1.2642
 4567SOL     OW13945   3.080   1.233   1.396 -0.0741  0.5918 -0.2870
 4567SOL    HW113946   3.040   1.161   1.347  0.1044  0.0590  0.3458
 4567SOL    HW213947   3.006   1.289   1.420 -0.3068  0.2345 -0.1535
 4568SOL     OW13948   3.415   2.658   3.776 -0.7036  0.2933 -0.0411
 4568SOL    HW113949   3.371   2.715   3.840 -1.3199  1.4058 -1.4058
 4568SOL    HW213950   3.349   2.591   3.755 -1.1730  0.9749 -0.8187
 4569SOL     OW13951   5.065   1.933   1.190  0.3335 -0.1198  0.3958
 4569SOL    HW113952   5.105   1.899   1.270  0.7046  1.6455  1.0080
 4569SOL    HW213953   4.976   1.957   1.217  0.2779 -0.0398  0.1370
 4570SOL     OW13954   1.150   2.231   4.017  0.1675 -0.1467 -0.5220
 4570SOL    HW113955   1.149   2.182   3.935  2.4229 -0.7832 -0.2148
 4570SOL    HW213956   1.209   2.182   4.074 -0.8061  0.6585  1.2788
 4571SOL     OW13957   5.156   5.455   0.892 -0.1235  1.0238  0.1587
 4571SOL    HW113958   5.136   5.436   0.983  1.3785 -0.7768  0.1712
 4571SOL    HW213959   5.235   5.509   0.895  2.4840 -2.4497 -0.0147
 4572SOL     OW13960   6.049   4.149   2.733  0.5853  0.7455 -0.3786
 4572SOL    HW113961   6.005   4.222   2.776 -0.6352 -0.6540  0.9044
 4572SOL    HW213962   6.142   4.170   2.739  0.2328  2.5381 -0.7546
 4573SOL     OW13963   1.439   3.145   1.541  0.0023 -0.8088  0.2521
 4573SOL    HW113964   1.439   3.187   1.627 -1.1838 -0.7434  0.2379
 4573SOL    HW213965   1.348   3.149   1.513  0.7650  1.9348 -2.3713
 4574SOL     OW13966   0.418   4.894   4.651  0.0286 -0.2475 -0.3712
 4574SOL    HW113967   0.436   4.922   4.561 -0.9468 -1.1895 -0.8923
 4574SOL    HW213968   0.324   4.875   4.651 -0.4343  1.6542  1.3994
 4575SOL     OW13969   4.814   4.077   4.855 -0.2782 -0.2270 -0.1656
 4575SOL    HW113970   4.766   4.057   4.774 -3.3834  1.2339  1.1296
 4575SOL    HW213971   4.745   4.097   4.919  2.0905  0.3090  2.4166
 4576SOL     OW13972   1.777   5.164   5.312  0.4305 -0.2183  0.5431
 4576SOL    HW113973   1.739   5.251   5.322  0.1707 -0.3714  0.9104
 4576SOL    HW213974   1.857   5.167   5.365  0.7698  0.0046  0.0224
 4577SOL     OW13975   5.894   5.269   5.181 -0.6714  0.3356  0.0744
 4577SOL    HW113976   5.962   5.239   5.121 -0.0960 -0.8464  1.2785
 4577SOL    HW213977   5.932   5.345   5.224 -0.3477  0.0573  0.2855
 4578SOL     OW13978   5.011   5.469   4.975 -0.4798  0.3662 -0.7335
 4578SOL    HW113979   5.085   5.483   5.033 -0.6272 -2.0938  0.1452
 4578SOL    HW213980   4.972   5.556   4.965 -0.2064  1.0089  2.5376
 4579SOL     OW13981   2.493   3.730   1.193  0.0752 -0.1016 -0.6305
 4579SOL    HW113982   2.582   3.696   1.193  1.2151  2.6414 -0.5685
 4579SOL    HW213983   2.458   3.705   1.107  1.2833 -0.3336 -1.0751
 4580SOL     OW13984   2.978   5.670   2.374  0.6620 -0.6546 -0.6996
 4580SOL    HW113985   3.012   5.666   2.285  0.1869  1.6405 -1.0639
 4580SOL    HW213986   3.027   5.742   2.415  0.4675 -1.2888  0.7091
 4581SOL     OW13987   1.556   2.667   3.074  0.7623 -0.1162  0.0226
 4581SOL    HW113988   1.474   2.715   3.085 -0.0953 -1.4901 -0.1477
 4581SOL    HW213989   1.532   2.575   3.088  2.1329 -0.6191 -0.7406
 4582SOL     OW13990   4.974   2.969   5.141 -0.2146 -0.3259 -0.5878
 4582SOL    HW113991   4.973   3.009   5.054 -0.3663 -0.9740 -0.8886
 4582SOL    HW213992   4.891   2.922   5.146  0.5132 -1.6870 -0.7572
 4583SOL     OW13993   2.237   3.585   3.072  0.5444 -0.4083  0.3167
 4583SOL    HW113994   2.169   3.626   3.126  1.7912  1.3875  0.6101
 4583SOL    HW213995   2.196   3.504   3.040 -1.4696  0.2491  1.0477
 4584SOL     OW13996   1.326   2.658   3.797 -0.1528 -0.1542 -0.5406
 4584SOL    HW113997   1.391   2.611   3.744 -0.8047 -3.1096  1.0958
 4584SOL    HW213998   1.248   2.603   3.795 -0.7744  0.4883  2.0697
 4585SOL     OW13999   2.897   4.847   3.488  0.0157  0.5142  0.0112
 4585SOL    HW114000   2.807   4.826   3.461 -0.9318  1.4775  2.2114
 4585SOL    HW214001   2.887   4.886   3.574  2.5083  1.4371 -0.0617
 4586SOL     OW14002   2.563   4.148   3.590 -0.0575 -0.1791  0.7782
 4586SOL    HW114003   2.597   4.168   3.678 -2.8060  0.8562  1.7245
 4586SOL    HW214004   2.494   4.084   3.605  0.8227 -1.6096 -0.9469
 4587SOL     OW14005   4.949   0.064   0.284 -0.2787  0.1128  0.2143
 4587SOL    HW114006   5.005   0.116   0.225  0.5251 -1.0162 -0.0652
 4587SOL    HW214007   4.938   0.119   0.361  0.2321  0.8560 -0.2237
 4588SOL     OW14008   3.054   2.240   2.251 -0.3663 -0.9269  0.2033
 4588SOL    HW114009   3.082   2.253   2.160  0.3012 -1.0862  0.3765
 4588SOL    HW214010   2.994   2.166   2.247  1.1254 -2.2006  0.1172
 4589SOL     OW14011   3.026   5.268   3.937  0.5649  0.0731 -0.1384
 4589SOL    HW114012   3.013   5.175   3.952 -0.6344  0.0226 -1.2320
 4589SOL    HW214013   2.948   5.310   3.973  0.7016  0.5594 -0.3884
 4590SOL     OW14014   5.342   5.066   4.208 -0.1902  0.1809  0.2425
 4590SOL    HW114015   5.342   5.148   4.159  0.3756  0.1308  0.1445
 4590SOL    HW214016   5.327   4.998   4.142 -0.5768  0.1982  0.3118
 4591SOL     OW14017   4.123   5.620   2.966 -0.2624 -0.0348 -0.1268
 4591SOL    HW114018   4.074   5.569   2.900 -1.5510 -0.1492  0.8733
 4591SOL    HW214019   4.080   5.599   3.049  0.4037  1.2242  0.5610
 4592SOL     OW14020   0.658   0.763   2.211 -0.1132 -0.1243 -0.1793
 4592SOL    HW114021   0.625   0.821   2.279 -1.8390 -0.7324 -0.4311
 4592SOL    HW214022   0.717   0.817   2.159  0.7923  0.5053  1.4406
 4593SOL     OW14023   6.030   1.612   0.399 -0.2642 -0.4272  0.1947
 4593SOL    HW114024   6.005   1.699   0.433 -0.7068 -1.1209  1.7209
 4593SOL    HW214025   6.093   1.631   0.330 -0.2023  1.1088  0.6272
 4594SOL     OW14026   2.684   0.242   3.097  0.2880  0.4781  0.5051
 4594SOL    HW114027   2.697   0.334   3.077  1.0296  0.1036 -0.8228
 4594SOL    HW214028   2.763   0.198   3.065  0.6714 -0.4516  2.5210
 4595SOL     OW14029   0.155   3.937   2.851 -0.5131 -0.2013  0.4614
 4595SOL    HW114030   0.183   3.851   2.817 -0.0048  1.2632 -3.4349
 4595SOL    HW214031   0.060   3.933   2.851 -0.4930 -0.7696  0.2981
 4596SOL     OW14032   2.411   1.647   3.901 -0.6476  0.8770  0.2420
 4596SOL    HW114033   2.457   1.573   3.860 -0.1799  1.8106 -1.0004
 4596SOL    HW214034   2.479   1.714   3.911 -1.3753  1.6668 -0.0242
 4597SOL     OW14035   3.489   2.182   3.545 -0.0410  0.1391  0.3383
 4597SOL    HW114036   3.397   2.208   3.531 -0.3660 -0.9685  0.3099
 4597SOL    HW214037   3.529   2.190   3.459  0.0321  1.1441  0.4578
 4598SOL     OW14038   3.364   2.143   3.908 -0.1354 -0.3200  0.2033
 4598SOL    HW114039   3.322   2.076   3.962 -0.0474 -0.8289 -0.3564
 4598SOL    HW214040   3.300   2.164   3.840  1.1189 -2.4247 -1.7769
 4599SOL     OW14041   1.387   4.919   2.482 -0.2707 -0.4076 -0.3278
 4599SOL    HW114042   1.443   4.954   2.413 -1.4064 -1.4402 -1.8432
 4599SOL    HW214043   1.447   4.874   2.541  0.4803 -2.3183 -2.4012
 4600SOL     OW14044   1.814   0.598   2.702  0.5895  0.5269  0.5180
 4600SOL    HW114045   1.893   0.544   2.702  0.0351 -0.3002  0.6604
 4600SOL    HW214046   1.748   0.544   2.658 -0.4594  0.3507  2.2169
 4601SOL     OW14047   4.601   2.213   3.883  0.1818 -0.0348  0.6136
 4601SOL    HW114048   4.577   2.136   3.936 -0.5834 -0.5366 -0.4203
 4601SOL    HW214049   4.669   2.180   3.823  0.7871  0.4393  1.0253
 4602SOL     OW14050   1.807   2.839   0.023 -0.4014 -0.2161  0.0237
 4602SOL    HW114051   1.761   2.914   0.060 -0.1176 -0.8499  1.7527
 4602SOL    HW214052   1.739   2.787  -0.020 -0.9071  0.0454  0.5030
 4603SOL     OW14053   2.639   3.549   5.109 -0.0223  0.0172  0.2058
 4603SOL    HW114054   2.596   3.541   5.194 -0.5962  3.3094  0.3749
 4603SOL    HW214055   2.568   3.559   5.046  0.4235 -1.3825 -0.5640
 4604SOL     OW14056   0.639   3.274   1.885 -0.0799 -0.0376 -0.0465
 4604SOL    HW114057   0.669   3.345   1.829  0.4761  0.2172  0.5728
 4604SOL    HW214058   0.545   3.288   1.893 -0.6601 -1.4539 -2.8805
 4605SOL     OW14059   0.528   5.415   5.277 -0.5351 -0.2830 -0.6080
 4605SOL    HW114060   0.588   5.371   5.217  0.8575  1.0301 -0.2271
 4605SOL    HW214061   0.478   5.475   5.221  1.9573  2.2290 -0.3578
 4606SOL     OW14062   4.190   3.618   5.181 -0.0696  0.1363 -0.0147
 4606SOL    HW114063   4.182   3.711   5.160 -1.5965  0.8864  3.2943
 4606SOL    HW214064   4.101   3.590   5.200  0.4395 -1.8965 -0.4838
 4607SOL     OW14065   3.782   6.099   1.995 -0.0598 -0.1080  0.0935
 4607SOL    HW114066   3.777   6.129   2.086  0.0333  0.5723 -0.1169
 4607SOL    HW214067   3.874   6.109   1.972 -0.2436  0.6383 -0.3667
 4608SOL     OW14068   1.063   1.294   4.740 -0.3804  0.2126  0.0077
 4608SOL    HW114069   1.076   1.244   4.659 -2.4199  1.8523 -1.4407
 4608SOL    HW214070   1.132   1.360   4.739  0.3973 -0.5779  0.3126
 4609SOL     OW14071   6.135   0.021   4.217  0.1543  0.2175 -0.6168
 4609SOL    HW114072   6.158   0.114   4.215 -0.1869  0.3441  0.6584
 4609SOL    HW214073   6.118  -0.001   4.126  0.5800  1.3170 -0.9845
 4610SOL     OW14074   2.089   1.862   4.165  0.5830 -0.0621  0.0175
 4610SOL    HW114075   2.180   1.852   4.138 -0.3751 -0.2085 -3.5747
 4610SOL    HW214076   2.060   1.773   4.187  0.9115 -0.2457 -0.2939
 4611SOL     OW14077   1.924   5.329   2.427 -0.2096 -0.3130 -0.1610
 4611SOL    HW114078   1.930   5.234   2.440 -3.8398 -0.6167  0.3005
 4611SOL    HW214079   1.833   5.344   2.400  0.1505  3.0821  0.1020
 4612SOL     OW14080   3.404   2.348   4.698 -0.4978  0.1972 -0.0016
 4612SOL    HW114081   3.457   2.328   4.621 -0.8358 -1.4339  0.1469
 4612SOL    HW214082   3.370   2.436   4.681  0.5207  0.4131 -1.0749
 4613SOL     OW14083   1.949   2.680   2.744  0.4248 -0.1227  0.0958
 4613SOL    HW114084   2.010   2.660   2.815  1.6403  1.0659 -0.5667
 4613SOL    HW214085   1.992   2.645   2.665 -0.1342  0.0261 -0.2800
 4614SOL     OW14086   1.874   2.688   4.790  0.2226  0.3515  0.6193
 4614SOL    HW114087   1.844   2.601   4.816 -1.7226  1.1783  1.3087
 4614SOL    HW214088   1.868   2.687   4.694  1.0648 -0.5350  0.5597
 4615SOL     OW14089   5.645   6.041   6.119 -0.0046  0.8168 -0.2031
 4615SOL    HW114090   5.713   6.054   6.053  0.8143 -0.6639  0.3101
 4615SOL    HW214091   5.566   6.024   6.068  0.1332  1.8581 -0.8006
 4616SOL     OW14092   0.384   3.241   1.640  0.4948 -0.1361  0.3713
 4616SOL    HW114093   0.312   3.293   1.605 -0.2625 -1.0240  0.5679
 4616SOL    HW214094   0.391   3.268   1.732  1.7112  1.3403 -0.1042
 4617SOL     OW14095   4.813   5.225   4.195  0.5346  0.1016 -0.5447
 4617SOL    HW114096   4.892   5.175   4.177 -1.3278 -2.9215 -1.0940
 4617SOL    HW214097   4.785   5.196   4.282 -0.6807 -0.0110 -0.9452
 4618SOL     OW14098   4.747   3.669   1.158  0.3177 -0.0804 -0.2671
 4618SOL    HW114099   4.768   3.693   1.068  1.4926  1.1803  0.3174
 4618SOL    HW214100   4.661   3.708   1.174  0.5226  0.4820 -0.5354
 4619SOL     OW14101   4.167   5.866   2.870  0.4891  0.4184 -0.1069
 4619SOL    HW114102   4.163   5.777   2.904  0.5708 -0.1662 -1.5602
 4619SOL    HW214103   4.121   5.919   2.935 -0.5141 -0.8507  0.2531
 4620SOL     OW14104   1.543   0.249   5.221  0.1415  0.2259  0.3821
 4620SOL    HW114105   1.468   0.296   5.185  1.3733  2.0629  0.0439
 4620SOL    HW214106   1.612   0.260   5.156  1.3755  0.6177  1.6822
 4621SOL     OW14107   3.013   0.439   1.512 -0.2747  0.1882  0.1269
 4621SOL    HW114108   3.018   0.470   1.602 -0.7650 -0.0488  0.2354
 4621SOL    HW214109   2.922   0.415   1.499 -0.4492  1.2640 -0.7836
 4622SOL     OW14110   3.688   3.748   2.816 -0.3828  0.1530 -0.2484
 4622SOL    HW114111   3.715   3.807   2.887 -1.5625 -0.6604  0.9407
 4622SOL    HW214112   3.770   3.715   2.780  0.2557  0.3307  0.9786
 4623SOL     OW14113   5.534   0.171   3.401 -0.3834  0.5626 -0.9346
 4623SOL    HW114114   5.576   0.094   3.441 -3.3186  0.2228  1.8849
 4623SOL    HW214115   5.500   0.138   3.317  1.7321 -0.0591 -1.6190
 4624SOL     OW14116   1.013   1.088   0.544  0.4201 -0.3190 -0.4396
 4624SOL    HW114117   1.028   1.179   0.517 -0.8377 -0.2639 -1.0055
 4624SOL    HW214118   0.919   1.076   0.536  0.5256 -1.5641  0.0210
 4625SOL     OW14119   4.157   3.131   0.662 -0.0180 -0.1744  0.6817
 4625SOL    HW114120   4.156   3.226   0.656 -1.5421 -0.1817  0.3884
 4625SOL    HW214121   4.078   3.109   0.713 -0.1476 -1.3028  0.0391
 4626SOL     OW14122   5.276   0.495   0.825 -0.2488  0.2163  0.1775
 4626SOL    HW114123   5.188   0.522   0.798  0.2207  1.2014 -0.4421
 4626SOL    HW214124   5.289   0.540   0.909 -1.0566 -1.4939  1.2773
 4627SOL     OW14125   5.135   2.124   2.835  0.6359 -0.0733  0.1511
 4627SOL    HW114126   5.159   2.084   2.752  0.3334 -0.6441  0.3332
 4627SOL    HW214127   5.059   2.178   2.815  1.5743  1.1422 -0.2749
 4628SOL     OW14128   2.374   4.077   5.678 -0.0355 -0.2055  0.0687
 4628SOL    HW114129   2.411   4.071   5.766  0.1009 -0.7263 -0.0204
 4628SOL    HW214130   2.448   4.101   5.622  0.1660 -1.1644 -0.0966
 4629SOL     OW14131   4.368   0.224   1.521  0.1772 -0.2997 -0.8610
 4629SOL    HW114132   4.455   0.260   1.504 -0.6682  1.9366 -0.7037
 4629SOL    HW214133   4.335   0.275   1.595 -1.2790 -1.1209 -0.9164
 4630SOL     OW14134   2.453   2.250   0.380  0.2406 -0.0388 -0.7066
 4630SOL    HW114135   2.537   2.260   0.335  0.0644 -0.3009 -1.0895
 4630SOL    HW214136   2.475   2.257   0.473  0.8190 -1.0753 -0.7603
 4631SOL     OW14137   5.456   2.612   6.058  0.1982  0.5272  1.0887
 4631SOL    HW114138   5.375   2.660   6.070 -0.5246 -0.6105  0.9288
 4631SOL    HW214139   5.525   2.679   6.059 -0.8519  1.6805 -0.3281
 4632SOL     OW14140   0.850   4.172   5.936  0.2221 -0.1118 -0.1321
 4632SOL    HW114141   0.763   4.208   5.920  0.2043  0.0856  0.4005
 4632SOL    HW214142   0.886   4.225   6.007  1.0136  0.1865 -0.7454
 4633SOL     OW14143   2.481   2.598   3.755  0.5264  0.4026 -0.4405
 4633SOL    HW114144   2.433   2.522   3.722  0.2380  0.7915 -0.9299
 4633SOL    HW214145   2.481   2.587   3.850 -2.0931  1.2682 -0.2411
 4634SOL     OW14146   4.770   5.711   3.748 -0.2708  0.2855 -0.4045
 4634SOL    HW114147   4.816   5.631   3.775 -0.1742 -0.1898 -1.8809
 4634SOL    HW214148   4.822   5.745   3.675 -2.7091 -0.8552 -2.8778
 4635SOL     OW14149   4.108   0.475   0.549 -0.3661 -0.0947  0.4050
 4635SOL    HW114150   4.114   0.502   0.457 -1.0309 -1.8566 -0.1975
 4635SOL    HW214151   4.175   0.408   0.559 -1.2660 -0.9724  0.7774
 4636SOL     OW14152   2.190   5.839   3.969  0.2021 -0.3374  0.3814
 4636SOL    HW114153   2.195   5.884   3.885  1.3437 -0.5966  0.2908
 4636SOL    HW214154   2.106   5.793   3.967 -0.3470  0.6395 -0.0966
 4637SOL     OW14155   4.357   3.426   5.049  0.2373 -0.4883  0.3754
 4637SOL    HW114156   4.313   3.479   5.115 -0.1290  0.6035 -0.7126
 4637SOL    HW214157   4.287   3.381   5.002  0.4377 -0.6620  0.2361
 4638SOL     OW14158   2.681   2.712   0.786  0.6588  0.0495 -0.6933
 4638SOL    HW114159   2.706   2.621   0.800  0.1096  0.0682  0.4820
 4638SOL    HW214160   2.739   2.762   0.842  0.3322  0.3522 -0.6240
 4639SOL     OW14161   0.387   0.641   2.349 -0.0559 -0.4742 -0.0995
 4639SOL    HW114162   0.312   0.644   2.289 -0.7028  0.4912  0.7261
 4639SOL    HW214163   0.462   0.625   2.292 -0.6222  0.6175 -1.2067
 4640SOL     OW14164   1.908   1.083   4.347  0.3187 -0.1825 -0.3557
 4640SOL    HW114165   1.961   1.153   4.310 -1.6239  1.6891  0.2646
 4640SOL    HW214166   1.962   1.049   4.419  1.4002  0.4697 -0.8286
 4641SOL     OW14167   5.239   4.274   3.340 -0.0404  0.3192 -0.4530
 4641SOL    HW114168   5.207   4.273   3.430 -0.2579  0.5128 -0.5295
 4641SOL    HW214169   5.321   4.324   3.344 -0.4240  0.9560 -0.4902
 4642SOL     OW14170   5.090   5.208   2.202 -0.1726  0.5915  0.0052
 4642SOL    HW114171   5.163   5.198   2.142  0.3470 -0.5208  0.7687
 4642SOL    HW214172   5.130   5.237   2.284 -0.7154  0.9727  0.1397
 4643SOL     OW14173   4.666   2.537   3.299 -0.3467 -0.3164 -0.5525
 4643SOL    HW114174   4.731   2.478   3.335 -0.6813  0.3129  1.1533
 4643SOL    HW214175   4.582   2.495   3.317 -0.5263  0.0700 -0.4641
 4644SOL     OW14176   0.979   1.677   3.360 -0.1828  0.2273 -0.0797
 4644SOL    HW114177   0.972   1.771   3.345  0.3255  0.2120 -0.4404
 4644SOL    HW214178   1.062   1.652   3.320 -1.0905 -0.6728 -1.5194
 4645SOL     OW14179   4.914   3.213   1.949  0.1516  0.0326  0.1651
 4645SOL    HW114180   4.983   3.147   1.950  1.5302  1.3822 -1.1565
 4645SOL    HW214181   4.840   3.170   1.907  0.8710 -0.8248 -0.2556
 4646SOL     OW14182   2.548   2.168   1.254 -0.0518 -0.1610 -0.2116
 4646SOL    HW114183   2.495   2.133   1.326  0.4641 -0.6934 -0.0876
 4646SOL    HW214184   2.487   2.223   1.204 -0.8553 -1.1741 -0.3691
 4647SOL     OW14185   4.089   2.857   0.547 -0.0024  0.2048 -0.0179
 4647SOL    HW114186   4.132   2.940   0.570  0.6911  0.2536 -1.4081
 4647SOL    HW214187   4.020   2.882   0.486 -0.6134 -0.1243  0.5253
 4648SOL     OW14188   3.828   2.569   5.264  0.4766 -0.1432 -0.0854
 4648SOL    HW114189   3.741   2.608   5.267 -0.1122 -1.3926 -0.7124
 4648SOL    HW214190   3.813   2.475   5.259  1.8744 -0.4531  0.8665
 4649SOL     OW14191   3.516   3.214   1.607  0.8201 -0.1565 -0.9038
 4649SOL    HW114192   3.429   3.236   1.575  0.8788  2.5617  0.4754
 4649SOL    HW214193   3.510   3.123   1.635 -1.9353  0.2815  0.2160
 4650SOL     OW14194   5.749   1.438   3.232 -0.3031  0.0426 -0.1145
 4650SOL    HW114195   5.815   1.452   3.165  0.4878 -0.4891  0.5278
 4650SOL    HW214196   5.737   1.524   3.273  1.5894 -0.2348  1.1702
 4651SOL     OW14197   1.472   5.603   4.974 -0.4578  0.2166 -0.1290
 4651SOL    HW114198   1.407   5.538   5.000  0.4543 -0.3499  0.8452
 4651SOL    HW214199   1.478   5.662   5.049  1.4338 -0.7967  0.5728
 4652SOL     OW14200   2.416   3.460   0.959 -0.0922 -0.2594  0.0070
 4652SOL    HW114201   2.512   3.453   0.959 -0.0885 -0.4660  1.7650
 4652SOL    HW214202   2.400   3.555   0.954  0.2034 -0.2175 -0.1890
 4653SOL     OW14203   3.461   1.751   0.331  0.5464  0.5655  0.4637
 4653SOL    HW114204   3.447   1.768   0.424  0.1177  2.9879  0.0262
 4653SOL    HW214205   3.555   1.766   0.319  0.3222  1.8774  0.2395
 4654SOL     OW14206   5.850   0.675   2.439  0.5889  0.0420 -0.0336
 4654SOL    HW114207   5.857   0.650   2.531 -0.5010 -0.6294 -0.1198
 4654SOL    HW214208   5.941   0.678   2.408  0.8804 -1.7470  0.5330
 4655SOL     OW14209   3.700   4.355   0.174 -0.1689 -0.4015  0.2041
 4655SOL    HW114210   3.631   4.395   0.122  0.1545  1.0812  0.8705
 4655SOL    HW214211   3.654   4.297   0.235 -0.6541 -0.9755 -0.6842
 4656SOL     OW14212   1.874   5.893   4.458 -0.0182 -0.5589  0.0512
 4656SOL    HW114213   1.926   5.869   4.381 -0.5411 -0.7051 -0.2591
 4656SOL    HW214214   1.826   5.813   4.480 -0.2011 -0.3880  0.2681
 4657SOL     OW14215   1.779   4.234   1.344 -0.6665  0.3123  0.7612
 4657SOL    HW114216   1.846   4.167   1.333  0.9283  1.5944  2.0664
 4657SOL    HW214217   1.705   4.189   1.383 -0.8894 -1.2823 -1.3476
 4658SOL     OW14218   1.869   1.094   3.995 -0.2231  0.1900  0.5078
 4658SOL    HW114219   1.860   1.020   3.934  1.6598 -0.0848  0.5218
 4658SOL    HW214220   1.800   1.155   3.968 -1.4099 -1.2766  0.0933
 4659SOL     OW14221   0.200   6.055   2.547  0.2998  0.2931 -0.4551
 4659SOL    HW114222   0.186   6.111   2.624  1.5900  0.5156 -0.3621
 4659SOL    HW214223   0.240   5.975   2.582 -1.2461 -0.5878 -0.6283
 4660SOL     OW14224   2.766   5.232   5.725 -0.0019 -0.2470  0.6680
 4660SOL    HW114225   2.701   5.284   5.678  0.9506  1.1972  0.8696
 4660SOL    HW214226   2.838   5.222   5.663 -0.3721 -1.8301  0.4440
 4661SOL     OW14227   2.338   2.209   0.810  0.0353  0.8365  0.4489
 4661SOL    HW114228   2.290   2.174   0.885 -0.7978  0.3215 -0.2973
 4661SOL    HW214229   2.315   2.302   0.808 -2.6412  0.2429 -1.0646
 4662SOL     OW14230   5.263   0.982   6.076 -0.1021 -0.1201 -0.2817
 4662SOL    HW114231   5.223   1.069   6.083  0.3240 -0.0490  2.7533
 4662SOL    HW214232   5.289   0.975   5.984  1.7032  3.8691 -0.3222
 4663SOL     OW14233   2.312   6.044   3.301 -0.2120  0.2494  0.8744
 4663SOL    HW114234   2.240   6.051   3.238  0.3403  0.1243  0.2131
 4663SOL    HW214235   2.381   6.099   3.264  0.9742 -1.6331  0.1605
 4664SOL     OW14236   2.964   0.488   3.806 -0.3548 -0.3912 -0.0198
 4664SOL    HW114237   3.029   0.558   3.805 -0.2424 -0.4972 -0.3487
 4664SOL    HW214238   3.009   0.415   3.849 -0.1693 -0.5432 -0.4648
 4665SOL     OW14239   4.869   1.850   5.439  0.0569  0.2183  0.3952
 4665SOL    HW114240   4.951   1.845   5.487  0.0238 -0.1824  0.4098
 4665SOL    HW214241   4.810   1.899   5.497  0.5353  1.2700  0.0246
 4666SOL     OW14242   4.066   4.211   0.451 -0.2072  0.0515 -0.0793
 4666SOL    HW114243   4.088   4.178   0.364 -0.0268 -0.0036 -0.0146
 4666SOL    HW214244   4.008   4.286   0.435  0.4456  0.5273 -0.2766
 4667SOL     OW14245   3.845   0.353   5.850 -0.8027 -0.7721  0.2452
 4667SOL    HW114246   3.899   0.418   5.895 -0.0397  0.8727 -2.7980
 4667SOL    HW214247   3.774   0.404   5.811  0.0734 -1.5772 -2.6192
 4668SOL     OW14248   1.294   4.359   1.509  0.6687 -0.4668  0.0264
 4668SOL    HW114249   1.296   4.453   1.489  0.6431 -0.7472 -1.4390
 4668SOL    HW214250   1.297   4.354   1.604 -0.0888  1.0457  0.1594
 4669SOL     OW14251   2.955   1.994   3.184 -0.3542 -0.2638 -0.1515
 4669SOL    HW114252   2.901   1.944   3.245  1.1240 -0.5724  0.9561
 4669SOL    HW214253   2.955   2.083   3.219  1.4564 -0.6877  1.0319
 4670SOL     OW14254   5.022   1.647   3.640 -0.1531 -0.6544  0.2191
 4670SOL    HW114255   4.944   1.656   3.585 -0.3111  0.3215  0.5715
 4670SOL    HW214256   4.992   1.599   3.717 -0.6020  0.3218  0.6787
 4671SOL     OW14257   1.043   3.043   2.114 -0.1560  0.6058 -0.1975
 4671SOL    HW114258   1.054   3.091   2.196  0.0850  0.6764 -0.2705
 4671SOL    HW214259   1.102   2.968   2.122 -1.2451 -0.2251  0.3241
 4672SOL     OW14260   6.033   4.936   2.734  0.2173 -0.2787 -0.2255
 4672SOL    HW114261   5.984   5.015   2.710  0.4803 -0.0353  0.0245
 4672SOL    HW214262   5.972   4.885   2.786  0.5089  0.4578  0.8900
 4673SOL     OW14263   4.651   1.343   4.952  0.0036  0.0114 -0.5476
 4673SOL    HW114264   4.582   1.347   5.019  0.3595 -0.3631 -0.1543
 4673SOL    HW214265   4.614   1.287   4.883 -0.4818  0.6446 -0.8071
 4674SOL     OW14266   5.017   0.709   0.842 -0.2999  0.6611  0.2592
 4674SOL    HW114267   4.939   0.714   0.898 -0.4366  2.1650 -0.0138
 4674SOL    HW214268   4.986   0.736   0.756 -0.3048 -2.5257 -0.8760
 4675SOL     OW14269   5.885   2.360   2.951  0.6024 -0.6158  0.7730
 4675SOL    HW114270   5.795   2.382   2.974 -0.3202 -0.7462 -2.2249
 4675SOL    HW214271   5.929   2.445   2.942 -0.0420 -0.3812 -0.4415
 4676SOL     OW14272   1.177   1.872   4.239  0.0295 -0.1031  0.5080
 4676SOL    HW114273   1.100   1.912   4.280  0.6882  2.1128 -0.2670
 4676SOL    HW214274   1.144   1.790   4.201 -1.3811 -0.3939  2.2227
 4677SOL     OW14275   2.267   0.980   2.232 -0.5551 -0.3152 -0.0305
 4677SOL    HW114276   2.275   1.014   2.143  0.4594 -0.7942 -0.1317
 4677SOL    HW214277   2.255   1.058   2.286 -1.9583 -0.0661 -0.6484
 4678SOL     OW14278   5.961   3.924   2.995 -0.7128  0.1863 -0.0624
 4678SOL    HW114279   5.962   3.871   2.916 -1.3108  0.2391 -0.1032
 4678SOL    HW214280   5.955   3.861   3.067 -1.4508  0.1942 -0.1118
 4679SOL     OW14281   4.163   1.294   4.600 -0.1432  0.2911  0.1840
 4679SOL    HW114282   4.129   1.247   4.524  1.0837 -0.2197 -0.0796
 4679SOL    HW214283   4.135   1.385   4.587 -0.3249  0.1248 -0.6423
 4680SOL     OW14284   3.854   3.860   3.829  0.3011  0.4406 -0.0599
 4680SOL    HW114285   3.761   3.872   3.846  0.4002  1.1886 -0.0352
 4680SOL    HW214286   3.888   3.948   3.813  0.6326  0.0096 -2.0213
 4681SOL     OW14287   5.548   4.332   0.247  0.2653 -0.6321 -0.3393
 4681SOL    HW114288   5.538   4.341   0.342  3.8648 -1.2499  0.2490
 4681SOL    HW214289   5.540   4.421   0.214 -0.2648 -0.2965  0.6350
 4682SOL     OW14290   3.251   2.552   3.288 -0.0183 -0.0784 -0.3498
 4682SOL    HW114291   3.212   2.639   3.294  0.3733  0.0942 -0.3211
 4682SOL    HW214292   3.228   2.522   3.200  1.1517  0.6815 -0.9334
 4683SOL     OW14293   3.267   4.533   5.828  0.0685 -0.7589 -0.0039
 4683SOL    HW114294   3.200   4.504   5.891  2.0587 -1.0299  2.1175
 4683SOL    HW214295   3.320   4.456   5.812  0.1146 -0.4597 -1.4087
 4684SOL     OW14296   5.715   4.480   2.371  0.3680  0.5950  0.6264
 4684SOL    HW114297   5.676   4.475   2.284 -1.9789 -0.7122  1.6778
 4684SOL    HW214298   5.786   4.415   2.368  1.5472  1.8653 -0.8157
 4685SOL     OW14299   0.705   1.742   3.746  0.0610 -0.3783  0.2251
 4685SOL    HW114300   0.791   1.774   3.776  0.0808  0.5532 -0.7513
 4685SOL    HW214301   0.718   1.649   3.730  0.5526 -0.5042  1.2633
 4686SOL     OW14302   5.329   0.059   2.266 -0.3992 -0.1825 -0.0149
 4686SOL    HW114303   5.393   0.107   2.212  0.1243 -0.3744  0.4279
 4686SOL    HW214304   5.252   0.051   2.209 -0.2331  0.5313 -0.3639
 4687SOL     OW14305   5.796   4.830   2.139  0.5160 -0.1778  0.3065
 4687SOL    HW114306   5.874   4.846   2.193  0.9229 -1.9622  0.2922
 4687SOL    HW214307   5.795   4.736   2.124 -2.3972 -0.4200  1.4152
 4688SOL     OW14308   5.823   3.271   4.124 -0.1691  0.6250  0.2781
 4688SOL    HW114309   5.797   3.325   4.049 -1.8104 -0.7012 -0.1839
 4688SOL    HW214310   5.870   3.330   4.182 -0.5112  2.1352 -0.9329
 4689SOL     OW14311   0.562   3.348   2.305  0.4530  0.7979  0.0460
 4689SOL    HW114312   0.563   3.354   2.400  1.5187 -0.0526  0.1124
 4689SOL    HW214313   0.608   3.427   2.275  1.9309  0.0817  0.3375
 4690SOL     OW14314   2.405   0.126   1.308 -0.0575  0.3171 -0.4058
 4690SOL    HW114315   2.313   0.141   1.330  0.1988  2.0914 -0.3519
 4690SOL    HW214316   2.432   0.053   1.364 -1.4447 -0.2722 -0.4879
 4691SOL     OW14317   0.056   1.126   4.315 -0.0114  0.3251  0.1619
 4691SOL    HW114318   0.084   1.063   4.248 -0.7794 -0.1386  0.2680
 4691SOL    HW214319  -0.036   1.143   4.295 -0.1124  0.5515  0.8167
 4692SOL     OW14320   2.243   3.529   2.520  0.8156 -0.3873  0.1365
 4692SOL    HW114321   2.180   3.585   2.474  1.0710  0.3700  0.6779
 4692SOL    HW214322   2.269   3.581   2.596  0.9927 -1.2919  0.7091
 4693SOL     OW14323   1.326   2.111   3.030 -0.3786  0.1580  0.3561
 4693SOL    HW114324   1.262   2.055   2.987 -0.8801  0.0294  1.2638
 4693SOL    HW214325   1.279   2.150   3.104  0.7936 -0.5620  1.5266
 4694SOL     OW14326   4.475   3.643   1.636  0.4482  0.0773 -0.6643
 4694SOL    HW114327   4.399   3.590   1.613  1.3405 -1.1461 -0.8669
 4694SOL    HW214328   4.441   3.733   1.638 -0.8881 -0.3826 -1.2241
 4695SOL     OW14329   0.300   5.231   3.603  0.2655 -0.2891 -0.2162
 4695SOL    HW114330   0.314   5.184   3.686 -0.5239 -0.7840 -0.3501
 4695SOL    HW214331   0.205   5.230   3.592  0.1784  1.8499  0.0540
 4696SOL     OW14332   0.474   0.417   1.239  0.0685 -0.1275  0.1705
 4696SOL    HW114333   0.397   0.452   1.195 -1.5860 -3.5117  0.0888
 4696SOL    HW214334   0.547   0.438   1.180 -1.0972  1.1345 -0.8897
 4697SOL     OW14335   0.756   5.154   0.414  0.1630  0.7870  0.3892
 4697SOL    HW114336   0.748   5.247   0.396 -2.2040  0.4826 -0.4703
 4697SOL    HW214337   0.678   5.115   0.376  0.5082 -1.4112  1.7293
 4698SOL     OW14338   0.847   5.979   1.121  0.5014 -0.0539  0.9461
 4698SOL    HW114339   0.909   6.050   1.102  0.4421  0.0587  1.1722
 4698SOL    HW214340   0.881   5.939   1.201  1.2832 -1.1272  0.1124
 4699SOL     OW14341   4.167   1.691   0.497  0.2441  0.1192 -0.9342
 4699SOL    HW114342   4.242   1.694   0.557 -0.5855 -0.1430  0.1598
 4699SOL    HW214343   4.094   1.665   0.553 -0.7027  0.5794 -1.9344
 4700SOL     OW14344   3.966   4.574   2.906 -0.4668 -0.3318  0.0118
 4700SOL    HW114345   3.924   4.488   2.905 -0.5532 -0.2882 -0.2994
 4700SOL    HW214346   3.978   4.594   2.999 -0.8850 -0.4635  0.0973
 4701SOL     OW14347   2.686   2.709   5.651 -0.2612 -0.0971  0.3995
 4701SOL    HW114348   2.727   2.721   5.736 -0.8262 -0.4766  0.7331
 4701SOL    HW214349   2.619   2.643   5.666  0.3884 -1.0185 -0.5896
 4702SOL     OW14350   5.350   0.417   2.936  0.1816 -0.1689 -0.2730
 4702SOL    HW114351   5.274   0.360   2.925  2.3465 -2.9678 -2.1354
 4702SOL    HW214352   5.372   0.446   2.848  2.0689 -0.5967  0.0109
 4703SOL     OW14353   1.823   2.201   5.554 -0.2421  0.1053  0.3621
 4703SOL    HW114354   1.810   2.118   5.600 -2.8432 -0.9672 -2.0152
 4703SOL    HW214355   1.879   2.252   5.612  0.6557 -2.9136  2.3916
 4704SOL     OW14356   3.010   1.639   0.804 -1.1607 -0.4801 -0.0875
 4704SOL    HW114357   3.071   1.609   0.736 -3.0333 -1.0739 -1.6100
 4704SOL    HW214358   3.027   1.733   0.811  0.0953 -0.6696 -0.2510
 4705SOL     OW14359   4.099   4.894   4.768  0.1654 -0.2676 -0.5055
 4705SOL    HW114360   4.039   4.828   4.732 -0.5561 -0.4989  1.0514
 4705SOL    HW214361   4.045   4.972   4.780  0.9903  0.6433 -2.2270
 4706SOL     OW14362   5.860   3.996   1.853 -0.3842  0.4327 -0.3528
 4706SOL    HW114363   5.802   4.071   1.839  0.4070  0.8627 -1.4144
 4706SOL    HW214364   5.814   3.942   1.919 -1.5633  1.1889 -0.5310
 4707SOL     OW14365   0.323   5.566   0.457 -0.0052 -0.0234 -0.0811
 4707SOL    HW114366   0.329   5.472   0.445  0.2795  0.0159 -0.2583
 4707SOL    HW214367   0.292   5.578   0.546 -0.0781 -0.2860 -0.0734
 4708SOL     OW14368   3.369   4.856   4.555  0.4797 -0.4192  0.1067
 4708SOL    HW114369   3.291   4.831   4.506 -0.3641  0.1756  1.1000
 4708SOL    HW214370   3.381   4.786   4.618  0.8042 -0.5509 -0.0988
 4709SOL     OW14371   0.206   3.942   5.482 -0.2317 -0.3119  0.0553
 4709SOL    HW114372   0.132   3.917   5.427 -1.2660 -0.6085  1.5252
 4709SOL    HW214373   0.257   3.861   5.492 -0.4666 -0.4510  0.1494
 4710SOL     OW14374   5.580   4.500   3.586  0.0699 -0.6851 -0.0110
 4710SOL    HW114375   5.508   4.449   3.623 -0.2124  0.0239  0.4503
 4710SOL    HW214376   5.659   4.462   3.624 -0.1209 -0.8937  0.1768
 4711SOL     OW14377   4.985   5.437   3.203 -0.1684  0.5222 -0.1449
 4711SOL    HW114378   5.031   5.405   3.280 -0.5435  1.8836  0.6594
 4711SOL    HW214379   4.910   5.378   3.194 -1.9040  2.1298  2.4162
 4712SOL     OW14380   0.057   4.284   2.430 -0.3361  0.2973 -0.2179
 4712SOL    HW114381   0.041   4.375   2.456 -0.3062 -0.0742  1.1685
 4712SOL    HW214382   0.033   4.232   2.507 -1.1281 -0.9394 -1.2678
 4713SOL     OW14383   5.266   5.960   1.602  0.6140 -0.3785 -0.2832
 4713SOL    HW114384   5.247   5.869   1.580 -0.2858  0.0630 -1.4471
 4713SOL    HW214385   5.361   5.963   1.614  0.7009 -1.3703 -0.6729
 4714SOL     OW14386   2.260   5.163   3.815 -0.0608  0.2942 -0.9999
 4714SOL    HW114387   2.348   5.198   3.824 -0.1394  0.9066 -2.3762
 4714SOL    HW214388   2.240   5.171   3.722 -1.5059  0.0057 -0.7452
 4715SOL     OW14389   1.982   0.362   2.987  0.1099  0.3758 -0.2152
 4715SOL    HW114390   1.955   0.359   2.895  2.6806 -1.1657 -1.0118
 4715SOL    HW214391   2.031   0.443   2.996 -1.3000  1.2238  0.2267
 4716SOL     OW14392   3.566   2.272   5.335 -0.2599 -0.3520  0.1638
 4716SOL    HW114393   3.612   2.255   5.252  0.5406 -2.1197  0.9147
 4716SOL    HW214394   3.636   2.278   5.400 -0.9465 -0.1652  0.9024
 4717SOL     OW14395   4.700   4.925   2.498 -0.1656 -0.0227 -0.1967
 4717SOL    HW114396   4.748   4.978   2.433 -0.8987 -1.0197 -1.5913
 4717SOL    HW214397   4.717   4.835   2.472 -1.6732 -0.4117  0.1123
 4718SOL     OW14398   2.013   4.188   4.927 -0.1301  0.3487 -0.2645
 4718SOL    HW114399   1.934   4.175   4.874 -1.2826 -1.4505  1.7544
 4718SOL    HW214400   2.074   4.120   4.896 -0.3849  0.0191 -0.0473
 4719SOL     OW14401   5.750   0.928   1.430 -0.2102 -0.2291 -0.2495
 4719SOL    HW114402   5.713   0.903   1.346  0.6038  0.3193 -0.7871
 4719SOL    HW214403   5.804   0.853   1.456  0.9454  0.2959 -1.0812
 4720SOL     OW14404   3.473   3.439   5.351  0.4158 -0.4599 -0.0410
 4720SOL    HW114405   3.486   3.351   5.315 -1.6439  0.0871 -2.3856
 4720SOL    HW214406   3.389   3.433   5.396 -0.4511  0.5966 -1.4458
 4721SOL     OW14407   1.387   0.567   1.976  0.6965  0.6057 -0.4088
 4721SOL    HW114408   1.433   0.485   1.958  0.0972 -0.0493  0.8590
 4721SOL    HW214409   1.447   0.616   2.033  0.2800  0.1923  0.4089
 4722SOL     OW14410   5.357   0.026   0.088  1.0994  0.0030  0.1239
 4722SOL    HW114411   5.421   0.087   0.053  1.3311  1.1828  2.4154
 4722SOL    HW214412   5.402  -0.058   0.089  1.7345  0.3204 -0.5527
 4723SOL     OW14413   2.517   0.823   3.133 -0.2283 -0.0172 -0.4578
 4723SOL    HW114414   2.554   0.810   3.046  2.4888  0.6365  0.4919
 4723SOL    HW214415   2.551   0.749   3.184 -0.1216  0.6589  0.4819
 4724SOL     OW14416   2.804   1.857   5.285  0.5008 -0.0503  0.0252
 4724SOL    HW114417   2.742   1.859   5.358  1.0360  2.5211  0.5038
 4724SOL    HW214418   2.888   1.837   5.326  0.5915  0.1263 -0.0732
 4725SOL     OW14419   2.849   3.451   4.682  0.1551  0.1045 -0.4304
 4725SOL    HW114420   2.818   3.539   4.658  0.8371  0.8270  1.2087
 4725SOL    HW214421   2.927   3.467   4.735 -0.5882 -1.4316  1.2287
 4726SOL     OW14422   1.824   0.607   5.848 -0.4767 -0.2001  0.2923
 4726SOL    HW114423   1.787   0.622   5.761 -1.0917  0.5652  0.6673
 4726SOL    HW214424   1.915   0.582   5.831 -0.6795 -0.3837 -0.5811
 4727SOL     OW14425   5.786   2.781   6.059  0.3044  0.0279 -0.4041
 4727SOL    HW114426   5.829   2.863   6.083 -1.2538  0.8074 -0.0950
 4727SOL    HW214427   5.707   2.809   6.011  0.3278 -1.3323 -1.2885
 4728SOL     OW14428   2.723   1.600   0.055 -0.0078 -0.5557 -0.2705
 4728SOL    HW114429   2.801   1.650   0.031  1.0235 -1.8135  0.3249
 4728SOL    HW214430   2.651   1.663   0.050  1.2503  1.0115  0.6401
 4729SOL     OW14431   3.479   1.490   3.991 -0.4455 -0.0542 -0.2691
 4729SOL    HW114432   3.572   1.483   3.969  0.1410 -0.4714  2.0513
 4729SOL    HW214433   3.472   1.573   4.038 -1.0454 -0.4686  0.3890
 4730SOL     OW14434   1.862   0.677   2.094  0.2787  0.0693 -0.1820
 4730SOL    HW114435   1.886   0.766   2.068 -0.9195  0.6848  0.7231
 4730SOL    HW214436   1.887   0.670   2.186  1.5859 -1.0142 -0.5870
 4731SOL     OW14437   0.526   0.441   2.519 -0.3393  0.0619 -0.4864
 4731SOL    HW114438   0.616   0.459   2.492  0.2629 -0.3583  1.1041
 4731SOL    HW214439   0.472   0.492   2.458  0.9821  0.7770 -1.1160
 4732SOL     OW14440   1.310   2.950   3.775  0.3970  0.2357  0.2591
 4732SOL    HW114441   1.281   2.952   3.684 -0.0214  0.4867  0.3955
 4732SOL    HW214442   1.344   2.861   3.788 -2.4253 -0.8695  0.7479
 4733SOL     OW14443   3.869   4.977   0.123 -1.3003 -1.2247 -0.1803
 4733SOL    HW114444   3.812   5.023   0.184  0.2530 -1.9691  1.9203
 4733SOL    HW214445   3.894   5.044   0.059  0.8280  0.9650  2.6945
 4734SOL     OW14446   3.431   5.716   5.972  0.1486 -0.1958 -0.0277
 4734SOL    HW114447   3.456   5.696   5.882  1.0012  0.4463  0.0533
 4734SOL    HW214448   3.470   5.646   6.024 -0.4187 -0.6156 -0.1589
 4735SOL     OW14449   3.367   0.210   3.869  0.1629  0.1585  0.0397
 4735SOL    HW114450   3.341   0.118   3.875  0.1130  0.0727 -1.2640
 4735SOL    HW214451   3.460   0.210   3.891  0.8030 -0.6011 -2.3857
 4736SOL     OW14452   3.354   1.358   0.538 -0.2211  0.0317 -0.1852
 4736SOL    HW114453   3.437   1.406   0.527 -0.7921  1.1516  0.2771
 4736SOL    HW214454   3.360   1.287   0.474  2.7770 -2.3198  2.3415
 4737SOL     OW14455   1.871   4.302   5.947 -0.2757 -0.1845 -0.2877
 4737SOL    HW114456   1.800   4.366   5.956  0.9247  0.9995  1.4440
 4737SOL    HW214457   1.947   4.354   5.920  0.4266 -1.0832 -0.0984
 4738SOL     OW14458   2.964   1.116   4.498  0.2437 -0.0273  0.2551
 4738SOL    HW114459   3.014   1.127   4.418  1.3744  1.0078  1.0636
 4738SOL    HW214460   2.951   1.205   4.531 -1.5212 -0.3138  0.4662
 4739SOL     OW14461   3.845   3.854   5.034 -0.1903  0.0722 -0.1812
 4739SOL    HW114462   3.765   3.849   5.087 -1.3210 -3.2643 -1.8891
 4739SOL    HW214463   3.821   3.909   4.960 -0.4130  0.3050  0.0627
 4740SOL     OW14464   1.728   5.341   2.938 -0.4567 -0.3087  0.0611
 4740SOL    HW114465   1.816   5.305   2.926 -0.4286  0.2194 -1.5751
 4740SOL    HW214466   1.670   5.277   2.897 -0.9467 -0.9770  1.6986
 4741SOL     OW14467   2.882   2.771   4.902  0.6586  0.0681  0.1731
 4741SOL    HW114468   2.802   2.816   4.928 -0.2061 -0.8102 -0.8642
 4741SOL    HW214469   2.879   2.688   4.951  0.4504 -0.3589 -0.5415
 4742SOL     OW14470   2.597   0.751   4.973  0.1078 -0.1177  0.0310
 4742SOL    HW114471   2.638   0.750   5.059 -0.1853 -3.2930  0.2787
 4742SOL    HW214472   2.650   0.811   4.921  1.5118  0.3265  1.9015
 4743SOL     OW14473   3.090   1.837   3.018  0.4929  0.2136  0.7126
 4743SOL    HW114474   3.028   1.769   2.990  0.1041  0.9487 -0.2533
 4743SOL    HW214475   3.044   1.885   3.087  0.3882  0.1099  0.7154
 4744SOL     OW14476   0.286   6.078   2.052 -0.2855  0.4523 -0.8265
 4744SOL    HW114477   0.222   6.128   2.103 -1.9268 -0.7464 -1.5996
 4744SOL    HW214478   0.371   6.111   2.080 -1.1325  0.3487  2.1276
 4745SOL     OW14479   4.090   2.058   1.563  0.3251  0.4992  0.0710
 4745SOL    HW114480   4.113   2.138   1.515  1.1415 -0.0607 -0.4907
 4745SOL    HW214481   3.994   2.062   1.570  0.3353  1.4319 -0.1111
 4746SOL     OW14482   2.226   0.002   4.582 -0.4314  0.6542 -0.3282
 4746SOL    HW114483   2.279   0.007   4.661  0.9989 -1.5299 -1.0505
 4746SOL    HW214484   2.237   0.088   4.541  2.9803  0.2282 -0.6107
 4747SOL     OW14485   1.364   3.414   5.979  0.2451 -0.1976 -0.7187
 4747SOL    HW114486   1.338   3.373   5.896 -0.3318  0.1925 -0.7398
 4747SOL    HW214487   1.282   3.442   6.019  0.6179  1.1198 -0.8101
 4748SOL     OW14488   2.801   1.031   3.619 -0.2695 -0.4377 -0.3954
 4748SOL    HW114489   2.866   0.962   3.603  0.5559 -0.0677  1.1355
 4748SOL    HW214490   2.741   1.025   3.545 -0.5987 -3.2048 -0.0224
 4749SOL     OW14491   1.779   2.215   0.439  0.2924  0.0634  0.3770
 4749SOL    HW114492   1.719   2.180   0.373  0.5755 -1.2819  0.8087
 4749SOL    HW214493   1.826   2.139   0.472  0.7160  0.8156  1.5789
 4750SOL     OW14494   3.800   2.306   5.155 -0.5136  0.1112  0.0638
 4750SOL    HW114495   3.854   2.278   5.082  0.7894  1.6994  0.3505
 4750SOL    HW214496   3.823   2.247   5.227  0.7269  0.6576  0.1293
 4751SOL     OW14497   2.436   1.149   1.800  0.5584 -0.1508 -0.0504
 4751SOL    HW114498   2.361   1.183   1.752 -0.2900 -0.8068  0.7697
 4751SOL    HW214499   2.505   1.140   1.734 -0.8298 -1.9051 -1.3827
 4752SOL     OW14500   2.075   0.672   1.178 -0.6544 -0.1182  0.4223
 4752SOL    HW114501   2.120   0.754   1.158  0.0733 -0.4763  0.5730
 4752SOL    HW214502   2.057   0.678   1.272 -0.4828 -0.1927  0.4593
 4753SOL     OW14503   4.843   5.384   3.563  0.1658  0.3417 -0.1026
 4753SOL    HW114504   4.870   5.396   3.654 -0.6369  0.9355  0.0700
 4753SOL    HW214505   4.788   5.460   3.544 -1.4130 -0.8184 -0.4115
 4754SOL     OW14506   1.616   0.615   4.084  0.4289 -0.0888  0.1239
 4754SOL    HW114507   1.672   0.677   4.038 -0.0707 -0.0827 -0.4865
 4754SOL    HW214508   1.610   0.540   4.026 -1.0559  0.3423 -0.3361
 4755SOL     OW14509   0.606   5.722   2.411 -0.4137 -0.2009  0.5157
 4755SOL    HW114510   0.563   5.637   2.421 -0.1098 -0.4574 -0.3243
 4755SOL    HW214511   0.551   5.770   2.349  0.1172 -0.2721 -0.0205
 4756SOL     OW14512   0.513   2.704   5.740 -0.2979  0.5447 -0.1425
 4756SOL    HW114513   0.442   2.769   5.734  0.7136  1.7074  0.0531
 4756SOL    HW214514   0.504   2.668   5.828 -0.7010  0.6208 -0.1480
 4757SOL     OW14515   2.650   2.124   5.545 -0.1638  0.1662  0.3814
 4757SOL    HW114516   2.683   2.036   5.525 -0.0958  0.5104 -1.1360
 4757SOL    HW214517   2.628   2.161   5.459 -1.8067  1.0031  1.1132
 4758SOL     OW14518   2.238   3.612   2.160  0.2380 -0.0604 -0.2023
 4758SOL    HW114519   2.317   3.573   2.198  0.1703  1.2529  1.4288
 4758SOL    HW214520   2.218   3.685   2.219  1.3245  3.5750 -3.8688
 4759SOL     OW14521   2.298   3.017   4.929 -0.2638  0.1108  0.1139
 4759SOL    HW114522   2.341   2.932   4.933 -1.5630 -0.5302  1.3525
 4759SOL    HW214523   2.231   3.006   4.862 -0.5517  0.0808  0.4020
 4760SOL     OW14524   1.916   5.537   5.241  0.0918 -0.2499 -0.1575
 4760SOL    HW114525   1.969   5.616   5.254  0.5928 -0.6667  0.3826
 4760SOL    HW214526   1.863   5.557   5.164  1.5304 -0.0927 -1.1584
 4761SOL     OW14527   3.748   4.551   1.208 -0.3558 -0.0158  0.1052
 4761SOL    HW114528   3.814   4.531   1.142 -0.4700 -0.8266  0.2246
 4761SOL    HW214529   3.788   4.618   1.263 -0.5620  1.2864 -1.2556
 4762SOL     OW14530   0.624   1.724   0.533 -0.0658 -0.0642  0.2577
 4762SOL    HW114531   0.632   1.746   0.440  0.3113 -0.7230  0.1310
 4762SOL    HW214532   0.656   1.634   0.540 -2.0580 -0.7932  0.6860
 4763SOL     OW14533   2.963   3.052   1.877  0.0153 -0.1953 -0.1366
 4763SOL    HW114534   2.880   3.065   1.925  1.7829  0.0606  3.1672
 4763SOL    HW214535   2.981   2.958   1.887  0.0225 -0.3065 -1.1087
 4764SOL     OW14536   2.177   0.484   3.858  0.2434 -0.1122 -1.0701
 4764SOL    HW114537   2.136   0.522   3.935  1.3524  2.7679 -1.7681
 4764SOL    HW214538   2.106   0.439   3.812 -0.6718 -0.8510  0.9451
 4765SOL     OW14539   3.116   3.002   2.467  0.5036  0.1813  0.1335
 4765SOL    HW114540   3.021   3.003   2.473  0.5116 -0.1524  0.3709
 4765SOL    HW214541   3.134   2.955   2.385  0.4591  0.5377 -0.0799
 4766SOL     OW14542   5.926   0.006   2.166  0.3516  0.4527 -0.2850
 4766SOL    HW114543   5.902  -0.044   2.244 -0.6672  0.9023 -0.2998
 4766SOL    HW214544   5.892  -0.046   2.093  1.3162  0.0252 -0.4538
 4767SOL     OW14545   5.778   5.880   5.943  0.5859  0.6424 -0.5298
 4767SOL    HW114546   5.703   5.849   5.891 -0.4379 -0.0927  1.2809
 4767SOL    HW214547   5.846   5.816   5.928  0.5720  0.8471 -1.5296
 4768SOL     OW14548   5.412   0.281   0.912  0.1105  0.4051 -0.1034
 4768SOL    HW114549   5.375   0.207   0.960 -0.6421  0.6080 -0.3504
 4768SOL    HW214550   5.335   0.331   0.883  0.4704 -0.3685 -2.5890
 4769SOL     OW14551   4.897   3.409   2.975 -0.1894  0.1651 -0.1096
 4769SOL    HW114552   4.819   3.375   2.931 -0.0892  0.4305 -0.5070
 4769SOL    HW214553   4.970   3.373   2.925 -0.0465 -0.3767  0.4848
 4770SOL     OW14554   1.994   1.796   0.767 -0.1509  0.0680 -0.4667
 4770SOL    HW114555   1.997   1.718   0.712  0.0113 -0.2040 -0.0843
 4770SOL    HW214556   1.930   1.853   0.726 -1.4951 -0.9611  0.1208
 4771SOL     OW14557   0.737   6.096   1.822 -0.5751 -0.1460  0.2805
 4771SOL    HW114558   0.651   6.127   1.851 -0.6522  1.1198 -1.1572
 4771SOL    HW214559   0.722   6.064   1.733  0.3156 -0.5505  0.2693
 4772SOL     OW14560   6.003   5.908   6.092  0.0839  0.2968 -0.1172
 4772SOL    HW114561   6.060   5.968   6.044 -1.3444  0.9344 -1.0852
 4772SOL    HW214562   5.930   5.892   6.032 -1.4967  0.6759  1.6255
 4773SOL     OW14563   3.979   1.036   2.356  0.1918  0.5149  0.0329
 4773SOL    HW114564   4.044   1.102   2.334  0.3539  0.3450 -0.0017
 4773SOL    HW214565   3.969   1.042   2.451 -0.0527  0.8257 -0.0098
 4774SOL     OW14566   5.497   0.555   3.396 -0.2950 -0.3633 -0.3432
 4774SOL    HW114567   5.463   0.476   3.438 -2.0102  0.1784 -0.6518
 4774SOL    HW214568   5.561   0.523   3.332 -2.6970 -1.7882 -2.2276
 4775SOL     OW14569   2.572   2.343   5.215 -0.4202 -0.5556 -0.0472
 4775SOL    HW114570   2.534   2.325   5.301 -1.0058 -0.8318 -0.3591
 4775SOL    HW214571   2.532   2.426   5.188 -2.0855 -1.6442 -1.0849
 4776SOL     OW14572   3.498   4.668   0.074  0.6622 -0.1190  0.1583
 4776SOL    HW114573   3.569   4.654   0.012  1.2930 -0.6941  0.9831
 4776SOL    HW214574   3.451   4.584   0.077  0.4122  0.0206  0.1805
 4777SOL     OW14575   3.960   5.540   1.762 -0.1146  0.4030  0.7596
 4777SOL    HW114576   4.016   5.616   1.745  0.8379 -0.4888 -0.3380
 4777SOL    HW214577   3.879   5.576   1.797  0.3262  1.9213  0.2888
 4778SOL     OW14578   2.519   3.588   3.113 -0.3154  0.0337  0.7314
 4778SOL    HW114579   2.562   3.664   3.073 -0.3079 -0.9455 -1.2646
 4778SOL    HW214580   2.426   3.610   3.112 -0.3387 -0.0706 -0.0886
 4779SOL     OW14581   3.056   1.049   2.324 -0.3251  0.1029  0.0222
 4779SOL    HW114582   3.015   0.965   2.304 -0.6208  0.5638 -1.4402
 4779SOL    HW214583   3.141   1.025   2.363 -1.0842 -0.8513  1.1519
 4780SOL     OW14584   4.424   4.585   2.139 -0.1339 -0.0032 -0.0747
 4780SOL    HW114585   4.472   4.563   2.059 -1.2978 -0.4107 -0.6800
 4780SOL    HW214586   4.372   4.662   2.116 -0.9870 -0.5226  0.0635
 4781SOL     OW14587   3.947   1.274   1.156 -0.4811 -0.1502  0.5964
 4781SOL    HW114588   3.932   1.194   1.106 -2.5943  2.2904 -3.1485
 4781SOL    HW214589   3.872   1.281   1.214 -0.5091 -0.6809  0.6293
 4782SOL     OW14590   2.222   1.393   0.605  0.0240 -0.3385  1.3305
 4782SOL    HW114591   2.259   1.314   0.645  2.4924 -0.0294 -0.1367
 4782SOL    HW214592   2.286   1.461   0.622 -0.4632  0.5649 -0.2305
 4783SOL     OW14593   5.044   3.358   4.537  0.3851 -0.2647  0.0964
 4783SOL    HW114594   5.001   3.279   4.501 -1.0385  0.5239 -0.0112
 4783SOL    HW214595   5.051   3.341   4.631  0.7436 -0.8148 -0.0262
 4784SOL     OW14596   4.960   4.286   1.344  0.3391  0.1092  0.4339
 4784SOL    HW114597   5.049   4.301   1.376  0.6505 -0.6433 -0.0593
 4784SOL    HW214598   4.904   4.307   1.419  0.9764 -0.2604  1.0341
 4785SOL     OW14599   4.148   1.751   5.862  0.1775  0.4873 -0.3931
 4785SOL    HW114600   4.203   1.825   5.836 -0.0382  0.3565 -1.2598
 4785SOL    HW214601   4.191   1.715   5.939  1.4028  0.2954 -1.1431
 4786SOL     OW14602   2.014   0.821   0.221  0.7449  0.2757 -0.3223
 4786SOL    HW114603   1.991   0.842   0.312  0.4951 -1.8711  0.1639
 4786SOL    HW214604   2.055   0.901   0.188  0.2017  1.3507  1.4479
 4787SOL     OW14605   1.779   1.755   3.033 -0.2540  0.3470 -0.4131
 4787SOL    HW114606   1.828   1.683   2.992  0.1900  0.3436  0.1137
 4787SOL    HW214607   1.749   1.808   2.959  0.8797  0.5659 -0.7409
 4788SOL     OW14608   1.998   1.173   5.522 -0.1509  0.7404 -0.3259
 4788SOL    HW114609   2.063   1.216   5.466  0.6150  0.8479  0.6240
 4788SOL    HW214610   2.012   1.211   5.609 -2.1969  1.5483 -0.3064
 4789SOL     OW14611   5.753   1.235   4.413 -1.1753 -0.0903 -0.4062
 4789SOL    HW114612   5.793   1.173   4.352  1.2774  1.1559 -0.1964
 4789SOL    HW214613   5.746   1.317   4.364  0.3736  0.7977  0.7366
 4790SOL     OW14614   4.922   2.273   1.673 -0.1864 -0.0693  0.0510
 4790SOL    HW114615   4.871   2.324   1.610  1.1287  1.3190  0.0615
 4790SOL    HW214616   5.013   2.283   1.645  0.1070 -3.1013 -0.4165
 4791SOL     OW14617   3.773   1.539   0.933  0.4835 -0.2631 -0.4166
 4791SOL    HW114618   3.863   1.515   0.909  0.0018 -0.8765 -1.7405
 4791SOL    HW214619   3.722   1.461   0.913 -0.4203  0.2554 -0.1815
 4792SOL     OW14620   2.852   0.029   5.286 -1.0236 -0.1414 -0.3760
 4792SOL    HW114621   2.760   0.013   5.308 -0.9016 -0.8187 -0.3508
 4792SOL    HW214622   2.851   0.112   5.238 -1.5414  0.2957  0.3669
 4793SOL     OW14623   1.385   3.701   5.555  0.3633 -0.0102 -0.1616
 4793SOL    HW114624   1.374   3.692   5.650 -1.6288  1.2371 -0.1974
 4793SOL    HW214625   1.401   3.795   5.542 -2.4998  0.4236 -1.2118
 4794SOL     OW14626   3.295   2.863   3.942 -0.1275 -0.8245 -0.5462
 4794SOL    HW114627   3.365   2.927   3.929  0.5500 -1.6536 -1.0966
 4794SOL    HW214628   3.250   2.892   4.020  1.3253 -0.6925  0.2732
 4795SOL     OW14629   4.405   2.206   3.490 -0.1903 -1.0230 -0.1319
 4795SOL    HW114630   4.437   2.118   3.472  0.1996 -0.8758 -0.1749
 4795SOL    HW214631   4.451   2.233   3.570 -0.5149 -0.9619  0.0388
 4796SOL     OW14632   2.667   1.803   4.115  0.5794  0.0378  0.6344
 4796SOL    HW114633   2.695   1.831   4.027 -1.0257  0.8279  0.3349
 4796SOL    HW214634   2.726   1.847   4.175  1.0275  0.3373 -0.0237
 4797SOL     OW14635   3.012   4.608   3.670 -0.5859 -0.2298  0.5257
 4797SOL    HW114636   3.091   4.573   3.711 -0.9193 -0.6642  0.8041
 4797SOL    HW214637   3.035   4.620   3.578 -0.0948 -0.0429  0.6722
 4798SOL     OW14638   1.843   2.119   0.921 -0.0934 -0.0414  0.9633
 4798SOL    HW114639   1.860   2.176   0.996 -0.1571  1.4251 -0.0956
 4798SOL    HW214640   1.922   2.127   0.867 -0.6121  0.0179  0.2049
 4799SOL     OW14641   4.600   3.352   5.157  0.2373 -0.3874  0.1607
 4799SOL    HW114642   4.660   3.378   5.087  0.2577  0.5198  0.4937
 4799SOL    HW214643   4.514   3.354   5.116  0.3297 -0.6946 -0.0550
 4800SOL     OW14644   1.835   1.713   5.107 -0.9289 -0.1096 -0.0431
 4800SOL    HW114645   1.831   1.623   5.074 -1.8284  0.4738 -1.6146
 4800SOL    HW214646   1.761   1.758   5.066 -0.9077  1.1965  1.2428
 4801SOL     OW14647   1.781   2.212   6.102  0.9463  0.1692 -0.3877
 4801SOL    HW114648   1.726   2.256   6.038  1.8864 -0.1181 -1.4364
 4801SOL    HW214649   1.733   2.133   6.125  0.1999  0.7087 -0.0708
 4802SOL     OW14650   5.296   2.641   5.008 -0.5327 -0.0573 -0.3931
 4802SOL    HW114651   5.347   2.636   5.089  0.5610  2.9111 -0.7636
 4802SOL    HW214652   5.205   2.630   5.036  0.0397 -3.0799  0.6084
 4803SOL     OW14653   5.158   2.647   2.388 -0.0498  0.1493 -0.4416
 4803SOL    HW114654   5.170   2.718   2.325  0.4289  0.0190 -0.4972
 4803SOL    HW214655   5.240   2.643   2.436 -0.9411  1.2556  1.2477
 4804SOL     OW14656   2.925   0.122   6.120 -0.3340 -0.0532  0.0205
 4804SOL    HW114657   2.964   0.206   6.145  1.0421 -0.5552 -0.3421
 4804SOL    HW214658   2.945   0.064   6.193 -0.2523 -0.3593 -0.2416
 4805SOL     OW14659   1.451   3.344   0.131  0.1776 -0.6656  0.0998
 4805SOL    HW114660   1.487   3.388   0.209  0.9208 -0.8026 -0.1565
 4805SOL    HW214661   1.357   3.357   0.138  0.2157 -0.8333  1.1237
 4806SOL     OW14662   1.584   0.700   2.119 -0.0210  0.8885 -0.1565
 4806SOL    HW114663   1.578   0.767   2.186  1.4918 -0.9079  1.9296
 4806SOL    HW214664   1.664   0.721   2.071  0.1856  0.8602  0.1733
 4807SOL     OW14665   3.915   5.584   2.581  0.3512  0.5378  0.0924
 4807SOL    HW114666   3.879   5.616   2.498 -1.4057  0.3469  0.7318
 4807SOL    HW214667   3.941   5.493   2.563 -0.6316  0.2845 -0.1008
 4808SOL     OW14668   3.280   4.751   1.829  0.1849  0.0831  0.3009
 4808SOL    HW114669   3.262   4.760   1.735  1.4917  0.2357  0.0386
 4808SOL    HW214670   3.277   4.656   1.845  1.1696 -0.0408 -0.1762
 4809SOL     OW14671   3.829   1.033   1.126 -0.4568 -0.4778  0.4331
 4809SOL    HW114672   3.777   0.974   1.181  1.3997 -1.4057  1.3279
 4809SOL    HW214673   3.854   0.979   1.051 -3.0167  0.7996 -1.4659
 4810SOL     OW14674   4.387   5.414   4.766 -0.1928  0.2070 -0.0810
 4810SOL    HW114675   4.439   5.403   4.846  3.3288 -0.6561 -2.2678
 4810SOL    HW214676   4.307   5.363   4.782 -0.4526  1.4574  3.4195
 4811SOL     OW14677   3.509   3.440   5.795  0.0113 -0.0443  0.1079
 4811SOL    HW114678   3.600   3.446   5.766 -0.9179  2.6736 -2.8223
 4811SOL    HW214679   3.486   3.348   5.779  1.2435  0.0262 -2.8411
 4812SOL     OW14680   1.825   6.106   2.910  0.3563  0.9489 -0.0819
 4812SOL    HW114681   1.869   6.131   2.829  0.3556  1.2424  0.0046
 4812SOL    HW214682   1.803   6.014   2.899 -0.2816  1.1677 -0.7170
 4813SOL     OW14683   2.637   4.077   0.114  0.3710  0.4814 -0.4431
 4813SOL    HW114684   2.672   4.076   0.203  1.2425 -0.2027 -0.7664
 4813SOL    HW214685   2.563   4.137   0.117  0.0005 -0.0167  0.8870
 4814SOL     OW14686   5.580   2.308   2.543  0.2358 -0.4394 -0.2012
 4814SOL    HW114687   5.599   2.217   2.523 -1.2641 -0.7438 -0.3461
 4814SOL    HW214688   5.580   2.312   2.639 -3.6052 -1.5549 -0.0311
 4815SOL     OW14689   2.244   2.715   4.749 -0.1062 -0.0029 -0.1307
 4815SOL    HW114690   2.195   2.795   4.732 -0.0754 -0.0620 -0.5014
 4815SOL    HW214691   2.239   2.666   4.667  0.5308 -0.0335 -0.1548
 4816SOL     OW14692   1.514   3.060   4.376  0.0495 -0.1939  0.7641
 4816SOL    HW114693   1.452   3.045   4.448 -2.0818  0.4982 -0.8228
 4816SOL    HW214694   1.541   2.972   4.350 -2.0089 -0.7137  0.1369
 4817SOL     OW14695   5.541   0.282   5.371  0.4825 -0.0282 -0.0553
 4817SOL    HW114696   5.479   0.215   5.400 -1.6178  2.0173  0.4662
 4817SOL    HW214697   5.512   0.305   5.283  1.8424 -0.4740 -0.6581
 4818SOL     OW14698   0.937   1.177   2.772  0.3724  0.3978  0.1469
 4818SOL    HW114699   0.982   1.249   2.728 -1.1322  1.4786  0.2939
 4818SOL    HW214700   0.913   1.212   2.858 -0.9445 -0.0367 -0.0200
 4819SOL     OW14701   4.372   2.364   1.497  0.4892 -0.2993  0.0575
 4819SOL    HW114702   4.374   2.273   1.468  0.6604 -0.6717  1.1768
 4819SOL    HW214703   4.311   2.407   1.437 -0.3207 -1.3693  0.0720
 4820SOL     OW14704   5.741   0.628   4.223 -0.3480  0.2343 -0.4767
 4820SOL    HW114705   5.654   0.664   4.207 -0.4731 -0.6600 -2.0240
 4820SOL    HW214706   5.746   0.620   4.319 -2.4575 -0.8463 -0.3873
 4821SOL     OW14707   2.448   5.260   3.156 -0.3136  0.3447  0.0456
 4821SOL    HW114708   2.511   5.190   3.173  0.7481  0.5648 -2.4442
 4821SOL    HW214709   2.461   5.322   3.228  1.7964  0.0014  0.0410
 4822SOL     OW14710   2.539   5.734   0.471 -0.5942  0.3174  0.3365
 4822SOL    HW114711   2.469   5.727   0.407 -0.1654 -2.1708  0.0069
 4822SOL    HW214712   2.597   5.802   0.437 -0.1990 -1.1349 -2.1836
 4823SOL     OW14713   6.114   2.721   0.748 -0.6732  0.7123  0.2334
 4823SOL    HW114714   6.092   2.680   0.831 -1.1015  1.0960  0.3133
 4823SOL    HW214715   6.159   2.802   0.772  3.1440 -1.1338  0.1078
 4824SOL     OW14716   5.168   4.683   2.658  0.1816  0.1210 -0.5745
 4824SOL    HW114717   5.128   4.626   2.724  0.3242  2.7033  1.8824
 4824SOL    HW214718   5.100   4.694   2.592  0.1303 -2.7492 -1.1537
 4825SOL     OW14719   4.519   5.326   3.858 -0.3443 -0.1611  0.8270
 4825SOL    HW114720   4.474   5.327   3.943 -0.0918 -1.6755  0.9910
 4825SOL    HW214721   4.511   5.416   3.826 -1.6172  0.1105  1.8375
 4826SOL     OW14722   5.469   3.584   0.049 -0.0085 -0.0470  0.6408
 4826SOL    HW114723   5.558   3.586   0.014 -0.4327 -1.0823 -0.5492
 4826SOL    HW214724   5.451   3.676   0.072  1.0281  0.3192  0.0721
 4827SOL     OW14725   3.786   0.355   0.558  0.5892  0.1872  0.9476
 4827SOL    HW114726   3.831   0.438   0.539 -0.9792  0.4478 -2.4387
 4827SOL    HW214727   3.855   0.289   0.551  1.0057  0.7797 -2.0062
 4828SOL     OW14728   3.584   4.107   1.987  0.3687 -0.1468  1.1850
 4828SOL    HW114729   3.614   4.192   1.956 -0.3150 -0.5407 -0.6963
 4828SOL    HW214730   3.662   4.052   1.986  0.3283 -0.2372 -0.2916
 4829SOL     OW14731   3.640   2.164   2.767 -0.3397  0.9387 -0.0945
 4829SOL    HW114732   3.567   2.107   2.790  0.2986  0.3314  0.4629
 4829SOL    HW214733   3.680   2.187   2.851  1.5536 -0.6749 -0.4866
 4830SOL     OW14734   2.668   5.965   4.049  0.4572 -0.8353 -0.7699
 4830SOL    HW114735   2.681   6.058   4.031 -1.4398 -0.4033 -0.0764
 4830SOL    HW214736   2.585   5.943   4.007  0.1963 -1.8860  0.2456
 4831SOL     OW14737   1.638   2.016   0.090 -0.0434 -0.8472 -0.0503
 4831SOL    HW114738   1.620   2.087   0.151  1.6210  1.0498 -1.6142
 4831SOL    HW214739   1.718   1.975   0.124 -1.2654 -2.3764  1.1180
 4832SOL     OW14740   0.799   1.615   6.060  0.2391  0.7032 -0.0786
 4832SOL    HW114741   0.706   1.630   6.043 -0.2263 -0.6680  1.0208
 4832SOL    HW214742   0.844   1.653   5.985 -1.4063 -1.6115 -2.4166
 4833SOL     OW14743   3.028   5.682   5.755  0.1524 -0.4112 -0.4381
 4833SOL    HW114744   3.025   5.770   5.719  0.0659 -0.6854 -1.1091
 4833SOL    HW214745   2.941   5.669   5.793 -0.0339 -0.4207 -0.8598
 4834SOL     OW14746   2.016   5.127   2.026  0.4198  0.0370 -0.4065
 4834SOL    HW114747   1.960   5.103   1.952  0.2902  0.4764 -0.4531
 4834SOL    HW214748   1.999   5.059   2.091  1.7548 -1.2889 -1.3745
 4835SOL     OW14749   1.543   2.395   4.750 -0.1559 -0.1084  0.1416
 4835SOL    HW114750   1.523   2.415   4.841 -0.3406  0.4652 -0.0236
 4835SOL    HW214751   1.490   2.456   4.699 -0.0800 -0.4429 -0.3553
 4836SOL     OW14752   4.453   5.182   3.089  0.4582 -0.0084 -0.5070
 4836SOL    HW114753   4.384   5.116   3.084  0.8506 -0.4557 -0.0973
 4836SOL    HW214754   4.438   5.239   3.013  0.7569 -1.1802 -1.4726
 4837SOL     OW14755   0.433   1.997   0.107  0.2770 -0.1422 -0.3275
 4837SOL    HW114756   0.419   1.935   0.036 -0.6372 -1.7333  1.1515
 4837SOL    HW214757   0.359   2.058   0.100  0.0387 -0.4559 -0.5920
 4838SOL     OW14758   4.403   4.040   4.432 -0.6379  0.1246 -0.0632
 4838SOL    HW114759   4.428   3.954   4.465 -0.3452  0.6410  1.0929
 4838SOL    HW214760   4.309   4.034   4.419 -0.6915 -0.2360  0.4543
 4839SOL     OW14761   3.807   1.397   2.600  0.2154 -0.0430  0.1619
 4839SOL    HW114762   3.743   1.468   2.597  2.9064  2.5548 -1.4607
 4839SOL    HW214763   3.764   1.324   2.555 -1.4760  1.6628 -1.1684
 4840SOL     OW14764   2.482   4.154   1.316  0.0120 -0.0811  0.0969
 4840SOL    HW114765   2.566   4.108   1.308 -0.9258 -2.2996  1.7660
 4840SOL    HW214766   2.425   4.109   1.253 -0.3028  0.4793 -0.0217
 4841SOL     OW14767   3.880   4.480   2.061 -0.0934 -0.8980  0.2263
 4841SOL    HW114768   3.800   4.533   2.069  1.5460  2.1560 -1.5787
 4841SOL    HW214769   3.852   4.402   2.013 -2.3621 -1.0169  1.5997
 4842SOL     OW14770   5.036   1.899   3.762 -0.1885 -0.1687  0.5226
 4842SOL    HW114771   5.129   1.918   3.774 -0.3350  0.2637  1.0076
 4842SOL    HW214772   5.034   1.817   3.712  0.4566  0.3705 -0.4159
 4843SOL     OW14773   0.122   3.037   5.709 -0.1334 -0.1467  0.5707
 4843SOL    HW114774   0.082   3.027   5.796 -3.0607  0.3333 -0.5981
 4843SOL    HW214775   0.049   3.059   5.652  1.8690  0.6103 -1.8622
 4844SOL     OW14776   4.466   0.729   3.276  0.2721 -0.6985 -0.1332
 4844SOL    HW114777   4.523   0.653   3.291 -1.4428 -1.7806  1.3415
 4844SOL    HW214778   4.526   0.801   3.260  2.0241 -1.9878  0.3101
 4845SOL     OW14779   0.775   5.325   1.389 -0.3303  0.2387  0.1950
 4845SOL    HW114780   0.697   5.378   1.368  0.9856  1.8629 -0.8997
 4845SOL    HW214781   0.814   5.369   1.465 -0.5480 -0.6762  0.8542
 4846SOL     OW14782   3.784   2.618   2.524  0.0143  0.0230  0.5609
 4846SOL    HW114783   3.815   2.585   2.608  0.5508  1.6211  1.0236
 4846SOL    HW214784   3.860   2.660   2.485  0.0047 -1.4434 -1.1665
 4847SOL     OW14785   4.488   5.029   5.943  0.1929 -0.1837 -0.0242
 4847SOL    HW114786   4.396   5.056   5.942  0.5202  1.3124 -2.8486
 4847SOL    HW214787   4.497   4.974   6.020 -2.5783  1.2762  1.4851
 4848SOL     OW14788   5.378   6.114   4.305  0.0642  0.2652 -0.0973
 4848SOL    HW114789   5.363   6.056   4.379  2.1199 -2.2857 -1.5314
 4848SOL    HW214790   5.414   6.194   4.344 -1.5351  0.1309  1.8178
 4849SOL     OW14791   4.927   2.235   1.935 -0.1529  0.2492 -0.1338
 4849SOL    HW114792   4.911   2.258   1.844  0.8760 -1.3436 -0.7552
 4849SOL    HW214793   4.952   2.318   1.977  0.1790  0.8506 -1.4804
 4850SOL     OW14794   0.043   5.436   3.897  0.0455 -0.0086  0.0729
 4850SOL    HW114795   0.069   5.442   3.989  0.2866  0.7003 -0.0408
 4850SOL    HW214796  -0.049   5.464   3.897 -1.0233 -3.0807  0.5671
 4851SOL     OW14797   1.569   4.463   4.572 -0.1444  0.5713 -0.7602
 4851SOL    HW114798   1.475   4.458   4.590  0.2258  0.1859  1.2604
 4851SOL    HW214799   1.585   4.391   4.510 -0.8340 -0.8338  0.6201
 4852SOL     OW14800   2.189   0.475   5.795 -0.0888  0.1722 -0.6878
 4852SOL    HW114801   2.231   0.516   5.871  0.7141  0.6558 -1.3704
 4852SOL    HW214802   2.175   0.384   5.822  0.4052  0.2760 -0.0475
 4853SOL     OW14803   4.516   2.932   3.506  0.2935 -0.3896  0.3251
 4853SOL    HW114804   4.446   2.988   3.471  1.4043  0.7902 -0.0712
 4853SOL    HW214805   4.579   2.925   3.434  1.4848  0.1296  1.2954
 4854SOL     OW14806   0.687   3.197   4.399 -0.0150 -0.4730 -0.0337
 4854SOL    HW114807   0.781   3.178   4.406  0.8030  3.2725  3.8548
 4854SOL    HW214808   0.682   3.271   4.338  0.3273  1.7692  2.4327
 4855SOL     OW14809   2.571   0.546   3.209  0.2040  0.1198 -0.0590
 4855SOL    HW114810   2.593   0.532   3.301  0.8766 -0.1685 -0.2584
 4855SOL    HW214811   2.487   0.500   3.198  0.1851  0.0418  0.3765
 4856SOL     OW14812   4.287   1.598   4.517 -0.5256  0.2524 -0.3058
 4856SOL    HW114813   4.192   1.602   4.509 -0.5114 -0.3050 -0.7391
 4856SOL    HW214814   4.318   1.569   4.431  0.0007 -0.0812 -0.0108
 4857SOL     OW14815   1.333   4.420   0.423  0.1687 -0.2589 -0.3929
 4857SOL    HW114816   1.242   4.411   0.449  0.7190  0.3897  2.0289
 4857SOL    HW214817   1.351   4.514   0.430  1.1955 -0.4556 -0.1361
 4858SOL     OW14818   3.458   4.337   4.578  0.3247  0.2587 -0.3453
 4858SOL    HW114819   3.366   4.313   4.571 -0.3158  2.5010 -0.1761
 4858SOL    HW214820   3.475   4.342   4.672  0.5991 -0.0503 -0.3756
 4859SOL     OW14821   4.746   4.311   0.051  0.1597  0.6455  0.1452
 4859SOL    HW114822   4.779   4.297  -0.037  2.2589  0.2949  0.9314
 4859SOL    HW214823   4.678   4.245   0.062  1.9623 -1.3600 -0.1961
 4860SOL     OW14824   1.686   2.697   2.816 -0.6578  0.2136  0.4047
 4860SOL    HW114825   1.669   2.707   2.910  0.6678  1.1480  0.5691
 4860SOL    HW214826   1.781   2.702   2.808 -0.6704 -1.1918 -0.8621
 4861SOL     OW14827   4.844   4.535   0.148  0.0028  0.1742  0.5107
 4861SOL    HW114828   4.815   4.453   0.109  1.6203  0.8440 -2.4663
 4861SOL    HW214829   4.930   4.514   0.185  0.3776  0.4631 -0.1737
 4862SOL     OW14830   4.306   0.954   3.151 -0.4584  0.2090 -1.0216
 4862SOL    HW114831   4.306   0.905   3.069 -0.5447 -2.3343  0.4039
 4862SOL    HW214832   4.292   0.888   3.219  1.9847  1.8268  1.2644
 4863SOL     OW14833   0.750   3.606   5.288  0.6536  0.1584  0.0505
 4863SOL    HW114834   0.834   3.651   5.282  0.5725  0.4937  1.1071
 4863SOL    HW214835   0.762   3.543   5.359  0.1590 -0.1295 -0.1158
 4864SOL     OW14836   0.610   3.466   3.938 -0.0986  0.4058 -0.0027
 4864SOL    HW114837   0.613   3.516   4.020  0.9416  0.9083 -0.3254
 4864SOL    HW214838   0.563   3.523   3.877 -1.0676 -0.0603  0.2835
 4865SOL     OW14839   0.009   3.443   0.246 -0.2049  0.1152 -0.3544
 4865SOL    HW114840  -0.045   3.383   0.297 -0.9254  0.2897 -0.8923
 4865SOL    HW214841   0.086   3.459   0.301  0.1597 -1.5474 -0.3522
 4866SOL     OW14842   5.414   0.915   2.373  0.2426 -0.4185 -0.0280
 4866SOL    HW114843   5.498   0.892   2.335  1.5266  1.4114  1.4937
 4866SOL    HW214844   5.379   0.984   2.316  0.9436  0.4906  0.6024
 4867SOL     OW14845   1.320   5.156   4.826  0.2538  0.1116  0.1610
 4867SOL    HW114846   1.239   5.117   4.793 -0.6131  1.6423  0.4077
 4867SOL    HW214847   1.314   5.147   4.921 -0.5629  1.8940  0.3207
 4868SOL     OW14848   0.104   0.883   3.223 -0.0710  0.1981 -0.3790
 4868SOL    HW114849   0.070   0.795   3.207 -0.7170  0.6709 -1.8559
 4868SOL    HW214850   0.027   0.940   3.218  0.6875  1.1423 -2.3889
 4869SOL     OW14851   3.494   0.385   5.419  0.2749 -0.1173  0.5473
 4869SOL    HW114852   3.490   0.329   5.341 -1.8311  0.1773  0.3913
 4869SOL    HW214853   3.518   0.325   5.490  0.3013 -0.7830 -0.0060
 4870SOL     OW14854   5.869   2.374   1.108 -0.5498 -0.4253  0.2360
 4870SOL    HW114855   5.776   2.380   1.130 -1.0040 -1.4521 -1.2116
 4870SOL    HW214856   5.891   2.461   1.074 -0.6235  0.2176  1.7784
 4871SOL     OW14857   5.099   0.654   1.227  0.6439 -0.2834 -0.1577
 4871SOL    HW114858   5.089   0.733   1.280 -0.6539 -0.3156 -0.3349
 4871SOL    HW214859   5.128   0.686   1.141  1.6690 -0.1478  0.2179
 4872SOL     OW14860   6.010   5.609   2.997 -0.4224 -0.0068  0.2301
 4872SOL    HW114861   6.061   5.652   3.065 -1.2029  0.9403  0.2383
 4872SOL    HW214862   5.943   5.673   2.973 -0.9632 -0.8243 -0.5071
 4873SOL     OW14863   0.332   1.905   4.913  0.0400  0.4951  0.4095
 4873SOL    HW114864   0.237   1.897   4.921 -0.1750  3.4416  2.3995
 4873SOL    HW214865   0.346   1.933   4.822 -0.9123 -0.3044 -0.0043
 4874SOL     OW14866   1.525   4.416   0.155  0.3647 -0.0824 -0.0144
 4874SOL    HW114867   1.486   4.481   0.214  0.0661  0.3100 -0.6392
 4874SOL    HW214868   1.485   4.333   0.181 -1.5991  0.4290 -1.2262
 4875SOL     OW14869   0.267   2.484   3.775  0.4944  0.0694 -0.1335
 4875SOL    HW114870   0.178   2.483   3.741  0.4399  1.6289 -0.1272
 4875SOL    HW214871   0.312   2.415   3.728 -0.6723 -0.6250 -0.2625
 4876SOL     OW14872   3.163   5.964   3.108  0.0276  0.1280 -0.2851
 4876SOL    HW114873   3.227   5.943   3.176  0.1528 -1.8347 -0.9643
 4876SOL    HW214874   3.096   5.896   3.115  0.7500 -1.0115 -2.9656
 4877SOL     OW14875   0.506   2.817   2.780  0.2159  0.1840  0.1142
 4877SOL    HW114876   0.549   2.801   2.697  0.4768 -0.0784  0.2974
 4877SOL    HW214877   0.519   2.737   2.830  2.0333  1.0982  1.2458
 4878SOL     OW14878   0.038   0.826   1.562  0.3095  0.0344  0.0736
 4878SOL    HW114879   0.096   0.793   1.494  0.8012 -0.3754  0.6814
 4878SOL    HW214880   0.057   0.772   1.639 -0.5477  0.1977  0.4168
 4879SOL     OW14881   0.926   4.206   2.763  0.5691  0.6267 -0.4760
 4879SOL    HW114882   0.847   4.156   2.784  0.5168  1.8605  2.8597
 4879SOL    HW214883   0.906   4.248   2.679 -1.6382 -0.4197 -0.5473
 4880SOL     OW14884   3.900   3.851   4.358 -0.3948  0.5972  0.5778
 4880SOL    HW114885   3.975   3.811   4.401  2.4130  2.8502 -1.8550
 4880SOL    HW214886   3.848   3.776   4.327  1.7573 -1.1015  0.8227
 4881SOL     OW14887   0.403   3.299   3.160  0.6800 -0.2035 -0.2378
 4881SOL    HW114888   0.414   3.338   3.248  0.9842 -2.1571  0.6341
 4881SOL    HW214889   0.335   3.353   3.119  0.6814  0.9008  1.1053
 4882SOL     OW14890   1.382   4.649   5.203 -0.1593 -0.2902  0.2437
 4882SOL    HW114891   1.466   4.682   5.171  0.3655 -2.7501 -1.1884
 4882SOL    HW214892   1.322   4.722   5.192  1.6961  1.4764  1.0962
 4883SOL     OW14893   5.161   4.659   0.565  0.3747 -0.6025  0.0460
 4883SOL    HW114894   5.069   4.680   0.584  1.2197  2.3972  1.5213
 4883SOL    HW214895   5.187   4.600   0.635  0.0984  0.3080  0.9514
 4884SOL     OW14896   3.612   0.469   2.584 -0.5391  0.5154 -0.0511
 4884SOL    HW114897   3.657   0.526   2.521  0.0171  0.6900  0.4940
 4884SOL    HW214898   3.650   0.492   2.669 -1.1732  0.1761  0.3329
 4885SOL     OW14899   2.459   3.902   5.440  0.1830 -0.3163 -0.1087
 4885SOL    HW114900   2.441   3.857   5.357  1.8580  0.1829 -0.7852
 4885SOL    HW214901   2.417   3.987   5.430 -0.8212 -0.7664  0.1458
 4886SOL     OW14902   2.069   2.771   0.018  0.2284 -0.4767 -0.4690
 4886SOL    HW114903   2.122   2.839  -0.025 -1.0087  1.1614  0.4692
 4886SOL    HW214904   1.979   2.801   0.007 -0.3167 -1.7463  0.3782
 4887SOL     OW14905   2.132   4.207   4.618  0.5596  0.4516 -0.2127
 4887SOL    HW114906   2.133   4.297   4.587 -1.6495  0.4520 -0.4518
 4887SOL    HW214907   2.222   4.190   4.645  0.9787  2.7949  0.0794
 4888SOL     OW14908   3.940   1.349   2.818 -0.2367  0.9021  0.7457
 4888SOL    HW114909   3.907   1.353   2.728 -0.1156 -0.9357  0.5793
 4888SOL    HW214910   3.889   1.416   2.865 -0.4972  1.7051 -0.6047
 4889SOL     OW14911   4.311   3.697   4.107 -0.3680  0.5350  0.1595
 4889SOL    HW114912   4.384   3.753   4.133  1.0591 -0.3238 -1.7459
 4889SOL    HW214913   4.347   3.608   4.109 -1.7169 -0.0313  0.2642
 4890SOL     OW14914   5.803   3.750   4.564  0.0474 -0.0538 -0.0303
 4890SOL    HW114915   5.756   3.767   4.483 -0.0388  0.1714  0.0670
 4890SOL    HW214916   5.767   3.668   4.596  0.5814 -0.5183 -0.5847
 4891SOL     OW14917   1.887   3.572   0.237  0.0993  0.2197  0.0998
 4891SOL    HW114918   1.930   3.654   0.212  0.7447 -0.9702 -3.2733
 4891SOL    HW214919   1.794   3.587   0.217  0.2944  0.0061 -1.0370
 4892SOL     OW14920   4.586   2.171   4.758  0.3436 -0.0707  0.5101
 4892SOL    HW114921   4.621   2.114   4.826  0.5834 -1.8038 -0.9750
 4892SOL    HW214922   4.492   2.169   4.771  0.4248  0.0600  1.1229
 4893SOL     OW14923   0.972   4.579   3.296 -0.3264 -0.3579  0.0720
 4893SOL    HW114924   1.010   4.541   3.217 -0.0560 -1.0853  0.5368
 4893SOL    HW214925   0.878   4.581   3.279 -0.3579 -1.3578  0.0700
 4894SOL     OW14926   2.134   5.761   5.707 -0.2400 -0.2043 -0.4154
 4894SOL    HW114927   2.166   5.671   5.700 -0.4294 -0.2831 -0.2651
 4894SOL    HW214928   2.188   5.801   5.775 -0.7094 -0.4488  0.1105
 4895SOL     OW14929   2.499   4.874   0.915 -0.2446  0.3355  0.2266
 4895SOL    HW114930   2.485   4.790   0.871 -0.2060  0.1821  0.5007
 4895SOL    HW214931   2.416   4.920   0.904  0.3409  1.0357 -1.5456
 4896SOL     OW14932   1.759   1.188   3.439  0.4734  0.1004 -0.5340
 4896SOL    HW114933   1.792   1.121   3.379 -0.4590 -0.2181 -0.7116
 4896SOL    HW214934   1.780   1.271   3.396 -0.4223 -0.1321 -1.4507
 4897SOL     OW14935   6.011   5.139   2.952 -0.2803 -0.3493 -0.8324
 4897SOL    HW114936   6.094   5.159   2.908 -0.2092  2.5330  0.3867
 4897SOL    HW214937   5.945   5.155   2.885  0.0449 -1.7186 -1.5245
 4898SOL     OW14938   6.041   0.019   0.248  0.1607  0.3926 -0.0296
 4898SOL    HW114939   6.125  -0.015   0.216  0.1114  1.0968 -0.9318
 4898SOL    HW214940   6.050   0.018   0.343  1.3905  0.9178 -0.1160
 4899SOL     OW14941   3.317   1.183   2.420 -0.1542 -0.0528 -0.5024
 4899SOL    HW114942   3.349   1.199   2.508 -0.3659 -0.1640 -0.4045
 4899SOL    HW214943   3.393   1.194   2.364  0.4483 -1.9250 -0.1248
 4900SOL     OW14944   3.002   3.982   6.008  0.0860  0.0277 -0.0380
 4900SOL    HW114945   3.003   4.067   5.964 -0.2030  0.7280  1.2588
 4900SOL    HW214946   3.086   3.977   6.053 -0.2116 -0.0021  0.5325
 4901SOL     OW14947   0.785   1.432   2.422 -0.1451  0.5094  0.3183
 4901SOL    HW114948   0.747   1.458   2.339  1.5970 -0.2682 -0.7917
 4901SOL    HW214949   0.767   1.339   2.429  1.0627  0.2278 -0.0025
 4902SOL     OW14950   5.925   0.484   0.046 -0.0658  0.0574 -0.0570
 4902SOL    HW114951   5.910   0.432   0.124 -0.3701 -0.0612 -0.1918
 4902SOL    HW214952   5.844   0.476  -0.004  0.6008 -0.9506 -1.0205
 4903SOL     OW14953   4.652   1.980   2.597 -0.1000  0.0371 -0.0916
 4903SOL    HW114954   4.735   1.933   2.604 -0.1017 -0.1353 -1.0546
 4903SOL    HW214955   4.676   2.067   2.566 -0.2399  0.1428  0.0933
 4904SOL     OW14956   4.691   2.407   1.878 -0.3237 -0.5003 -0.0264
 4904SOL    HW114957   4.765   2.462   1.903 -1.3404  1.5227 -1.2175
 4904SOL    HW214958   4.711   2.378   1.789 -1.4282  1.0542 -0.8344
 4905SOL     OW14959   4.964   4.306   2.022 -0.1002 -0.0251 -0.1652
 4905SOL    HW114960   4.952   4.230   1.965 -0.7915 -0.4772  0.5616
 4905SOL    HW214961   4.971   4.269   2.110  3.1510  0.4575 -0.0872
 4906SOL     OW14962   6.046   3.429   5.572  0.1886  0.6380 -0.2159
 4906SOL    HW114963   6.111   3.461   5.509 -0.6015  1.1540 -0.7843
 4906SOL    HW214964   6.050   3.333   5.564 -0.1323  0.6989 -1.3047
 4907SOL     OW14965   3.686   0.970   3.909 -0.0094 -0.3049  0.0374
 4907SOL    HW114966   3.669   1.020   3.829 -0.4274  1.8374  1.3840
 4907SOL    HW214967   3.764   1.011   3.947 -0.3113 -0.7166  1.1487
 4908SOL     OW14968   3.813   1.029   0.396  0.0632 -0.3807  0.5704
 4908SOL    HW114969   3.788   1.029   0.304  1.7490  1.3831  0.0612
 4908SOL    HW214970   3.775   1.109   0.431 -0.1428 -0.7907  1.3078
 4909SOL     OW14971   3.861   0.720   1.761 -0.1055  0.2144 -0.2956
 4909SOL    HW114972   3.894   0.640   1.720 -0.6915 -0.3573  0.3304
 4909SOL    HW214973   3.870   0.705   1.855 -1.4810  0.3094 -0.1218
 4910SOL     OW14974   0.394   1.367   4.215 -0.0469  0.2951 -0.2232
 4910SOL    HW114975   0.322   1.346   4.155  0.2404  2.6709 -1.5578
 4910SOL    HW214976   0.462   1.404   4.158  0.4436  2.1884  1.4746
 4911SOL     OW14977   5.594   5.922   4.480  0.1130 -0.0928 -0.1904
 4911SOL    HW114978   5.498   5.926   4.471  0.0978 -2.4172 -2.2766
 4911SOL    HW214979   5.607   5.893   4.571 -1.3927 -2.4487 -0.6110
 4912SOL     OW14980   2.192   2.560   5.258 -0.3817 -0.6858  0.5118
 4912SOL    HW114981   2.253   2.565   5.332  0.1609  0.0063  0.0297
 4912SOL    HW214982   2.135   2.636   5.268  1.0937  0.7026 -0.9608
 4913SOL     OW14983   1.852   4.876   3.055 -0.2824 -0.0437  0.5339
 4913SOL    HW114984   1.941   4.887   3.089  0.3106 -0.3334 -0.8533
 4913SOL    HW214985   1.833   4.959   3.011  0.3838 -0.9026 -1.4903
 4914SOL     OW14986   0.739   4.499   5.365 -0.4991  0.2640  0.1721
 4914SOL    HW114987   0.792   4.466   5.437 -0.4763  1.1548  0.5770
 4914SOL    HW214988   0.798   4.498   5.289 -0.5303 -0.6955  0.1412
 4915SOL     OW14989   6.020   2.168   5.742  0.0016 -0.2258  0.0480
 4915SOL    HW114990   6.102   2.195   5.784  0.1453 -0.0643 -0.3312
 4915SOL    HW214991   6.047   2.106   5.675 -0.2044 -0.3052  0.0405
 4916SOL     OW14992   4.453   5.644   5.880 -0.5858 -0.6950 -0.8802
 4916SOL    HW114993   4.407   5.560   5.881 -1.7766 -0.0758 -1.3572
 4916SOL    HW214994   4.491   5.649   5.792 -1.4011 -0.2926 -1.2220
 4917SOL     OW14995   2.374   2.825   3.674 -0.5021 -0.1224 -0.1670
 4917SOL    HW114996   2.424   2.745   3.692 -1.2664 -1.5487 -3.5631
 4917SOL    HW214997   2.439   2.890   3.649 -0.0888 -0.9530 -1.3247
 4918SOL     OW14998   0.031   0.989   0.369  0.4268 -0.0505  0.3312
 4918SOL    HW114999   0.026   0.946   0.283 -1.6852  4.6108 -2.2665
 4918SOL    HW215000  -0.027   0.937   0.425 -2.0577 -0.6424 -2.5347
 4919SOL     OW15001   2.254   4.603   1.466 -0.1966  0.1751 -0.2449
 4919SOL    HW115002   2.169   4.637   1.437 -0.3987  1.1936  1.4302
 4919SOL    HW215003   2.240   4.509   1.478 -0.7511  0.1395 -1.0489
 4920SOL     OW15004   3.641   3.341   0.619 -0.0498  0.0962  0.3151
 4920SOL    HW115005   3.562   3.388   0.646  0.3121 -0.2702  2.1068
 4920SOL    HW215006   3.652   3.272   0.684  3.1332  1.6785  1.6636
 4921SOL     OW15007   3.716   4.023   4.240 -0.0693 -0.2295 -0.3713
 4921SOL    HW115008   3.763   4.102   4.214  1.7501 -1.7400 -1.9630
 4921SOL    HW215009   3.783   3.965   4.276 -1.5638 -0.6437  1.9992
 4922SOL     OW15010   2.389   0.053   2.740  0.4417  0.6181  0.4250
 4922SOL    HW115011   2.333   0.130   2.729  0.8853  0.8256 -0.4204
 4922SOL    HW215012   2.467   0.086   2.784  0.6950  0.6894 -0.0681
 4923SOL     OW15013   5.373   4.198   2.837 -0.1175  0.0078 -0.1095
 4923SOL    HW115014   5.451   4.192   2.782  0.1784  0.1763  0.2838
 4923SOL    HW215015   5.315   4.129   2.806  1.0965 -1.5767  1.0232
 4924SOL     OW15016   4.176   1.209   1.822  0.2644  0.0957  0.1659
 4924SOL    HW115017   4.163   1.146   1.751 -0.9812  1.1691 -0.5906
 4924SOL    HW215018   4.246   1.267   1.791  0.2498  0.1042  0.1492
 4925SOL     OW15019   6.060   3.014   4.825 -0.2788 -0.1764  0.1749
 4925SOL    HW115020   6.128   2.995   4.890 -0.8470 -1.3691  0.4412
 4925SOL    HW215021   6.095   2.978   4.743 -1.2701 -2.3749  0.6409
 4926SOL     OW15022   4.398   0.734   0.476 -0.8625  0.3149  0.1120
 4926SOL    HW115023   4.319   0.712   0.427 -0.5813 -1.3046  0.3047
 4926SOL    HW215024   4.456   0.659   0.462 -0.4409  0.1772  2.1848
 4927SOL     OW15025   0.174   1.297   5.229  0.1398 -0.4625 -0.5356
 4927SOL    HW115026   0.157   1.377   5.279 -1.2106 -0.5952 -0.7365
 4927SOL    HW215027   0.120   1.306   5.150 -0.1429 -1.6175 -0.4984
 4928SOL     OW15028   4.133   0.527   3.087 -0.0420 -0.6001 -0.1491
 4928SOL    HW115029   4.205   0.472   3.116 -0.2384 -1.6476 -1.5656
 4928SOL    HW215030   4.115   0.498   2.997 -2.7851 -0.9786  0.4451
 4929SOL     OW15031   6.034   2.727   5.335  0.1809 -0.6633 -0.1542
 4929SOL    HW115032   6.028   2.666   5.410 -0.8965 -0.9214 -0.4267
 4929SOL    HW215033   6.127   2.747   5.328  0.3259 -0.7522  1.1658
 4930SOL     OW15034   2.767   0.168   0.547  0.0781  0.1997  0.1995
 4930SOL    HW115035   2.820   0.093   0.574 -0.4776  0.0051  0.7827
 4930SOL    HW215036   2.823   0.216   0.486  1.3960  0.6458  1.6993
 4931SOL     OW15037   3.048   5.683   3.721 -0.0742 -1.0457  0.2101
 4931SOL    HW115038   2.986   5.752   3.747  1.0711 -0.1863  0.7524
 4931SOL    HW215039   3.002   5.635   3.653 -1.1909 -0.1841  0.3097
 4932SOL     OW15040   3.543   1.959   5.088  0.0503  0.2789  0.0485
 4932SOL    HW115041   3.589   1.922   5.163 -1.6803  0.8513  1.4774
 4932SOL    HW215042   3.450   1.942   5.107 -0.4257  0.0719 -2.1819
 4933SOL     OW15043   3.508   3.798   1.255  0.1624 -0.0701 -1.0718
 4933SOL    HW115044   3.432   3.742   1.238 -0.4365  0.6087 -0.6886
 4933SOL    HW215045   3.471   3.885   1.266  0.9900  0.2450 -0.7457
 4934SOL     OW15046   1.405   0.044   4.451  0.0583 -0.2148 -0.3186
 4934SOL    HW115047   1.358  -0.003   4.520 -0.1914 -0.4607 -0.6537
 4934SOL    HW215048   1.346   0.115   4.426  0.1112 -0.1777 -0.3377
 4935SOL     OW15049   3.942   2.075   2.954  0.1802  0.1885 -0.4986
 4935SOL    HW115050   3.876   2.143   2.968  1.7592  1.7555 -0.3552
 4935SOL    HW215051   4.024   2.115   2.981  1.0585 -2.1305  0.5862
 4936SOL     OW15052   5.318   0.716   1.039 -0.2358  0.4136  0.0107
 4936SOL    HW115053   5.289   0.801   1.071  0.3277  0.8791 -0.6974
 4936SOL    HW215054   5.375   0.683   1.109  0.2310  1.0015 -0.0845
 4937SOL     OW15055   3.094   1.115   4.814 -0.2154  0.1131  0.0683
 4937SOL    HW115056   3.065   1.026   4.791 -0.3406  0.1108  0.2362
 4937SOL    HW215057   3.016   1.157   4.850  0.2239 -0.2040  1.4348
 4938SOL     OW15058   5.957   4.051   0.882  0.5563  0.2901 -0.0279
 4938SOL    HW115059   6.013   4.121   0.915 -0.2127 -0.4931  3.2704
 4938SOL    HW215060   5.995   3.971   0.916 -0.0583 -0.6814 -1.5330
 4939SOL     OW15061   1.434   0.945   2.059  0.3240  0.1102 -0.4974
 4939SOL    HW115062   1.426   0.886   1.984  1.1239  1.4011 -1.6524
 4939SOL    HW215063   1.517   0.990   2.045  0.8955 -0.1802  1.6095
 4940SOL     OW15064   5.219   1.690   2.779 -0.0665 -0.5805 -0.1524
 4940SOL    HW115065   5.281   1.731   2.718  1.2172 -0.6307  1.0786
 4940SOL    HW215066   5.140   1.675   2.726  0.5911  0.4377 -1.4884
 4941SOL     OW15067   5.904   3.382   2.099 -0.2589 -0.9881 -0.2639
 4941SOL    HW115068   5.846   3.307   2.116 -0.2931 -1.3650 -1.8883
 4941SOL    HW215069   5.923   3.376   2.005 -0.7407  1.3982 -0.5652
 4942SOL     OW15070   3.070   0.085   1.986  0.5573  0.6717  0.2475
 4942SOL    HW115071   3.094  -0.005   2.009 -2.3478 -0.2449  0.1090
 4942SOL    HW215072   3.046   0.081   1.894  0.5567  1.6270  0.1992
 4943SOL     OW15073   0.631   2.023   3.759 -0.4985 -0.4055 -0.4897
 4943SOL    HW115074   0.655   1.930   3.756  2.8155  0.3508 -0.8691
 4943SOL    HW215075   0.616   2.046   3.667  1.8577  0.0821 -0.8091
 4944SOL     OW15076   1.759   2.061   4.650 -0.0103 -0.5800  0.1818
 4944SOL    HW115077   1.825   2.078   4.717  0.8718  0.3381 -0.8766
 4944SOL    HW215078   1.809   2.044   4.571 -1.0394  0.0607 -0.6314
 4945SOL     OW15079   2.975   2.667   0.736 -0.1598 -0.3623 -0.4909
 4945SOL    HW115080   3.069   2.663   0.722 -0.2340 -1.4552 -0.7984
 4945SOL    HW215081   2.963   2.732   0.805  1.0646 -2.1586  1.5344
 4946SOL     OW15082   2.781   0.701   2.215 -0.2623 -0.1035 -0.2768
 4946SOL    HW115083   2.876   0.696   2.215 -0.1370  0.6166 -2.9845
 4946SOL    HW215084   2.762   0.789   2.248 -0.0780 -0.5948  1.2027
 4947SOL     OW15085   3.679   3.764   3.145 -0.0875  0.2624  0.0253
 4947SOL    HW115086   3.693   3.671   3.131 -0.0240  0.2167  0.3699
 4947SOL    HW215087   3.632   3.794   3.067 -0.6226 -0.1771  0.1751
 4948SOL     OW15088   4.404   3.241   0.069 -0.1738  0.5915  0.3370
 4948SOL    HW115089   4.362   3.217   0.152 -0.3016  0.9754  0.3896
 4948SOL    HW215090   4.497   3.225   0.083  0.1301  2.8099  1.3799
 4949SOL     OW15091   3.721   2.721   0.517 -0.3109  0.1169 -0.0288
 4949SOL    HW115092   3.635   2.716   0.477 -0.3421  0.4189  0.0010
 4949SOL    HW215093   3.762   2.798   0.479 -1.2175  1.8076  2.2035
 4950SOL     OW15094   3.738   2.326   5.975  0.6639  0.3297  0.3014
 4950SOL    HW115095   3.700   2.238   5.970  0.9150  0.2778 -1.0449
 4950SOL    HW215096   3.804   2.319   6.044  1.2029 -0.7513 -0.2911
 4951SOL     OW15097   1.766   4.694   0.629  0.1696  0.1207 -0.2669
 4951SOL    HW115098   1.754   4.601   0.607 -0.7389  0.5613 -1.8192
 4951SOL    HW215099   1.698   4.739   0.578  0.9240  1.6893  0.0686
 4952SOL     OW15100   2.981   0.333   2.942  0.7669  0.4373 -0.0722
 4952SOL    HW115101   3.059   0.288   2.910 -1.2123 -1.8264 -2.1140
 4952SOL    HW215102   2.957   0.394   2.873  0.0273  0.1511 -0.0839
 4953SOL     OW15103   1.439   2.069   1.786 -0.0445 -0.1750  0.0611
 4953SOL    HW115104   1.478   2.133   1.727 -0.6964 -0.9682 -1.2946
 4953SOL    HW215105   1.382   2.016   1.729 -3.4923  1.2063  1.9741
 4954SOL     OW15106   5.248   1.471   1.453  0.0238  0.6449  0.1878
 4954SOL    HW115107   5.173   1.415   1.469 -0.9727  1.7987 -0.2819
 4954SOL    HW215108   5.298   1.427   1.385  1.6130 -1.7853  2.6965
 4955SOL     OW15109   2.024   2.712   2.018  0.0099  0.1817  0.4403
 4955SOL    HW115110   2.077   2.724   1.939 -0.5699  0.5535  0.1066
 4955SOL    HW215111   2.042   2.622   2.045 -0.0576 -0.0629 -0.3089
 4956SOL     OW15112   1.379   3.088   5.440 -0.2042  0.5093  0.1941
 4956SOL    HW115113   1.312   3.145   5.478 -2.0306 -0.9018 -0.7666
 4956SOL    HW215114   1.383   3.013   5.500  0.6232  0.6314  0.3033
 4957SOL     OW15115   2.415   0.438   4.962 -0.6126  0.5305 -0.1801
 4957SOL    HW115116   2.465   0.478   5.033 -1.3884 -0.1526  0.7747
 4957SOL    HW215117   2.430   0.496   4.887  2.3133 -0.1070 -0.2099
 4958SOL     OW15118   3.822   2.204   1.213 -0.5302  0.2500  0.2394
 4958SOL    HW115119   3.741   2.163   1.183 -2.0447  3.0483  0.1831
 4958SOL    HW215120   3.846   2.265   1.144  1.8771 -0.7393  0.1129
 4959SOL     OW15121   5.901   4.895   5.632 -0.3045  0.0119  0.6790
 4959SOL    HW115122   5.873   4.850   5.552 -0.7679 -0.8745  1.3227
 4959SOL    HW215123   5.992   4.869   5.644  0.5620  2.0709 -0.8497
 4960SOL     OW15124   1.363   6.038   2.062 -0.0785  0.2634  0.1351
 4960SOL    HW115125   1.402   5.995   1.987 -0.4933 -0.0227  0.0794
 4960SOL    HW215126   1.366   5.972   2.132  0.6974  0.6708  0.4969
 4961SOL     OW15127   4.289   4.177   6.055 -0.0222 -0.1585  0.0931
 4961SOL    HW115128   4.277   4.257   6.105 -0.1762 -0.0869 -0.0562
 4961SOL    HW215129   4.252   4.108   6.111 -0.1446 -0.0863  0.1014
 4962SOL     OW15130   0.619   6.137   5.734 -0.0980  0.2038 -0.1072
 4962SOL    HW115131   0.599   6.132   5.641 -0.4436  0.5045 -0.0507
 4962SOL    HW215132   0.703   6.090   5.743  1.0105  1.9491 -0.8856
 4963SOL     OW15133   5.826   3.132   2.801  0.8944  0.0021 -0.8581
 4963SOL    HW115134   5.742   3.085   2.800  0.4660  0.6336  0.8924
 4963SOL    HW215135   5.835   3.162   2.892  2.0208  1.7427 -1.5010
 4964SOL     OW15136   0.090   4.686   2.080 -0.2593 -0.2674  0.5049
 4964SOL    HW115137   0.098   4.600   2.039  0.3348 -0.4483  0.9697
 4964SOL    HW215138   0.178   4.723   2.073  0.3837 -1.0413  3.1579
 4965SOL     OW15139   1.997   4.356   0.273  0.3809 -0.0703  0.4811
 4965SOL    HW115140   1.907   4.388   0.277  0.1738 -0.7520  1.7214
 4965SOL    HW215141   1.997   4.294   0.199 -0.2243 -0.2346  0.6147
 4966SOL     OW15142   2.710   2.104   0.102  0.6450  0.3495 -0.3617
 4966SOL    HW115143   2.654   2.120   0.026  1.6483  2.1039 -0.7910
 4966SOL    HW215144   2.781   2.050   0.068 -0.0249 -0.6767 -0.1508
 4967SOL     OW15145   4.393   6.006   0.707  0.7200 -0.0813  0.4049
 4967SOL    HW115146   4.459   6.051   0.654  0.3130  1.2723  0.9891
 4967SOL    HW215147   4.340   6.077   0.744 -0.8609 -1.1181  0.2134
 4968SOL     OW15148   5.193   1.001   4.856 -0.0210  0.6593  0.0647
 4968SOL    HW115149   5.260   0.934   4.868 -0.2117  0.5316  0.4397
 4968SOL    HW215150   5.231   1.062   4.792  0.2093  0.2717 -0.1756
 4969SOL     OW15151   3.734   1.723   0.288  0.0058  0.0167 -0.4180
 4969SOL    HW115152   3.797   1.795   0.297  0.1671  0.2598 -2.8146
 4969SOL    HW215153   3.783   1.645   0.313  0.2775  0.5396  0.7660
 4970SOL     OW15154   5.582   6.056   5.370  0.0239 -0.6085  0.4512
 4970SOL    HW115155   5.617   6.042   5.282  0.1650  0.7848  0.2707
 4970SOL    HW215156   5.507   6.113   5.357  1.0655  1.0482  1.3785
 4971SOL     OW15157   0.576   5.280   3.921  0.1002 -0.2230  0.7319
 4971SOL    HW115158   0.525   5.328   3.856 -0.7289  0.8387  2.1219
 4971SOL    HW215159   0.551   5.188   3.907 -0.6793  0.0704  0.0954
 4972SOL     OW15160   4.784   1.178   2.776 -0.3604 -0.2164  0.3812
 4972SOL    HW115161   4.867   1.225   2.765  0.5468 -2.0577 -1.1236
 4972SOL    HW215162   4.718   1.247   2.777  1.0861  1.2272  0.4958
 4973SOL     OW15163   0.857   1.666   1.951  0.1138  0.1987  0.0900
 4973SOL    HW115164   0.895   1.579   1.941 -1.9175 -0.7792  0.5480
 4973SOL    HW215165   0.782   1.667   1.892  0.2148  1.7398 -0.0654
 4974SOL     OW15166   5.358   0.450   5.107 -1.2191 -0.6053  0.2872
 4974SOL    HW115167   5.389   0.455   5.197 -2.0218 -0.9112  0.5940
 4974SOL    HW215168   5.264   0.469   5.113 -1.4359 -1.4147 -0.3749
 4975SOL     OW15169   1.986   2.608   0.797 -0.3424  0.2691  0.8626
 4975SOL    HW115170   1.906   2.599   0.746 -0.6981  1.8167  1.0984
 4975SOL    HW215171   1.956   2.608   0.888  0.0735 -0.3739  1.0110
 4976SOL     OW15172   5.380   3.805   3.707 -0.4385 -0.0320 -0.1388
 4976SOL    HW115173   5.323   3.851   3.646 -0.1897 -0.8852 -1.0378
 4976SOL    HW215174   5.449   3.768   3.652  0.2549 -0.1185  0.7688
 4977SOL     OW15175   4.608   3.007   6.089 -0.3772 -0.0871  0.0634
 4977SOL    HW115176   4.618   3.100   6.066 -1.6220  0.0005 -0.1974
 4977SOL    HW215177   4.673   2.993   6.158  1.2986  0.4186 -1.3453
 4978SOL     OW15178   5.585   0.118   2.151 -0.1715 -0.1216  0.0756
 4978SOL    HW115179   5.656   0.179   2.171 -1.4132  1.1382  0.8743
 4978SOL    HW215180   5.593   0.101   2.057  0.4332  0.9923 -0.0930
 4979SOL     OW15181   1.386   4.104   1.180  0.1910 -0.4459  0.1945
 4979SOL    HW115182   1.425   4.103   1.267  0.3058  0.0072  0.1535
 4979SOL    HW215183   1.462   4.100   1.121  0.1142 -0.7438  0.1115
 4980SOL     OW15184   1.930   0.181   0.695  0.4292 -0.2417  0.0366
 4980SOL    HW115185   2.021   0.156   0.679  0.5039 -0.9127  1.4398
 4980SOL    HW215186   1.931   0.223   0.781 -0.4079  0.8114 -0.4445
 4981SOL     OW15187   2.120   2.828   3.016  0.0055 -0.3748  0.3557
 4981SOL    HW115188   2.036   2.795   3.048 -0.7345  0.6831 -0.4489
 4981SOL    HW215189   2.097   2.883   2.941  1.4041  0.0883  0.2482
 4982SOL     OW15190   5.739   1.527   5.240  0.3889  0.4029 -0.3367
 4982SOL    HW115191   5.663   1.544   5.185 -2.4713 -2.1486  2.3899
 4982SOL    HW215192   5.804   1.489   5.181 -0.7761  1.7570 -2.6147
 4983SOL     OW15193   5.706   3.289   3.309 -0.2249  0.1610  0.1371
 4983SOL    HW115194   5.765   3.334   3.370 -1.0209  3.1023 -1.0799
 4983SOL    HW215195   5.620   3.327   3.327 -1.7579 -3.4288  1.3101
 4984SOL     OW15196   4.872   1.868   0.304  0.2878  0.2810  0.1058
 4984SOL    HW115197   4.832   1.806   0.365  0.4871 -0.0283 -0.0699
 4984SOL    HW215198   4.856   1.954   0.342  1.2510  0.0516  1.1120
 4985SOL     OW15199   2.352   1.935   0.306 -0.4210 -0.3532 -0.0614
 4985SOL    HW115200   2.446   1.917   0.304 -0.8366 -2.8047 -0.7098
 4985SOL    HW215201   2.342   2.005   0.370  2.0226  1.3114 -1.3281
 4986SOL     OW15202   3.389   4.541   1.202  0.2698 -0.0422 -0.4884
 4986SOL    HW115203   3.309   4.592   1.215  0.3586 -0.3346  1.4655
 4986SOL    HW215204   3.421   4.569   1.117 -2.3896 -0.5992 -1.8001
 4987SOL     OW15205   3.511   4.088   6.033  0.0369  0.6226  0.5864
 4987SOL    HW115206   3.534   4.059   5.945 -1.3511  1.0824  0.0422
 4987SOL    HW215207   3.595   4.100   6.077  0.7245 -0.4899 -0.3779
 4988SOL     OW15208   3.239   4.291   0.396 -0.2680  0.0906 -0.0774
 4988SOL    HW115209   3.284   4.342   0.463  0.5072  0.6220 -0.9887
 4988SOL    HW215210   3.154   4.334   0.385 -0.3363  0.0942  0.4335
 4989SOL     OW15211   1.251   3.672   3.030 -0.4931 -0.7946  0.1943
 4989SOL    HW115212   1.191   3.603   3.057 -2.5450  0.6100 -0.4877
 4989SOL    HW215213   1.242   3.739   3.098 -0.4303 -0.1673 -0.4109
 4990SOL     OW15214   5.603   4.649   1.854  0.0196 -0.5221  0.2915
 4990SOL    HW115215   5.698   4.653   1.857  0.2961 -2.0318 -2.8367
 4990SOL    HW215216   5.577   4.729   1.809  0.0480 -1.2799 -1.1068
 4991SOL     OW15217   0.663   0.965   3.557 -0.8424  0.1092 -0.1143
 4991SOL    HW115218   0.749   0.995   3.527  0.7405 -1.1108  2.8415
 4991SOL    HW215219   0.657   0.875   3.526 -0.6888 -0.0666  0.3618
 4992SOL     OW15220   1.831   1.686   2.054  0.3287  0.2219 -0.2732
 4992SOL    HW115221   1.779   1.636   2.116  2.1786  0.4583  1.5712
 4992SOL    HW215222   1.850   1.768   2.099  2.6103 -0.0205 -0.6704
 4993SOL     OW15223   4.923   5.550   2.034 -0.4790 -0.3872  0.1509
 4993SOL    HW115224   4.961   5.593   2.111  1.0046 -1.1820 -0.0999
 4993SOL    HW215225   4.902   5.462   2.064  0.2665 -0.7574 -0.3839
 4994SOL     OW15226   2.228   4.861   2.864  0.2998  0.8208  0.1157
 4994SOL    HW115227   2.133   4.869   2.853  0.1793 -0.0796  0.4030
 4994SOL    HW215228   2.260   4.834   2.778  0.1309 -0.0639  0.3141
 4995SOL     OW15229   3.678   3.598   5.218 -0.1438  0.1947 -0.2216
 4995SOL    HW115230   3.642   3.616   5.131 -1.5218 -1.0097  0.0818
 4995SOL    HW215231   3.606   3.559   5.267  0.5254  1.0797  1.5717
 4996SOL     OW15232   5.195   5.376   2.410 -0.6476  0.0426  0.5212
 4996SOL    HW115233   5.270   5.372   2.469 -0.1248 -1.2896 -0.1898
 4996SOL    HW215234   5.192   5.468   2.382  0.0774  0.3398  1.3534
 4997SOL     OW15235   5.092   3.612   2.248  0.4000 -0.3113  0.3310
 4997SOL    HW115236   5.002   3.580   2.252 -0.2169  1.2120 -0.4492
 4997SOL    HW215237   5.103   3.639   2.157  2.1848 -1.8805  0.0144
 4998SOL     OW15238   4.670   3.073   1.956  0.8515 -1.0326 -0.3636
 4998SOL    HW115239   4.615   3.087   2.033  0.4884  0.4206 -0.8425
 4998SOL    HW215240   4.627   3.124   1.887  1.6790 -1.5467 -1.2825
 4999SOL     OW15241   0.479   0.829   5.102  0.8471 -0.1856  0.4122
 4999SOL    HW115242   0.441   0.840   5.190 -0.7058  0.0539 -0.2565
 4999SOL    HW215243   0.475   0.735   5.086 -1.3907 -0.0091 -0.4208
 5000SOL     OW15244   5.276   0.886   3.261 -0.2535  1.0390  0.3706
 5000SOL    HW115245   5.220   0.936   3.201 -0.2824  0.8300  0.2206
 5000SOL    HW215246   5.305   0.811   3.210 -1.2611  0.2042  0.9737
 5001SOL     OW15247   5.932   4.359   1.926 -0.3531  0.4644 -0.4986
 5001SOL    HW115248   5.837   4.350   1.924 -0.3208  0.0201 -0.0574
 5001SOL    HW215249   5.947   4.453   1.935 -0.7659  0.4713  0.1876
 5002SOL     OW15250   5.976   1.332   4.581 -0.4383  0.1303 -0.0107
 5002SOL    HW115251   5.973   1.267   4.650  0.3331  0.3482  0.2428
 5002SOL    HW215252   5.952   1.284   4.501  0.5966 -0.5883  0.0917
 5003SOL     OW15253   0.931   3.181   3.667 -0.7609 -0.9316 -0.4009
 5003SOL    HW115254   0.955   3.198   3.576 -0.5843 -1.4447 -0.4563
 5003SOL    HW215255   1.001   3.220   3.719 -0.9769 -0.4389 -0.4728
 5004SOL     OW15256   3.167   4.221   3.142  0.4183 -0.4074  0.5069
 5004SOL    HW115257   3.152   4.181   3.057  0.3364  2.1000 -0.7303
 5004SOL    HW215258   3.080   4.235   3.179  0.4045 -0.2633  0.4170
 5005SOL     OW15259   4.579   3.842   6.117  0.3004  0.0383 -0.0466
 5005SOL    HW115260   4.672   3.855   6.099  0.6472 -0.9793  0.9255
 5005SOL    HW215261   4.554   3.765   6.067  0.0802  0.0611  0.0233
 5006SOL     OW15262   3.983   5.246   4.512  0.0022  0.0075 -0.3749
 5006SOL    HW115263   3.979   5.167   4.459  1.7243 -0.1523 -0.3109
 5006SOL    HW215264   3.907   5.241   4.570  1.5022 -2.9942  1.5440
 5007SOL     OW15265   5.311   3.282   2.707 -0.1397  0.2545 -0.1005
 5007SOL    HW115266   5.224   3.314   2.681  0.3869  0.5974 -1.4923
 5007SOL    HW215267   5.360   3.275   2.626  1.4691  1.0214  0.7511
 5008SOL     OW15268   1.700   4.325   2.352  0.6751  0.1077  0.5913
 5008SOL    HW115269   1.772   4.379   2.385  2.0785 -0.8154 -0.8149
 5008SOL    HW215270   1.638   4.321   2.425  1.6643  1.5806  1.5704
 5009SOL     OW15271   3.258   1.232   1.939  0.6061  0.0965  0.3895
 5009SOL    HW115272   3.286   1.141   1.948  1.4720  0.2844 -0.1870
 5009SOL    HW215273   3.340   1.281   1.928  0.1177  0.8639  0.0692
 5010SOL     OW15274   3.863   4.035   3.169 -0.0222  0.0784 -0.2010
 5010SOL    HW115275   3.794   4.100   3.156  0.8888  1.0391 -0.2846
 5010SOL    HW215276   3.868   3.987   3.086  1.6879  2.2405 -1.4397
 5011SOL     OW15277   0.078   3.660   2.436 -0.3036  0.5006  0.1146
 5011SOL    HW115278   0.134   3.653   2.359  0.4475 -0.2757  0.6968
 5011SOL    HW215279   0.025   3.580   2.435 -0.9881  0.9546 -0.1183
 5012SOL     OW15280   4.065   2.329   4.339  0.2544 -0.0294 -0.7705
 5012SOL    HW115281   4.149   2.287   4.359 -0.2344  0.0693  1.8097
 5012SOL    HW215282   4.072   2.353   4.246  3.9325  1.9062 -0.1944
 5013SOL     OW15283   3.421   1.554   3.097  0.0797 -0.5062  0.0919
 5013SOL    HW115284   3.411   1.631   3.040 -0.8937 -0.2762  0.5453
 5013SOL    HW215285   3.466   1.489   3.043 -0.0862 -0.0022 -0.6624
 5014SOL     OW15286   2.126   2.972   4.747  0.0739 -0.1992 -0.1085
 5014SOL    HW115287   2.033   2.995   4.754  0.1001 -0.1822  0.2169
 5014SOL    HW215288   2.164   3.042   4.695 -0.3464 -0.9072 -1.4174
 5015SOL     OW15289   6.109   4.608   5.735 -0.1257  0.5061  0.1896
 5015SOL    HW115290   6.176   4.675   5.729 -1.0751  1.6633  1.7930
 5015SOL    HW215291   6.048   4.629   5.664 -0.9478  2.0143  1.2880
 5016SOL     OW15292   1.387   2.565   0.628 -0.2387 -0.3482  0.3305
 5016SOL    HW115293   1.352   2.542   0.542  0.6450  2.0268 -0.7444
 5016SOL    HW215294   1.357   2.654   0.642  0.5802 -0.3109  2.0036
 5017SOL     OW15295   0.520   3.694   3.841 -0.3004 -0.0366 -0.2543
 5017SOL    HW115296   0.569   3.743   3.907 -1.0782  0.6565 -0.1751
 5017SOL    HW215297   0.514   3.753   3.766 -1.0307 -0.0912 -0.2518
 5018SOL     OW15298   4.029   2.692   1.362 -0.3881  0.1172 -0.0864
 5018SOL    HW115299   3.947   2.739   1.374 -1.1188 -0.6814 -1.7053
 5018SOL    HW215300   4.094   2.761   1.345 -1.3225  0.6060 -1.8148
 5019SOL     OW15301   5.996   1.016   3.281  0.2906 -0.0370  0.2520
 5019SOL    HW115302   5.997   0.958   3.357  1.5693  0.8280  0.9233
 5019SOL    HW215303   5.934   1.085   3.305  1.2593  0.6486  0.8622
 5020SOL     OW15304   1.792   4.213   2.681  0.0611  0.7980  0.8998
 5020SOL    HW115305   1.778   4.131   2.633 -3.6468  1.5371  0.3637
 5020SOL    HW215306   1.882   4.238   2.661  0.9268 -2.4878  0.1117
 5021SOL     OW15307   0.236   5.494   2.076  0.5162  0.8062 -0.3089
 5021SOL    HW115308   0.185   5.532   2.148 -0.6908  1.7483 -1.5970
 5021SOL    HW215309   0.227   5.399   2.088 -2.6280  0.8943 -1.1403
 5022SOL     OW15310   2.515   0.058   3.210 -0.5247  0.4048  0.5466
 5022SOL    HW115311   2.563   0.123   3.160  1.0625 -0.6618  0.6174
 5022SOL    HW215312   2.553   0.060   3.297  0.0680 -1.0779  0.3563
 5023SOL     OW15313   5.879   3.292   2.584 -0.2725  0.4174  0.1826
 5023SOL    HW115314   5.955   3.237   2.566 -0.2283  0.3971  0.4310
 5023SOL    HW215315   5.844   3.259   2.666 -1.0877 -0.1599 -0.3862
 5024SOL     OW15316   3.938   4.036   2.685  0.4006  0.0285  0.6367
 5024SOL    HW115317   3.899   4.003   2.604 -1.4760  1.0775  1.0353
 5024SOL    HW215318   4.014   4.086   2.657  0.6467 -0.8657 -0.3307
 5025SOL     OW15319   4.557   5.225   0.535 -0.1945 -0.5583 -0.4949
 5025SOL    HW115320   4.524   5.306   0.495  0.5805  0.1723  0.3082
 5025SOL    HW215321   4.614   5.187   0.468 -1.0801 -0.7989 -1.1304
 5026SOL     OW15322   0.165   3.168   2.038  0.0015  0.5746  0.4800
 5026SOL    HW115323   0.219   3.090   2.041 -0.1062  0.5011  0.5064
 5026SOL    HW215324   0.185   3.214   2.120 -0.5590  0.1581  0.8548
 5027SOL     OW15325   4.868   5.504   4.585 -0.0003 -0.0113 -0.3922
 5027SOL    HW115326   4.902   5.419   4.612  0.7515  0.1598 -0.7675
 5027SOL    HW215327   4.773   5.498   4.599  0.1410 -0.6203  0.3615
 5028SOL     OW15328   5.405   6.057   3.226 -0.1817 -0.2077  0.2886
 5028SOL    HW115329   5.457   6.039   3.305  0.6122  0.3761 -0.0927
 5028SOL    HW215330   5.326   6.102   3.260  0.8659  1.4730  0.6448
 5029SOL     OW15331   3.359   4.624   3.409  0.0848  0.2479 -0.1347
 5029SOL    HW115332   3.332   4.615   3.501  0.0261  0.7226 -0.0983
 5029SOL    HW215333   3.396   4.712   3.404  0.3754  0.1065 -0.4981
 5030SOL     OW15334   0.023   1.829   4.111  0.9840  0.0114  0.1067
 5030SOL    HW115335   0.044   1.850   4.201 -0.6264  1.2349  0.2595
 5030SOL    HW215336  -0.003   1.737   4.113  1.3512 -0.0843  0.8023
 5031SOL     OW15337   4.197   2.274   4.822  0.0933  0.0081  0.0683
 5031SOL    HW115338   4.194   2.229   4.907  0.0849  0.2305  0.1859
 5031SOL    HW215339   4.168   2.363   4.841  0.9567  0.3125 -0.0062
 5032SOL     OW15340   2.504   5.035   2.253 -0.4000  0.6479  0.1924
 5032SOL    HW115341   2.558   4.959   2.233 -0.0193  0.8290  0.5183
 5032SOL    HW215342   2.453   5.051   2.173  1.3000  1.5468 -0.7555
 5033SOL     OW15343   1.326   3.914   1.532 -0.4769 -0.0583 -0.7299
 5033SOL    HW115344   1.236   3.943   1.549 -0.6712 -0.4272 -1.1153
 5033SOL    HW215345   1.317   3.844   1.467  0.0774 -0.1992 -0.6606
 5034SOL     OW15346   5.616   2.313   2.131  0.3433 -0.1608 -0.1883
 5034SOL    HW115347   5.615   2.384   2.067 -2.0259 -1.7173 -2.0788
 5034SOL    HW215348   5.546   2.336   2.193  0.4866 -0.1841 -0.0177
 5035SOL     OW15349   6.071   4.139   5.988  0.1199 -0.4927 -0.2048
 5035SOL    HW115350   5.989   4.189   5.986 -0.5331 -1.3767  1.8312
 5035SOL    HW215351   6.106   4.154   6.076  0.8819 -2.0580 -0.2021
 5036SOL     OW15352   1.044   0.356   0.304 -0.2517  0.1721  0.3991
 5036SOL    HW115353   1.070   0.265   0.290  0.4740  0.5287 -0.8160
 5036SOL    HW215354   0.950   0.353   0.318 -0.5689 -0.6092 -1.6218
 5037SOL     OW15355   5.802   4.027   4.377  0.1008 -0.3669 -0.6254
 5037SOL    HW115356   5.888   4.003   4.340  0.3703  0.6616 -0.7231
 5037SOL    HW215357   5.820   4.042   4.470  0.1548  0.3997 -0.7547
 5038SOL     OW15358   0.792   0.520   2.433 -0.3798 -0.0526  0.0684
 5038SOL    HW115359   0.790   0.428   2.407  2.5864 -0.4760  0.9731
 5038SOL    HW215360   0.838   0.564   2.361 -0.0959  0.3764  0.5076
 5039SOL     OW15361   0.097   2.363   1.797  0.1613 -0.9719  0.0225
 5039SOL    HW115362   0.077   2.375   1.890 -0.9923  0.5501 -0.3740
 5039SOL    HW215363   0.169   2.424   1.780 -0.3534 -0.4335 -0.2876
 5040SOL     OW15364   3.506   1.368   4.652  0.0993  0.5462  0.1485
 5040SOL    HW115365   3.481   1.404   4.737 -2.0092 -0.2075 -0.0845
 5040SOL    HW215366   3.423   1.340   4.612  0.8710  1.7534 -2.5833
 5041SOL     OW15367   2.884   5.195   5.966 -0.2969 -0.2230 -0.3208
 5041SOL    HW115368   2.816   5.182   6.032 -0.4026 -0.3819 -0.4597
 5041SOL    HW215369   2.840   5.182   5.882  0.4598 -3.2311 -0.3712
 5042SOL     OW15370   3.601   5.520   5.129 -0.2765  0.3359  0.5525
 5042SOL    HW115371   3.672   5.465   5.163 -1.2987  0.1267  2.4792
 5042SOL    HW215372   3.527   5.460   5.122 -0.6476  0.8684 -0.0606
 5043SOL     OW15373   5.626   3.317   5.299  0.1506 -0.3572 -0.2843
 5043SOL    HW115374   5.695   3.328   5.233  0.3249  0.1887 -0.0162
 5043SOL    HW215375   5.550   3.362   5.261  0.3430  0.2379  0.0186
 5044SOL     OW15376   0.303   5.182   2.421  0.1687  0.4452  0.0242
 5044SOL    HW115377   0.310   5.087   2.419  0.3731  0.4667 -0.2570
 5044SOL    HW215378   0.390   5.213   2.395  0.3949  0.7087  1.0276
 5045SOL     OW15379   0.688   3.563   4.430  0.3206 -0.2795  0.1960
 5045SOL    HW115380   0.722   3.475   4.444  1.5268  0.1050 -0.1576
 5045SOL    HW215381   0.710   3.583   4.339 -1.2799 -0.1672 -0.1939
 5046SOL     OW15382   1.686   0.430   3.886 -0.0601 -0.7124 -0.0519
 5046SOL    HW115383   1.642   0.380   3.817 -1.5674 -1.7012  1.5182
 5046SOL    HW215384   1.721   0.363   3.945 -0.9307  0.0374  1.3883
 5047SOL     OW15385   1.395   1.182   5.355 -0.1355  0.0868 -0.0980
 5047SOL    HW115386   1.395   1.150   5.265  1.0205 -0.5669  0.1155
 5047SOL    HW215387   1.439   1.267   5.350 -2.1322  1.1842 -0.4727
 5048SOL     OW15388   4.725   0.307   3.911  0.0890  0.4750 -0.2364
 5048SOL    HW115389   4.724   0.399   3.939  1.2127  0.6028 -0.5800
 5048SOL    HW215390   4.776   0.307   3.830 -0.7904 -0.3098 -0.8054
 5049SOL     OW15391   0.076   0.315   4.721 -0.1747 -0.0427  0.4774
 5049SOL    HW115392   0.068   0.379   4.792 -0.3100  1.5061 -0.8706
 5049SOL    HW215393   0.161   0.274   4.734  0.2365  0.9391  0.9645
 5050SOL     OW15394   2.523   3.788   2.257  0.1442 -0.1233  0.4450
 5050SOL    HW115395   2.488   3.861   2.206 -0.6566 -0.8008  0.0105
 5050SOL    HW215396   2.466   3.782   2.333 -0.3368 -0.8540  0.0346
 5051SOL     OW15397   2.757   1.496   1.173 -0.4434 -0.1025 -0.3003
 5051SOL    HW115398   2.842   1.499   1.129 -0.5755 -2.2866 -0.8640
 5051SOL    HW215399   2.695   1.475   1.103 -1.2247 -0.0321  0.3507
 5052SOL     OW15400   0.403   2.515   3.405  0.3423 -0.5918 -0.2253
 5052SOL    HW115401   0.479   2.514   3.464  0.2559 -2.1628 -0.1138
 5052SOL    HW215402   0.389   2.423   3.382 -1.3680 -0.3060 -0.4513
 5053SOL     OW15403   3.336   1.698   4.316 -0.8552 -0.6745 -0.2466
 5053SOL    HW115404   3.348   1.707   4.221 -2.5534 -1.2567 -0.5592
 5053SOL    HW215405   3.277   1.623   4.325  0.7494 -1.8301  1.3975
 5054SOL     OW15406   2.055   1.152   0.978 -0.0885 -0.2821 -0.1293
 5054SOL    HW115407   2.083   1.224   1.034 -0.4269 -0.9381  0.9027
 5054SOL    HW215408   1.988   1.190   0.921 -0.6845  0.0783  0.8004
 5055SOL     OW15409   4.175   5.231   4.316 -0.5885 -0.4212 -0.3142
 5055SOL    HW115410   4.150   5.261   4.403  1.1354 -0.3550  0.1911
 5055SOL    HW215411   4.157   5.137   4.317  0.5727 -0.6539  0.5706
 5056SOL     OW15412   2.831   0.267   5.130 -0.2202 -0.0538 -0.2699
 5056SOL    HW115413   2.838   0.332   5.060  0.0895 -0.1242 -0.3066
 5056SOL    HW215414   2.920   0.258   5.164 -0.8322  2.4079  2.3587
 5057SOL     OW15415   4.352   1.598   5.241 -0.2658  0.2574 -0.4292
 5057SOL    HW115416   4.306   1.576   5.322 -2.1465  1.2576 -1.1673
 5057SOL    HW215417   4.442   1.617   5.268 -0.6219 -0.3439  1.2762
 5058SOL     OW15418   6.034   4.246   1.272  0.6706  0.0444  0.0420
 5058SOL    HW115419   6.105   4.274   1.330  0.8206 -0.3029  0.0249
 5058SOL    HW215420   6.022   4.153   1.291 -1.6144  0.6415  2.0258
 5059SOL     OW15421   3.232   1.299   4.038  0.0787  0.0410  0.0218
 5059SOL    HW115422   3.207   1.386   4.010  1.3392  0.5974  0.5286
 5059SOL    HW215423   3.327   1.295   4.023  0.3331 -0.6120  1.5590
 5060SOL     OW15424   1.549   0.334   1.996 -0.0592 -0.0048  0.2571
 5060SOL    HW115425   1.485   0.273   1.961 -1.2688  0.4971  1.5188
 5060SOL    HW215426   1.553   0.314   2.090  1.0159  0.5368  0.3507
 5061SOL     OW15427   5.409   4.241   0.678 -0.2224 -0.5086 -0.5673
 5061SOL    HW115428   5.401   4.174   0.746  0.5921  0.0429  0.0836
 5061SOL    HW215429   5.335   4.225   0.619 -0.3644 -1.6139 -0.1012
 5062SOL     OW15430   3.104   2.589   2.133 -0.3301 -0.2996  0.1598
 5062SOL    HW115431   3.173   2.525   2.150 -1.1725 -1.3526 -0.2226
 5062SOL    HW215432   3.110   2.607   2.039 -1.9441 -2.1349 -0.3713
 5063SOL     OW15433   0.669   4.523   5.011 -0.6289 -0.1940 -0.8051
 5063SOL    HW115434   0.720   4.442   5.018  2.6331  1.7276 -0.1029
 5063SOL    HW215435   0.604   4.516   5.082  1.0274 -1.2968  0.6952
 5064SOL     OW15436   3.117   2.285   1.993  0.3529 -0.1660  0.4058
 5064SOL    HW115437   3.026   2.283   1.966 -0.4130  0.6929  2.7082
 5064SOL    HW215438   3.163   2.233   1.927 -1.9207 -1.4102 -0.2866
 5065SOL     OW15439   4.214   4.186   1.685 -0.0533 -0.0656  0.4948
 5065SOL    HW115440   4.237   4.189   1.778  2.9469  0.6420 -0.1496
 5065SOL    HW215441   4.178   4.273   1.666 -2.0025 -0.6564  1.1977
 5066SOL     OW15442   1.772   0.792   0.907  0.7450  0.6081 -0.4120
 5066SOL    HW115443   1.763   0.773   1.001  0.8055 -0.8228 -0.6841
 5066SOL    HW215444   1.749   0.885   0.900  1.9670  1.0902  1.1964
 5067SOL     OW15445   4.153   5.885   5.170  0.2351 -0.1835 -0.4734
 5067SOL    HW115446   4.176   5.809   5.116  0.5030 -0.2107 -0.3207
 5067SOL    HW215447   4.205   5.957   5.134  1.5361 -0.5154  0.6609
 5068SOL     OW15448   4.775   1.215   3.957 -0.1063  0.0826 -0.3090
 5068SOL    HW115449   4.810   1.181   3.875 -0.3239  0.0643 -0.3932
 5068SOL    HW215450   4.778   1.141   4.017  2.7953  0.7742  0.5871
 5069SOL     OW15451   3.383   1.986   1.191 -0.1379 -0.5543  0.0898
 5069SOL    HW115452   3.318   2.045   1.154 -1.2494 -1.5854  0.3226
 5069SOL    HW215453   3.370   1.903   1.145  2.0066 -0.4237 -0.8833
 5070SOL     OW15454   3.130   3.057   0.700  0.4280  0.3734 -0.2176
 5070SOL    HW115455   3.111   2.963   0.709 -0.2612  0.1130 -3.2911
 5070SOL    HW215456   3.224   3.061   0.685  0.2982  0.0206 -1.2156
 5071SOL     OW15457   0.456   2.700   0.530  0.1479 -0.1321 -0.1044
 5071SOL    HW115458   0.451   2.638   0.603  1.2871 -0.6074 -0.4083
 5071SOL    HW215459   0.367   2.702   0.495 -0.3213 -0.2170  1.0264
 5072SOL     OW15460   5.006   1.006   0.302  0.2223  0.5057  0.7104
 5072SOL    HW115461   5.099   1.012   0.278  0.2572 -0.1845  0.6456
 5072SOL    HW215462   4.985   0.913   0.292 -0.4940  0.6677  0.6707
 5073SOL     OW15463   3.317   3.939   5.298 -0.0842  0.5471 -0.1345
 5073SOL    HW115464   3.325   3.847   5.271  2.0182  0.1257  1.5815
 5073SOL    HW215465   3.295   3.934   5.391  0.6361  1.7535  0.1187
 5074SOL     OW15466   4.576   2.552   6.063 -0.2663 -0.8322 -0.6571
 5074SOL    HW115467   4.628   2.471   6.061  1.6549  0.3601 -1.2978
 5074SOL    HW215468   4.597   2.595   5.980 -1.2569  0.3384 -0.3130
 5075SOL     OW15469   2.612   4.899   5.740 -0.0362 -0.3271  0.3353
 5075SOL    HW115470   2.539   4.937   5.692  0.1937 -0.3716 -0.0638
 5075SOL    HW215471   2.634   4.820   5.690 -0.4819 -0.9672  1.1264
 5076SOL     OW15472   0.292   0.945   1.146 -0.7182  0.3869  0.4126
 5076SOL    HW115473   0.348   0.876   1.110  0.5002  0.1936  2.5443
 5076SOL    HW215474   0.344   1.025   1.137 -1.2959  0.7013 -0.2007
 5077SOL     OW15475   2.274   0.607   5.337 -0.2399  0.4937 -0.8602
 5077SOL    HW115476   2.297   0.553   5.412 -0.2593  1.8612  0.1734
 5077SOL    HW215477   2.349   0.602   5.279  0.3751  0.5524 -0.0789
 5078SOL     OW15478   0.793   3.108   2.425 -0.4888  0.3132  0.2166
 5078SOL    HW115479   0.741   3.092   2.347 -0.1783 -1.1385  0.2756
 5078SOL    HW215480   0.884   3.100   2.396 -0.3709 -0.2630  0.7199
 5079SOL     OW15481   0.208   5.063   0.000  0.3581  0.0579 -0.1866
 5079SOL    HW115482   0.208   5.014  -0.082 -0.3506 -1.3262  0.6137
 5079SOL    HW215483   0.300   5.081   0.018  0.5581 -0.1565 -0.9656
 5080SOL     OW15484   4.370   4.650   2.918 -0.3772  0.6065 -0.3850
 5080SOL    HW115485   4.281   4.659   2.953 -1.0195 -1.0028 -1.5111
 5080SOL    HW215486   4.388   4.734   2.877 -0.9966  1.2785  0.6640
 5081SOL     OW15487   1.137   1.952   4.522  0.2005 -0.4495 -0.3087
 5081SOL    HW115488   1.121   1.858   4.513  0.5175 -0.6048  0.5890
 5081SOL    HW215489   1.074   1.993   4.463 -0.3463 -1.2090 -0.2688
 5082SOL     OW15490   5.277   1.023   0.265  0.5704  0.4147  0.3675
 5082SOL    HW115491   5.312   0.972   0.338 -1.1304 -3.5598 -1.2951
 5082SOL    HW215492   5.326   0.991   0.189 -0.7565  1.0598 -0.8031
 5083SOL     OW15493   4.583   4.446   0.665  0.2746  0.2981  0.3546
 5083SOL    HW115494   4.656   4.451   0.603 -0.8742 -1.6132 -1.3002
 5083SOL    HW215495   4.507   4.474   0.615 -0.5506 -0.4608  1.1405
 5084SOL     OW15496   2.224   2.722   1.839  0.3808  0.1868  0.6345
 5084SOL    HW115497   2.309   2.762   1.855 -0.2758  2.1896 -0.4788
 5084SOL    HW215498   2.167   2.795   1.814 -1.3719 -1.2351  0.1975
 5085SOL     OW15499   5.401   5.004   5.740  0.0524 -0.0684 -0.3815
 5085SOL    HW115500   5.429   5.085   5.781 -0.2643  0.1646 -0.6127
 5085SOL    HW215501   5.482   4.959   5.717  0.2527 -0.6651  1.3565
 5086SOL     OW15502   1.882   6.054   0.334 -0.2372 -0.5344 -0.3861
 5086SOL    HW115503   1.824   6.076   0.407 -2.4650  0.3550 -2.2983
 5086SOL    HW215504   1.889   5.958   0.337  0.1017 -0.4977  1.1951
 5087SOL     OW15505   1.204   0.155   1.715 -0.0797  0.1223  0.4333
 5087SOL    HW115506   1.166   0.180   1.631  1.6776 -0.1396 -0.4854
 5087SOL    HW215507   1.135   0.106   1.759 -1.9813  2.4785  0.2972
 5088SOL     OW15508   0.591   4.789   1.887  0.5234  0.2021 -0.3006
 5088SOL    HW115509   0.682   4.794   1.918  1.3328 -1.2727 -2.2155
 5088SOL    HW215510   0.574   4.695   1.881 -0.9715  0.4633 -0.4853
 5089SOL     OW15511   5.484   4.760   2.459 -0.2247  0.4855  0.0608
 5089SOL    HW115512   5.436   4.720   2.387 -0.8142 -0.1834  0.8127
 5089SOL    HW215513   5.434   4.839   2.480 -1.7844 -0.8631  1.6835
 5090SOL     OW15514   2.520   1.785   3.394  0.3034 -0.0373 -0.1818
 5090SOL    HW115515   2.599   1.837   3.377  0.4511 -0.4108 -0.6426
 5090SOL    HW215516   2.448   1.844   3.371  0.4889 -0.5935 -2.4251
 5091SOL     OW15517   0.908   5.224   4.197  0.8322  0.1230  0.7639
 5091SOL    HW115518   0.960   5.160   4.149  2.6431  1.3086  1.0766
 5091SOL    HW215519   0.890   5.293   4.133 -0.2529 -0.1898  0.7084
 5092SOL     OW15520   1.064   4.501   3.644  0.0373 -0.3003  0.2745
 5092SOL    HW115521   1.034   4.567   3.581  1.1717  0.2479  0.2770
 5092SOL    HW215522   0.997   4.500   3.712 -0.2776  0.4534 -0.0143
 5093SOL     OW15523   4.425   5.950   0.968  0.1650 -0.7491  0.3713
 5093SOL    HW115524   4.439   6.043   0.982  0.9100 -0.8129  0.1180
 5093SOL    HW215525   4.412   5.942   0.874  1.9737 -1.0998  0.1107
 5094SOL     OW15526   3.306   0.904   2.790  0.4324  0.1117  0.1472
 5094SOL    HW115527   3.224   0.861   2.815  0.6351 -1.0030 -1.0209
 5094SOL    HW215528   3.367   0.881   2.860  0.5555 -1.6308 -0.4902
 5095SOL     OW15529   3.888   4.685   5.356  0.4959  0.3504 -0.0005
 5095SOL    HW115530   3.818   4.735   5.315  0.4690 -0.6055 -1.1573
 5095SOL    HW215531   3.866   4.594   5.340  1.1828 -0.0205  1.0135
 5096SOL     OW15532   2.176   4.325   1.484 -0.3713 -0.2760  0.3197
 5096SOL    HW115533   2.129   4.285   1.557 -1.0222 -2.1884 -1.0388
 5096SOL    HW215534   2.266   4.295   1.495  0.0602  1.3294  1.5405
 5097SOL     OW15535   1.703   3.143   5.427 -0.0413  0.0218 -0.7774
 5097SOL    HW115536   1.634   3.134   5.493  0.2617  0.2541 -0.4188
 5097SOL    HW215537   1.692   3.232   5.393  1.6367  1.0403  1.1130
 5098SOL     OW15538   5.803   2.264   5.877 -0.7786 -0.0186  0.1544
 5098SOL    HW115539   5.819   2.358   5.877 -0.3871 -0.0648 -0.9508
 5098SOL    HW215540   5.866   2.229   5.813 -1.3025 -0.9524  0.1290
 5099SOL     OW15541   1.196   5.664   3.201 -0.2224  0.1391  0.3684
 5099SOL    HW115542   1.133   5.723   3.243 -0.9527 -2.0328  2.5594
 5099SOL    HW215543   1.251   5.633   3.273  1.1941 -0.5922 -0.9780
 5100SOL     OW15544   4.222   1.173   3.713 -0.3588 -0.0124 -0.2860
 5100SOL    HW115545   4.141   1.129   3.689 -0.4530  0.9549 -1.8899
 5100SOL    HW215546   4.216   1.184   3.808 -1.2388 -1.5997 -0.1273
 5101SOL     OW15547   2.988   3.322   1.383 -0.4303  0.1987 -0.2211
 5101SOL    HW115548   2.977   3.401   1.330  1.1677  0.3529 -0.3478
 5101SOL    HW215549   2.995   3.353   1.473  0.8216  0.2670 -0.3327
 5102SOL     OW15550   1.378   2.527   1.820  0.6824 -0.0466 -0.0245
 5102SOL    HW115551   1.364   2.449   1.766  1.6804 -1.3692  1.5368
 5102SOL    HW215552   1.443   2.578   1.771  2.6781 -1.9176  0.5041
 5103SOL     OW15553   4.234   4.983   1.208 -0.3432  0.7076  0.0293
 5103SOL    HW115554   4.250   5.067   1.250  0.5525  0.3527  0.4224
 5103SOL    HW215555   4.207   5.005   1.119 -2.8454  1.4978  0.9086
 5104SOL     OW15556   0.435   3.281   4.457 -1.0057  0.3732  0.1220
 5104SOL    HW115557   0.513   3.231   4.435 -2.1153 -1.6823  0.5525
 5104SOL    HW215558   0.364   3.233   4.413 -2.1935  1.2623  1.0247
 5105SOL     OW15559   1.867   0.516   5.025 -0.2360 -0.5354 -0.6652
 5105SOL    HW115560   1.916   0.522   5.108 -2.0433  1.5879  0.3689
 5105SOL    HW215561   1.929   0.478   4.963  1.9968  0.0138  1.0844
 5106SOL     OW15562   0.265   1.744   0.812 -0.0894 -0.8430 -0.3111
 5106SOL    HW115563   0.257   1.773   0.721 -0.8364 -0.5541 -0.1532
 5106SOL    HW215564   0.350   1.699   0.814  0.0864 -0.5724 -1.0714
 5107SOL     OW15565   2.205   4.026   1.853  0.6537  0.3310  0.5973
 5107SOL    HW115566   2.173   4.073   1.776  2.4020  2.4214  1.0252
 5107SOL    HW215567   2.279   4.079   1.884  0.0126 -0.3828  3.7146
 5108SOL     OW15568   3.489   3.954   4.643 -0.4046 -0.0660  0.4573
 5108SOL    HW115569   3.571   3.971   4.597 -0.7203 -0.7185 -0.3802
 5108SOL    HW215570   3.513   3.947   4.735  0.3189  0.7668  0.3432
 5109SOL     OW15571   5.760   4.155   2.945  0.7194  0.0710 -0.3485
 5109SOL    HW115572   5.707   4.185   2.870 -0.5736 -0.3694  0.3639
 5109SOL    HW215573   5.816   4.087   2.909  0.0627 -0.1850 -0.9076
 5110SOL     OW15574   1.314   4.234   0.912  0.0454  0.0985 -0.4400
 5110SOL    HW115575   1.264   4.158   0.881  1.8030 -1.0217 -0.6890
 5110SOL    HW215576   1.366   4.200   0.985  0.0343  1.3665  0.1771
 5111SOL     OW15577   5.829   2.589   5.260  0.3882 -0.4866  0.4471
 5111SOL    HW115578   5.914   2.628   5.283  0.6222 -0.7248  0.0100
 5111SOL    HW215579   5.771   2.613   5.332  0.3512  1.2534 -0.1244
 5112SOL     OW15580   2.435   0.779   2.121  0.0141  0.4099 -0.0245
 5112SOL    HW115581   2.427   0.825   2.205 -0.1489 -0.0480  0.2188
 5112SOL    HW215582   2.344   0.767   2.092 -0.0294 -0.9981  0.6157
 5113SOL     OW15583   5.045   3.236   5.865  0.1177 -0.3896  0.2100
 5113SOL    HW115584   5.134   3.251   5.834  0.0095 -1.1651 -0.5077
 5113SOL    HW215585   4.998   3.202   5.789 -0.8827  0.3137  0.4896
 5114SOL     OW15586   0.184   0.345   5.382 -0.4601  0.3110  0.2870
 5114SOL    HW115587   0.260   0.377   5.430 -1.0398  1.7002  0.3346
 5114SOL    HW215588   0.175   0.404   5.308 -0.8243 -0.5323 -0.3639
 5115SOL     OW15589   2.484   5.315   3.848 -0.3225 -0.3176  0.2449
 5115SOL    HW115590   2.471   5.410   3.847 -1.5301 -0.4773  0.2539
 5115SOL    HW215591   2.578   5.305   3.864  0.5380  0.9409 -3.0895
 5116SOL     OW15592   1.810   1.380   3.853 -0.2710  0.0993  0.2067
 5116SOL    HW115593   1.899   1.348   3.843 -0.7028 -0.5920 -1.9955
 5116SOL    HW215594   1.811   1.468   3.817 -0.6290 -0.2209 -0.6134
 5117SOL     OW15595   4.776   4.854   4.880  0.1393 -0.3744 -0.2927
 5117SOL    HW115596   4.832   4.864   4.956  0.2224  1.8311 -0.5904
 5117SOL    HW215597   4.807   4.919   4.818 -0.6094 -1.4074 -1.8175
 5118SOL     OW15598   4.891   2.555   2.437 -0.3664  0.1860 -0.6176
 5118SOL    HW115599   4.902   2.463   2.463 -0.7104 -0.0615 -1.3254
 5118SOL    HW215600   4.981   2.590   2.435 -0.3174  0.2226  0.8565
 5119SOL     OW15601   3.302   4.816   1.266 -0.0625 -0.1198 -0.2218
 5119SOL    HW115602   3.394   4.832   1.288  0.4397 -0.7382 -1.7182
 5119SOL    HW215603   3.292   4.853   1.178 -0.9640 -0.9796 -0.4950
 5120SOL     OW15604   0.257   2.903   1.061  0.3133 -0.3744  0.5603
 5120SOL    HW115605   0.176   2.928   1.104 -0.0426 -1.9636  0.8557
 5120SOL    HW215606   0.298   2.987   1.037 -0.7104  0.4759  1.6684
 5121SOL     OW15607   6.086   5.510   5.450  0.5197  0.0126 -0.1436
 5121SOL    HW115608   6.004   5.461   5.449 -1.0297  2.3937  1.1619
 5121SOL    HW215609   6.148   5.450   5.492 -1.3222 -0.8321  1.5470
 5122SOL     OW15610   3.050   4.222   5.867 -0.1339 -0.6710  0.7441
 5122SOL    HW115611   3.120   4.213   5.802  0.3477 -1.9811  1.4185
 5122SOL    HW215612   3.066   4.306   5.909  0.9987 -0.9236  0.8381
 5123SOL     OW15613   1.158   1.082   5.698 -0.0692 -0.2001  0.5834
 5123SOL    HW115614   1.253   1.073   5.706  0.0724 -0.1801 -0.8734
 5123SOL    HW215615   1.145   1.144   5.627 -1.1596 -1.4166 -0.3419
 5124SOL     OW15616   6.061   4.218   4.029 -0.0838  0.2372  0.1584
 5124SOL    HW115617   6.056   4.313   4.036 -1.4578  0.4109 -1.9713
 5124SOL    HW215618   6.145   4.201   3.987 -0.8786  0.7693 -1.7517
 5125SOL     OW15619   4.607   0.573   0.396 -0.1149  0.6497 -0.6576
 5125SOL    HW115620   4.698   0.555   0.372  0.4930 -0.1415  1.9971
 5125SOL    HW215621   4.566   0.599   0.313  2.0292 -0.8173 -2.2934
 5126SOL     OW15622   0.372   1.541   6.110 -0.3055 -0.6643 -0.1929
 5126SOL    HW115623   0.424   1.489   6.049  1.5057 -0.2751  0.9518
 5126SOL    HW215624   0.383   1.498   6.194  0.6874  1.1229  0.6490
 5127SOL     OW15625   2.903   4.378   3.804  0.4303 -0.5819 -0.1933
 5127SOL    HW115626   2.915   4.462   3.759  0.6205  0.8648  2.3486
 5127SOL    HW215627   2.965   4.319   3.762  0.1383  0.4604 -2.2026
 5128SOL     OW15628   4.523   4.738   0.530 -0.0301  0.0609  0.2714
 5128SOL    HW115629   4.588   4.805   0.549  0.3220 -0.7814  2.3681
 5128SOL    HW215630   4.444   4.786   0.505  0.1417  1.2903  1.9658
 5129SOL     OW15631   0.944   3.886   1.393 -0.0809  0.5803  0.1645
 5129SOL    HW115632   0.875   3.952   1.398 -2.0773 -1.4777  1.9863
 5129SOL    HW215633   0.976   3.878   1.483 -1.5710 -2.4591  0.5764
 5130SOL     OW15634   0.964   5.132   5.777 -0.4191 -0.2437  0.3155
 5130SOL    HW115635   0.946   5.041   5.800 -2.2827 -0.3328 -1.2128
 5130SOL    HW215636   1.058   5.135   5.758 -0.0586 -1.4882  1.7484
 5131SOL     OW15637   3.899   1.903   2.603  0.4433 -0.1504  0.0911
 5131SOL    HW115638   3.840   1.881   2.675 -0.5103 -1.0127 -0.9222
 5131SOL    HW215639   3.971   1.840   2.611  0.1032 -0.5515  0.0113
 5132SOL     OW15640   2.811   6.140   3.802 -0.1480 -0.2896 -0.1627
 5132SOL    HW115641   2.829   6.192   3.880  0.3223  0.7102 -0.9216
 5132SOL    HW215642   2.774   6.202   3.739  1.8415 -0.5086 -1.6242
 5133SOL     OW15643   2.312   4.549   3.806 -0.1678 -0.3029 -0.1755
 5133SOL    HW115644   2.256   4.566   3.730 -0.0873  1.7012  0.1647
 5133SOL    HW215645   2.254   4.556   3.881  0.2429  0.2568  0.0932
 5134SOL     OW15646   1.377   1.624   0.297 -0.1001  0.5785  0.2301
 5134SOL    HW115647   1.354   1.712   0.326 -1.9279 -0.1430  1.1178
 5134SOL    HW215648   1.429   1.587   0.368  0.0815  0.6894  0.1567
 5135SOL     OW15649   2.625   3.835   4.020 -0.0567 -0.1162  0.5863
 5135SOL    HW115650   2.563   3.762   4.008  0.2972 -0.3888  0.3936
 5135SOL    HW215651   2.698   3.797   4.069 -0.5863  0.5115  1.9085
 5136SOL     OW15652   3.092   0.896   5.954  0.1364  0.1549 -0.5005
 5136SOL    HW115653   3.116   0.960   6.021 -0.0552 -1.5541  1.2906
 5136SOL    HW215654   3.016   0.934   5.911 -0.2418  0.9371  0.8043
 5137SOL     OW15655   2.255   1.293   1.424  0.2008  0.6551  0.0057
 5137SOL    HW115656   2.281   1.225   1.362 -0.0362  0.8170 -0.2743
 5137SOL    HW215657   2.297   1.372   1.391  0.0842  0.7391  0.0585
 5138SOL     OW15658   3.064   0.485   2.620  0.5351  0.2638  0.0454
 5138SOL    HW115659   3.078   0.540   2.542 -1.3794  1.9285  0.7891
 5138SOL    HW215660   2.998   0.532   2.671  0.5201 -1.6196  1.8922
 5139SOL     OW15661   4.756   2.144   2.965  0.2589  0.5941  0.0766
 5139SOL    HW115662   4.708   2.205   3.020  0.7983  0.7072  0.4257
 5139SOL    HW215663   4.697   2.127   2.892 -0.6228  0.1546  0.8662
 5140SOL     OW15664   1.539   0.541   3.338  0.2812  0.1544  0.3696
 5140SOL    HW115665   1.583   0.556   3.254 -0.6490 -1.0724 -0.3809
 5140SOL    HW215666   1.493   0.623   3.356 -0.8127 -0.0590 -1.1742
 5141SOL     OW15667   5.751   3.804   2.013 -0.6235 -0.2641  0.1214
 5141SOL    HW115668   5.812   3.731   2.009 -1.2354 -0.7576 -0.7861
 5141SOL    HW215669   5.678   3.776   1.958 -0.9015  1.0002 -0.1812
 5142SOL     OW15670   1.785   3.576   5.856  0.0207  0.2312  0.2816
 5142SOL    HW115671   1.738   3.650   5.819 -0.8367 -0.3463  0.1779
 5142SOL    HW215672   1.730   3.547   5.929 -0.6079 -1.4284 -0.8080
 5143SOL     OW15673   3.716   0.727   4.780  0.3099 -0.1760 -0.2896
 5143SOL    HW115674   3.760   0.696   4.860 -0.5097  0.5385  0.4634
 5143SOL    HW215675   3.632   0.681   4.780 -0.8213  1.7403  0.7103
 5144SOL     OW15676   4.748   2.200   5.007 -0.2934  0.3205  0.2443
 5144SOL    HW115677   4.793   2.130   5.054  0.1018  0.8246  0.6307
 5144SOL    HW215678   4.809   2.224   4.937 -1.2814 -1.0832 -1.1727
 5145SOL     OW15679   0.553   2.539   0.190 -0.5003 -0.0340  0.6113
 5145SOL    HW115680   0.597   2.578   0.265 -0.5441 -0.4519  0.8616
 5145SOL    HW215681   0.572   2.598   0.117  0.9968 -0.5243  0.5754
 5146SOL     OW15682   1.903   6.104   2.628 -0.1617  0.1780  0.3570
 5146SOL    HW115683   1.814   6.067   2.632 -0.0935  0.1420  2.3585
 5146SOL    HW215684   1.929   6.093   2.536 -0.8428 -3.1134  0.4224
 5147SOL     OW15685   2.867   4.591   5.407 -0.0578 -0.6887  0.1183
 5147SOL    HW115686   2.911   4.511   5.433  0.4201 -0.5408 -0.2230
 5147SOL    HW215687   2.814   4.616   5.483  1.5808 -0.0683  1.0964
 5148SOL     OW15688   5.365   2.254   3.889  0.2838  0.2632 -0.5680
 5148SOL    HW115689   5.296   2.318   3.873  0.2644  0.1900 -0.7877
 5148SOL    HW215690   5.445   2.297   3.858  0.1265 -0.1992 -1.6894
 5149SOL     OW15691   2.123   4.659   3.627 -0.1264  0.6755  0.0022
 5149SOL    HW115692   2.115   4.679   3.534 -1.1480  0.5991  0.0531
 5149SOL    HW215693   2.032   4.645   3.656  0.1424  1.0290  1.0763
 5150SOL     OW15694   0.225   4.053   0.633 -0.5631 -0.2332 -0.0506
 5150SOL    HW115695   0.299   4.022   0.580 -2.1708 -0.9461 -2.0121
 5150SOL    HW215696   0.265   4.104   0.704  1.8035 -1.0069 -0.7573
 5151SOL     OW15697   1.584   2.760   3.899  0.0385  0.3883 -0.1262
 5151SOL    HW115698   1.504   2.761   3.951 -0.1451  0.3507 -0.4068
 5151SOL    HW215699   1.627   2.843   3.920  0.1373  0.2237  0.3448
 5152SOL     OW15700   5.356   3.421   4.350  0.2023  0.4720  0.4563
 5152SOL    HW115701   5.271   3.461   4.365 -0.0112 -0.2887  1.3579
 5152SOL    HW215702   5.340   3.326   4.357  0.9019  0.2735 -0.5071
 5153SOL     OW15703   1.730   1.026   5.587 -0.6794 -1.1119  0.5439
 5153SOL    HW115704   1.779   1.074   5.520 -1.5260  0.0192  0.6977
 5153SOL    HW215705   1.796   0.980   5.637 -0.0354 -2.2798 -1.2703
 5154SOL     OW15706   5.070   2.644   5.152  0.5198 -0.2732  0.4008
 5154SOL    HW115707   5.067   2.712   5.220  0.3456  1.7208 -1.4730
 5154SOL    HW215708   4.992   2.591   5.168 -1.5554  2.3534 -0.2809
 5155SOL     OW15709   4.769   4.080   5.997  0.0083  0.7560 -0.5932
 5155SOL    HW115710   4.853   4.120   5.975  0.2830  0.6120  0.1581
 5155SOL    HW215711   4.792   3.997   6.038 -0.4324  1.2960  0.8407
 5156SOL     OW15712   4.859   5.086   2.357  0.7113  0.4415  0.4599
 5156SOL    HW115713   4.889   5.162   2.407  0.8110 -1.5279  3.6075
 5156SOL    HW215714   4.939   5.047   2.322  0.7603  1.0910 -0.1821
 5157SOL     OW15715   1.256   4.787   6.128 -0.0385  0.0716  0.3873
 5157SOL    HW115716   1.292   4.741   6.204 -0.6825 -0.7657  0.2090
 5157SOL    HW215717   1.332   4.808   6.074  0.2192 -1.9513 -0.1518
 5158SOL     OW15718   2.723   4.155   3.820  0.7453 -0.1820  0.2696
 5158SOL    HW115719   2.715   4.152   3.915  2.4273  1.0273  0.5118
 5158SOL    HW215720   2.764   4.240   3.803 -0.9140  0.3041 -1.6644
 5159SOL     OW15721   6.040   2.490   4.284  0.3265  0.0510  0.0174
 5159SOL    HW115722   6.042   2.395   4.275 -1.7751  0.1133 -1.7615
 5159SOL    HW215723   5.950   2.515   4.266  0.9424  2.4541 -0.1166
 5160SOL     OW15724   2.738   2.302   0.292 -0.1794  0.1853  0.3771
 5160SOL    HW115725   2.751   2.235   0.225  0.3563  0.4795  0.1779
 5160SOL    HW215726   2.821   2.350   0.294 -0.0977  0.0222  1.4210
 5161SOL     OW15727   2.253   1.442   5.166  0.0148  0.2717  0.2607
 5161SOL    HW115728   2.227   1.444   5.074 -0.8036 -2.6217  0.3324
 5161SOL    HW215729   2.349   1.449   5.164  0.0649 -0.5596 -0.8941
 5162SOL     OW15730   4.454   3.451   4.183  0.5249 -0.0138 -0.2900
 5162SOL    HW115731   4.508   3.371   4.180  0.9362  0.2333  0.1920
 5162SOL    HW215732   4.517   3.522   4.172  0.1521  0.2454 -0.7739
 5163SOL     OW15733   4.393   3.280   2.277  0.0263 -0.1809 -0.2443
 5163SOL    HW115734   4.309   3.237   2.259 -1.0535  0.9119  1.8261
 5163SOL    HW215735   4.371   3.373   2.283  1.4935  0.1756 -0.1435
 5164SOL     OW15736   5.771   3.543   3.449 -0.3414  0.1025 -0.9312
 5164SOL    HW115737   5.744   3.619   3.397 -0.1371  0.2298 -0.8529
 5164SOL    HW215738   5.867   3.548   3.450 -0.3431  0.0852 -0.5649
 5165SOL     OW15739   2.155   6.098   5.944 -1.2418  0.4053 -0.1500
 5165SOL    HW115740   2.094   6.025   5.933  0.7303 -1.4532  0.5859
 5165SOL    HW215741   2.149   6.119   6.038  0.3465 -0.9098  0.3004
 5166SOL     OW15742   5.377   4.163   1.949  0.4244 -0.0905  0.0615
 5166SOL    HW115743   5.334   4.248   1.939  2.8650  1.6024  2.4022
 5166SOL    HW215744   5.348   4.132   2.035  1.2680 -0.5207  0.1999
 5167SOL     OW15745   5.948   6.028   2.473 -0.1473  0.5981  0.5001
 5167SOL    HW115746   6.037   5.996   2.458  0.3073  2.0148  0.0673
 5167SOL    HW215747   5.928   6.000   2.563  0.2124 -0.8620  0.1526
 5168SOL     OW15748   2.071   0.194   3.336  0.1927 -0.2390 -0.2680
 5168SOL    HW115749   2.126   0.173   3.260 -0.4198  0.3719 -0.8987
 5168SOL    HW215750   1.981   0.188   3.303 -0.0847  0.0148  0.4121
 5169SOL     OW15751   5.702   2.065   2.562 -0.2541 -0.7495  0.8997
 5169SOL    HW115752   5.779   2.109   2.526 -0.1782 -1.2251  0.4629
 5169SOL    HW215753   5.723   1.972   2.557 -1.1658 -0.9297  0.0158
 5170SOL     OW15754   0.215   1.300   4.042 -0.2478  0.0243  0.2445
 5170SOL    HW115755   0.197   1.212   4.009  0.9226 -0.5915  1.1567
 5170SOL    HW215756   0.231   1.352   3.963 -0.6422 -0.6506 -0.2918
 5171SOL     OW15757   0.564   3.408   0.356  0.1816 -1.0672  0.3760
 5171SOL    HW115758   0.528   3.385   0.270  1.5952 -2.3671  0.0900
 5171SOL    HW215759   0.500   3.373   0.418 -1.3891  0.8180 -0.1124
 5172SOL     OW15760   4.508   2.684   5.560 -0.4659  0.1217  0.4633
 5172SOL    HW115761   4.485   2.776   5.576 -2.2981 -0.2771  0.3104
 5172SOL    HW215762   4.603   2.680   5.576  0.0268  2.4250 -1.3482
 5173SOL     OW15763   4.039   5.358   5.603  0.2265  0.3765 -0.2920
 5173SOL    HW115764   4.037   5.409   5.522 -1.5728  1.6150  0.4780
 5173SOL    HW215765   4.090   5.411   5.664  0.0143  0.3308 -0.0723
 5174SOL     OW15766   1.601   1.553   0.127  0.2602 -0.1225  1.0463
 5174SOL    HW115767   1.563   1.513   0.049  0.1940  0.7619  0.6032
 5174SOL    HW215768   1.526   1.569   0.184  0.0815  0.6848  0.6046
 5175SOL     OW15769   1.703   2.471   5.495 -0.9282  0.1519  0.1435
 5175SOL    HW115770   1.665   2.552   5.462  0.4637  0.6946 -0.1761
 5175SOL    HW215771   1.689   2.475   5.590 -0.1639  1.1679  0.2301
 5176SOL     OW15772   3.556   6.138   1.336 -0.4748  0.5498 -0.3577
 5176SOL    HW115773   3.526   6.221   1.299 -0.7157  1.4002  1.6441
 5176SOL    HW215774   3.645   6.127   1.301 -0.4836  1.5870 -0.7377
 5177SOL     OW15775   2.757   0.557   6.143 -0.3498  0.4768 -0.1048
 5177SOL    HW115776   2.744   0.472   6.100 -0.7895 -0.1344  1.2054
 5177SOL    HW215777   2.678   0.570   6.195 -0.2411  1.6495 -0.2021
 5178SOL     OW15778   3.852   3.561   5.506 -0.0617 -0.5502  0.5597
 5178SOL    HW115779   3.942   3.542   5.479  0.3283  0.8526  0.8179
 5178SOL    HW215780   3.820   3.624   5.442  0.2805  1.4667  2.2787
 5179SOL     OW15781   1.434   0.399   2.856 -0.2437 -0.0204  0.4690
 5179SOL    HW115782   1.422   0.371   2.765 -0.2453  0.1934  0.4036
 5179SOL    HW215783   1.473   0.486   2.850 -2.0783  0.8728  0.6371
 5180SOL     OW15784   3.345   6.050   2.296 -0.6954 -0.8452 -0.2773
 5180SOL    HW115785   3.319   6.136   2.265 -0.5392  0.0400  1.8634
 5180SOL    HW215786   3.411   6.020   2.233 -1.0683  0.3938 -1.2897
 5181SOL     OW15787   3.311   2.187   0.270 -0.8322 -0.7496 -0.1275
 5181SOL    HW115788   3.295   2.219   0.181  0.8725  0.5503  0.0019
 5181SOL    HW215789   3.374   2.116   0.259  0.0888  0.0222  0.1081
 5182SOL     OW15790   4.970   1.156   5.347 -0.7725  0.2043  0.0481
 5182SOL    HW115791   4.972   1.225   5.281 -0.3540 -0.1340 -0.2998
 5182SOL    HW215792   4.929   1.082   5.304  1.0210 -0.5855 -0.4192
 5183SOL     OW15793   0.292   4.004   2.111  0.2122 -0.6056 -0.9591
 5183SOL    HW115794   0.227   4.069   2.138  0.2447 -0.5596 -0.9898
 5183SOL    HW215795   0.288   3.936   2.178 -0.2202 -0.8493 -1.2273
 5184SOL     OW15796   4.250   5.650   5.065  0.5415 -0.0751  0.2505
 5184SOL    HW115797   4.269   5.662   4.972 -1.2781 -0.2765 -0.1848
 5184SOL    HW215798   4.279   5.561   5.084  3.2942  0.7903  0.5744
 5185SOL     OW15799   0.396   4.376   1.730 -0.6809  0.2803  0.7882
 5185SOL    HW115800   0.353   4.293   1.753 -1.5104 -0.8073 -3.7632
 5185SOL    HW215801   0.325   4.441   1.731 -1.1371 -0.1673 -0.3793
 5186SOL     OW15802   1.199   4.837   4.097 -0.5859  0.2184 -0.2278
 5186SOL    HW115803   1.145   4.782   4.040 -0.1943  0.3803 -0.7608
 5186SOL    HW215804   1.155   4.921   4.100 -2.1464 -0.5823  1.9868
 5187SOL     OW15805   0.544   6.081   3.658  0.2259  0.1475 -0.2307
 5187SOL    HW115806   0.521   6.004   3.709  1.3121 -1.0343 -1.4280
 5187SOL    HW215807   0.606   6.129   3.713  0.2393 -0.3059  0.1524
 5188SOL     OW15808   3.341   5.207   2.581 -0.1361  0.2548  0.0025
 5188SOL    HW115809   3.271   5.264   2.551  0.1859  1.0136  0.6541
 5188SOL    HW215810   3.419   5.262   2.582  0.3638 -0.4333 -0.1994
 5189SOL     OW15811   1.161   2.357   1.384  0.3862 -0.1863 -0.1910
 5189SOL    HW115812   1.179   2.327   1.295 -0.6243  0.5120 -0.6544
 5189SOL    HW215813   1.092   2.423   1.373  0.2982 -0.0420  1.1045
 5190SOL     OW15814   0.821   4.662   3.607 -0.6115  0.0304 -0.1267
 5190SOL    HW115815   0.814   4.698   3.518 -0.3013  2.4955  0.7691
 5190SOL    HW215816   0.731   4.646   3.633 -0.7103 -0.6445 -0.8357
 5191SOL     OW15817   3.033   0.726   0.899  0.2554  0.3490  0.2211
 5191SOL    HW115818   3.049   0.721   0.994  0.2319  0.5860  0.2366
 5191SOL    HW215819   2.962   0.788   0.889  2.3087  2.8031 -0.1576
 5192SOL     OW15820   5.267   3.982   5.745 -0.0656  0.2368 -0.4692
 5192SOL    HW115821   5.263   3.999   5.650  1.4905 -1.8728 -1.0017
 5192SOL    HW215822   5.209   3.908   5.758  0.9181 -0.4832 -0.0737
 5193SOL     OW15823   6.075   3.337   6.044 -0.4184  0.7086 -0.1015
 5193SOL    HW115824   6.171   3.330   6.040 -0.4817  0.0461 -3.6961
 5193SOL    HW215825   6.057   3.425   6.013 -0.9751  0.3573 -0.8024
 5194SOL     OW15826   3.119   5.967   2.030  0.5253  0.3197  0.1953
 5194SOL    HW115827   3.159   5.893   1.985  1.0275  0.7782 -0.1288
 5194SOL    HW215828   3.095   5.933   2.116 -1.4035 -0.8666 -0.7459
 5195SOL     OW15829   4.156   5.944   5.828  0.1274  0.2605 -0.0083
 5195SOL    HW115830   4.143   5.852   5.806  1.1323 -0.4340  2.0555
 5195SOL    HW215831   4.250   5.958   5.816  0.0465  0.8921  0.0811
 5196SOL     OW15832   1.264   0.457   3.052  0.1339 -0.2406 -0.3072
 5196SOL    HW115833   1.197   0.506   3.004 -0.4956 -1.1815 -0.4279
 5196SOL    HW215834   1.330   0.435   2.987  0.7454  0.9623 -0.1245
 5197SOL     OW15835   1.938   4.248   0.508 -0.1536 -0.3229 -0.5389
 5197SOL    HW115836   1.985   4.282   0.432  1.1742  3.0934  1.5728
 5197SOL    HW215837   1.862   4.306   0.517 -0.9206 -1.3952  0.1521
 5198SOL     OW15838   5.959   0.348   2.747  0.4932  0.2895 -0.7061
 5198SOL    HW115839   5.970   0.432   2.701  0.1570  1.0728  0.6007
 5198SOL    HW215840   6.040   0.338   2.797  0.1763  0.2796 -0.1861
 5199SOL     OW15841   1.170   1.736   5.504 -0.1422  0.3962 -0.0359
 5199SOL    HW115842   1.097   1.702   5.453 -0.1027  1.1880 -0.6355
 5199SOL    HW215843   1.149   1.714   5.594  0.1717 -1.7446 -0.4434
 5200SOL     OW15844   1.358   5.705   2.918 -0.1902  0.6713  0.0860
 5200SOL    HW115845   1.450   5.680   2.912 -0.1581  0.8969 -0.4111
 5200SOL    HW215846   1.358   5.786   2.970 -0.3079 -0.3791  1.8277
 5201SOL     OW15847   0.503   0.698   0.267 -0.1979  0.3986 -0.2426
 5201SOL    HW115848   0.435   0.716   0.201  0.8506  0.7346 -1.2724
 5201SOL    HW215849   0.579   0.748   0.237  0.3639  0.4192  1.1507
 5202SOL     OW15850   1.988   1.203   5.169  0.2680  0.3872  0.0975
 5202SOL    HW115851   2.044   1.149   5.112 -1.5061 -1.3155 -0.1275
 5202SOL    HW215852   2.041   1.216   5.248  0.7235 -1.9372  0.2771
 5203SOL     OW15853   5.751   6.069   4.022  0.2424  0.2866  0.0024
 5203SOL    HW115854   5.819   6.033   4.078 -1.1608 -1.5036  0.6546
 5203SOL    HW215855   5.719   6.147   4.068  0.9731  0.4092  0.3020
 5204SOL     OW15856   3.182   2.118   3.684  0.2914 -0.3563  0.0343
 5204SOL    HW115857   3.173   2.024   3.671  1.3327 -0.5497  0.5658
 5204SOL    HW215858   3.192   2.154   3.595 -0.3498 -0.7177 -0.1833
 5205SOL     OW15859   5.418   0.039   0.739 -0.0705 -0.1504  0.3150
 5205SOL    HW115860   5.461   0.121   0.714  0.0691  0.3239  1.9331
 5205SOL    HW215861   5.478  -0.030   0.711 -0.1682  0.2960 -1.0289
 5206SOL     OW15862   3.460   4.870   3.339 -0.3581 -0.0288  0.0012
 5206SOL    HW115863   3.545   4.864   3.297  0.2667  2.7529  0.7037
 5206SOL    HW215864   3.455   4.959   3.373 -2.8824 -0.5984  1.4438
 5207SOL     OW15865   2.079   2.622   0.279  0.4263  0.2994 -0.2713
 5207SOL    HW115866   2.085   2.716   0.266 -1.0643  0.2896 -1.2817
 5207SOL    HW215867   2.090   2.609   0.373  0.3300  1.5040 -0.0859
 5208SOL     OW15868   1.802   3.424   3.373 -0.0776 -0.2104 -0.0225
 5208SOL    HW115869   1.798   3.331   3.349  1.9065 -0.1917 -0.5860
 5208SOL    HW215870   1.760   3.469   3.299 -0.4664 -0.6016 -0.0472
 5209SOL     OW15871   3.318   1.108   4.621  0.5217  0.2162  0.2972
 5209SOL    HW115872   3.240   1.100   4.676 -0.0678  1.3755 -0.3417
 5209SOL    HW215873   3.288   1.153   4.542  1.5903 -0.4148 -0.4917
 5210SOL     OW15874   5.285   1.956   4.150 -0.1026 -0.4195 -0.2798
 5210SOL    HW115875   5.200   2.001   4.143  0.1387 -0.0335 -0.8022
 5210SOL    HW215876   5.263   1.865   4.167 -0.6278 -0.3566 -0.5988
 5211SOL     OW15877   1.235   3.452   5.552 -0.4461 -0.0295 -0.7167
 5211SOL    HW115878   1.286   3.531   5.533  1.8976 -1.3321 -0.2168
 5211SOL    HW215879   1.267   3.387   5.490 -1.5836 -0.9008 -0.4300
 5212SOL     OW15880   3.926   0.883   5.568 -0.2446  0.3036  0.3382
 5212SOL    HW115881   4.018   0.890   5.544 -0.3134 -0.2167 -0.1141
 5212SOL    HW215882   3.923   0.902   5.662  0.2164  1.0680  0.2035
 5213SOL     OW15883   3.718   1.929   5.653 -0.2212 -0.6211 -0.1159
 5213SOL    HW115884   3.691   1.996   5.715 -1.0068 -1.3183  0.3218
 5213SOL    HW215885   3.684   1.847   5.690  2.4290 -1.5805  0.4159
 5214SOL     OW15886   1.659   2.817   3.302  0.3223 -0.5865  0.0649
 5214SOL    HW115887   1.641   2.821   3.396 -1.3990  1.3560 -0.2741
 5214SOL    HW215888   1.616   2.738   3.271 -1.0349 -0.0625  0.5709
 5215SOL     OW15889   1.928   5.252   5.024 -0.2352 -0.1152 -0.2368
 5215SOL    HW115890   1.895   5.297   5.102  1.5932  0.0559  0.4719
 5215SOL    HW215891   1.912   5.313   4.952 -1.0948  0.1112  0.1326
 5216SOL     OW15892   0.271   3.017   3.489 -0.7175  0.3141 -0.5335
 5216SOL    HW115893   0.319   3.011   3.406 -1.5741 -1.6766 -0.9481
 5216SOL    HW215894   0.267   2.927   3.521 -0.9636  0.9649  1.3649
 5217SOL     OW15895   4.704   0.360   0.044  0.1652  0.2736 -0.0722
 5217SOL    HW115896   4.798   0.359   0.028  0.7493  0.1350  2.8939
 5217SOL    HW215897   4.684   0.272   0.076 -0.3898  1.0758  1.9437
 5218SOL     OW15898   4.569   4.862   0.010  0.1183  0.1125  0.0910
 5218SOL    HW115899   4.523   4.783   0.040  0.2281  0.5702  1.5318
 5218SOL    HW215900   4.662   4.840   0.017  0.1511  0.3902  0.5984
 5219SOL     OW15901   2.642   3.293   4.395  0.0485 -0.6448 -0.0173
 5219SOL    HW115902   2.558   3.290   4.440  0.4966  0.5340  0.9498
 5219SOL    HW215903   2.620   3.312   4.304 -0.7945 -1.7030 -0.0555
 5220SOL     OW15904   0.643   2.994   0.228  0.0527 -0.4491 -0.2498
 5220SOL    HW115905   0.633   3.011   0.321 -3.3810 -3.0308  0.0665
 5220SOL    HW215906   0.733   2.963   0.218  0.8178  0.8577  1.9479
 5221SOL     OW15907   6.016   4.910   4.111 -0.1717 -0.0952 -0.1802
 5221SOL    HW115908   6.038   4.988   4.060  1.3405  1.8841  3.1742
 5221SOL    HW215909   5.921   4.914   4.121 -0.2228  0.7594 -0.8320
 5222SOL     OW15910   3.821   4.958   2.384  0.2542  0.2686  0.4067
 5222SOL    HW115911   3.836   5.049   2.359  0.8891 -0.1223 -0.6740
 5222SOL    HW215912   3.796   4.963   2.477  3.5395  1.3135  1.3892
 5223SOL     OW15913   5.147   3.345   4.804 -0.6717 -1.0017 -0.1876
 5223SOL    HW115914   5.131   3.439   4.793 -0.8627 -1.1301 -1.0797
 5223SOL    HW215915   5.222   3.341   4.863 -1.3380 -0.3152  0.7317
 5224SOL     OW15916   4.618   3.664   4.196  0.6772 -0.8495  0.5056
 5224SOL    HW115917   4.707   3.674   4.163 -0.0155 -0.7683 -1.5375
 5224SOL    HW215918   4.589   3.753   4.218  0.3421 -0.5214 -1.1099
 5225SOL     OW15919   4.582   5.752   5.645 -0.6991  0.3027 -0.5352
 5225SOL    HW115920   4.655   5.769   5.704 -0.7505  0.1955 -0.4397
 5225SOL    HW215921   4.621   5.705   5.572 -0.7863 -0.3464 -0.1698
 5226SOL     OW15922   5.702   3.619   5.326  0.0844  0.0910  0.0258
 5226SOL    HW115923   5.638   3.588   5.390 -0.1123  0.5611  0.0627
 5226SOL    HW215924   5.768   3.550   5.323 -0.1071 -0.1171  0.4457
 5227SOL     OW15925   3.099   4.108   2.594 -0.2917 -0.6891 -0.1238
 5227SOL    HW115926   3.097   4.039   2.527 -0.1319 -0.8261  0.0110
 5227SOL    HW215927   3.162   4.172   2.562  0.7417 -1.3711  0.4926
 5228SOL     OW15928   2.135   5.483   1.756 -0.1601  0.0716  0.4484
 5228SOL    HW115929   2.164   5.546   1.690  1.7282  0.2424  1.3745
 5228SOL    HW215930   2.208   5.423   1.765 -1.0557 -0.9407  1.2156
 5229SOL     OW15931   3.451   5.462   3.062 -0.2487  0.0290  0.3060
 5229SOL    HW115932   3.523   5.439   3.003 -0.8201  0.6176 -0.6504
 5229SOL    HW215933   3.404   5.531   3.016 -0.3258  0.9961  1.7601
 5230SOL     OW15934   0.106   2.219   5.868  0.0276  0.1989 -0.3015
 5230SOL    HW115935   0.121   2.309   5.897 -1.7073  0.8987 -1.3914
 5230SOL    HW215936   0.188   2.194   5.824  0.7214  1.0409  0.4741
 5231SOL     OW15937   2.719   5.941   0.527  0.1165 -0.4331 -0.4399
 5231SOL    HW115938   2.652   6.010   0.523  0.6428  0.1284  0.2858
 5231SOL    HW215939   2.779   5.969   0.595  0.2014 -1.7566  0.0609
 5232SOL     OW15940   1.835   0.252   3.209 -0.1644 -0.3891 -0.2034
 5232SOL    HW115941   1.791   0.196   3.145 -0.4123 -0.3109 -0.1043
 5232SOL    HW215942   1.886   0.313   3.156  1.3908 -1.7103 -0.2921
 5233SOL     OW15943   1.732   5.898   3.991 -0.1624  0.2040  0.1734
 5233SOL    HW115944   1.638   5.900   4.009 -0.2764 -1.4356 -0.1294
 5233SOL    HW215945   1.745   5.965   3.924 -1.3106 -0.3745 -0.6495
 5234SOL     OW15946   0.907   5.282   4.891  0.7288 -0.4136 -0.4930
 5234SOL    HW115947   0.960   5.240   4.824  0.2771 -0.7835 -0.6293
 5234SOL    HW215948   0.927   5.375   4.884  3.0020 -0.7114  0.8988
 5235SOL     OW15949   2.115   1.708   5.876  0.3248  0.1312 -0.2033
 5235SOL    HW115950   2.069   1.655   5.811  2.9302 -0.7529 -1.4578
 5235SOL    HW215951   2.107   1.797   5.844 -2.8471  0.4773  1.1546
 5236SOL     OW15952   3.076   2.645   4.028 -0.4204 -0.1480  0.1697
 5236SOL    HW115953   3.114   2.730   4.047  0.7151 -0.6521  0.2201
 5236SOL    HW215954   3.019   2.626   4.103  1.2432 -0.5261  1.3759
 5237SOL     OW15955   3.243   3.600   2.610 -0.0103  0.1647 -0.2174
 5237SOL    HW115956   3.204   3.518   2.580  0.2256 -1.0382  2.4635
 5237SOL    HW215957   3.331   3.601   2.572  0.0091 -0.8670 -0.2091
 5238SOL     OW15958   4.384   0.142   2.048 -0.3081 -0.2350  0.0431
 5238SOL    HW115959   4.366   0.068   1.990 -0.2725 -1.2214  1.2463
 5238SOL    HW215960   4.317   0.135   2.117  0.9161 -0.3526  1.2667
 5239SOL     OW15961   3.588   0.331   0.931  0.0319 -0.0907  0.4022
 5239SOL    HW115962   3.572   0.310   0.839  1.9129 -0.3417  0.0872
 5239SOL    HW215963   3.530   0.404   0.949 -1.1758 -0.7352 -0.6530
 5240SOL     OW15964   4.252   0.146   0.151  0.7158  0.3394  0.4234
 5240SOL    HW115965   4.226   0.078   0.089  1.5768 -0.7183  1.1892
 5240SOL    HW215966   4.246   0.227   0.101  1.0966 -0.4522 -0.9578
 5241SOL     OW15967   4.980   1.083   5.026 -0.3105  0.0176 -0.3473
 5241SOL    HW115968   4.953   1.001   5.066 -0.4624  0.5704  0.6993
 5241SOL    HW215969   5.069   1.067   4.995  0.2332 -0.0818  1.2117
 5242SOL     OW15970   1.739   2.226   2.058  0.4733  0.4087  0.0845
 5242SOL    HW115971   1.707   2.296   2.115  0.6893  0.8188 -0.2887
 5242SOL    HW215972   1.821   2.260   2.023 -0.6538  1.0339 -2.0815
 5243SOL     OW15973   2.108   4.113   2.126  0.3044  0.1039  0.0647
 5243SOL    HW115974   2.026   4.135   2.171  0.4388 -2.5756  1.8177
 5243SOL    HW215975   2.082   4.070   2.045  0.0663  2.2838 -1.0959
 5244SOL     OW15976   3.966   5.092   5.664 -0.5381 -0.0145  0.2154
 5244SOL    HW115977   3.873   5.089   5.688 -0.5285  1.9001  0.6526
 5244SOL    HW215978   3.976   5.176   5.619  0.6021 -1.0610 -1.6017
 5245SOL     OW15979   0.506   2.293   2.525 -0.1044  0.2382 -0.3049
 5245SOL    HW115980   0.592   2.282   2.565 -0.6155  2.3100  1.5643
 5245SOL    HW215981   0.474   2.376   2.560 -3.3512 -0.9830 -0.0404
 5246SOL     OW15982   5.310   5.177   3.209 -0.5840 -0.2120  0.0036
 5246SOL    HW115983   5.352   5.257   3.180  0.9174 -1.2313 -0.7911
 5246SOL    HW215984   5.286   5.131   3.128  1.8437 -2.1756  0.2742
 5247SOL     OW15985   2.335   3.015   1.042  0.1716  0.2027  0.2780
 5247SOL    HW115986   2.318   2.922   1.035 -1.2185  0.5217 -0.9711
 5247SOL    HW215987   2.384   3.037   0.962 -3.0930  1.2202 -1.6364
 5248SOL     OW15988   0.011   1.118   0.654 -0.2489  0.0870  0.2212
 5248SOL    HW115989   0.022   1.056   0.582  0.5891  0.9207 -0.4002
 5248SOL    HW215990  -0.075   1.156   0.641 -0.5533 -0.5667  0.3056
 5249SOL     OW15991   5.694   5.778   1.678 -0.1699  0.6546  0.1455
 5249SOL    HW115992   5.672   5.796   1.769 -3.9707  1.3700 -0.7151
 5249SOL    HW215993   5.706   5.683   1.674  0.5882  0.6778  1.4561
 5250SOL     OW15994   3.900   2.824   0.971 -0.4009 -0.0595  0.2549
 5250SOL    HW115995   3.892   2.904   1.024  0.6829  0.8767 -0.9193
 5250SOL    HW215996   3.810   2.804   0.945 -0.4927  2.9882 -2.4596
 5251SOL     OW15997   4.012   0.411   2.290 -0.0968 -0.2362 -0.1172
 5251SOL    HW115998   4.016   0.387   2.198 -2.3190 -1.1356 -0.0516
 5251SOL    HW215999   3.945   0.479   2.294  0.4986  0.3141  0.7535
 5252SOL     OW16000   0.752   4.115   3.685  0.2962 -0.4245 -0.6319
 5252SOL    HW116001   0.797   4.033   3.704  1.7728  0.5460  0.3286
 5252SOL    HW216002   0.805   4.157   3.617  0.3179  0.3003 -0.1829
 5253SOL     OW16003   5.805   2.867   3.017  0.1123 -0.5494  0.0918
 5253SOL    HW116004   5.835   2.849   3.106  1.5423 -1.8708 -0.5799
 5253SOL    HW216005   5.792   2.961   3.014  2.7884 -0.0662  0.9570
 5254SOL     OW16006   2.399   5.671   0.003 -0.7049  0.1361  0.3698
 5254SOL    HW116007   2.489   5.700  -0.010 -1.1067  1.3927  0.3395
 5254SOL    HW216008   2.405   5.575   0.000  0.4295  0.2138 -0.9190
 5255SOL     OW16009   5.114   1.029   2.078  0.9194 -0.0488  0.0434
 5255SOL    HW116010   5.179   1.080   2.126  1.7762 -0.9395 -0.1520
 5255SOL    HW216011   5.036   1.032   2.134  1.1374  0.9494  0.3174
 5256SOL     OW16012   1.083   4.669   5.382  0.3758  0.1145 -0.8198
 5256SOL    HW116013   1.013   4.649   5.319 -0.8734 -0.5164  0.6993
 5256SOL    HW216014   1.136   4.589   5.384  0.4408  0.1492 -1.0804
 5257SOL     OW16015   3.455   5.619   0.243 -0.1119 -0.3645  0.1902
 5257SOL    HW116016   3.363   5.645   0.251  0.0786  0.6068 -0.5664
 5257SOL    HW216017   3.504   5.697   0.268  0.5318 -0.9886  0.9529
 5258SOL     OW16018   1.324   5.967   0.130  0.1279 -0.0527  0.6337
 5258SOL    HW116019   1.341   5.877   0.104 -2.9971 -0.4397 -0.4988
 5258SOL    HW216020   1.314   5.963   0.225  0.6052 -0.7565  0.6616
 5259SOL     OW16021   5.588   0.731   3.898 -0.7297 -0.2850 -0.0441
 5259SOL    HW116022   5.559   0.812   3.856  0.5141  0.2633  0.1103
 5259SOL    HW216023   5.514   0.671   3.887 -2.4358  1.4131  1.4787
 5260SOL     OW16024   0.176   4.036   1.284  0.4707  0.3398 -0.2170
 5260SOL    HW116025   0.222   3.952   1.280  0.7501  0.2330  2.8806
 5260SOL    HW216026   0.244   4.101   1.264  0.8286 -0.0463 -0.2808
 5261SOL     OW16027   1.256   3.577   2.774  0.7464  0.4957 -0.3284
 5261SOL    HW116028   1.257   3.603   2.866  1.5943  0.0743 -0.2114
 5261SOL    HW216029   1.205   3.495   2.773  0.2738  0.7832 -0.3232
 5262SOL     OW16030   5.351   3.344   0.032  0.5396 -0.1226  0.2394
 5262SOL    HW116031   5.406   3.303  -0.036  1.8154 -1.2006  1.8414
 5262SOL    HW216032   5.388   3.432   0.042  0.1457  0.1559 -0.6509
 5263SOL     OW16033   2.380   0.213   6.015 -0.4106 -0.2408  0.6907
 5263SOL    HW116034   2.345   0.129   6.045 -2.0862 -0.1272 -0.7644
 5263SOL    HW216035   2.311   0.277   6.036 -0.4067  0.2798 -0.7371
 5264SOL     OW16036   0.809   3.067   1.986 -0.3345  0.1696  0.2419
 5264SOL    HW116037   0.884   3.060   2.046 -0.3215  1.0244  0.3327
 5264SOL    HW216038   0.817   3.154   1.947 -0.3596 -0.3609 -0.9940
 5265SOL     OW16039   3.262   4.477   1.910 -0.2541 -0.2788  0.3645
 5265SOL    HW116040   3.315   4.431   1.845 -2.4274 -2.0528 -0.3010
 5265SOL    HW216041   3.294   4.444   1.995  0.4383 -0.4537  0.0401
 5266SOL     OW16042   3.251   4.330   4.028 -0.0936  0.2185 -0.5445
 5266SOL    HW116043   3.156   4.339   4.025 -0.1290 -0.0352 -0.1357
 5266SOL    HW216044   3.266   4.238   4.047  0.2295  0.3810 -0.0065
 5267SOL     OW16045   4.707   0.468   5.882 -0.1163  0.2716  0.4165
 5267SOL    HW116046   4.786   0.416   5.896 -0.5385 -0.6832 -0.5952
 5267SOL    HW216047   4.638   0.420   5.927 -0.7393 -0.7363 -1.5255
 5268SOL     OW16048   1.145   0.242   0.906  0.0892  0.5907 -0.2543
 5268SOL    HW116049   1.100   0.313   0.861 -0.3147  0.8810  0.5768
 5268SOL    HW216050   1.200   0.202   0.839  0.5247  1.8501 -0.6800
 5269SOL     OW16051   1.953   4.127   5.234  0.1696  0.0129 -0.2105
 5269SOL    HW116052   2.021   4.091   5.178 -1.1563 -2.2499 -0.5176
 5269SOL    HW216053   1.945   4.064   5.306  0.5501  1.8896  1.5696
 5270SOL     OW16054   1.385   5.201   3.697 -0.0243  0.3851  0.6441
 5270SOL    HW116055   1.459   5.255   3.667  0.4777 -0.3202  0.5827
 5270SOL    HW216056   1.319   5.264   3.725  1.0757  1.0275  1.8524
 5271SOL     OW16057   5.348   0.290   1.603 -0.1008  0.2439  0.7900
 5271SOL    HW116058   5.425   0.273   1.658 -0.3187  1.0825  1.3884
 5271SOL    HW216059   5.275   0.252   1.653  0.0276 -1.5709 -0.3111
 5272SOL     OW16060   1.154   6.047   3.648 -0.3096  0.8223  0.5043
 5272SOL    HW116061   1.150   6.130   3.601 -0.7398  0.8618  0.6058
 5272SOL    HW216062   1.172   5.982   3.581 -1.2451  0.8348  0.2240
 5273SOL     OW16063   3.581   5.179   3.244 -0.3016  0.1473 -0.2738
 5273SOL    HW116064   3.533   5.163   3.325 -1.5340 -2.2628 -1.3641
 5273SOL    HW216065   3.514   5.181   3.176  0.7686  1.3992 -1.3518
 5274SOL     OW16066   3.396   2.592   1.699 -0.0794 -0.5011  0.3176
 5274SOL    HW116067   3.346   2.668   1.728  0.3173 -0.6301  1.3596
 5274SOL    HW216068   3.428   2.616   1.612  0.6779  0.8194  0.9412
 5275SOL     OW16069   0.852   4.995   0.180  0.0640  0.1949 -0.6584
 5275SOL    HW116070   0.863   5.017   0.272  1.9143 -1.4793 -0.4317
 5275SOL    HW216071   0.838   4.901   0.179 -0.1317  0.2165 -2.0965
 5276SOL     OW16072   1.277   2.749   2.422 -0.4369  0.2789  0.1247
 5276SOL    HW116073   1.363   2.707   2.428 -0.9474 -0.6418  1.5483
 5276SOL    HW216074   1.289   2.834   2.465 -0.1062  0.3722 -0.1548
 5277SOL     OW16075   3.937   2.342   1.019 -0.3889 -0.1152  0.1670
 5277SOL    HW116076   3.891   2.362   0.937 -0.3795 -1.8066 -0.2958
 5277SOL    HW216077   4.029   2.362   1.001 -0.3735 -0.5582 -0.2802
 5278SOL     OW16078   1.373   0.574   4.512  0.3434 -0.2608 -0.0183
 5278SOL    HW116079   1.350   0.653   4.559 -0.8573  1.0881 -2.6607
 5278SOL    HW216080   1.466   0.584   4.492 -0.5422  2.7263 -3.8684
 5279SOL     OW16081   0.384   2.753   4.219  0.1205  0.0171  0.7555
 5279SOL    HW116082   0.361   2.798   4.139 -0.6911  0.6031  1.3044
 5279SOL    HW216083   0.335   2.671   4.216  0.8928 -0.4350  0.1816
 5280SOL     OW16084   4.603   4.196   4.382 -0.7022 -0.8218 -0.0550
 5280SOL    HW116085   4.542   4.124   4.400  1.2493 -2.5214  0.1745
 5280SOL    HW216086   4.634   4.223   4.469  1.6113 -2.5647 -0.2450
 5281SOL     OW16087   4.430   1.256   5.361 -1.1051 -0.0302 -0.1213
 5281SOL    HW116088   4.407   1.277   5.451  0.1123 -0.6995  0.3662
 5281SOL    HW216089   4.516   1.215   5.367 -0.2362  1.3968 -1.7405
 5282SOL     OW16090   2.834   2.288   4.798  0.0547 -0.1620 -0.3540
 5282SOL    HW116091   2.845   2.382   4.806  0.6266 -0.3442  1.3173
 5282SOL    HW216092   2.763   2.266   4.858  0.4571 -0.8952 -0.1260
 5283SOL     OW16093   4.680   3.324   2.862 -0.2896  0.1379 -0.1909
 5283SOL    HW116094   4.640   3.395   2.812  0.0922  0.9070  0.5569
 5283SOL    HW216095   4.632   3.245   2.836  1.1060  0.1538 -3.1855
 5284SOL     OW16096   2.940   1.262   2.425 -0.2179 -0.1081  0.0282
 5284SOL    HW116097   2.999   1.190   2.401 -0.0187 -0.1596  0.6494
 5284SOL    HW216098   2.893   1.282   2.344 -0.3255 -0.9882 -0.1402
 5285SOL     OW16099   3.591   4.413   2.282 -0.7695 -0.1769  0.4478
 5285SOL    HW116100   3.611   4.481   2.218 -1.5373  0.7526  1.1614
 5285SOL    HW216101   3.514   4.369   2.246 -0.5130 -0.4035  0.1772
 5286SOL     OW16102   6.093   3.775   4.499  0.0386 -0.2744  0.1923
 5286SOL    HW116103   6.010   3.804   4.538 -0.4060  0.7143 -1.3875
 5286SOL    HW216104   6.072   3.693   4.455  0.3695 -1.0132  1.3814
 5287SOL     OW16105   0.269   4.410   5.210 -0.4202 -0.7475  0.0389
 5287SOL    HW116106   0.282   4.486   5.153 -2.0727 -0.1857  0.3676
 5287SOL    HW216107   0.225   4.346   5.155  0.6719 -1.3850 -0.1392
 5288SOL     OW16108   1.333   1.157   2.783 -0.2452 -0.2660 -0.4636
 5288SOL    HW116109   1.302   1.080   2.831 -2.0812 -0.0561 -1.2441
 5288SOL    HW216110   1.363   1.123   2.699  0.1842 -0.2679 -0.3145
 5289SOL     OW16111   5.108   4.395   0.227 -0.3111 -0.7195 -0.2230
 5289SOL    HW116112   5.142   4.447   0.300 -1.1946  0.2542 -0.4797
 5289SOL    HW216113   5.157   4.426   0.151 -3.0578  2.2734 -1.0061
 5290SOL     OW16114   5.045   1.936   4.769 -0.2132 -0.3691  0.1337
 5290SOL    HW116115   5.090   1.960   4.688  0.3338 -0.4912  0.4006
 5290SOL    HW216116   5.024   2.020   4.810  1.1259 -0.3166  0.7486
 5291SOL     OW16117   2.290   5.265   4.892  0.2702  0.0774  0.0120
 5291SOL    HW116118   2.371   5.290   4.848  0.6467 -0.6874  0.2467
 5291SOL    HW216119   2.221   5.309   4.843  0.8116  0.5867 -0.3084
 5292SOL     OW16120   1.971   2.033   4.384  1.1424  0.0873  0.3460
 5292SOL    HW116121   2.052   2.071   4.419  1.6730  1.3928 -2.0509
 5292SOL    HW216122   2.001   1.974   4.315  0.0712  0.3931 -0.4024
 5293SOL     OW16123   5.641   3.328   4.349  0.4994 -0.0526  0.3536
 5293SOL    HW116124   5.704   3.262   4.318 -0.2489 -0.2990 -0.7176
 5293SOL    HW216125   5.559   3.279   4.360 -0.5458  0.9806 -2.1718
 5294SOL     OW16126   2.549   5.456   1.670  0.0489  0.1988 -0.3891
 5294SOL    HW116127   2.600   5.378   1.644 -0.0011 -0.0618  0.2823
 5294SOL    HW216128   2.485   5.423   1.732 -1.6373  0.3486 -1.9683
 5295SOL     OW16129   2.795   0.633   4.711 -0.2080 -0.0952 -0.4169
 5295SOL    HW116130   2.828   0.681   4.635  1.6993  1.8393  1.4703
 5295SOL    HW216131   2.855   0.657   4.782 -1.6458 -2.1153  1.6262
 5296SOL     OW16132   0.960   2.428   4.078  0.6420  0.2552 -0.3873
 5296SOL    HW116133   1.027   2.364   4.056 -0.3159 -0.0862 -2.5536
 5296SOL    HW216134   0.951   2.420   4.173  2.1188 -1.2247 -0.3139
 5297SOL     OW16135   2.602   0.329   2.709 -0.1364 -0.0585 -0.0376
 5297SOL    HW116136   2.689   0.345   2.744  0.0619  0.3387 -0.6909
 5297SOL    HW216137   2.612   0.337   2.614 -1.1304  1.3298 -0.0596
 5298SOL     OW16138   1.450   0.518   5.526 -0.1721  0.3053 -0.7116
 5298SOL    HW116139   1.418   0.498   5.438 -1.6843 -1.6538  0.2203
 5298SOL    HW216140   1.494   0.438   5.555  1.1957  1.2575 -0.0126
 5299SOL     OW16141   5.471   3.496   5.188  0.2374  0.6609  0.6010
 5299SOL    HW116142   5.413   3.558   5.232  0.2336  1.1754 -0.1197
 5299SOL    HW216143   5.556   3.538   5.189  0.6345 -0.1122  1.6941
 5300SOL     OW16144   5.586   1.702   5.086  0.5149  0.1627 -0.4971
 5300SOL    HW116145   5.599   1.778   5.030 -1.0333  1.3667  0.6829
 5300SOL    HW216146   5.508   1.659   5.052  1.7805 -1.3684 -1.5950
 5301SOL     OW16147   2.772   3.807   0.564 -0.1833 -0.0205  0.7758
 5301SOL    HW116148   2.807   3.837   0.480  4.7606 -1.1172  2.1416
 5301SOL    HW216149   2.760   3.713   0.553 -0.6258  0.0069  0.9943
 5302SOL     OW16150   2.525   5.645   3.834  0.0898 -0.6480 -0.1073
 5302SOL    HW116151   2.475   5.640   3.916 -1.5771  0.5980 -0.9728
 5302SOL    HW216152   2.540   5.739   3.821  0.0657 -0.8009 -1.3578
 5303SOL     OW16153   0.014   6.031   3.053 -0.0225 -0.7943  0.0830
 5303SOL    HW116154  -0.015   5.959   3.108 -1.7251 -0.4530 -0.2852
 5303SOL    HW216155  -0.029   6.109   3.090 -1.0821 -0.5317 -1.5517
 5304SOL     OW16156   3.934   2.826   2.939 -0.1018 -0.3724  0.3348
 5304SOL    HW116157   3.970   2.806   2.852  0.0622  1.1660  0.0165
 5304SOL    HW216158   3.839   2.816   2.928 -0.2092  1.1598 -0.4487
 5305SOL     OW16159   0.687   3.736   4.626  0.1389  0.1049 -0.1268
 5305SOL    HW116160   0.698   3.666   4.563 -1.0212  1.6557 -2.1670
 5305SOL    HW216161   0.763   3.793   4.612 -1.0227  1.3977 -1.4835
 5306SOL     OW16162   3.372   5.059   3.895  0.7817  0.3760  0.0316
 5306SOL    HW116163   3.363   5.153   3.878 -0.9170 -0.0573 -1.8480
 5306SOL    HW216164   3.372   5.019   3.809 -0.0463 -1.4653  0.8332
 5307SOL     OW16165   3.269   4.023   0.014 -0.6194  0.2827 -0.2872
 5307SOL    HW116166   3.340   4.070  -0.029  2.7337 -3.2338  0.8362
 5307SOL    HW216167   3.254   4.071   0.095  0.6988  0.9824 -0.4296
 5308SOL     OW16168   0.292   5.216   3.203  0.0385  0.2424 -0.2472
 5308SOL    HW116169   0.319   5.167   3.125  2.1247 -1.0115  1.1620
 5308SOL    HW216170   0.352   5.290   3.207 -0.8138  0.9604 -0.4225
 5309SOL     OW16171   0.524   3.436   2.551 -0.3122 -0.1697  0.4400
 5309SOL    HW116172   0.524   3.358   2.606 -1.2585 -0.6353 -0.1980
 5309SOL    HW216173   0.558   3.505   2.608  0.9625 -1.1286  0.8757
 5310SOL     OW16174   2.851   3.899   0.074  0.4512  0.0817  0.2737
 5310SOL    HW116175   2.901   3.886  -0.006 -0.7187 -0.8940 -0.3261
 5310SOL    HW216176   2.781   3.959   0.050  0.1581 -0.1266  0.5881
 5311SOL     OW16177   3.597   2.695   1.067  0.4987  0.2869  0.8716
 5311SOL    HW116178   3.538   2.620   1.073 -0.4793  1.1016  1.8838
 5311SOL    HW216179   3.614   2.705   0.974  1.9853 -2.1638  0.7793
 5312SOL     OW16180   5.452   5.421   2.509 -0.0682  0.2521  0.1861
 5312SOL    HW116181   5.539   5.445   2.477  0.3133 -0.2532  0.8143
 5312SOL    HW216182   5.464   5.332   2.545 -0.6979  0.4180  0.8224
 5313SOL     OW16183   5.417   3.580   3.062  0.1828  0.4425 -0.0837
 5313SOL    HW116184   5.353   3.583   3.132  0.1184  1.3640 -0.1702
 5313SOL    HW216185   5.432   3.671   3.039  2.1013  0.3124  0.4500
 5314SOL     OW16186   1.096   5.269   4.609  0.0865  0.1269  0.5667
 5314SOL    HW116187   1.065   5.329   4.541  2.1260  0.2993 -0.2949
 5314SOL    HW216188   1.139   5.325   4.673  1.6750 -0.3170 -0.0578
 5315SOL     OW16189   0.199   3.115   0.524 -0.1874  0.2302 -0.3564
 5315SOL    HW116190   0.106   3.105   0.543 -0.1885 -1.2468 -1.0051
 5315SOL    HW216191   0.232   3.025   0.516  1.2704  0.7292 -0.2558
 5316SOL     OW16192   0.096   2.814   4.481  0.0982  0.1108  0.1807
 5316SOL    HW116193   0.124   2.772   4.399 -0.7469 -0.1576  0.0168
 5316SOL    HW216194   0.057   2.743   4.532 -1.8834  0.7519 -0.3373
 5317SOL     OW16195   4.396   0.778   0.853 -0.2162 -0.2453  0.2000
 5317SOL    HW116196   4.330   0.817   0.796 -1.2834 -1.9329  0.2348
 5317SOL    HW216197   4.353   0.769   0.938  1.1479  1.6252  1.1745
 5318SOL     OW16198   5.120   0.054   2.610  0.1558  0.0402 -0.2523
 5318SOL    HW116199   5.093  -0.037   2.598 -3.8635  1.0479 -0.2259
 5318SOL    HW216200   5.125   0.090   2.522  2.8705 -0.3660 -0.3434
 5319SOL     OW16201   5.590   5.581   4.988  0.2110 -0.1387 -0.2479
 5319SOL    HW116202   5.571   5.554   4.898  0.8641  0.2703 -0.5167
 5319SOL    HW216203   5.519   5.641   5.010 -0.4669 -0.9516 -0.1485
 5320SOL     OW16204   3.277   2.653   5.560  0.1399  0.0734 -0.0810
 5320SOL    HW116205   3.326   2.688   5.634  0.0175  1.6478 -0.7105
 5320SOL    HW216206   3.337   2.591   5.518  1.8346  2.2647 -1.0772
 5321SOL     OW16207   1.604   3.263   4.964 -0.0447  0.0036 -0.4119
 5321SOL    HW116208   1.527   3.219   4.928 -2.1743  1.6126  1.8255
 5321SOL    HW216209   1.679   3.220   4.921 -1.9536 -4.1778 -0.0586
 5322SOL     OW16210   4.017   4.666   0.552  0.3361 -0.5702  0.2541
 5322SOL    HW116211   4.088   4.611   0.583  0.8326 -0.4427 -0.6016
 5322SOL    HW216212   3.988   4.624   0.471  0.7153  0.3907 -0.4049
 5323SOL     OW16213   2.920   3.186   5.723 -0.1442  0.1661 -0.4129
 5323SOL    HW116214   2.879   3.249   5.783  0.9067  0.9851 -0.5220
 5323SOL    HW216215   2.902   3.101   5.762  0.1872  0.6569  0.8705
 5324SOL     OW16216   1.930   2.931   1.122 -0.2258 -0.0115 -0.5130
 5324SOL    HW116217   1.987   3.003   1.148 -0.9597  0.9453 -1.4376
 5324SOL    HW216218   1.922   2.941   1.027  1.0185 -2.3421 -0.9385
 5325SOL     OW16219   3.484   3.952   2.443  0.2603 -0.4548 -0.2686
 5325SOL    HW116220   3.408   3.932   2.388  0.0029  0.4465 -0.2633
 5325SOL    HW216221   3.525   4.028   2.401 -1.9103  2.5388  2.5251
 5326SOL     OW16222   0.134   0.471   0.467 -0.1197 -0.2854  0.1071
 5326SOL    HW116223   0.137   0.544   0.405  0.9134  0.9583  1.5352
 5326SOL    HW216224   0.111   0.395   0.414  1.3815  0.5851 -1.9396
 5327SOL     OW16225   0.047   4.867   4.314  0.2558 -0.3015 -0.4820
 5327SOL    HW116226  -0.020   4.873   4.246  0.2372  0.7813 -0.3824
 5327SOL    HW216227   0.007   4.812   4.382 -0.0545 -0.6678 -0.9517
 5328SOL     OW16228   3.506   2.225   4.478  0.3656  0.6535  0.2665
 5328SOL    HW116229   3.414   2.209   4.499 -0.9031  1.9427 -3.5475
 5328SOL    HW216230   3.551   2.145   4.503 -2.0051 -0.5302  1.0005
 5329SOL     OW16231   0.950   2.888   0.954 -0.3765 -0.0222 -0.3465
 5329SOL    HW116232   1.035   2.911   0.917  0.7248 -1.1430  1.3808
 5329SOL    HW216233   0.902   2.849   0.881  0.8799 -0.1332 -1.1419
 5330SOL     OW16234   4.248   3.547   1.911  1.0453  0.1441 -0.1911
 5330SOL    HW116235   4.267   3.603   1.836 -1.9682  1.4791 -0.1018
 5330SOL    HW216236   4.187   3.482   1.877  0.5456  0.0548  0.8420
 5331SOL     OW16237   0.861   2.338   0.914 -0.0433  0.3540  0.3839
 5331SOL    HW116238   0.905   2.418   0.943  0.3940 -0.0541  0.8708
 5331SOL    HW216239   0.865   2.280   0.990 -1.4735  0.3174  0.4497
 5332SOL     OW16240   1.713   4.362   0.948  0.0165  0.2422 -0.0528
 5332SOL    HW116241   1.670   4.416   1.015 -0.0466 -0.7479  0.7300
 5332SOL    HW216242   1.646   4.349   0.881 -1.1668 -1.7251  1.4023
 5333SOL     OW16243   2.987   3.774   0.756  0.3880  0.0061  0.0685
 5333SOL    HW116244   3.041   3.817   0.690 -0.8882  2.3845  0.4475
 5333SOL    HW216245   2.897   3.790   0.728 -0.1950  1.0397  2.2792
 5334SOL     OW16246   4.607   0.187   4.582 -0.0723  0.0065  0.2888
 5334SOL    HW116247   4.688   0.238   4.579  0.5682 -1.0128  0.0025
 5334SOL    HW216248   4.612   0.130   4.506 -0.9041 -0.3157  0.4670
 5335SOL     OW16249   4.845   4.836   0.069  0.6506 -0.0823 -0.6918
 5335SOL    HW116250   4.838   4.743   0.088  0.0320 -0.0209 -0.5911
 5335SOL    HW216251   4.934   4.860   0.096  0.4890 -0.4392  0.1844
 5336SOL     OW16252   4.364   1.619   2.788 -0.1798 -0.1694  0.3366
 5336SOL    HW116253   4.394   1.665   2.710 -0.2383  3.3939  2.2012
 5336SOL    HW216254   4.275   1.652   2.803  0.0070 -0.3760  2.1550
 5337SOL     OW16255   1.574   0.156   5.743 -0.2451  0.1234 -0.3231
 5337SOL    HW116256   1.593   0.202   5.825 -0.9982  0.8408 -0.5432
 5337SOL    HW216257   1.619   0.208   5.676  0.0307 -0.2357 -0.4231
 5338SOL     OW16258   5.677   3.491   4.616  0.4760  0.1317  0.3515
 5338SOL    HW116259   5.650   3.529   4.533  1.1766  0.5398  0.3017
 5338SOL    HW216260   5.597   3.452   4.652 -0.1405  1.1528  0.1312
 5339SOL     OW16261   0.348   1.154   2.853  0.4394 -0.1390 -0.2167
 5339SOL    HW116262   0.355   1.241   2.892 -0.5618 -0.3050  0.3573
 5339SOL    HW216263   0.256   1.130   2.863  0.6845 -1.2358 -0.4403
 5340SOL     OW16264   0.796   2.806   5.592 -0.3228 -0.0429  0.2966
 5340SOL    HW116265   0.706   2.812   5.623  0.0956  1.2003  1.3414
 5340SOL    HW216266   0.834   2.892   5.611  0.6593 -0.0229 -1.5302
 5341SOL     OW16267   2.204   4.267   5.135  0.5511  0.2373 -0.1163
 5341SOL    HW116268   2.152   4.244   5.058  0.4642  0.5287 -0.1450
 5341SOL    HW216269   2.152   4.333   5.180 -0.6809 -1.7837  1.6063
 5342SOL     OW16270   0.743   1.572   2.981 -0.2319 -0.2776 -0.1404
 5342SOL    HW116271   0.780   1.507   3.041  0.9670  0.3853 -0.1261
 5342SOL    HW216272   0.723   1.522   2.902  1.2824 -0.5776 -0.3640
 5343SOL     OW16273   5.832   4.858   5.055  0.2315  0.1238 -0.3971
 5343SOL    HW116274   5.927   4.864   5.065  0.2198  1.0094 -0.7728
 5343SOL    HW216275   5.802   4.949   5.053 -0.7477 -0.1554  0.8325
 5344SOL     OW16276   4.165   5.913   0.298 -0.3775  0.4103  0.3403
 5344SOL    HW116277   4.139   5.917   0.206 -0.4326 -0.5316  0.3054
 5344SOL    HW216278   4.126   5.832   0.331  1.5502 -0.5133  0.5620
 5345SOL     OW16279   5.166   5.365   5.381  0.1599  0.0505  0.3656
 5345SOL    HW116280   5.200   5.355   5.293  1.5274  1.7385  0.6608
 5345SOL    HW216281   5.095   5.301   5.387  0.2650 -0.3220 -1.8212
 5346SOL     OW16282   5.652   4.025   2.164  0.6501 -0.3726  0.6116
 5346SOL    HW116283   5.667   3.950   2.106 -0.2921  0.5614 -0.9290
 5346SOL    HW216284   5.588   3.994   2.227 -1.1972 -0.3994 -1.1541
 5347SOL     OW16285   1.768   4.644   2.639  0.3831 -0.5760  0.0055
 5347SOL    HW116286   1.782   4.559   2.679  1.2360  0.1772  1.4071
 5347SOL    HW216287   1.856   4.680   2.628 -0.0134  0.7253  0.8562
 5348SOL     OW16288   2.988   4.505   2.176 -0.1586  0.2642  0.5046
 5348SOL    HW116289   3.030   4.424   2.147 -0.0449  0.0426  1.2766
 5348SOL    HW216290   2.919   4.477   2.235  0.4125  0.7564  1.4315
 5349SOL     OW16291   0.202   2.940   2.685 -0.1856 -0.3479  0.0081
 5349SOL    HW116292   0.120   2.911   2.727 -0.2155  0.5776  0.6151
 5349SOL    HW216293   0.270   2.916   2.747 -0.2302  1.0399  0.6145
 5350SOL     OW16294   3.194   2.960   4.178 -0.8001  0.0902  0.3324
 5350SOL    HW116295   3.198   3.055   4.192 -0.9788 -0.0308  1.2603
 5350SOL    HW216296   3.242   2.923   4.252 -0.1686 -0.5276 -0.3690
 5351SOL     OW16297   0.695   5.390   4.664  0.0578 -0.3290 -0.2789
 5351SOL    HW116298   0.705   5.447   4.588 -2.0662  1.4663  0.6875
 5351SOL    HW216299   0.661   5.447   4.733 -1.8777 -2.6493  0.8519
 5352SOL     OW16300   1.825   4.112   2.184 -0.4678 -0.5773  0.6203
 5352SOL    HW116301   1.817   4.208   2.180  1.1890 -0.3646  1.3580
 5352SOL    HW216302   1.744   4.083   2.225 -1.0293  0.5022  0.3153
 5353SOL     OW16303   4.532   0.611   3.635 -0.1124 -0.2511 -0.4083
 5353SOL    HW116304   4.476   0.594   3.712 -0.5224  0.1851 -0.6054
 5353SOL    HW216305   4.593   0.538   3.633  2.4159  1.5170  2.5499
 5354SOL     OW16306   5.453   2.668   5.255  0.0303 -0.0750 -0.7451
 5354SOL    HW116307   5.409   2.663   5.341  0.7576 -0.4226 -0.3893
 5354SOL    HW216308   5.530   2.613   5.264  0.4573  0.3992 -1.4252
 5355SOL     OW16309   0.552   2.417   4.639 -0.3389  0.0111 -0.2946
 5355SOL    HW116310   0.518   2.420   4.728  1.1636  2.1080  0.2836
 5355SOL    HW216311   0.495   2.355   4.593 -1.7104 -0.4128  1.8680
 5356SOL     OW16312   4.729   2.310   2.565  0.0819 -0.2436 -0.8279
 5356SOL    HW116313   4.805   2.302   2.507  1.0057  1.4387  0.0573
 5356SOL    HW216314   4.762   2.283   2.651  0.7819  3.5181  0.2987
 5357SOL     OW16315   4.268   1.025   4.580  0.2495  0.4524  0.2134
 5357SOL    HW116316   4.291   1.117   4.573  1.7395  0.1932  1.2452
 5357SOL    HW216317   4.343   0.979   4.542  0.3654 -0.3640  1.3771
 5358SOL     OW16318   5.113   0.147   5.217 -0.1595 -0.3802 -0.0356
 5358SOL    HW116319   5.095   0.054   5.207 -1.6310 -0.1960  0.5507
 5358SOL    HW216320   5.097   0.184   5.130  0.1905 -0.6402 -0.2106
 5359SOL     OW16321   0.423   1.178   1.149  1.1479 -0.2709 -0.2607
 5359SOL    HW116322   0.501   1.228   1.174  0.2607  0.3163  1.4924
 5359SOL    HW216323   0.379   1.233   1.084  1.5760 -0.0639 -0.3818
 5360SOL     OW16324   0.832   5.921   0.401 -0.2329 -0.7114 -0.0379
 5360SOL    HW116325   0.918   5.960   0.414 -1.0453  1.2384 -0.1173
 5360SOL    HW216326   0.849   5.836   0.360  1.6219 -0.3020 -0.1831
 5361SOL     OW16327   1.724   0.432   0.249 -0.1644 -0.1465  0.0540
 5361SOL    HW116328   1.800   0.406   0.300  0.3630 -0.4185 -0.8483
 5361SOL    HW216329   1.729   0.527   0.245 -1.0457  0.0070  1.7538
 5362SOL     OW16330   3.697   0.073   3.673  0.2408 -0.3795  0.2718
 5362SOL    HW116331   3.634   0.002   3.677  0.3932 -0.6956 -1.6439
 5362SOL    HW216332   3.645   0.151   3.656  0.2964 -0.5683 -0.8464
 5363SOL     OW16333   3.797   1.876   3.382 -0.6082  0.2608 -0.3978
 5363SOL    HW116334   3.786   1.827   3.463 -0.5845  1.0735  0.1169
 5363SOL    HW216335   3.713   1.920   3.369 -0.3398  0.8050 -0.3407
 5364SOL     OW16336   5.793   4.083   0.016  0.3304 -0.2826  0.6621
 5364SOL    HW116337   5.804   4.154  -0.047  2.4986 -2.0420 -1.1373
 5364SOL    HW216338   5.726   4.027  -0.022  1.1043 -0.9600  0.2753
 5365SOL     OW16339   1.575   5.984   1.862  0.0477 -0.2096 -0.2676
 5365SOL    HW116340   1.557   5.914   1.800  1.3967 -0.5467 -0.2906
 5365SOL    HW216341   1.631   6.045   1.815  0.3656 -0.0294  0.3319
 5366SOL     OW16342   1.172   3.398   1.364  0.0144  0.4881 -0.0917
 5366SOL    HW116343   1.106   3.465   1.346  0.8771  1.0830 -1.1530
 5366SOL    HW216344   1.231   3.440   1.427  1.1372  1.1481 -1.5314
 5367SOL     OW16345   0.105   5.394   4.653 -0.0983  0.4351 -0.3191
 5367SOL    HW116346   0.097   5.468   4.713  1.4835  1.2128 -1.0202
 5367SOL    HW216347   0.041   5.330   4.685 -0.8862  1.7444  0.8154
 5368SOL     OW16348   0.625   4.944   5.482  0.5857  0.2235  0.5449
 5368SOL    HW116349   0.694   4.996   5.521  0.6774 -0.0784  0.7890
 5368SOL    HW216350   0.642   4.854   5.511  0.5646  0.0175 -0.0546
 5369SOL     OW16351   1.863   4.013   5.734  0.2848  0.7096  0.6128
 5369SOL    HW116352   1.800   4.085   5.733 -0.8602 -0.2478  1.2372
 5369SOL    HW216353   1.948   4.056   5.745 -0.2003  2.0461 -0.4869
 5370SOL     OW16354   0.646   4.452   4.219  0.4886 -0.0409 -0.1972
 5370SOL    HW116355   0.624   4.449   4.312  1.3405  1.1025  0.0631
 5370SOL    HW216356   0.562   4.472   4.176 -0.0200 -1.1272  0.2464
 5371SOL     OW16357   5.630   5.181   5.468 -0.6275 -0.1159  0.2109
 5371SOL    HW116358   5.647   5.155   5.558 -0.3661 -0.2163  0.1335
 5371SOL    HW216359   5.540   5.213   5.469 -0.4445  0.4062  0.6229
 5372SOL     OW16360   1.645   1.654   4.553 -0.5717  0.0729 -0.7205
 5372SOL    HW116361   1.677   1.706   4.479  0.4220  0.6081  0.0640
 5372SOL    HW216362   1.678   1.566   4.537 -1.0702 -0.0053 -1.3395
 5373SOL     OW16363   6.028   5.682   5.211  0.0763 -0.1630  0.5531
 5373SOL    HW116364   6.045   5.624   5.285  0.5220 -0.1637  0.4489
 5373SOL    HW216365   6.005   5.766   5.251 -0.7488 -0.4449  0.7092
 5374SOL     OW16366   5.103   1.026   1.383  0.2072  0.1637 -0.1568
 5374SOL    HW116367   5.114   1.097   1.447 -1.2808 -1.7433  2.4376
 5374SOL    HW216368   5.009   1.025   1.365  0.2189 -1.0378 -0.2351
 5375SOL     OW16369   1.579   5.064   2.850 -0.0396  0.3877  0.3135
 5375SOL    HW116370   1.675   5.060   2.857 -0.0119 -0.0105 -0.2453
 5375SOL    HW216371   1.548   4.999   2.913  0.0617  0.3377  0.3124
 5376SOL     OW16372   0.350   1.467   0.231 -0.4206 -0.2174 -0.0552
 5376SOL    HW116373   0.366   1.485   0.324 -1.2234  0.6115 -0.0644
 5376SOL    HW216374   0.275   1.408   0.230 -0.2138 -0.4793 -0.1675
 5377SOL     OW16375   5.402   1.571   4.895  0.3840 -0.2781  0.3109
 5377SOL    HW116376   5.468   1.502   4.896 -0.3744 -1.0094  0.8574
 5377SOL    HW216377   5.322   1.528   4.923 -0.0555  0.8835  0.8961
 5378SOL     OW16378   1.353   2.956   3.486  0.3630  0.9518  0.0441
 5378SOL    HW116379   1.447   2.946   3.501 -0.0287 -2.9671  0.9848
 5378SOL    HW216380   1.347   3.014   3.410  3.6150  0.0209 -1.1002
 5379SOL     OW16381   2.256   2.165   5.566 -0.3876 -0.3018 -0.3657
 5379SOL    HW116382   2.211   2.227   5.623  0.3600 -1.1706  1.2501
 5379SOL    HW216383   2.201   2.159   5.488 -1.1490  1.3723  0.0087
 5380SOL     OW16384   5.425   3.149   1.372 -0.7209  0.3531  0.2032
 5380SOL    HW116385   5.335   3.155   1.401 -0.3616  0.4680  1.3346
 5380SOL    HW216386   5.459   3.238   1.377 -0.1396  0.0923  1.1606
 5381SOL     OW16387   4.485   1.920   3.160 -0.4279 -0.3074 -0.2642
 5381SOL    HW116388   4.474   1.861   3.085 -1.5838 -0.7599  0.2330
 5381SOL    HW216389   4.401   1.965   3.168  0.2608  1.0252 -0.2922
 5382SOL     OW16390   4.699   1.776   2.092  0.0730 -0.2688 -0.1585
 5382SOL    HW116391   4.734   1.687   2.093  0.0102 -0.2987  0.7702
 5382SOL    HW216392   4.662   1.788   2.180  0.2595  0.7430 -0.2048
 5383SOL     OW16393   4.138   1.396   0.009 -0.4657 -0.2133  0.3078
 5383SOL    HW116394   4.101   1.337   0.075 -0.0697 -1.6703 -0.7100
 5383SOL    HW216395   4.145   1.480   0.053 -3.1937 -0.3288  1.1088
 5384SOL     OW16396   4.966   4.973   3.300  0.3760  0.1436  0.2582
 5384SOL    HW116397   5.059   4.971   3.323  0.2755 -0.1351  0.6356
 5384SOL    HW216398   4.920   4.949   3.380 -0.0054 -0.0999 -0.0316
 5385SOL     OW16399   4.696   2.020   5.579 -0.0473  0.3288  0.1475
 5385SOL    HW116400   4.696   2.088   5.511 -0.7672  0.3292  0.1358
 5385SOL    HW216401   4.739   2.061   5.654 -0.6127  0.8676  0.1936
 5386SOL     OW16402   3.639   5.918   1.858 -0.4299  0.5112 -0.0066
 5386SOL    HW116403   3.671   5.998   1.900  1.7216 -0.2371 -0.0884
 5386SOL    HW216404   3.599   5.948   1.776 -1.0137  1.6119  0.6594
 5387SOL     OW16405   1.396   3.114   4.859  0.6172  0.2991 -0.1758
 5387SOL    HW116406   1.381   3.020   4.870  1.3567  0.2949  0.9604
 5387SOL    HW216407   1.309   3.153   4.865  0.4559 -0.1920  0.7762
 5388SOL     OW16408   5.659   2.457   0.572  0.1387 -0.4876  0.0189
 5388SOL    HW116409   5.595   2.526   0.589  0.8400 -0.2143  1.6459
 5388SOL    HW216410   5.622   2.409   0.497 -1.2605  0.5122  0.0281
 5389SOL     OW16411   4.737   3.988   4.592  0.2346  0.0435 -0.1478
 5389SOL    HW116412   4.721   4.081   4.581  0.0439 -0.0915 -1.1144
 5389SOL    HW216413   4.665   3.945   4.547  0.5543 -0.5759 -0.0957
 5390SOL     OW16414   0.351   0.479   0.031 -0.1238  0.3258 -0.0767
 5390SOL    HW116415   0.263   0.443   0.024  0.1199 -0.5843  1.2699
 5390SOL    HW216416   0.355   0.545  -0.038 -1.6316 -0.0717 -0.5813
 5391SOL     OW16417   3.580   2.969   5.701  0.2139 -0.0627  0.3913
 5391SOL    HW116418   3.656   2.988   5.756  0.6546 -2.1100  0.5872
 5391SOL    HW216419   3.534   2.900   5.749  0.3619 -1.5806 -1.5258
 5392SOL     OW16420   5.089   0.145   1.011 -0.0893 -0.0312 -0.1517
 5392SOL    HW116421   5.054   0.074   1.066  2.2700 -0.7933  0.4757
 5392SOL    HW216422   5.030   0.148   0.936 -1.3910 -1.3283  0.7628
 5393SOL     OW16423   1.571   3.478   5.484  0.1320 -0.1052  0.4393
 5393SOL    HW116424   1.601   3.497   5.395 -1.1306  0.9499  0.1999
 5393SOL    HW216425   1.549   3.564   5.520 -1.8845 -0.7220  0.8015
 5394SOL     OW16426   4.786   5.786   1.835  0.3574 -0.7076 -0.3347
 5394SOL    HW116427   4.743   5.724   1.894 -1.0106  0.5130 -0.0068
 5394SOL    HW216428   4.877   5.788   1.865  0.2257 -1.8491  0.2191
 5395SOL     OW16429   4.476   2.328   4.121 -0.0951 -0.0081  0.0450
 5395SOL    HW116430   4.523   2.255   4.081  0.4158 -0.2444  1.0524
 5395SOL    HW216431   4.544   2.391   4.144 -0.3118 -0.1028  0.9969
 5396SOL     OW16432   3.626   4.635   3.736  0.3103 -0.8349 -0.1491
 5396SOL    HW116433   3.655   4.684   3.659 -0.4697 -0.0213  0.0579
 5396SOL    HW216434   3.579   4.560   3.700 -0.9912  0.1099 -0.4989
 5397SOL     OW16435   4.764   0.345   5.211 -0.1523 -0.0895  0.3019
 5397SOL    HW116436   4.740   0.438   5.212  0.1927  0.0887 -1.7943
 5397SOL    HW216437   4.684   0.299   5.236 -0.5477  0.7482  0.6069
 5398SOL     OW16438   1.123   4.544   0.158  0.0187  0.0954 -0.3359
 5398SOL    HW116439   1.149   4.455   0.135  0.5749 -0.2887  1.6429
 5398SOL    HW216440   1.202   4.585   0.192 -0.6737  0.7176  0.5637
 5399SOL     OW16441   3.363   2.742   2.522  0.2226  0.0781  0.2985
 5399SOL    HW116442   3.366   2.838   2.527  0.5723  0.1222 -0.6156
 5399SOL    HW216443   3.426   2.720   2.453  0.9374 -0.8723  1.2241
 5400SOL     OW16444   5.551   5.982   1.577  0.0843  0.1287  0.5457
 5400SOL    HW116445   5.591   6.069   1.579 -1.6428  0.9615  2.0911
 5400SOL    HW216446   5.608   5.928   1.631  0.3922  0.6943  0.7954
 5401SOL     OW16447   1.608   5.931   0.591  0.5676  0.3623 -0.3359
 5401SOL    HW116448   1.604   6.023   0.618  0.9321  0.6642 -1.2760
 5401SOL    HW216449   1.680   5.894   0.642 -0.6719  0.1257  1.3508
 5402SOL     OW16450   5.547   4.385   5.399 -0.3476 -0.3489 -0.7461
 5402SOL    HW116451   5.622   4.406   5.454 -0.7791 -0.0048 -0.2783
 5402SOL    HW216452   5.573   4.306   5.351  0.4205 -0.0528 -0.8166
 5403SOL     OW16453   4.153   2.683   5.945 -0.0214  0.4181  0.4189
 5403SOL    HW116454   4.069   2.674   5.899 -0.1852 -1.3432  0.9754
 5403SOL    HW216455   4.205   2.610   5.912  1.2232  1.3415  0.2761
 5404SOL     OW16456   1.369   1.766   3.666  0.2680  0.2044  0.4769
 5404SOL    HW116457   1.282   1.783   3.629  0.4347 -0.6814 -0.3742
 5404SOL    HW216458   1.425   1.834   3.628  0.6290 -1.2225 -1.7121
 5405SOL     OW16459   4.562   6.031   4.895 -0.1982 -0.2549 -0.3872
 5405SOL    HW116460   4.562   6.001   4.804 -0.1122 -0.7807 -0.2124
 5405SOL    HW216461   4.621   6.107   4.895 -1.7710  1.0347 -1.1795
 5406SOL     OW16462   1.513   4.964   3.553 -0.0078 -0.0910  0.4906
 5406SOL    HW116463   1.442   5.025   3.535  0.0110 -0.9183 -3.4309
 5406SOL    HW216464   1.581   4.987   3.489  1.2801 -2.2198  0.9775
 5407SOL     OW16465   3.094   5.205   4.884 -0.0920 -0.2705 -0.2075
 5407SOL    HW116466   3.063   5.227   4.797  1.3869 -0.3775 -0.7961
 5407SOL    HW216467   3.180   5.247   4.890  0.0850 -0.7586  0.9630
 5408SOL     OW16468   1.125   0.071   2.076 -0.0585  0.0433  0.2571
 5408SOL    HW116469   1.078   0.064   1.993  1.0648  2.1623 -0.6526
 5408SOL    HW216470   1.198   0.010   2.068 -0.9072 -1.0308  0.4440
 5409SOL     OW16471   4.870   2.209   1.317 -0.4003  0.2823 -0.0887
 5409SOL    HW116472   4.951   2.260   1.326 -0.0441  0.2013 -2.2411
 5409SOL    HW216473   4.874   2.146   1.389  2.0217 -0.4016 -0.7093
 5410SOL     OW16474   3.840   4.873   3.988 -0.0135  0.2209 -0.5160
 5410SOL    HW116475   3.924   4.908   3.957 -0.5168 -0.0089 -2.2528
 5410SOL    HW216476   3.859   4.838   4.075  1.3813  1.3422 -0.3291
 5411SOL     OW16477   4.710   1.615   0.715  0.2005  0.6548 -0.1343
 5411SOL    HW116478   4.699   1.689   0.775  0.2393 -0.3854  1.2101
 5411SOL    HW216479   4.635   1.559   0.732  1.8158 -1.2367  1.3360
 5412SOL     OW16480   2.794   5.976   1.049 -0.7290  0.2849 -0.1338
 5412SOL    HW116481   2.762   6.028   1.122 -0.5259 -0.4597  0.4897
 5412SOL    HW216482   2.840   6.039   0.993 -0.4268  0.7690  0.6480
 5413SOL     OW16483   5.905   5.754   3.737 -0.1680 -0.1465 -0.0113
 5413SOL    HW116484   5.873   5.829   3.687 -0.9520  0.9431  2.0127
 5413SOL    HW216485   5.941   5.695   3.671  1.9175  2.6452 -1.6052
 5414SOL     OW16486   2.764   0.157   1.300 -0.9517 -0.8078 -0.1259
 5414SOL    HW116487   2.693   0.160   1.364 -2.0300  0.5733 -1.3293
 5414SOL    HW216488   2.784   0.249   1.281  1.7283 -1.1037  0.7305
 5415SOL     OW16489   5.101   5.989   5.211  0.2475 -0.4087 -0.2310
 5415SOL    HW116490   5.014   5.953   5.202  0.6700 -1.8815  1.0394
 5415SOL    HW216491   5.137   5.990   5.123 -0.9353 -0.0299 -0.7251
 5416SOL     OW16492   0.432   4.216   5.664  0.0997 -0.3576 -0.0629
 5416SOL    HW116493   0.391   4.230   5.579  1.0174 -0.1904 -0.4891
 5416SOL    HW216494   0.451   4.122   5.666  0.9376 -0.1994 -0.4444
 5417SOL     OW16495   4.721   3.380   4.310 -0.3084  0.5410 -0.3120
 5417SOL    HW116496   4.716   3.350   4.220 -0.5707  1.4678 -0.6152
 5417SOL    HW216497   4.762   3.466   4.304  1.2379 -0.0758  0.6111
 5418SOL     OW16498   2.389   1.063   1.232  0.2320  0.6128  0.8512
 5418SOL    HW116499   2.456   1.126   1.206  1.1806 -0.5738  0.3272
 5418SOL    HW216500   2.438   0.986   1.259 -0.8853 -1.0079 -1.4140
 5419SOL     OW16501   1.510   3.624   1.514 -0.5649  0.1498  0.3865
 5419SOL    HW116502   1.508   3.593   1.423 -1.0569 -3.3413  1.4378
 5419SOL    HW216503   1.571   3.698   1.512 -1.3593  0.8836 -2.9219
 5420SOL     OW16504   5.817   1.244   5.175  0.1406 -0.1634  0.1247
 5420SOL    HW116505   5.856   1.157   5.175  0.8060  0.1303 -0.1797
 5420SOL    HW216506   5.839   1.280   5.089  2.7953  1.6064  1.4084
 5421SOL     OW16507   4.293   3.958   2.789 -0.0400 -0.1631 -0.1248
 5421SOL    HW116508   4.266   3.922   2.874  0.6219 -2.5028 -0.8453
 5421SOL    HW216509   4.369   4.012   2.810 -1.0481  0.9106  0.9885
 5422SOL     OW16510   5.961   4.029   0.346  0.1003  0.1817 -0.4848
 5422SOL    HW116511   5.976   3.965   0.277 -0.4337 -1.9117  1.2511
 5422SOL    HW216512   5.867   4.048   0.341  0.0967  0.1714 -0.4500
 5423SOL     OW16513   0.546   0.794   6.093  0.5036 -0.0715 -0.6497
 5423SOL    HW116514   0.624   0.768   6.043  1.0401 -0.2880  0.2625
 5423SOL    HW216515   0.474   0.747   6.051  1.1733 -1.5783 -0.2246
 5424SOL     OW16516   4.051   6.003   5.450 -0.0408  0.4433  0.4233
 5424SOL    HW116517   4.013   6.001   5.362 -0.0147 -1.1639  0.4150
 5424SOL    HW216518   4.144   6.019   5.436  0.3904 -2.1131 -0.0570
 5425SOL     OW16519   6.141   2.454   2.342  0.1672 -0.7627 -0.4906
 5425SOL    HW116520   6.077   2.392   2.305 -0.0477 -2.1389  1.9700
 5425SOL    HW216521   6.226   2.412   2.327  0.2800 -0.2649 -1.3025
 5426SOL     OW16522   3.020   2.688   1.572 -0.2656 -0.2508  0.6277
 5426SOL    HW116523   3.031   2.640   1.489 -0.4122  0.9815 -0.1357
 5426SOL    HW216524   2.979   2.771   1.546  0.2356  0.4130  1.8608
 5427SOL     OW16525   1.959   0.451   0.809  0.3630  0.1241 -0.0399
 5427SOL    HW116526   1.932   0.422   0.896  2.2665  1.5509  1.1198
 5427SOL    HW216527   1.877   0.463   0.761 -0.7578 -0.3858  1.6507
 5428SOL     OW16528   4.105   2.115   0.709  0.1662  0.3107  0.1774
 5428SOL    HW116529   4.108   2.108   0.614  0.3913 -0.5216  0.2402
 5428SOL    HW216530   4.190   2.149   0.734  0.1547  0.4030  0.0914
 5429SOL     OW16531   3.397   5.297   4.578  0.2017 -0.4210  0.1715
 5429SOL    HW116532   3.307   5.327   4.567  0.4221  0.5731  0.9236
 5429SOL    HW216533   3.442   5.327   4.499 -0.1504 -1.0930 -0.3005
 5430SOL     OW16534   5.721   2.991   2.508  0.2625 -0.3389  0.9897
 5430SOL    HW116535   5.795   2.941   2.543  1.2078  2.4853  3.5804
 5430SOL    HW216536   5.692   3.044   2.582 -2.3228  0.9974 -0.8355
 5431SOL     OW16537   5.875   5.338   5.455  0.3181 -0.2839 -0.4218
 5431SOL    HW116538   5.793   5.307   5.416  0.0235  0.6627 -0.5831
 5431SOL    HW216539   5.848   5.379   5.537  0.7628 -0.9055  0.0457
 5432SOL     OW16540   3.117   1.708   1.215 -0.8102  0.1820  0.2263
 5432SOL    HW116541   3.197   1.728   1.166 -0.1961  1.6514  1.7355
 5432SOL    HW216542   3.077   1.636   1.167  0.3642  0.7558 -1.7317
 5433SOL     OW16543   1.683   5.392   2.197  0.0800 -0.2782 -0.1215
 5433SOL    HW116544   1.666   5.298   2.201  0.3085 -0.3494 -0.6541
 5433SOL    HW216545   1.718   5.406   2.109 -3.2131  0.8115 -1.4361
 5434SOL     OW16546   2.430   3.404   2.885 -0.1857  0.3540  0.5094
 5434SOL    HW116547   2.432   3.499   2.897  0.6312  0.3592  0.3757
 5434SOL    HW216548   2.516   3.374   2.915 -1.1036 -0.5774  2.4432
 5435SOL     OW16549   4.349   0.740   4.411 -0.1032 -0.2114 -0.1895
 5435SOL    HW116550   4.379   0.822   4.372 -1.2370  1.8219  2.8237
 5435SOL    HW216551   4.411   0.723   4.482 -2.0455  0.3307  1.7471
 5436SOL     OW16552   0.783   5.900   4.989 -0.3841 -0.2842  0.3049
 5436SOL    HW116553   0.841   5.911   5.064  1.0827 -0.5104 -0.7548
 5436SOL    HW216554   0.806   5.971   4.930 -0.9639 -0.5739 -0.2818
 5437SOL     OW16555   2.355   2.616   1.508  0.1323 -0.4076 -0.1041
 5437SOL    HW116556   2.346   2.526   1.539 -1.1403  0.5742  2.7964
 5437SOL    HW216557   2.433   2.649   1.553 -0.0468  0.2530 -0.2734
 5438SOL     OW16558   3.851   0.183   0.959 -0.4266  0.4843  0.7252
 5438SOL    HW116559   3.814   0.178   1.047 -1.0806 -0.7136  0.4148
 5438SOL    HW216560   3.781   0.219   0.905 -1.4504 -2.2098  0.0502
 5439SOL     OW16561   2.769   1.535   5.666 -0.6628  0.1703  0.2032
 5439SOL    HW116562   2.681   1.556   5.634 -0.0473  1.8991 -0.4794
 5439SOL    HW216563   2.789   1.605   5.728  1.1083  1.2098 -1.4259
 5440SOL     OW16564   2.990   0.037   4.595 -0.1706  0.2192 -0.2768
 5440SOL    HW116565   3.051   0.015   4.525  0.7090 -0.7454  0.7652
 5440SOL    HW216566   2.915  -0.021   4.582  1.1809 -1.9536  1.1551
 5441SOL     OW16567   0.484   2.882   2.312 -0.0070 -0.6599 -0.1286
 5441SOL    HW116568   0.487   2.807   2.253 -1.9151 -0.1707 -0.9341
 5441SOL    HW216569   0.506   2.957   2.257  0.0393 -0.4123  0.2210
 5442SOL     OW16570   4.257   0.888   5.714 -0.0379 -0.3883 -0.6574
 5442SOL    HW116571   4.277   0.798   5.741  3.4441  0.8615  1.6395
 5442SOL    HW216572   4.281   0.891   5.621 -0.6057 -1.8622 -0.8891
 5443SOL     OW16573   0.092   4.719   3.328  0.2307 -0.4827 -0.3848
 5443SOL    HW116574   0.163   4.659   3.304  1.3561  1.2291 -1.5539
 5443SOL    HW216575   0.132   4.806   3.323 -2.2130  0.6486 -2.2724
 5444SOL     OW16576   5.989   6.047   1.771  0.4498 -0.3232  0.2761
 5444SOL    HW116577   6.022   6.136   1.760 -0.0412 -0.0997  0.6372
 5444SOL    HW216578   6.064   5.999   1.807  0.1855  0.3506  1.7892
 5445SOL     OW16579   4.140   2.298   3.835 -0.2864 -0.0074  0.1266
 5445SOL    HW116580   4.052   2.328   3.812  0.2616  0.8954 -0.8790
 5445SOL    HW216581   4.135   2.203   3.828 -0.8663  0.0930 -1.1586
 5446SOL     OW16582   5.245   0.814   5.302 -0.2771 -0.2578 -0.3669
 5446SOL    HW116583   5.314   0.752   5.276  0.2827 -0.6912  1.9800
 5446SOL    HW216584   5.182   0.761   5.351 -2.0145  0.2632 -1.9197
 5447SOL     OW16585   4.370   4.269   2.987  0.1429 -0.0074  0.0648
 5447SOL    HW116586   4.279   4.290   2.968 -0.5007 -2.0755  0.5969
 5447SOL    HW216587   4.408   4.246   2.902 -0.6338 -1.8684  0.1888
 5448SOL     OW16588   4.536   5.691   4.030  0.8602 -0.2599 -0.4739
 5448SOL    HW116589   4.602   5.632   4.068  1.1885  0.5093  0.1826
 5448SOL    HW216590   4.479   5.633   3.979  0.5716 -1.3041  0.9716
 5449SOL     OW16591   1.638   4.089   4.184  0.1037  0.2586 -0.1773
 5449SOL    HW116592   1.647   4.127   4.097 -1.5163 -0.8199 -0.8635
 5449SOL    HW216593   1.706   4.022   4.188 -0.3212 -0.2428 -0.9545
 5450SOL     OW16594   5.471   3.706   3.451  0.3594 -0.1450 -0.1178
 5450SOL    HW116595   5.400   3.730   3.391  2.6602  0.7476 -2.6600
 5450SOL    HW216596   5.484   3.612   3.436  0.9341  0.0781 -1.0610
 5451SOL     OW16597   4.549   3.598   5.948 -0.1880  0.0107 -0.1088
 5451SOL    HW116598   4.625   3.547   5.921  1.1821 -0.0265  3.2246
 5451SOL    HW216599   4.481   3.532   5.965  0.2966 -0.3682  0.4274
 5452SOL     OW16600   5.381   4.702   4.302 -0.1868  0.5007  0.0532
 5452SOL    HW116601   5.286   4.712   4.312 -0.0919  1.0394  0.4504
 5452SOL    HW216602   5.394   4.696   4.207 -0.6564  0.0027  0.0158
 5453SOL     OW16603   1.329   5.741   5.991 -0.1173  0.2387 -0.6708
 5453SOL    HW116604   1.233   5.740   5.985 -0.0834  0.6780 -1.3709
 5453SOL    HW216605   1.352   5.833   6.002  0.2604  0.2139 -1.2043
 5454SOL     OW16606   3.114   0.710   2.902  0.0809 -0.4406  0.2934
 5454SOL    HW116607   3.171   0.664   2.964  0.0894 -0.8276 -0.0007
 5454SOL    HW216608   3.040   0.651   2.888  0.5865 -0.8357 -0.8741
 5455SOL     OW16609   3.046   5.575   1.438 -0.0258 -0.3154  0.0836
 5455SOL    HW116610   3.133   5.614   1.430  0.2019 -0.8028  0.1426
 5455SOL    HW216611   2.988   5.635   1.391  0.3183  0.0911  0.1745
 5456SOL     OW16612   4.578   5.220   1.114 -0.0192 -0.3279  0.3950
 5456SOL    HW116613   4.660   5.269   1.116  0.8424 -1.6997  0.2889
 5456SOL    HW216614   4.536   5.247   1.032  0.3294  0.3773  0.4403
 5457SOL     OW16615   5.089   2.934   4.126  0.0181  0.0966  0.3042
 5457SOL    HW116616   5.161   2.943   4.065  1.6503  1.5419  2.3108
 5457SOL    HW216617   5.027   2.877   4.081  2.6273 -1.7085 -1.2991
 5458SOL     OW16618   2.064   5.587   1.044 -0.2394  0.4937 -0.4866
 5458SOL    HW116619   2.099   5.515   0.991 -0.0382  0.5932 -0.4889
 5458SOL    HW216620   1.980   5.555   1.075 -0.0161  0.1424 -0.2420
 5459SOL     OW16621   2.399   4.504   1.154  0.1023  0.2587 -0.2375
 5459SOL    HW116622   2.331   4.456   1.107  0.6033 -0.5294 -0.1772
 5459SOL    HW216623   2.433   4.566   1.089 -0.3571  0.3474 -0.4000
 5460SOL     OW16624   4.113   1.614   2.315  0.5527  0.3000 -0.4099
 5460SOL    HW116625   4.109   1.660   2.231 -0.9722  0.0324 -0.5073
 5460SOL    HW216626   4.046   1.545   2.308  2.0762 -1.3186  0.1002
 5461SOL     OW16627   0.897   5.254   2.748 -0.0241  0.0500  0.5927
 5461SOL    HW116628   0.979   5.302   2.761 -0.1699  0.4827 -0.0674
 5461SOL    HW216629   0.829   5.321   2.751 -0.4322 -0.3868  1.8096
 5462SOL     OW16630   2.032   4.096   4.291 -0.0362  0.1574  0.8426
 5462SOL    HW116631   2.008   4.015   4.336 -1.9747 -0.2041 -0.6849
 5462SOL    HW216632   2.124   4.085   4.268 -0.0714 -1.2970  1.3071
 5463SOL     OW16633   2.245   3.632   1.893 -0.3834 -0.4445 -0.0794
 5463SOL    HW116634   2.247   3.621   1.988  1.0957 -1.2225 -0.1786
 5463SOL    HW216635   2.307   3.702   1.875 -1.8057  0.8042 -0.3794
 5464SOL     OW16636   5.228   2.863   3.879 -0.0502  0.0807  0.4456
 5464SOL    HW116637   5.236   2.931   3.812  1.4938 -0.5291 -0.0436
 5464SOL    HW216638   5.318   2.844   3.905 -0.5073 -1.0902  1.2871
 5465SOL     OW16639   4.642   2.676   4.071  0.0674  0.0385 -0.1434
 5465SOL    HW116640   4.568   2.735   4.084  0.0390  0.0728 -0.4526
 5465SOL    HW216641   4.638   2.616   4.145 -0.5017 -0.2042 -0.3637
 5466SOL     OW16642   6.018   5.498   0.553 -0.4047 -0.0285  0.3466
 5466SOL    HW116643   6.014   5.509   0.648 -2.2071  0.1379  0.2769
 5466SOL    HW216644   6.004   5.405   0.538  0.6748 -0.1957  0.2520
 5467SOL     OW16645   3.920   0.825   4.497  0.1741  0.4651 -0.1430
 5467SOL    HW116646   3.961   0.741   4.476 -0.6980  0.0185 -0.1087
 5467SOL    HW216647   3.923   0.874   4.415 -0.6596 -0.1840 -0.5806
 5468SOL     OW16648   0.472   5.416   3.693 -0.0047 -0.0713 -0.1908
 5468SOL    HW116649   0.437   5.352   3.630 -0.4936  0.3368 -0.3462
 5468SOL    HW216650   0.395   5.465   3.722  0.3461  0.3572  0.0259
 5469SOL     OW16651   0.577   5.889   0.819 -0.4994  0.3786  0.2428
 5469SOL    HW116652   0.562   5.983   0.825  0.8399  0.6852 -0.8654
 5469SOL    HW216653   0.599   5.863   0.909 -0.3764  1.2170  0.4624
 5470SOL     OW16654   1.260   5.294   1.912 -0.3354 -0.3889  0.0095
 5470SOL    HW116655   1.272   5.334   1.998  0.2551  0.8783 -0.6299
 5470SOL    HW216656   1.307   5.352   1.852 -1.0693 -1.0235 -1.2199
 5471SOL     OW16657   2.098   3.056   5.204  0.1283 -0.2884 -0.5361
 5471SOL    HW116658   2.179   3.080   5.159 -0.1060 -0.5633 -1.1129
 5471SOL    HW216659   2.065   3.138   5.240  1.0057 -0.2755  0.2842
 5472SOL     OW16660   0.063   3.026   3.188 -0.0136  0.4651  0.2913
 5472SOL    HW116661   0.030   3.114   3.168  0.3877  0.4195 -0.6636
 5472SOL    HW216662   0.158   3.037   3.191  0.0794 -0.0343 -0.4606
 5473SOL     OW16663   4.092   1.537   1.253  0.6646 -0.2437  0.0507
 5473SOL    HW116664   4.057   1.452   1.228 -0.6865  0.1974  0.3235
 5473SOL    HW216665   4.025   1.600   1.223  1.4854  0.6914  0.1197
 5474SOL     OW16666   1.164   1.249   3.356  0.0955 -0.3982  0.3616
 5474SOL    HW116667   1.104   1.244   3.430 -1.5905 -0.0969 -0.9247
 5474SOL    HW216668   1.182   1.158   3.333  1.4444 -0.5132  1.7248
 5475SOL     OW16669   0.226   2.614   0.722 -0.3297  0.4323 -1.0139
 5475SOL    HW116670   0.189   2.680   0.663  1.3780  0.5282 -2.0325
 5475SOL    HW216671   0.200   2.643   0.810 -2.9788  0.2509 -1.6377
 5476SOL     OW16672   1.012   5.371   3.646  0.2147  0.6294 -0.2266
 5476SOL    HW116673   0.918   5.356   3.656  0.7770 -2.0242  2.1085
 5476SOL    HW216674   1.041   5.301   3.587  0.9641  0.4454  0.3595
 5477SOL     OW16675   5.271   0.874   3.914 -0.1881  0.1780  0.1161
 5477SOL    HW116676   5.286   0.790   3.959 -0.8368  0.0757  0.1540
 5477SOL    HW216677   5.219   0.925   3.976 -2.2905 -0.4664 -1.0037
 5478SOL     OW16678   2.886   4.656   1.099  0.1104  0.7654 -0.6780
 5478SOL    HW116679   2.798   4.625   1.120  0.3348 -0.1741 -1.0483
 5478SOL    HW216680   2.873   4.741   1.057 -0.4546  1.9163  1.6645
 5479SOL     OW16681   1.704   2.486   3.904 -0.7507 -0.3098 -0.4234
 5479SOL    HW116682   1.665   2.572   3.891 -1.6867 -0.6570  0.0038
 5479SOL    HW216683   1.725   2.484   3.998 -2.5088 -1.2452 -0.0114
 5480SOL     OW16684   5.920   0.185   5.910 -0.1221 -0.5780  0.4121
 5480SOL    HW116685   5.921   0.189   6.005 -0.0196  0.3342  0.3844
 5480SOL    HW216686   5.848   0.125   5.889 -2.9069  2.2952  1.0237
 5481SOL     OW16687   4.549   2.978   5.739 -0.2963  0.1996  0.1746
 5481SOL    HW116688   4.610   2.942   5.803  0.9786 -0.9557 -1.5888
 5481SOL    HW216689   4.469   2.927   5.751  0.8599 -2.0370 -0.9783
 5482SOL     OW16690   5.247   1.817   5.315 -0.2738 -0.2327 -0.0784
 5482SOL    HW116691   5.191   1.878   5.362 -0.5352 -1.2503  0.9825
 5482SOL    HW216692   5.310   1.873   5.268 -0.9749  0.8530  0.2465
 5483SOL     OW16693   0.126   4.648   2.411  0.3809  0.9116  0.5851
 5483SOL    HW116694   0.079   4.591   2.471 -0.0162 -1.4791 -1.7792
 5483SOL    HW216695   0.059   4.702   2.371  0.0482 -0.1505 -0.3574
 5484SOL     OW16696   0.386   4.086   1.509 -0.4201 -0.0323  0.0452
 5484SOL    HW116697   0.303   4.125   1.539 -0.8657  0.0023 -1.1670
 5484SOL    HW216698   0.444   4.160   1.494  0.6018 -0.1344  2.8953
 5485SOL     OW16699   0.166   6.100   4.415 -0.4781  0.2871 -0.1644
 5485SOL    HW116700   0.108   6.146   4.354 -2.0773 -0.3236  0.8329
 5485SOL    HW216701   0.248   6.149   4.412 -1.0005  1.1298 -1.6915
 5486SOL     OW16702   1.325   4.366   4.645 -0.5765 -0.3241 -0.1097
 5486SOL    HW116703   1.269   4.355   4.568 -0.8189  2.3617 -0.4279
 5486SOL    HW216704   1.281   4.317   4.714 -2.6129  0.5637 -0.7055
 5487SOL     OW16705   1.216   2.743   1.067  0.0581  0.2190  0.1269
 5487SOL    HW116706   1.157   2.731   1.142  0.7630  0.6740  0.7750
 5487SOL    HW216707   1.255   2.829   1.081  1.1906 -0.2443 -0.0607
 5488SOL     OW16708   4.987   2.959   0.340 -0.0829  0.4435 -0.4784
 5488SOL    HW116709   4.929   2.897   0.384 -1.3717  1.8718 -0.0652
 5488SOL    HW216710   5.068   2.957   0.392 -1.0343  0.9939  1.1011
 5489SOL     OW16711   5.037   2.184   3.095 -0.2466 -0.1685  0.2224
 5489SOL    HW116712   5.102   2.185   3.025 -0.0094  0.5402  0.4449
 5489SOL    HW216713   4.953   2.187   3.050 -0.1345  3.7340 -0.0978
 5490SOL     OW16714   4.432   1.323   1.281 -0.6402 -0.2808 -0.2554
 5490SOL    HW116715   4.368   1.345   1.349 -0.7959 -0.2662 -0.4062
 5490SOL    HW216716   4.396   1.363   1.202  0.7613  1.8676  0.1116
 5491SOL     OW16717   0.850   5.129   5.539 -0.1292  0.0786 -0.2687
 5491SOL    HW116718   0.898   5.141   5.620  0.7190  0.1395 -0.7717
 5491SOL    HW216719   0.907   5.075   5.484 -0.9053 -0.3852 -0.6397
 5492SOL     OW16720   4.208   0.997   2.852 -0.0203  0.6492 -0.0126
 5492SOL    HW116721   4.143   0.974   2.786  0.0060 -1.1394  0.5488
 5492SOL    HW216722   4.216   1.093   2.846 -0.1553  0.5568 -2.4588
 5493SOL     OW16723   1.717   2.928   5.809  0.3467  0.4414  0.1979
 5493SOL    HW116724   1.702   2.858   5.872 -1.9080 -1.0733 -1.8439
 5493SOL    HW216725   1.634   2.976   5.806  0.4846  0.6248 -1.4059
 5494SOL     OW16726   5.205   2.891   5.690 -0.7408 -0.5190 -0.2320
 5494SOL    HW116727   5.278   2.929   5.738 -2.4002  0.6017  1.5945
 5494SOL    HW216728   5.219   2.917   5.599  1.7943 -1.5368 -0.2177
 5495SOL     OW16729   0.425   2.546   5.509 -0.4014  0.1598 -0.5765
 5495SOL    HW116730   0.349   2.594   5.480 -1.0932 -0.8260 -0.4476
 5495SOL    HW216731   0.456   2.593   5.587 -1.2756  0.1946 -0.2458
 5496SOL     OW16732   5.830   1.680   3.386 -0.3190 -0.1253  0.3644
 5496SOL    HW116733   5.822   1.697   3.480 -0.4254  1.4670  0.0912
 5496SOL    HW216734   5.855   1.764   3.348  2.3422 -1.2773 -0.7402
 5497SOL     OW16735   0.136   2.496   5.686 -0.0178  0.0810  0.0380
 5497SOL    HW116736   0.193   2.562   5.647 -1.0413  0.3907 -0.9966
 5497SOL    HW216737   0.181   2.469   5.766  1.1946  0.8556 -0.3632
 5498SOL     OW16738   0.238   5.234   2.085  0.2630  0.1521 -0.6462
 5498SOL    HW116739   0.197   5.150   2.064 -0.5241  0.4163 -0.1967
 5498SOL    HW216740   0.332   5.217   2.078  0.1216 -0.8556 -0.2248
 5499SOL     OW16741   3.187   3.058   3.324 -0.0801 -0.5859  0.1623
 5499SOL    HW116742   3.241   3.132   3.352  1.0102 -1.6054  0.8654
 5499SOL    HW216743   3.143   3.089   3.245 -0.3933  1.1260  0.9531
 5500SOL     OW16744   1.130   3.522   4.818  0.4700 -0.1952  0.1471
 5500SOL    HW116745   1.172   3.545   4.900 -0.4050  1.2942  0.2189
 5500SOL    HW216746   1.046   3.483   4.844  1.1339 -1.7847 -0.0173
 5501SOL     OW16747   0.596   4.349   0.763 -0.2074  0.0922  0.0834
 5501SOL    HW116748   0.685   4.355   0.799 -0.1011  0.9540 -0.3065
 5501SOL    HW216749   0.610   4.329   0.670 -0.4394 -0.2298  0.1160
 5502SOL     OW16750   2.632   6.141   2.125  0.0964  0.2673 -0.2321
 5502SOL    HW116751   2.691   6.149   2.051  1.2992  0.0059  0.6646
 5502SOL    HW216752   2.689   6.122   2.200 -1.1661 -0.5727  0.5693
 5503SOL     OW16753   6.038   4.091   5.068  0.1834 -0.7851 -0.0204
 5503SOL    HW116754   6.090   4.171   5.062  0.2021 -0.8998 -1.7371
 5503SOL    HW216755   5.989   4.101   5.150  0.6759  0.6754  0.1293
 5504SOL     OW16756   0.660   2.460   1.132 -0.3773  0.2743 -0.4045
 5504SOL    HW116757   0.675   2.436   1.040 -1.9591 -1.0864 -0.3666
 5504SOL    HW216758   0.739   2.506   1.158  0.5345 -0.1942 -2.1634
 5505SOL     OW16759   0.678   0.905   0.334  0.1057 -0.4173  0.1532
 5505SOL    HW116760   0.682   0.942   0.247  1.0544 -3.3286 -1.1753
 5505SOL    HW216761   0.732   0.963   0.388 -1.1968  1.9098 -0.9075
 5506SOL     OW16762   4.383   3.880   1.689  0.4739  0.0245 -0.4508
 5506SOL    HW116763   4.411   3.907   1.777  0.0180  0.1860 -0.3489
 5506SOL    HW216764   4.422   3.945   1.630  2.1316 -1.0176 -0.5371
 5507SOL     OW16765   5.617   6.048   1.271 -0.1726  0.1478  0.4488
 5507SOL    HW116766   5.585   5.976   1.326 -0.3656  0.4286  0.7018
 5507SOL    HW216767   5.563   6.123   1.295 -2.1853 -0.3691 -2.1041
 5508SOL     OW16768   3.965   0.928   4.243  0.0515 -0.0601  0.7046
 5508SOL    HW116769   3.968   1.023   4.259 -0.3523  0.1893 -0.5724
 5508SOL    HW216770   3.988   0.919   4.151  0.7574 -1.2814  0.9764
 5509SOL     OW16771   4.896   0.285   3.703 -0.6377  0.1993 -0.5246
 5509SOL    HW116772   4.944   0.207   3.732  1.6830  2.0520  1.1073
 5509SOL    HW216773   4.870   0.266   3.613  1.1611 -1.8713 -0.6869
 5510SOL     OW16774   2.221   0.062   5.455  0.3072 -0.1408 -0.2317
 5510SOL    HW116775   2.177   0.039   5.374 -1.8503 -0.1208  0.8572
 5510SOL    HW216776   2.283   0.131   5.431 -1.2169  0.7877 -1.6504
 5511SOL     OW16777   1.318   2.303   0.169 -0.4950  0.2204 -0.5640
 5511SOL    HW116778   1.255   2.373   0.146 -0.9029  0.0384 -0.0148
 5511SOL    HW216779   1.271   2.222   0.149 -0.0169  0.0957 -1.2100
 5512SOL     OW16780   2.135   3.440   4.043 -0.3741 -0.9829  0.2310
 5512SOL    HW116781   2.194   3.376   4.002 -1.1897 -1.5088 -0.1623
 5512SOL    HW216782   2.066   3.386   4.082 -1.8764 -0.3078 -1.3781
 5513SOL     OW16783   5.000   0.442   0.955  0.7102  0.5247 -0.2296
 5513SOL    HW116784   4.990   0.393   0.873 -0.2003  1.7639 -0.9073
 5513SOL    HW216785   4.983   0.533   0.930  0.2590  0.9101  1.3688
 5514SOL     OW16786   5.635   3.072   3.861  0.0777 -0.1611 -0.1757
 5514SOL    HW116787   5.583   3.088   3.783  0.5853 -0.0435 -0.4976
 5514SOL    HW216788   5.664   3.159   3.889  0.2348 -0.2393 -0.0939
 5515SOL     OW16789   2.568   6.061   5.311  0.1478  0.2710 -0.0560
 5515SOL    HW116790   2.514   6.107   5.246 -0.4403  0.4397  0.5346
 5515SOL    HW216791   2.505   6.023   5.372  0.7017  0.8197  0.8840
 5516SOL     OW16792   3.396   4.546   2.806 -0.1702  0.7062  0.1440
 5516SOL    HW116793   3.460   4.497   2.858 -0.2871  0.1573 -0.2121
 5516SOL    HW216794   3.424   4.532   2.715 -0.3664  1.0783  0.0262
 5517SOL     OW16795   0.217   2.843   5.222 -0.1405  0.0342 -0.0597
 5517SOL    HW116796   0.222   2.752   5.194 -1.0189  0.3058 -1.1771
 5517SOL    HW216797   0.278   2.849   5.295 -1.9649 -2.0704  1.7808
 5518SOL     OW16798   1.575   3.566   2.459  0.3949 -0.1174 -0.0574
 5518SOL    HW116799   1.585   3.470   2.458  0.0514 -0.1722  0.9665
 5518SOL    HW216800   1.494   3.581   2.509 -0.4898  0.6389 -1.6310
 5519SOL     OW16801   2.030   0.924   2.855 -0.4529  0.4023 -0.1315
 5519SOL    HW116802   2.001   1.012   2.832 -1.0861  0.0979 -0.5578
 5519SOL    HW216803   2.115   0.936   2.896 -0.2502  1.1526 -0.7579
 5520SOL     OW16804   6.142   1.827   0.897  0.0440 -0.2171  0.7678
 5520SOL    HW116805   6.233   1.799   0.887  0.2740  0.6672  0.2546
 5520SOL    HW216806   6.102   1.761   0.954  0.8326 -0.9689  0.4635
 5521SOL     OW16807   4.573   1.428   3.940 -0.1787 -0.1530  0.8302
 5521SOL    HW116808   4.593   1.335   3.947  0.1971 -0.2348 -0.8754
 5521SOL    HW216809   4.521   1.436   3.860 -1.8400  0.8798  1.9545
 5522SOL     OW16810   3.865   3.767   1.815  0.2349 -0.1061  0.1943
 5522SOL    HW116811   3.820   3.683   1.825  0.0067 -0.2386 -1.5587
 5522SOL    HW216812   3.887   3.771   1.722  2.6062  0.5944  0.7195
 5523SOL     OW16813   4.359   5.398   5.784  0.3467  0.1771  0.2275
 5523SOL    HW116814   4.311   5.456   5.725  0.3018  0.2982  0.3814
 5523SOL    HW216815   4.442   5.381   5.738  0.5248  0.6761  0.3499
 5524SOL     OW16816   0.442   1.367   5.433  0.7432 -0.2253 -0.1545
 5524SOL    HW116817   0.415   1.454   5.402 -1.2095  0.0763  2.0804
 5524SOL    HW216818   0.471   1.321   5.354 -2.5957  0.8775 -2.2178
 5525SOL     OW16819   0.324   2.275   3.313  0.3661 -0.2224  0.0851
 5525SOL    HW116820   0.308   2.195   3.362  1.2572 -0.2496  0.3597
 5525SOL    HW216821   0.399   2.254   3.257  0.4476  0.3358 -0.0214
 5526SOL     OW16822   1.301   3.256   2.894 -0.3877  0.4458  0.0132
 5526SOL    HW116823   1.348   3.175   2.913  1.1806  1.5830  1.3200
 5526SOL    HW216824   1.216   3.244   2.936 -0.7661 -1.0782 -1.1041
 5527SOL     OW16825   5.883   0.306   2.245 -0.0213 -0.7772  0.3279
 5527SOL    HW116826   5.834   0.276   2.322 -0.1706 -1.7775 -0.1370
 5527SOL    HW216827   5.928   0.228   2.213  1.1543 -0.0727  0.1943
 5528SOL     OW16828   4.438   4.644   0.099  0.3741 -0.0153 -0.6866
 5528SOL    HW116829   4.425   4.623   0.006 -0.4460 -0.6005 -0.4568
 5528SOL    HW216830   4.474   4.563   0.136  1.0332  0.3354 -0.5600
 5529SOL     OW16831   2.177   0.338   0.020  0.2244 -0.1975  0.8322
 5529SOL    HW116832   2.212   0.272   0.081  1.1432  0.5183  1.0855
 5529SOL    HW216833   2.223   0.419   0.043  0.0834  0.2351 -0.3816
 5530SOL     OW16834   2.041   2.264   3.628  0.4089 -0.1593 -0.1391
 5530SOL    HW116835   1.963   2.304   3.667 -0.1877 -0.4739 -0.9835
 5530SOL    HW216836   2.044   2.176   3.665  2.0254  0.7418  2.1422
 5531SOL     OW16837   4.541   5.530   2.082  0.2132  0.5226  0.2120
 5531SOL    HW116838   4.594   5.450   2.087  0.8912  0.9120 -0.6743
 5531SOL    HW216839   4.565   5.579   2.160  0.5080  0.2990  0.2647
 5532SOL     OW16840   2.459   1.594   5.256  0.1300 -0.1212  0.4494
 5532SOL    HW116841   2.424   1.672   5.214 -1.2028 -0.9439 -0.0143
 5532SOL    HW216842   2.549   1.587   5.223 -0.7247 -0.4917 -1.9696
 5533SOL     OW16843   6.070   0.227   5.690  0.4512 -0.4518  0.0693
 5533SOL    HW116844   6.001   0.279   5.649  0.7916  0.1305  0.2328
 5533SOL    HW216845   6.028   0.190   5.768 -0.0363 -1.1211 -0.5019
 5534SOL     OW16846   4.148   5.384   3.918 -0.1828 -0.0702 -0.3186
 5534SOL    HW116847   4.068   5.414   3.961  0.0466  0.4079 -0.2155
 5534SOL    HW216848   4.197   5.339   3.987  0.9218  2.0753  0.3956
 5535SOL     OW16849   0.503   3.624   2.796 -0.0819 -0.2322 -0.1560
 5535SOL    HW116850   0.445   3.654   2.727  0.6274  0.3512 -0.5144
 5535SOL    HW216851   0.498   3.691   2.864 -1.7961 -1.4387  0.9942
 5536SOL     OW16852   0.978   1.946   5.766  0.2873  0.1721 -0.4490
 5536SOL    HW116853   0.997   1.873   5.825  1.6214  0.0844 -0.9525
 5536SOL    HW216854   0.892   1.925   5.729 -0.6225  0.2962  1.5249
 5537SOL     OW16855   4.422   0.525   5.060 -0.1724 -0.0062 -0.0546
 5537SOL    HW116856   4.431   0.431   5.041  2.0703 -0.5800  3.0528
 5537SOL    HW216857   4.349   0.530   5.122  1.4396 -0.2199  1.9869
 5538SOL     OW16858   4.586   5.641   0.000  0.1404  0.3408 -0.2179
 5538SOL    HW116859   4.590   5.664  -0.093 -0.1907  1.4700  0.0323
 5538SOL    HW216860   4.647   5.701   0.043  2.3320 -1.8992  0.0299
 5539SOL     OW16861   5.379   0.602   2.470 -0.1329 -0.5445  0.6751
 5539SOL    HW116862   5.472   0.582   2.460  0.4888  1.7567  1.3318
 5539SOL    HW216863   5.364   0.676   2.412 -1.5588 -0.8084  0.6703
 5540SOL     OW16864   5.867   1.507   3.003 -0.7779  0.1246  0.4222
 5540SOL    HW116865   5.804   1.555   2.951  1.0120  1.7853 -0.3204
 5540SOL    HW216866   5.951   1.547   2.982  0.7912 -3.0261  0.1404
 5541SOL     OW16867   2.864   3.554   5.728  0.1332 -0.2592 -0.6153
 5541SOL    HW116868   2.778   3.514   5.715  0.9194 -3.0863  1.6994
 5541SOL    HW216869   2.845   3.643   5.759 -2.0022 -0.9537  0.2417
 5542SOL     OW16870   0.961   2.333   4.369  0.1614 -0.2408 -0.3146
 5542SOL    HW116871   0.984   2.327   4.462 -0.1432 -0.4174 -0.2505
 5542SOL    HW216872   0.870   2.303   4.365 -0.4051  1.4101 -0.4255
 5543SOL     OW16873   1.179   4.301   5.698 -0.2729 -0.3771  0.0317
 5543SOL    HW116874   1.088   4.277   5.681  0.3872 -1.5867 -2.2426
 5543SOL    HW216875   1.179   4.397   5.697 -1.3108 -0.3550 -1.4973
 5544SOL     OW16876   1.238   3.806   3.265 -0.6815 -0.2833  0.2263
 5544SOL    HW116877   1.270   3.895   3.278  2.4619 -1.0377 -1.1899
 5544SOL    HW216878   1.174   3.792   3.335 -0.2285  2.5697  1.3399
 5545SOL     OW16879   4.573   2.477   4.616 -0.2070  0.0526  0.4995
 5545SOL    HW116880   4.554   2.454   4.707  2.8925  0.2267  1.3189
 5545SOL    HW216881   4.537   2.565   4.605  0.1128  0.3821  1.8637
 5546SOL     OW16882   4.521   1.020   2.573  0.2603 -0.0274 -0.6033
 5546SOL    HW116883   4.506   1.022   2.667 -1.5296 -0.9017 -0.8117
 5546SOL    HW216884   4.588   0.953   2.561  0.0959 -0.3120  0.0245
 5547SOL     OW16885   3.921   2.891   2.133  0.6179  0.1760  0.6127
 5547SOL    HW116886   3.903   2.854   2.046  1.3832 -0.0784  0.5560
 5547SOL    HW216887   3.852   2.856   2.189  0.6227 -0.3593  0.2900
 5548SOL     OW16888   3.192   2.996   1.458 -0.0900 -0.0210  0.3051
 5548SOL    HW116889   3.117   3.008   1.517 -0.0167  1.4696  0.1355
 5548SOL    HW216890   3.254   3.065   1.485  0.8905 -0.7325 -0.0742
 5549SOL     OW16891   5.721   3.522   0.478 -0.0030 -0.2249  0.4003
 5549SOL    HW116892   5.701   3.533   0.385 -1.6174 -1.1502  0.6088
 5549SOL    HW216893   5.777   3.597   0.499  2.2900 -1.1697 -1.8165
 5550SOL     OW16894   5.568   4.560   0.107  0.0964 -0.3684  0.2481
 5550SOL    HW116895   5.662   4.571   0.095  0.2873  0.4830  2.0864
 5550SOL    HW216896   5.530   4.642   0.077 -0.1008 -0.7964 -0.7014
 5551SOL     OW16897   3.426   3.195   5.709  0.0729 -0.0238  0.3979
 5551SOL    HW116898   3.471   3.120   5.670 -0.9444 -1.3718  1.7021
 5551SOL    HW216899   3.333   3.179   5.692 -0.3613 -0.3134  2.6833
 5552SOL     OW16900   0.149   5.628   0.999 -0.4243  1.0747 -0.6808
 5552SOL    HW116901   0.058   5.628   1.029 -0.4234  0.6000 -0.6690
 5552SOL    HW216902   0.187   5.707   1.037 -0.5194  0.6710  0.2644
 5553SOL     OW16903   2.876   3.262   4.509 -0.2375 -0.3918  0.4794
 5553SOL    HW116904   2.786   3.274   4.478 -0.2761  0.4990  0.8854
 5553SOL    HW216905   2.883   3.323   4.583  1.3199  1.1365 -0.8404
 5554SOL     OW16906   2.415   5.651   3.571  0.0348  0.2868 -0.1348
 5554SOL    HW116907   2.498   5.639   3.617  0.8986 -2.5854 -2.1482
 5554SOL    HW216908   2.349   5.619   3.632  0.7021  0.0257  0.4632
 5555SOL     OW16909   1.671   4.011   0.610 -0.2842  0.0366  0.2624
 5555SOL    HW116910   1.752   4.038   0.651  0.5179  1.2530 -1.9339
 5555SOL    HW216911   1.638   4.090   0.567 -2.0069 -0.7115  0.1200
 5556SOL     OW16912   4.958   2.276   0.412  0.1566  0.0033  0.4630
 5556SOL    HW116913   4.885   2.223   0.380  0.1025 -0.0064  0.6036
 5556SOL    HW216914   5.021   2.213   0.447  0.7205 -0.0658 -0.6391
 5557SOL     OW16915   1.415   4.643   3.579  0.6110 -0.9162 -0.2169
 5557SOL    HW116916   1.404   4.549   3.593  0.7269 -0.8079  0.6104
 5557SOL    HW216917   1.343   4.666   3.519  0.8024 -1.5890 -0.7228
 5558SOL     OW16918   3.918   2.215   2.228  0.5412 -0.0290  0.2644
 5558SOL    HW116919   3.851   2.277   2.258  0.6669  0.3314 -0.1844
 5558SOL    HW216920   3.989   2.270   2.194 -0.0606 -0.3837 -1.7503
 5559SOL     OW16921   0.555   4.323   4.445 -0.2056  0.2391 -0.1836
 5559SOL    HW116922   0.462   4.339   4.461  0.0668  0.3472  1.4402
 5559SOL    HW216923   0.597   4.336   4.530  1.2702 -0.0504 -0.8324
 5560SOL     OW16924   1.062   3.698   2.130 -0.2293  0.1156  0.4420
 5560SOL    HW116925   1.048   3.625   2.190 -1.5976 -0.5051 -0.5685
 5560SOL    HW216926   1.128   3.666   2.068  0.9816  0.6578  1.4178
 5561SOL     OW16927   1.301   2.715   5.058 -0.6404  0.3766  0.0679
 5561SOL    HW116928   1.318   2.796   5.105 -0.1593 -0.1846  0.8854
 5561SOL    HW216929   1.227   2.675   5.105 -1.9751  1.1033 -1.3252
 5562SOL     OW16930   0.334   3.525   1.116 -0.4772  0.0596 -0.1714
 5562SOL    HW116931   0.379   3.511   1.032 -0.1823 -1.1275  0.1639
 5562SOL    HW216932   0.385   3.592   1.160  1.9771 -2.3194  0.8663
 5563SOL     OW16933   5.772   0.614   4.495 -0.0321 -0.0017  0.1239
 5563SOL    HW116934   5.863   0.585   4.508  0.4090  1.6510  1.0697
 5563SOL    HW216935   5.735   0.616   4.584 -1.3222 -1.5540 -0.3373
 5564SOL     OW16936   0.739   5.333   3.105 -0.0531  0.2887 -0.0575
 5564SOL    HW116937   0.812   5.392   3.088 -0.4102  1.5533  2.2583
 5564SOL    HW216938   0.761   5.252   3.060  0.7709  1.9483 -2.8486
 5565SOL     OW16939   1.355   0.547   4.141  0.1734 -0.8823 -0.1384
 5565SOL    HW116940   1.447   0.567   4.125  0.0067  0.2272  0.2194
 5565SOL    HW216941   1.323   0.620   4.194 -0.4683 -2.1523  1.3042
 5566SOL     OW16942   1.982   0.555   5.347 -0.4281  0.5651  0.4135
 5566SOL    HW116943   2.074   0.560   5.320  0.6579  1.6894  3.7706
 5566SOL    HW216944   1.972   0.465   5.379 -0.1693  0.7157  0.9367
 5567SOL     OW16945   1.130   1.684   4.652  0.1473 -0.0150 -0.2278
 5567SOL    HW116946   1.074   1.663   4.578  0.1771 -1.7676  0.1947
 5567SOL    HW216947   1.218   1.688   4.616  0.0714 -0.0869 -0.4209
 5568SOL     OW16948   3.181   6.035   0.339  0.4239 -0.5060 -0.1638
 5568SOL    HW116949   3.103   5.994   0.301  0.8777 -2.5477  1.0101
 5568SOL    HW216950   3.163   6.036   0.433  1.1096  0.6146 -0.0288
 5569SOL     OW16951   5.984   1.524   0.685 -0.3180  0.1178  0.2939
 5569SOL    HW116952   6.007   1.615   0.666 -0.9252 -0.1745 -2.2053
 5569SOL    HW216953   5.947   1.491   0.603 -1.4189 -1.9902  1.5465
 5570SOL     OW16954   4.455   2.812   1.895 -0.2168  0.0346 -0.8265
 5570SOL    HW116955   4.485   2.823   1.805  0.3083  1.3015 -0.5262
 5570SOL    HW216956   4.490   2.727   1.922  0.4178  0.0625 -1.5233
 5571SOL     OW16957   3.062   5.863   1.215 -0.3470 -0.2464 -0.5480
 5571SOL    HW116958   3.089   5.840   1.126 -0.1689 -0.0071 -0.5551
 5571SOL    HW216959   3.139   5.903   1.255  0.1896 -2.1479  0.3829
 5572SOL     OW16960   4.179   3.350   4.121  0.3212 -0.4568  0.2127
 5572SOL    HW116961   4.140   3.399   4.193 -1.4370  0.6089 -1.3567
 5572SOL    HW216962   4.269   3.385   4.114 -0.2661  1.1927  0.3686
 5573SOL     OW16963   0.907   0.843   5.536 -0.0630 -0.0175 -0.1484
 5573SOL    HW116964   0.924   0.913   5.599 -0.7871  1.0073 -1.0523
 5573SOL    HW216965   0.827   0.802   5.567  0.3255 -0.4147  0.3459
 5574SOL     OW16966   1.637   1.864   4.765  0.0785 -0.2912  0.5278
 5574SOL    HW116967   1.625   1.795   4.700 -1.7444  1.7268 -1.4251
 5574SOL    HW216968   1.670   1.939   4.716 -0.4713  1.0426  2.0874
 5575SOL     OW16969   0.967   0.982   1.098  0.1577 -0.7769  0.2042
 5575SOL    HW116970   1.008   0.903   1.061 -1.7535 -2.6771  1.9189
 5575SOL    HW216971   0.886   0.992   1.049  0.2284 -0.0603  0.2274
 5576SOL     OW16972   4.397   2.843   0.430  0.4312  0.4050 -0.1977
 5576SOL    HW116973   4.330   2.782   0.400  0.4326  0.4852 -0.3704
 5576SOL    HW216974   4.455   2.854   0.354  1.3438 -0.6062  0.3266
 5577SOL     OW16975   3.483   2.417   5.855 -0.6372  0.0885  0.5505
 5577SOL    HW116976   3.572   2.388   5.836 -0.3774  0.3035  1.4315
 5577SOL    HW216977   3.429   2.370   5.791  0.1828  0.5566 -0.5089
 5578SOL     OW16978   0.457   0.729   1.033 -0.2698 -0.0169 -0.2362
 5578SOL    HW116979   0.432   0.724   0.940  0.0828  2.3949 -0.5206
 5578SOL    HW216980   0.552   0.738   1.032 -0.2083 -0.5666  0.3909
 5579SOL     OW16981   5.403   2.998   1.690  0.2911  0.3767  0.8068
 5579SOL    HW116982   5.392   3.093   1.686  1.0439  0.4383 -1.3712
 5579SOL    HW216983   5.337   2.964   1.629  0.8721 -0.3997  0.5895
 5580SOL     OW16984   3.533   5.799   2.484  0.1376  0.0334  0.0126
 5580SOL    HW116985   3.445   5.762   2.493 -0.6090  1.4540 -1.0630
 5580SOL    HW216986   3.527   5.860   2.410  1.8948  0.5616  0.2429
 5581SOL     OW16987   2.105   0.177   2.387  0.1432 -0.0097  0.1062
 5581SOL    HW116988   2.091   0.083   2.375  1.6903 -0.0189 -2.1328
 5581SOL    HW216989   2.027   0.207   2.434  0.0545 -2.5359  1.7766
 5582SOL     OW16990   5.614   4.498   1.642 -0.6455 -0.4450 -0.5843
 5582SOL    HW116991   5.600   4.548   1.723 -0.8547 -0.8757 -0.3446
 5582SOL    HW216992   5.698   4.528   1.609 -0.5154 -0.3246 -0.1546
 5583SOL     OW16993   5.166   5.820   4.300  0.0873  0.2239  0.2411
 5583SOL    HW116994   5.095   5.879   4.276 -1.3697 -1.1644  0.9225
 5583SOL    HW216995   5.245   5.861   4.265 -0.5297  3.5423  2.2713
 5584SOL     OW16996   2.988   5.548   4.687  0.2842 -0.4715 -0.7881
 5584SOL    HW116997   2.941   5.510   4.761  1.5931  1.3281  1.0676
 5584SOL    HW216998   2.949   5.635   4.676  0.6736 -0.3977 -1.6887
 5585SOL     OW16999   2.593   0.713   2.433 -1.1274 -0.5084  0.2474
 5585SOL    HW117000   2.624   0.697   2.344 -0.8888 -0.2188  0.2746
 5585SOL    HW217001   2.530   0.644   2.450  1.0017 -2.3976  0.9511
 5586SOL     OW17002   0.734   1.194   4.514 -0.5193  0.0744 -0.0529
 5586SOL    HW117003   0.658   1.193   4.456 -0.0788 -0.7908 -0.6316
 5586SOL    HW217004   0.738   1.106   4.551  0.0646  0.1764  0.1498
 5587SOL     OW17005   0.375   0.321   4.103 -0.1738 -0.9624 -0.4485
 5587SOL    HW117006   0.421   0.378   4.164 -0.6455 -0.3971 -0.6195
 5587SOL    HW217007   0.434   0.315   4.027  0.1288 -1.1702 -0.2035
 5588SOL     OW17008   2.716   4.115   4.475 -0.1795 -0.2816 -0.0346
 5588SOL    HW117009   2.636   4.159   4.502 -1.3073 -2.5105  0.5431
 5588SOL    HW217010   2.688   4.059   4.402  0.4477 -2.2442  1.1557
 5589SOL     OW17011   4.028   4.874   2.227 -0.5298  0.4096 -0.1870
 5589SOL    HW117012   4.051   4.783   2.247  2.2060  0.4192 -2.6125
 5589SOL    HW217013   3.947   4.890   2.275  1.4869 -1.6528  4.5101
 5590SOL     OW17014   0.371   4.425   4.810  0.6164  0.4909 -0.5054
 5590SOL    HW117015   0.290   4.376   4.825  0.9871  0.0169 -0.0135
 5590SOL    HW217016   0.429   4.396   4.880  1.9696 -0.7851 -2.0777
 5591SOL     OW17017   0.846   1.197   3.992  0.4088  0.3094  0.2446
 5591SOL    HW117018   0.826   1.246   4.072 -0.0710  1.6987 -0.7036
 5591SOL    HW217019   0.911   1.249   3.946  0.8171 -0.5687 -0.2030
 5592SOL     OW17020   3.966   1.031   3.783 -0.8281 -0.0379 -0.9085
 5592SOL    HW117021   3.925   1.100   3.835 -3.6638 -1.0293 -1.6548
 5592SOL    HW217022   3.993   0.966   3.847 -0.9151  0.4006 -0.4204
 5593SOL     OW17023   3.226   5.820   5.429  0.1318 -0.4848  0.2976
 5593SOL    HW117024   3.138   5.856   5.418 -0.8721 -2.8725 -0.0586
 5593SOL    HW217025   3.276   5.855   5.355 -0.2852  1.3952  0.8406
 5594SOL     OW17026   5.492   1.350   3.264 -0.2857 -0.3240  0.4904
 5594SOL    HW117027   5.582   1.383   3.261 -0.5212  0.2751 -1.9729
 5594SOL    HW217028   5.460   1.377   3.351  1.0895  1.7309  0.4420
 5595SOL     OW17029   3.128   3.471   3.305 -0.0109  0.4132 -0.0683
 5595SOL    HW117030   3.047   3.420   3.312  0.3219  0.0546  1.7696
 5595SOL    HW217031   3.098   3.559   3.283 -0.7228 -0.1700 -1.5227
 5596SOL     OW17032   1.213   4.683   4.341  0.9664  0.6592  0.4273
 5596SOL    HW117033   1.197   4.755   4.279  0.6574  1.1573  1.0687
 5596SOL    HW217034   1.293   4.642   4.309  0.3103  0.3101 -0.8419
 5597SOL     OW17035   4.582   4.488   4.322  0.2037  0.7336 -0.3543
 5597SOL    HW117036   4.490   4.515   4.319  0.3584  1.1868 -1.3939
 5597SOL    HW217037   4.580   4.395   4.303 -0.0049  0.8454 -0.9016
 5598SOL     OW17038   3.720   5.040   5.761 -0.4713 -0.1037  0.1765
 5598SOL    HW117039   3.687   4.960   5.719  0.7031 -1.9970  2.6024
 5598SOL    HW217040   3.643   5.080   5.800 -1.0336 -0.1564 -0.8431
 5599SOL     OW17041   2.116   4.855   3.127 -0.1361  0.2589  0.0970
 5599SOL    HW117042   2.179   4.925   3.143  1.5507 -1.0718 -0.2914
 5599SOL    HW217043   2.139   4.822   3.040 -2.1132  0.4206 -0.5292
 5600SOL     OW17044   4.596   2.065   0.899  0.3338  0.0657 -0.7813
 5600SOL    HW117045   4.562   2.130   0.961  3.2173  0.9708  0.0505
 5600SOL    HW217046   4.586   2.106   0.813  2.1819  1.7796 -0.2689
 5601SOL     OW17047   1.905   0.916   1.574 -0.4213  0.2094  0.4543
 5601SOL    HW117048   1.837   0.900   1.640  0.3623  0.9248  1.4604
 5601SOL    HW217049   1.903   1.011   1.561 -1.7158 -0.0484 -1.8482
 5602SOL     OW17050   2.573   5.692   2.364 -0.5544  0.2330 -0.3617
 5602SOL    HW117051   2.607   5.737   2.441  0.7585 -1.0761 -0.1237
 5602SOL    HW217052   2.507   5.632   2.400 -1.3784  1.0148 -0.5261
 5603SOL     OW17053   4.538   1.920   2.313  0.5169  0.3021  0.4361
 5603SOL    HW117054   4.564   1.830   2.332  3.1950  0.4391 -1.8768
 5603SOL    HW217055   4.554   1.967   2.396 -1.0847 -1.2929  1.7278
 5604SOL     OW17056   6.132   3.808   5.969  0.5883 -0.1719 -0.0351
 5604SOL    HW117057   6.210   3.793   5.916  0.8987 -0.3613  0.4704
 5604SOL    HW217058   6.068   3.745   5.934  1.2054 -1.2071  0.6595
 5605SOL     OW17059   3.874   0.175   3.912 -0.6393  0.2680  0.8265
 5605SOL    HW117060   3.877   0.270   3.901  1.2299  0.0236 -1.5585
 5605SOL    HW217061   3.821   0.144   3.839  1.2991 -0.6732 -0.2552
 5606SOL     OW17062   2.131   3.833   3.193 -0.3076  0.1698 -0.5269
 5606SOL    HW117063   2.059   3.775   3.169 -0.9832  0.4892  0.6463
 5606SOL    HW217064   2.192   3.778   3.242  1.0816 -0.4866 -2.8199
 5607SOL     OW17065   1.733   5.998   2.077  0.0349 -0.1941 -0.2140
 5607SOL    HW117066   1.664   5.991   2.011  0.6646  0.8936 -1.0252
 5607SOL    HW217067   1.814   5.982   2.028  0.4325 -0.5784  0.5508
 5608SOL     OW17068   5.320   6.069   1.290  0.4346  0.1036  0.2908
 5608SOL    HW117069   5.353   5.986   1.256  0.9220  0.4585 -0.1234
 5608SOL    HW217070   5.226   6.068   1.269  0.3761 -0.4780  0.5771
 5609SOL     OW17071   5.194   2.624   6.097  0.1274  0.2037 -0.6091
 5609SOL    HW117072   5.176   2.563   6.168  1.1627  0.9315  0.3238
 5609SOL    HW217073   5.189   2.571   6.017 -1.9798 -0.4270 -0.1047
 5610SOL     OW17074   5.004   0.246   2.393  0.4289 -0.4390  0.1191
 5610SOL    HW117075   4.936   0.181   2.377  0.2297 -0.0933 -0.4834
 5610SOL    HW217076   5.051   0.251   2.309  1.1887 -0.6639  0.5216
 5611SOL     OW17077   1.189   1.941   2.858  0.2491 -0.2040 -0.0695
 5611SOL    HW117078   1.227   1.854   2.841 -0.7628 -0.6618 -0.0644
 5611SOL    HW217079   1.212   1.992   2.780 -0.1879 -0.8487 -0.6418
 5612SOL     OW17080   1.613   4.935   5.384  0.7574  0.4975 -0.1242
 5612SOL    HW117081   1.566   4.957   5.464  1.4595 -1.4653  0.8892
 5612SOL    HW217082   1.638   5.020   5.347 -1.9367  1.5470  0.2435
 5613SOL     OW17083   2.296   4.891   0.710 -0.1671  0.4261 -0.0497
 5613SOL    HW117084   2.383   4.930   0.696 -0.7884  2.4070  1.1294
 5613SOL    HW217085   2.287   4.827   0.640  1.9734  0.6498 -0.6120
 5614SOL     OW17086   0.528   5.193   2.027  0.3301  0.2034 -0.5345
 5614SOL    HW117087   0.576   5.188   1.945 -0.1971 -0.0462 -0.8362
 5614SOL    HW217088   0.511   5.101   2.051 -1.1835  0.2979 -1.1573
 5615SOL     OW17089   5.791   1.603   5.977  0.6515 -0.5345 -0.6170
 5615SOL    HW117090   5.850   1.580   6.049  1.9225  0.2909 -1.3446
 5615SOL    HW217091   5.848   1.642   5.911 -0.8570  1.2604 -0.9378
 5616SOL     OW17092   1.575   2.577   5.001  0.0683 -0.1077  0.1761
 5616SOL    HW117093   1.647   2.624   5.044  0.2643 -0.6824  0.4993
 5616SOL    HW217094   1.496   2.617   5.035  0.2243  0.8001 -0.4798
 5617SOL     OW17095   1.561   5.654   3.711  0.1600  0.5174  0.7016
 5617SOL    HW117096   1.563   5.574   3.658 -2.6761  0.2191  0.8707
 5617SOL    HW217097   1.610   5.718   3.659 -0.1739 -0.5117 -0.9677
 5618SOL     OW17098   2.398   5.488   2.463 -0.2205 -0.3600  0.0390
 5618SOL    HW117099   2.428   5.405   2.502 -0.0986 -0.0474  0.6326
 5618SOL    HW217100   2.324   5.463   2.408 -0.2454 -0.8547  0.2868
 5619SOL     OW17101   1.255   2.706   4.077 -0.0794  0.2541  0.0636
 5619SOL    HW117102   1.228   2.706   3.985 -2.6463 -1.5636  0.6956
 5619SOL    HW217103   1.287   2.617   4.093 -1.2341  0.0280  1.2944
 5620SOL     OW17104   3.500   5.748   4.831  0.3637 -0.3941  0.2571
 5620SOL    HW117105   3.481   5.656   4.814  2.9852 -0.6989 -1.5255
 5620SOL    HW217106   3.515   5.753   4.925 -0.1826 -1.7028  0.4247
 5621SOL     OW17107   5.042   4.759   2.112  0.3668  0.2154 -0.1393
 5621SOL    HW117108   5.114   4.815   2.083  0.2671  0.1324 -0.5483
 5621SOL    HW217109   5.031   4.695   2.041  1.2618 -1.0607  0.8258
 5622SOL     OW17110   1.347   5.443   3.070  0.2668 -0.1574 -0.3920
 5622SOL    HW117111   1.393   5.432   2.987 -1.5276  1.6804 -1.7330
 5622SOL    HW217112   1.349   5.538   3.085  1.6817 -0.5254  2.4144
 5623SOL     OW17113   5.041   4.538   5.356  1.1345  0.3481 -0.1627
 5623SOL    HW117114   5.100   4.473   5.392  0.3088  0.1097  0.8116
 5623SOL    HW217115   5.051   4.614   5.413 -0.1004  0.0105  0.5338
 5624SOL     OW17116   3.611   0.078   4.020  0.1535  0.2126  0.3580
 5624SOL    HW117117   3.703   0.095   4.001  0.1051 -0.4809 -0.5430
 5624SOL    HW217118   3.605  -0.018   4.028 -0.5856  0.2096 -0.1351
 5625SOL     OW17119   4.618   1.007   5.239 -0.3522  0.3514 -0.3875
 5625SOL    HW117120   4.623   1.102   5.237 -1.7064  0.4247 -1.0470
 5625SOL    HW217121   4.559   0.984   5.167  0.5276 -1.0322 -0.7064
 5626SOL     OW17122   2.325   3.760   1.426 -0.1382  0.1123  0.0448
 5626SOL    HW117123   2.371   3.831   1.471 -0.8745  0.6937 -0.1073
 5626SOL    HW217124   2.375   3.747   1.345  1.0506 -0.7736  0.8884
 5627SOL     OW17125   5.308   0.745   3.544  0.3465 -0.1724  0.1343
 5627SOL    HW117126   5.362   0.693   3.485  2.1007  0.4380  1.1325
 5627SOL    HW217127   5.303   0.692   3.624 -0.6235 -0.2597  0.0216
 5628SOL     OW17128   2.147   1.498   3.178  0.7362 -0.4042 -0.1350
 5628SOL    HW117129   2.219   1.561   3.172  0.1813  0.2028 -0.4999
 5628SOL    HW217130   2.101   1.507   3.094 -0.6526  0.2867  0.6756
 5629SOL     OW17131   4.647   4.109   3.366 -0.2546  0.6086 -0.2680
 5629SOL    HW117132   4.590   4.185   3.354 -1.3629 -0.2365 -0.5615
 5629SOL    HW217133   4.733   4.139   3.338 -1.0285  1.2645 -2.1077
 5630SOL     OW17134   3.039   3.092   4.693  0.4015 -0.3305 -0.3129
 5630SOL    HW117135   2.990   3.013   4.718 -1.6701  1.2461  0.9746
 5630SOL    HW217136   2.992   3.126   4.617 -0.6762  1.2428  0.9814
 5631SOL     OW17137   1.506   2.303   3.894 -0.4874  0.3664 -0.2062
 5631SOL    HW117138   1.523   2.252   3.974  1.8915 -2.9917 -2.5629
 5631SOL    HW217139   1.579   2.364   3.888 -0.3253  0.1864 -0.1010
 5632SOL     OW17140   0.114   2.922   4.990  0.5424 -0.4946  0.2422
 5632SOL    HW117141   0.165   2.918   5.071 -0.1569 -1.6313  0.6653
 5632SOL    HW217142   0.104   2.830   4.964  0.4141 -0.1620 -0.9204
 5633SOL     OW17143   4.043   1.508   0.656  0.1707  0.3202  0.1394
 5633SOL    HW117144   4.105   1.440   0.628  0.2154 -0.4345  1.9353
 5633SOL    HW217145   4.065   1.524   0.748  0.3408  3.0112 -0.2856
 5634SOL     OW17146   3.921   3.711   2.382 -0.2502 -0.0489 -0.4524
 5634SOL    HW117147   3.851   3.698   2.318 -0.2187 -1.3172 -0.2611
 5634SOL    HW217148   4.001   3.716   2.329  0.1146 -3.6921 -0.4938
 5635SOL     OW17149   4.672   0.572   4.837 -0.0645  0.8799  0.4353
 5635SOL    HW117150   4.748   0.527   4.800 -1.1868 -2.1309  1.4991
 5635SOL    HW217151   4.700   0.597   4.925  0.0257  0.7615  0.4396
 5636SOL     OW17152   2.226   0.149   3.112  0.5577 -0.2025  0.0560
 5636SOL    HW117153   2.307   0.099   3.120  1.1368  0.3400 -1.8841
 5636SOL    HW217154   2.188   0.121   3.029 -1.3415 -0.5317  0.9844
 5637SOL     OW17155   1.749   2.914   0.777  0.1969  0.1101  0.4145
 5637SOL    HW117156   1.695   2.883   0.704  1.3034 -1.8295  0.3531
 5637SOL    HW217157   1.807   2.979   0.737  0.4741 -0.5884 -0.3571
 5638SOL     OW17158   0.471   5.520   4.845 -0.0617  0.3030 -0.3136
 5638SOL    HW117159   0.427   5.448   4.801 -1.7928  1.5387 -0.6902
 5638SOL    HW217160   0.477   5.589   4.779  1.0706  0.7153  0.1911
 5639SOL     OW17161   0.870   2.761   0.708 -0.3884  0.5908  0.3004
 5639SOL    HW117162   0.913   2.801   0.633  1.9544 -2.1223  0.0245
 5639SOL    HW217163   0.820   2.687   0.671 -0.7317  0.3388  1.2302
 5640SOL     OW17164   4.937   1.952   0.734 -0.2568 -0.8813 -0.3136
 5640SOL    HW117165   5.001   1.964   0.664 -1.9713 -0.5348 -1.8826
 5640SOL    HW217166   4.853   1.978   0.696 -1.1364  0.3063  2.1623
 5641SOL     OW17167   0.590   0.766   3.811 -0.0046  0.5299 -0.4887
 5641SOL    HW117168   0.532   0.745   3.884  0.8629 -2.2544 -0.4850
 5641SOL    HW217169   0.541   0.740   3.733 -0.0054  1.2716 -0.7464
 5642SOL     OW17170   5.314   5.635   4.784  0.2871 -0.0199  0.2945
 5642SOL    HW117171   5.371   5.578   4.733 -0.2218  0.0981 -0.4066
 5642SOL    HW217172   5.244   5.660   4.724 -1.3035 -1.2923  1.5228
 5643SOL     OW17173   5.840   4.438   0.370  0.1207  0.0887  0.6001
 5643SOL    HW117174   5.831   4.526   0.334  0.5162  0.8020  2.2130
 5643SOL    HW217175   5.932   4.432   0.397 -0.0777 -0.5710  1.1434
 5644SOL     OW17176   5.678   4.713   2.949 -0.2818 -0.1813 -0.3390
 5644SOL    HW117177   5.678   4.758   3.034 -1.6196  0.9625 -0.9079
 5644SOL    HW217178   5.598   4.661   2.950  0.2607 -1.0409 -0.4814
 5645SOL     OW17179   3.468   4.335   4.854 -0.0271 -0.7604  0.1956
 5645SOL    HW117180   3.409   4.262   4.874 -1.4832  0.6130  1.1539
 5645SOL    HW217181   3.502   4.362   4.939  0.7415 -0.4965 -0.1882
 5646SOL     OW17182   5.852   6.026   1.141  0.5723  0.1347  0.5060
 5646SOL    HW117183   5.841   5.945   1.091  0.6969 -0.0202  0.7293
 5646SOL    HW217184   5.765   6.044   1.178  1.2067 -1.6467  3.1225
 5647SOL     OW17185   1.916   5.790   1.727  0.4361 -0.2966  0.4543
 5647SOL    HW117186   1.981   5.754   1.667  3.2434 -0.1757  3.1323
 5647SOL    HW217187   1.933   5.745   1.810 -1.6899  1.1439  1.7763
 5648SOL     OW17188   2.548   4.721   2.514  0.1845  0.0179 -0.2886
 5648SOL    HW117189   2.530   4.673   2.433 -1.1761  1.2251 -0.7522
 5648SOL    HW217190   2.626   4.773   2.494  1.5121 -1.7405  0.1346
 5649SOL     OW17191   2.065   4.403   4.076 -0.0030  0.2861 -0.5268
 5649SOL    HW117192   2.048   4.361   3.992  2.0861 -0.8636 -0.4394
 5649SOL    HW217193   2.130   4.347   4.118 -0.4480  1.2327  1.5625
 5650SOL     OW17194   4.872   4.436   1.151  0.0584 -0.4383 -0.6377
 5650SOL    HW117195   4.779   4.446   1.172 -0.2345 -1.5962 -1.3017
 5650SOL    HW217196   4.908   4.386   1.224  0.2319  0.2652 -0.2354
 5651SOL     OW17197   4.802   2.295   2.196 -0.1947 -0.1202  0.0932
 5651SOL    HW117198   4.848   2.227   2.148 -0.0314 -0.0623  0.1672
 5651SOL    HW217199   4.841   2.294   2.283 -0.4083 -0.1462  0.1900
 5652SOL     OW17200   2.216   4.882   0.970  0.6099 -0.0667  0.5790
 5652SOL    HW117201   2.250   4.848   0.887 -1.0336  1.0704 -0.6145
 5652SOL    HW217202   2.160   4.812   1.003  1.6963 -0.7434  1.0403
 5653SOL     OW17203   5.112   4.454   5.644  0.2916  0.0652 -0.0673
 5653SOL    HW117204   5.107   4.549   5.639  3.1867  0.5093  2.4894
 5653SOL    HW217205   5.187   4.431   5.590 -0.9120 -0.9185 -1.3712
 5654SOL     OW17206   4.933   0.574   4.720  0.1300  0.2745 -0.1476
 5654SOL    HW117207   4.932   0.642   4.787 -0.3672 -1.0155  1.2240
 5654SOL    HW217208   4.888   0.613   4.646  1.4155  2.0362 -0.0703
 5655SOL     OW17209   4.439   5.450   5.452 -0.0029  0.2050  0.4370
 5655SOL    HW117210   4.403   5.533   5.421  1.8380  0.8671 -0.0476
 5655SOL    HW217211   4.398   5.383   5.398 -0.7007  0.8996  0.1033
 5656SOL     OW17212   3.166   5.088   0.557 -0.3123  0.3252 -0.5889
 5656SOL    HW117213   3.089   5.137   0.527 -1.9216 -1.7185 -0.0985
 5656SOL    HW217214   3.178   5.020   0.490 -0.7099 -1.0766  0.6951
 5657SOL     OW17215   4.039   2.616   5.094 -0.4446  0.7312  0.1015
 5657SOL    HW117216   3.991   2.582   5.169 -1.6989 -0.2013 -1.0838
 5657SOL    HW217217   3.973   2.656   5.039 -0.4667 -2.8780 -2.8603
 5658SOL     OW17218   5.522   3.325   0.896 -0.3782 -0.3811  0.4280
 5658SOL    HW117219   5.431   3.348   0.878 -0.4629 -0.6518  0.5193
 5658SOL    HW217220   5.564   3.323   0.810 -0.7254 -1.4198  0.2708
 5659SOL     OW17221   1.520   2.607   2.427  0.5106  0.5217 -0.4747
 5659SOL    HW117222   1.615   2.609   2.416  0.7993 -0.7344  1.3292
 5659SOL    HW217223   1.506   2.641   2.516 -0.7357  0.6538 -0.7104
 5660SOL     OW17224   4.773   3.459   2.591 -0.4578  0.2805 -0.1638
 5660SOL    HW117225   4.690   3.419   2.563 -1.3722  0.8707  1.5672
 5660SOL    HW217226   4.803   3.403   2.663  1.9770 -1.3515 -2.2641
 5661SOL     OW17227   0.197   4.523   4.296  0.3197 -0.2305 -0.3173
 5661SOL    HW117228   0.229   4.487   4.378  1.4496 -1.6224 -1.3311
 5661SOL    HW217229   0.259   4.593   4.275 -0.4520  0.6992  0.4019
 5662SOL     OW17230   4.314   2.089   2.648 -0.1749 -0.1288  0.1717
 5662SOL    HW117231   4.270   2.037   2.581 -0.5132  0.5411 -0.1254
 5662SOL    HW217232   4.365   2.154   2.599  0.3265 -0.2338  0.5415
 5663SOL     OW17233   3.839   4.792   5.870  0.0608  0.1543 -0.3661
 5663SOL    HW117234   3.871   4.790   5.780 -0.8628 -0.2860 -0.7060
 5663SOL    HW217235   3.819   4.884   5.886  2.9202  0.7086  0.4189
 5664SOL     OW17236   4.714   3.742   3.328 -0.2293  0.4197 -0.8618
 5664SOL    HW117237   4.671   3.699   3.402  0.1619  0.4450 -0.6197
 5664SOL    HW217238   4.721   3.673   3.261  0.4376  0.0870 -0.4586
 5665SOL     OW17239   5.601   1.552   4.410 -0.1853 -0.2489 -0.3581
 5665SOL    HW117240   5.520   1.597   4.386 -0.0269 -0.5457 -1.5100
 5665SOL    HW217241   5.611   1.569   4.504 -1.3807  0.0999 -0.2765
 5666SOL     OW17242   3.356   1.763   2.902  0.2793  0.5122 -0.6822
 5666SOL    HW117243   3.267   1.771   2.936  1.2373 -0.7713  2.5704
 5666SOL    HW217244   3.381   1.852   2.879 -0.6326  1.5698  2.0169
 5667SOL     OW17245   3.197   5.658   0.302 -0.5115  0.0289  0.1006
 5667SOL    HW117246   3.148   5.585   0.264 -0.5382 -0.2396  0.6444
 5667SOL    HW217247   3.189   5.646   0.397  1.4707 -0.6323  0.2377
 5668SOL     OW17248   0.102   1.474   6.002 -0.1274  0.2439  0.0241
 5668SOL    HW117249   0.171   1.514   6.055  1.1703 -1.2267 -0.4838
 5668SOL    HW217250   0.088   1.536   5.930 -1.4025  1.9181  1.6090
 5669SOL     OW17251   5.508   2.927   4.210  0.4233  0.7087 -0.1083
 5669SOL    HW117252   5.430   2.955   4.258  0.6765 -0.3386  0.9504
 5669SOL    HW217253   5.571   2.999   4.222 -0.7995  2.2320 -2.1663
 5670SOL     OW17254   1.927   3.846   4.482 -0.4452 -0.0238  0.7628
 5670SOL    HW117255   1.899   3.937   4.493  2.5908  1.1150 -0.0330
 5670SOL    HW217256   1.898   3.823   4.394  1.2884  1.2889 -0.2328
 5671SOL     OW17257   4.547   0.958   1.799 -0.5289  0.7167  0.3277
 5671SOL    HW117258   4.621   0.926   1.850 -0.3732  0.3353 -0.1330
 5671SOL    HW217259   4.475   0.899   1.821 -0.3451  0.2807 -0.2238
 5672SOL     OW17260   4.294   3.117   0.311 -0.0944 -0.1770  0.4462
 5672SOL    HW117261   4.273   3.025   0.323 -0.6728 -0.0553  0.4171
 5672SOL    HW217262   4.271   3.158   0.394  0.7513 -0.1505  0.6797
 5673SOL     OW17263   5.542   4.636   5.245  0.6031  0.3922  0.0718
 5673SOL    HW117264   5.530   4.555   5.295 -0.6639 -0.0612 -0.9191
 5673SOL    HW217265   5.559   4.703   5.312 -2.0560  0.0197  1.2369
 5674SOL     OW17266   1.625   3.617   0.212 -0.0039 -0.3189  0.0555
 5674SOL    HW117267   1.554   3.630   0.275 -0.9069  1.3029 -1.2214
 5674SOL    HW217268   1.599   3.668   0.135  0.8962 -2.4496 -1.7874
 5675SOL     OW17269   4.502   1.833   4.201  0.1545 -0.8290  0.0496
 5675SOL    HW117270   4.583   1.791   4.171  0.1882 -0.4234 -0.4516
 5675SOL    HW217271   4.508   1.831   4.296  0.9498 -0.4612  0.0222
 5676SOL     OW17272   6.099   4.532   3.130  0.1978 -0.1353  0.0234
 5676SOL    HW117273   6.123   4.625   3.134  0.6015 -0.2619  0.7162
 5676SOL    HW217274   6.007   4.531   3.156  0.1315  0.0938 -0.1954
 5677SOL     OW17275   2.537   3.230   6.015  0.6085  0.3613 -0.5803
 5677SOL    HW117276   2.615   3.263   5.971  1.0005  0.9264  0.4929
 5677SOL    HW217277   2.571   3.171   6.083  0.3419  2.6659  1.7060
 5678SOL     OW17278   1.731   3.400   2.083  0.0511  0.1267  0.2886
 5678SOL    HW117279   1.747   3.352   2.164  1.0446 -2.0922 -1.1263
 5678SOL    HW217280   1.814   3.443   2.063  0.0947 -0.0926 -0.0125
 5679SOL     OW17281   1.974   4.305   5.508 -0.1914  0.3173 -0.1946
 5679SOL    HW117282   1.972   4.232   5.569 -0.9517 -1.1305 -1.8643
 5679SOL    HW217283   1.987   4.265   5.422 -0.4586  2.1639 -1.1641
 5680SOL     OW17284   2.688   1.346   3.422 -0.0564  0.0940  0.6163
 5680SOL    HW117285   2.690   1.328   3.516 -0.1675 -1.5438  0.3356
 5680SOL    HW217286   2.643   1.271   3.384  2.0623 -0.4622 -0.9814
 5681SOL     OW17287   4.415   2.267   5.609  0.3716 -0.7476  0.1368
 5681SOL    HW117288   4.327   2.240   5.584 -0.1095 -0.0186  0.9809
 5681SOL    HW217289   4.441   2.205   5.678 -0.6535  0.7233  1.9339
 5682SOL     OW17290   4.244   5.203   1.620  0.2696  0.1735  0.0444
 5682SOL    HW117291   4.252   5.219   1.714 -1.1592  0.4315  0.1484
 5682SOL    HW217292   4.197   5.279   1.587 -0.9786 -0.7888 -0.5210
 5683SOL     OW17293   0.336   4.555   2.607 -0.0690  0.2316  0.1624
 5683SOL    HW117294   0.258   4.559   2.551  0.9425  1.4541 -1.2090
 5683SOL    HW217295   0.365   4.646   2.614 -0.0129  0.0842  2.5199
 5684SOL     OW17296   6.008   2.493   1.706  0.0631  0.4284  0.0328
 5684SOL    HW117297   5.932   2.435   1.718 -0.8300  1.5863  0.1211
 5684SOL    HW217298   6.083   2.438   1.727 -0.8404 -0.3388  1.3820
 5685SOL     OW17299   1.738   0.723   0.190 -0.1557  0.4987  0.0784
 5685SOL    HW117300   1.721   0.734   0.096  0.4651  1.4988  0.0682
 5685SOL    HW217301   1.830   0.747   0.201  0.0456 -0.5375  0.8042
 5686SOL     OW17302   0.330   1.618   5.150 -0.1289 -0.5226  0.3423
 5686SOL    HW117303   0.327   1.631   5.245  1.4411 -1.0755  0.4956
 5686SOL    HW217304   0.403   1.557   5.137  0.1402  0.1133 -1.2831
 5687SOL     OW17305   0.808   5.603   4.125  0.2394  0.1270  0.3738
 5687SOL    HW117306   0.798   5.684   4.076 -3.2624  0.2970  1.1511
 5687SOL    HW217307   0.816   5.535   4.059  0.5630  0.8107 -0.3046
 5688SOL     OW17308   1.670   3.119   1.390 -0.3043 -0.3866  0.3821
 5688SOL    HW117309   1.665   3.032   1.430 -1.7488 -1.5112 -2.0066
 5688SOL    HW217310   1.598   3.167   1.432 -0.0089 -0.5918  1.1496
 5689SOL     OW17311   3.821   5.209   1.209 -0.0539  0.8514 -0.3816
 5689SOL    HW117312   3.803   5.281   1.148 -0.0494  0.2703 -1.0828
 5689SOL    HW217313   3.903   5.234   1.252 -1.0365  2.1975  0.8257
 5690SOL     OW17314   2.215   1.758   1.432 -0.3321 -0.2683  0.6099
 5690SOL    HW117315   2.187   1.849   1.440 -1.1074 -0.5213  0.7996
 5690SOL    HW217316   2.310   1.761   1.448 -0.4204  0.4483  1.0338
 5691SOL     OW17317   4.504   0.758   4.007  0.2646 -0.1465  0.4044
 5691SOL    HW117318   4.597   0.761   3.984 -0.1170  2.1941 -1.1802
 5691SOL    HW217319   4.484   0.846   4.040 -1.5808 -0.2863 -0.2028
 5692SOL     OW17320   1.804   3.780   1.138  0.1367 -0.2092 -0.4761
 5692SOL    HW117321   1.876   3.728   1.102  2.4489  2.6553 -0.4228
 5692SOL    HW217322   1.775   3.833   1.064 -0.6946 -0.0642 -0.0504
 5693SOL     OW17323   0.589   5.769   4.424  0.7464 -0.0605 -0.1659
 5693SOL    HW117324   0.597   5.848   4.370  2.9043  0.3477  0.6425
 5693SOL    HW217325   0.539   5.708   4.370  2.5433  0.4329 -2.5782
 5694SOL     OW17326   1.609   2.658   1.721  0.4642 -0.2683 -0.5833
 5694SOL    HW117327   1.677   2.673   1.787  0.2651 -2.4548  0.1829
 5694SOL    HW217328   1.563   2.742   1.714  2.6844  1.0246 -0.5325
 5695SOL     OW17329   1.570   1.189   6.118  0.4049  0.0166 -0.1908
 5695SOL    HW117330   1.567   1.277   6.080  0.6793  0.0806 -0.0649
 5695SOL    HW217331   1.482   1.176   6.154 -0.5247 -0.8202 -2.5571
 5696SOL     OW17332   4.375   2.830   0.695 -0.1211  0.3854  0.0281
 5696SOL    HW117333   4.290   2.788   0.696  0.3463 -0.6071  1.1852
 5696SOL    HW217334   4.407   2.820   0.606 -0.2971 -1.1978  0.1173
 5697SOL     OW17335   5.384   5.326   3.787  0.6230 -0.4566 -0.0276
 5697SOL    HW117336   5.422   5.318   3.700  1.5166  0.1424  0.2933
 5697SOL    HW217337   5.430   5.400   3.827  0.3799 -0.8489  1.0268
 5698SOL     OW17338   0.579   1.489   5.647 -0.4328 -0.4329 -0.0565
 5698SOL    HW117339   0.542   1.438   5.574  0.8371  0.4451 -1.3806
 5698SOL    HW217340   0.608   1.570   5.606  1.4419 -0.4295  1.1972
 5699SOL     OW17341   5.107   0.348   4.705  0.4773 -0.1838  0.0338
 5699SOL    HW117342   5.054   0.428   4.712 -0.7255 -0.8821 -0.7123
 5699SOL    HW217343   5.188   0.376   4.662  0.7591  0.9148  1.2068
 5700SOL     OW17344   4.612   6.009   2.719 -0.0039 -0.0592 -0.2556
 5700SOL    HW117345   4.664   6.056   2.785  1.1457  0.6632 -1.6277
 5700SOL    HW217346   4.561   5.945   2.770  0.8629  0.4518  1.3231
 5701SOL     OW17347   1.274   3.192   0.451  0.8527 -0.2873 -0.7051
 5701SOL    HW117348   1.315   3.243   0.381 -0.0667  3.7484  1.4548
 5701SOL    HW217349   1.180   3.195   0.430  0.8386 -2.3254 -1.1766
 5702SOL     OW17350   3.791   1.555   2.878 -0.1301  0.0311  0.0591
 5702SOL    HW117351   3.822   1.604   2.954  2.3799 -0.4342 -0.5598
 5702SOL    HW217352   3.738   1.617   2.829 -0.8233  0.6853  1.5657
 5703SOL     OW17353   5.976   3.932   4.005  0.0788 -0.6648 -0.1884
 5703SOL    HW117354   6.055   3.882   4.028  0.4031 -0.3503 -0.5828
 5703SOL    HW217355   5.994   4.020   4.037 -0.3735 -0.7381  0.2594
 5704SOL     OW17356   2.131   0.111   5.054 -0.0527  0.2451  0.0544
 5704SOL    HW117357   2.168   0.198   5.039  1.0137 -0.1992  0.0282
 5704SOL    HW217358   2.053   0.127   5.108 -0.0844  1.2402 -0.2609
 5705SOL     OW17359   5.843   1.007   3.728 -0.2923 -0.4137 -0.3017
 5705SOL    HW117360   5.787   1.016   3.805 -1.3551 -0.2302 -1.0865
 5705SOL    HW217361   5.786   0.971   3.660  1.0676 -2.4005 -0.5008
 5706SOL     OW17362   3.986   5.850   1.283 -0.1176 -0.5098 -0.0901
 5706SOL    HW117363   4.040   5.916   1.239 -0.4656  0.8210  1.3895
 5706SOL    HW217364   3.936   5.809   1.212  2.2087 -1.2644 -1.4146
 5707SOL     OW17365   5.037   0.454   3.963 -0.1968 -0.7243  0.4709
 5707SOL    HW117366   5.016   0.400   3.887 -1.9513 -0.6334  0.8343
 5707SOL    HW217367   4.953   0.463   4.009  0.6925 -0.2492  2.0709
 5708SOL     OW17368   1.577   2.229   0.248  0.1864  0.6401 -0.3316
 5708SOL    HW117369   1.484   2.245   0.233 -0.4437  0.7283  2.9434
 5708SOL    HW217370   1.612   2.313   0.277  0.8644  0.1839  0.2127
 5709SOL     OW17371   0.463   4.775   5.947  0.3901  0.0897 -0.4785
 5709SOL    HW117372   0.406   4.850   5.929 -0.5993 -0.8934 -1.6309
 5709SOL    HW217373   0.404   4.709   5.983  1.2035 -0.2225  0.2929
 5710SOL     OW17374   2.856   3.731   4.126 -0.3912  0.1061 -0.2100
 5710SOL    HW117375   2.840   3.656   4.069 -1.6075 -0.5760  0.9720
 5710SOL    HW217376   2.942   3.714   4.166 -0.6186 -0.6227 -0.0205
 5711SOL     OW17377   0.535   4.538   1.952 -0.2312 -0.2482  0.3118
 5711SOL    HW117378   0.507   4.483   1.879 -1.6197 -1.0864  1.4153
 5711SOL    HW217379   0.567   4.477   2.018  1.0371  0.4977  0.4185
 5712SOL     OW17380   6.121   0.717   4.025  0.3979  0.3503  0.0612
 5712SOL    HW117381   6.028   0.736   4.016  0.0206 -0.0874  2.4125
 5712SOL    HW217382   6.124   0.630   4.064  1.8683 -0.3635 -1.5325
 5713SOL     OW17383   1.104   0.108   3.488  0.1280  0.1593  0.1219
 5713SOL    HW117384   1.124   0.175   3.554  0.8264  1.1064 -1.0163
 5713SOL    HW217385   1.014   0.128   3.460  0.3381  0.6323 -0.2197
 5714SOL     OW17386   0.653   5.013   5.180 -0.2196  0.4512 -0.0887
 5714SOL    HW117387   0.596   5.056   5.243  1.1001  0.4662  1.1570
 5714SOL    HW217388   0.718   4.967   5.234  2.8751  2.9849 -1.3281
 5715SOL     OW17389   3.754   5.226   4.677  0.5060 -0.1371 -0.0885
 5715SOL    HW117390   3.681   5.165   4.666 -1.0025  1.5844  0.1100
 5715SOL    HW217391   3.716   5.304   4.716  2.6222  0.5106  0.8334
 5716SOL     OW17392   0.252   5.898   4.209  0.3176  0.1633 -0.1454
 5716SOL    HW117393   0.233   5.988   4.236  0.9788  0.0432  0.7401
 5716SOL    HW217394   0.279   5.854   4.289  2.1145 -0.2674 -0.9531
 5717SOL     OW17395   3.703   4.527   5.133  0.8021  0.3082 -0.0900
 5717SOL    HW117396   3.777   4.478   5.170  0.7283 -0.8458 -1.4206
 5717SOL    HW217397   3.633   4.463   5.123  0.4888  0.8032 -1.2743
 5718SOL     OW17398   3.364   1.469   1.103  0.3641 -0.0829  0.5592
 5718SOL    HW117399   3.456   1.468   1.077  0.0699  0.0059 -0.5134
 5718SOL    HW217400   3.364   1.513   1.188  1.5457 -1.8710  1.5693
 5719SOL     OW17401   4.356   0.501   2.318  0.2321 -0.1961 -0.6971
 5719SOL    HW117402   4.397   0.588   2.310 -0.3468  0.1552  0.0648
 5719SOL    HW217403   4.388   0.467   2.401 -0.2151 -0.3464 -0.5846
 5720SOL     OW17404   5.639   0.449   1.714 -0.4511  0.3661  0.2619
 5720SOL    HW117405   5.682   0.393   1.778  0.0842 -1.3640 -1.4820
 5720SOL    HW217406   5.672   0.537   1.732  0.3793 -0.2129  1.7347
 5721SOL     OW17407   3.910   3.812   3.436 -0.3339  0.4719 -0.2390
 5721SOL    HW117408   4.001   3.835   3.455  0.2706  0.0455 -2.3753
 5721SOL    HW217409   3.888   3.744   3.499  0.2283  1.7702  1.4227
 5722SOL     OW17410   3.266   3.907   5.586 -0.1254 -0.0411 -0.1580
 5722SOL    HW117411   3.173   3.895   5.568 -0.2833  0.6162  0.1999
 5722SOL    HW217412   3.284   3.846   5.658 -0.6586  0.9543  0.8606
 5723SOL     OW17413   1.614   1.173   4.448  0.4053 -0.1422  0.1237
 5723SOL    HW117414   1.621   1.164   4.543 -0.7529 -0.1917  0.2114
 5723SOL    HW217415   1.705   1.169   4.418  0.9004  1.0245  1.3257
 5724SOL     OW17416   1.171   1.427   5.267  0.5531 -0.2805  0.1397
 5724SOL    HW117417   1.156   1.369   5.192 -0.3784 -1.2348  1.0253
 5724SOL    HW217418   1.251   1.475   5.245  0.6780 -1.0303 -1.1494
 5725SOL     OW17419   1.081   0.763   0.966  0.4134  0.0469 -0.1156
 5725SOL    HW117420   1.060   0.768   0.873 -0.3153 -2.2247 -0.1436
 5725SOL    HW217421   1.147   0.693   0.971  0.2155 -0.0701  1.0834
 5726SOL     OW17422   4.198   0.998   0.214  0.0772  0.1760 -0.3489
 5726SOL    HW117423   4.165   1.065   0.154  0.4683 -0.3199 -1.1412
 5726SOL    HW217424   4.293   0.998   0.200 -0.0013 -1.1596 -1.0286
 5727SOL     OW17425   2.393   3.722   0.938  0.7516  0.6259  0.0304
 5727SOL    HW117426   2.454   3.712   0.865 -1.3411 -2.2404 -1.5029
 5727SOL    HW217427   2.317   3.767   0.900 -1.5899 -3.4056 -0.6026
 5728SOL     OW17428   3.782   2.665   3.413  0.3178 -0.1183  0.0992
 5728SOL    HW117429   3.696   2.633   3.439 -0.2822 -0.4563 -2.1162
 5728SOL    HW217430   3.782   2.757   3.438 -0.2417 -0.3796  1.1205
 5729SOL     OW17431   4.922   0.294   5.877 -0.0897  0.3636  0.1141
 5729SOL    HW117432   4.905   0.209   5.835  0.6759  0.5986 -0.6974
 5729SOL    HW217433   5.014   0.311   5.860  0.0882  0.7648  1.4002
 5730SOL     OW17434   1.900   2.774   5.563  0.0181 -0.4914  0.2341
 5730SOL    HW117435   1.805   2.772   5.551  0.0246 -0.3184  0.1569
 5730SOL    HW217436   1.920   2.865   5.585  0.3185 -0.2343 -1.0157
 5731SOL     OW17437   1.347   2.082   5.771 -0.5350 -0.0638 -0.0528
 5731SOL    HW117438   1.280   2.092   5.703 -0.6264  0.5318  0.1180
 5731SOL    HW217439   1.396   2.164   5.769  0.0432 -0.4030 -0.0126
 5732SOL     OW17440   0.904   1.230   5.099 -0.2119  0.2384  0.3350
 5732SOL    HW117441   0.998   1.244   5.088  0.1902 -0.5873  2.3643
 5732SOL    HW217442   0.889   1.141   5.068 -0.2081  0.1474  0.5929
 5733SOL     OW17443   3.397   4.040   3.522  0.3656  0.1368  0.3460
 5733SOL    HW117444   3.374   4.078   3.607 -1.2657  0.6361 -0.2846
 5733SOL    HW217445   3.328   3.975   3.506 -0.1100  0.9555 -1.1541
 5734SOL     OW17446   1.209   1.757   2.546 -0.3854  0.3033  0.6169
 5734SOL    HW117447   1.128   1.808   2.545 -0.7168 -0.1807  1.3651
 5734SOL    HW217448   1.275   1.814   2.507 -1.3518  0.2143 -1.2550
 5735SOL     OW17449   6.138   2.783   3.650 -1.0845  0.1960 -0.1695
 5735SOL    HW117450   6.088   2.859   3.622 -0.6795  0.2105 -0.8867
 5735SOL    HW217451   6.204   2.772   3.582 -0.6530 -0.3326  0.3266
 5736SOL     OW17452   5.101   5.664   4.632  0.3935  0.4991 -0.6668
 5736SOL    HW117453   5.021   5.614   4.620 -0.3370  1.5908 -0.4767
 5736SOL    HW217454   5.156   5.640   4.557 -0.8084  1.0371 -1.7438
 5737SOL     OW17455   1.529   0.425   1.431 -0.2838 -0.3389 -0.5361
 5737SOL    HW117456   1.594   0.410   1.363 -0.6627 -1.8873 -0.6088
 5737SOL    HW217457   1.448   0.387   1.397 -1.3835  1.9391 -0.6276
 5738SOL     OW17458   5.909   0.630   3.696 -0.0325  0.2635  0.3301
 5738SOL    HW117459   5.916   0.633   3.792  1.4826  1.9859  0.2161
 5738SOL    HW217460   5.823   0.668   3.678 -0.6697 -0.7821  0.9903
 5739SOL     OW17461   2.933   3.802   1.286  0.4279 -0.5211  0.4642
 5739SOL    HW117462   2.945   3.853   1.366 -0.7409  0.0426  0.3055
 5739SOL    HW217463   2.841   3.814   1.263  0.4604 -1.5917 -0.3504
 5740SOL     OW17464   1.104   1.297   5.920 -0.2498 -0.2758  0.4811
 5740SOL    HW117465   1.133   1.229   5.859 -2.6690  0.6188 -1.8505
 5740SOL    HW217466   1.179   1.357   5.925  0.5709 -1.1867 -0.3779
 5741SOL     OW17467   5.772   0.967   4.260 -0.6381  0.5813 -0.5215
 5741SOL    HW117468   5.739   0.938   4.345  0.0555  1.1592 -0.0375
 5741SOL    HW217469   5.708   0.936   4.197 -1.0679 -0.0197  0.1979
 5742SOL     OW17470   4.875   4.080   5.343  0.1282 -0.0498 -0.0987
 5742SOL    HW117471   4.842   4.164   5.312  1.8215  1.0255  0.8287
 5742SOL    HW217472   4.959   4.069   5.300  0.1449 -1.0566  0.1503
 5743SOL     OW17473   5.724   1.513   0.876  0.2350  0.4999  0.2040
 5743SOL    HW117474   5.734   1.599   0.916  0.0327 -0.9271  3.6721
 5743SOL    HW217475   5.807   1.497   0.832  0.0076  2.7016 -1.1894
 5744SOL     OW17476   5.754   1.965   4.390 -0.0546  0.8021 -0.1194
 5744SOL    HW117477   5.805   1.884   4.383 -0.6669  0.2846  1.1127
 5744SOL    HW217478   5.689   1.959   4.320 -0.8036 -0.3052  0.6592
 5745SOL     OW17479   3.015   3.115   0.958 -0.3042  0.6201 -0.2392
 5745SOL    HW117480   3.066   3.131   1.037 -1.6060 -1.9282  1.2412
 5745SOL    HW217481   3.078   3.081   0.895  0.3656  0.5058  0.4814
 5746SOL     OW17482   2.357   0.656   0.651 -0.3876 -0.1449  0.3463
 5746SOL    HW117483   2.384   0.680   0.740 -0.4916 -1.6479  0.8051
 5746SOL    HW217484   2.262   0.645   0.657 -0.5004  0.4933 -0.1452
 5747SOL     OW17485   0.104   1.640   5.783  0.5692  0.1432  0.3464
 5747SOL    HW117486   0.152   1.613   5.705  1.2394  2.5029 -0.1611
 5747SOL    HW217487   0.104   1.736   5.779 -0.9676  0.3021  2.3110
 5748SOL     OW17488   5.934   4.484   1.313 -0.0006  0.4803 -0.4031
 5748SOL    HW117489   5.975   4.398   1.303 -0.7336  0.1394 -0.5345
 5748SOL    HW217490   5.985   4.541   1.255  0.7618  0.2418  0.0124
 5749SOL     OW17491   6.138   5.757   1.276  0.2539 -0.3403  0.3142
 5749SOL    HW117492   6.043   5.751   1.265  0.2995  0.1427 -0.4172
 5749SOL    HW217493   6.164   5.830   1.221  0.8535  0.5934  1.7724
 5750SOL     OW17494   4.063   4.626   3.650 -0.1199  0.7182 -0.2585
 5750SOL    HW117495   4.143   4.617   3.701  0.3949 -0.7108 -1.2751
 5750SOL    HW217496   3.996   4.650   3.714  1.0188  1.5336  0.6605
 5751SOL     OW17497   5.111   5.766   2.137 -0.2098 -0.6895 -0.6657
 5751SOL    HW117498   5.019   5.786   2.156 -0.6675 -2.4207 -0.9140
 5751SOL    HW217499   5.139   5.712   2.211 -0.4336 -3.0169 -2.1769
 5752SOL     OW17500   0.169   4.956   2.770  0.1867 -0.8140  0.2587
 5752SOL    HW117501   0.078   4.927   2.758  0.4362 -1.2442 -0.6146
 5752SOL    HW217502   0.161   5.049   2.791 -0.5246 -1.1169  1.4733
 5753SOL     OW17503   3.749   0.481   5.468  0.1067  0.3338 -0.6689
 5753SOL    HW117504   3.715   0.531   5.542  0.3630  0.7622 -0.8385
 5753SOL    HW217505   3.674   0.432   5.435  0.3419 -1.1566  0.9012
 5754SOL     OW17506   3.442   4.341   5.895  0.1893  0.4834 -0.0179
 5754SOL    HW117507   3.451   4.261   5.947  1.1265 -0.5031 -1.6106
 5754SOL    HW217508   3.505   4.401   5.933 -0.7653  0.6295  1.4190
 5755SOL     OW17509   2.306   4.063   0.268 -0.1460  0.0238 -0.7269
 5755SOL    HW117510   2.213   4.040   0.274 -0.4118  1.0520 -0.6899
 5755SOL    HW217511   2.323   4.114   0.347  0.1067  0.9579 -1.3688
 5756SOL     OW17512   0.191   5.384   5.845  0.0464  0.0099 -0.1795
 5756SOL    HW117513   0.261   5.433   5.888 -0.9874  0.8358  0.6180
 5756SOL    HW217514   0.111   5.417   5.885 -0.8884 -0.0849 -1.8894
 5757SOL     OW17515   4.028   3.096   5.439  0.2956 -0.0343 -0.0007
 5757SOL    HW117516   4.018   3.172   5.382  0.6899 -1.3042 -1.9042
 5757SOL    HW217517   4.090   3.124   5.506  1.3532  0.9947 -1.3435
 5758SOL     OW17518   1.598   0.862   2.639 -0.4567  0.6984  0.9594
 5758SOL    HW117519   1.529   0.919   2.605 -0.4591  0.2364  0.1744
 5758SOL    HW217520   1.678   0.915   2.632 -0.4792  0.6587  0.3427
 5759SOL     OW17521   0.597   4.072   4.891  0.9306 -0.0551  0.0606
 5759SOL    HW117522   0.633   4.022   4.964 -1.0114 -1.1717  0.3137
 5759SOL    HW217523   0.576   4.007   4.825 -1.5591  0.3405  0.3565
 5760SOL     OW17524   1.206   0.487   2.167 -1.2573  0.0145 -0.6062
 5760SOL    HW117525   1.208   0.565   2.221 -0.8286 -0.0197 -0.5717
 5760SOL    HW217526   1.266   0.505   2.095 -1.1359 -0.2904 -0.5859
 5761SOL     OW17527   4.245   4.959   3.536  0.1444  0.0026  0.0359
 5761SOL    HW117528   4.270   5.004   3.456 -1.4955  1.3698  0.2218
 5761SOL    HW217529   4.276   5.016   3.607 -3.9816  2.3391  0.2807
 5762SOL     OW17530   4.748   6.089   2.945  0.0263 -0.3126  0.4018
 5762SOL    HW117531   4.797   6.156   2.899  0.4304 -0.4541  0.6250
 5762SOL    HW217532   4.675   6.136   2.986  0.6593  0.1011  1.0877
 5763SOL     OW17533   3.273   3.223   5.445  0.5206 -0.0975  0.2123
 5763SOL    HW117534   3.213   3.178   5.504 -0.0780 -1.3829 -1.3063
 5763SOL    HW217535   3.301   3.156   5.383  3.0949  0.5990  0.4930
 5764SOL     OW17536   2.112   5.736   5.311  0.0007  0.1869 -0.2097
 5764SOL    HW117537   2.091   5.785   5.391  3.1394 -2.1374  2.2728
 5764SOL    HW217538   2.161   5.798   5.258 -0.6377  1.2696  0.4114
 5765SOL     OW17539   0.080   3.247   1.728  0.2290  0.1018 -0.0259
 5765SOL    HW117540   0.088   3.304   1.804  1.2366 -0.9155  0.6843
 5765SOL    HW217541  -0.012   3.220   1.727  0.2191  0.0599  0.9005
 5766SOL     OW17542   2.111   0.891   4.024 -0.1120  0.0686  0.0340
 5766SOL    HW117543   2.176   0.823   4.038  0.3913  0.3692 -0.8063
 5766SOL    HW217544   2.158   0.973   4.035 -0.5735  0.2946  0.4006
 5767SOL     OW17545   0.682   2.507   5.143  0.1097 -0.2191  0.0388
 5767SOL    HW117546   0.774   2.506   5.115 -0.5978  0.7668 -2.5658
 5767SOL    HW217547   0.673   2.587   5.195  0.5335  0.1399 -0.4345
 5768SOL     OW17548   1.905   2.824   4.090 -0.2866  0.0503 -0.6258
 5768SOL    HW117549   1.941   2.822   4.001 -2.2747  0.7113 -1.5046
 5768SOL    HW217550   1.884   2.916   4.105  1.3072  0.1741  1.1263
 5769SOL     OW17551   5.769   4.743   3.725  0.2560 -0.0966  0.0412
 5769SOL    HW117552   5.840   4.807   3.718  0.0373  0.1394 -0.0074
 5769SOL    HW217553   5.812   4.663   3.754  0.5370  0.0589  0.0537
 5770SOL     OW17554   3.233   1.384   4.541 -0.1925 -0.2410 -0.4117
 5770SOL    HW117555   3.148   1.350   4.568 -0.0535 -0.3234 -0.0763
 5770SOL    HW217556   3.226   1.393   4.445 -0.2511 -1.1383 -0.4947
 5771SOL     OW17557   2.606   2.843   1.087 -1.0081  0.4933 -0.1464
 5771SOL    HW117558   2.575   2.911   1.147 -0.2415 -1.8341  3.1634
 5771SOL    HW217559   2.528   2.790   1.070 -0.6607 -0.5117  1.2584
 5772SOL     OW17560   0.769   1.509   3.301  0.3826 -0.4040 -0.5961
 5772SOL    HW117561   0.855   1.550   3.312  1.0156 -2.0304  0.8509
 5772SOL    HW217562   0.708   1.570   3.343  0.9518  0.2591 -0.7019
 5773SOL     OW17563   2.109   2.972   1.808  0.3231  0.0581 -0.2942
 5773SOL    HW117564   2.083   3.054   1.850  0.2975  0.3554 -0.8844
 5773SOL    HW217565   2.173   2.999   1.742 -0.2109 -0.3161 -0.9669
 5774SOL     OW17566   1.779   2.466   5.760  0.5422  0.4228 -0.5691
 5774SOL    HW117567   1.862   2.432   5.728  1.2061 -0.2700  1.7050
 5774SOL    HW217568   1.798   2.555   5.789  1.1971 -0.5624  2.2854
 5775SOL     OW17569   3.250   0.779   0.334  0.8322  0.3913 -0.1520
 5775SOL    HW117570   3.175   0.838   0.320  1.0359  0.3444 -1.5961
 5775SOL    HW217571   3.260   0.776   0.429 -0.5773  0.9297  0.0480
 5776SOL     OW17572   2.374   2.847   3.112 -0.1350 -0.0017  0.1644
 5776SOL    HW117573   2.399   2.755   3.113  0.1661  0.0759 -0.1697
 5776SOL    HW217574   2.291   2.849   3.065  0.3292  0.0095 -0.6808
 5777SOL     OW17575   3.384   1.111   6.005 -0.3874 -0.1210 -0.0559
 5777SOL    HW117576   3.430   1.144   6.082  0.0884 -0.5605 -0.1491
 5777SOL    HW217577   3.408   1.173   5.936 -0.4518  0.0168  0.0436
 5778SOL     OW17578   5.103   3.212   5.417 -0.1454 -0.1372  0.4738
 5778SOL    HW117579   5.090   3.224   5.323 -1.0545 -2.0149  0.3060
 5778SOL    HW217580   5.165   3.139   5.424 -1.6206 -1.4016  1.2597
 5779SOL     OW17581   1.278   1.510   6.026 -0.4279  0.1155  0.2309
 5779SOL    HW117582   1.198   1.530   6.074 -0.2240 -1.3938  1.2774
 5779SOL    HW217583   1.339   1.580   6.050 -0.9707  0.4712  0.5802
 5780SOL     OW17584   1.071   3.966   2.248  0.0742 -0.1901 -0.4473
 5780SOL    HW117585   1.074   3.897   2.182  0.7519 -1.3523  0.7617
 5780SOL    HW217586   1.086   4.047   2.198 -0.6089 -0.9040 -1.8653
 5781SOL     OW17587   1.118   2.550   2.739 -0.2285  0.5255  0.7342
 5781SOL    HW117588   1.068   2.492   2.681 -1.8091  1.8026  0.7754
 5781SOL    HW217589   1.153   2.617   2.681  0.2944  0.4199  0.9203
 5782SOL     OW17590   3.623   1.560   1.203  0.5308 -0.2633 -0.3197
 5782SOL    HW117591   3.664   1.502   1.267  1.7862 -0.5203 -1.3137
 5782SOL    HW217592   3.692   1.577   1.139 -0.1159  1.5258 -0.5898
 5783SOL     OW17593   0.789   0.399   5.704 -0.6667 -0.4179  0.4871
 5783SOL    HW117594   0.813   0.342   5.778 -1.2296 -0.0143  0.9913
 5783SOL    HW217595   0.846   0.371   5.633 -1.1898 -1.8776  0.6044
 5784SOL     OW17596   5.935   2.059   2.912 -0.1443  0.1015 -0.1973
 5784SOL    HW117597   5.984   2.064   2.830 -0.7498 -1.8247 -0.7249
 5784SOL    HW217598   5.876   2.134   2.909  1.6844  1.6258 -0.2253
 5785SOL     OW17599   1.762   2.579   3.641  0.2257 -0.1179  0.0197
 5785SOL    HW117600   1.740   2.501   3.591 -2.0336  0.8355 -0.5950
 5785SOL    HW217601   1.774   2.548   3.730  0.2786 -1.2843 -0.3800
 5786SOL     OW17602   0.651   4.223   0.515  0.2330  0.0754 -0.3521
 5786SOL    HW117603   0.692   4.307   0.497  3.4313 -1.5198 -1.2700
 5786SOL    HW217604   0.586   4.212   0.446 -0.6397  1.9449  0.1012
 5787SOL     OW17605   3.529   4.010   5.759 -0.0410  0.8415  0.2605
 5787SOL    HW117606   3.594   4.074   5.729  0.8410 -0.6152 -1.0950
 5787SOL    HW217607   3.452   4.025   5.704 -0.5106  1.8955  1.1757
 5788SOL     OW17608   3.544   2.494   3.259 -0.1127  0.0922 -0.0432
 5788SOL    HW117609   3.457   2.520   3.231 -1.2300 -1.6112  1.6381
 5788SOL    HW217610   3.547   2.514   3.352  1.1774 -0.2301  0.0062
 5789SOL     OW17611   2.294   0.546   4.503 -0.2716 -0.1048 -0.1101
 5789SOL    HW117612   2.246   0.509   4.576 -1.2838  0.6358 -0.3807
 5789SOL    HW217613   2.386   0.527   4.523 -0.6983 -2.4730 -0.1112
 5790SOL     OW17614   0.926   1.021   3.482 -0.1381 -0.1667 -0.2592
 5790SOL    HW117615   0.903   1.010   3.390 -0.0846 -0.5159 -0.2339
 5790SOL    HW217616   0.927   0.932   3.517  0.3611 -0.0801 -0.0462
 5791SOL     OW17617   0.692   0.358   0.643  0.7303  0.7778  0.1384
 5791SOL    HW117618   0.728   0.310   0.568  0.9920  0.8726  0.2059
 5791SOL    HW217619   0.608   0.314   0.661  0.5181  0.9492 -0.4055
 5792SOL     OW17620   2.982   2.803   0.366 -0.5216  0.4986  0.2056
 5792SOL    HW117621   2.918   2.863   0.404  0.0919  0.5334  1.2187
 5792SOL    HW217622   2.935   2.720   0.357 -1.0996  0.8763 -0.3368
 5793SOL     OW17623   0.727   3.236   4.944 -0.7942  0.1742 -0.3708
 5793SOL    HW117624   0.743   3.164   5.005  0.7272  1.3504  0.6905
 5793SOL    HW217625   0.736   3.196   4.857  1.4655 -0.6985  0.1849
 5794SOL     OW17626   5.651   1.332   3.588  0.0252  0.3816 -0.8892
 5794SOL    HW117627   5.556   1.339   3.581 -0.0896  0.9401  0.8769
 5794SOL    HW217628   5.680   1.416   3.623  0.9077 -0.5257  0.7055
 5795SOL     OW17629   4.035   2.686   0.759 -0.3542  0.2926 -0.2994
 5795SOL    HW117630   3.980   2.729   0.825 -1.9974 -0.6124 -1.0207
 5795SOL    HW217631   4.034   2.745   0.684  0.4548  0.7085  0.0012
 5796SOL     OW17632   0.194   4.580   4.997  0.0444 -0.2368 -0.2842
 5796SOL    HW117633   0.246   4.645   5.044  1.1102 -0.1326 -1.5371
 5796SOL    HW217634   0.234   4.577   4.910 -0.4621 -2.0360 -0.4795
 5797SOL     OW17635   6.018   2.596   2.851 -0.4671  0.4859  0.1801
 5797SOL    HW117636   6.052   2.560   2.770  0.2355  1.2094  0.1462
 5797SOL    HW217637   6.091   2.644   2.890 -0.5497 -0.5110  1.6429
 5798SOL     OW17638   2.555   4.142   0.553  0.4719 -0.0183  0.4613
 5798SOL    HW117639   2.522   4.059   0.519 -0.8300  1.1424 -1.2582
 5798SOL    HW217640   2.637   4.156   0.507 -0.8633  1.1280 -1.7065
 5799SOL     OW17641   4.460   1.866   5.039  0.3498 -1.0556 -0.0746
 5799SOL    HW117642   4.515   1.847   5.115 -1.3038 -0.6570  1.2731
 5799SOL    HW217643   4.409   1.787   5.025  0.8764 -1.2487 -1.0119
 5800SOL     OW17644   5.439   0.358   5.939  0.3734 -0.2614  0.0734
 5800SOL    HW117645   5.380   0.429   5.964  2.5229  0.5508  3.5022
 5800SOL    HW217646   5.475   0.385   5.855 -0.2504  1.8242  0.4164
 5801SOL     OW17647   2.765   0.753   2.633  0.0134  0.3130 -0.1993
 5801SOL    HW117648   2.789   0.844   2.620  0.5000  0.0386 -1.3836
 5801SOL    HW217649   2.707   0.732   2.560 -0.3430 -0.2375  0.2317
 5802SOL     OW17650   1.920   5.217   1.063  0.8342  0.4384  0.0172
 5802SOL    HW117651   1.967   5.221   1.146  2.8271 -0.6244 -0.9788
 5802SOL    HW217652   1.902   5.309   1.042 -0.3924  0.6771  1.9460
 5803SOL     OW17653   5.041   5.096   4.126  0.1127  0.2777 -0.2678
 5803SOL    HW117654   5.068   5.112   4.035  1.3551  2.6863  0.4339
 5803SOL    HW217655   5.105   5.144   4.178 -1.2630 -0.0702  1.8511
 5804SOL     OW17656   1.279   0.076   2.462  1.1107 -0.4717  0.4717
 5804SOL    HW117657   1.324   0.096   2.380  0.7082 -0.1136  0.3371
 5804SOL    HW217658   1.317   0.137   2.526  0.2095  0.4454  0.1630
 5805SOL     OW17659   3.071   4.561   1.278  0.4056 -0.6355  0.2771
 5805SOL    HW117660   3.044   4.581   1.367  0.2764  2.1779 -0.2965
 5805SOL    HW217661   3.004   4.602   1.223  1.9780  0.2644 -1.0938
 5806SOL     OW17662   2.547   4.549   1.727 -0.7590 -0.0268 -0.0999
 5806SOL    HW117663   2.551   4.605   1.650  0.3183  0.5696  0.3749
 5806SOL    HW217664   2.599   4.472   1.704 -0.1667  0.2970  0.1387
 5807SOL     OW17665   4.466   3.656   5.312  0.3809 -0.0573  0.0974
 5807SOL    HW117666   4.377   3.656   5.276 -0.4158  0.7901  1.9377
 5807SOL    HW217667   4.487   3.749   5.322  1.3772 -0.2550 -0.0596
 5808SOL     OW17668   6.041   1.025   5.220 -0.0556  0.1167  0.3519
 5808SOL    HW117669   6.130   1.051   5.195 -0.7718  2.9009  0.4879
 5808SOL    HW217670   6.037   1.040   5.314 -1.3465  2.3231 -0.0114
 5809SOL     OW17671   2.336   2.450   2.690 -0.5472 -0.0939 -0.5182
 5809SOL    HW117672   2.270   2.474   2.755  0.6294 -1.4972  1.3276
 5809SOL    HW217673   2.357   2.359   2.711  1.2437  0.0150 -1.6752
 5810SOL     OW17674   5.817   3.796   3.683 -0.1068  0.4991 -0.1292
 5810SOL    HW117675   5.753   3.733   3.716 -0.2343  0.2648 -0.8111
 5810SOL    HW217676   5.868   3.821   3.760  1.6057 -2.3142 -0.2001
 5811SOL     OW17677   0.632   3.027   3.412  0.0822 -0.5858  0.0570
 5811SOL    HW117678   0.556   3.012   3.357  1.1531 -0.9344 -1.3800
 5811SOL    HW217679   0.616   2.974   3.490 -2.5245  1.6703  1.2448
 5812SOL     OW17680   1.266   5.783   1.041 -0.2773  0.2301 -0.0316
 5812SOL    HW117681   1.335   5.804   0.977 -0.1215 -1.3119 -0.4133
 5812SOL    HW217682   1.196   5.744   0.989 -1.4943  1.7617  0.3580
 5813SOL     OW17683   2.574   1.425   2.719 -0.0824  0.7317  0.1342
 5813SOL    HW117684   2.624   1.378   2.652  0.0207  1.4072 -0.2608
 5813SOL    HW217685   2.518   1.357   2.758 -1.3951  0.6302 -1.7816
 5814SOL     OW17686   2.259   3.691   3.417  0.0727 -0.7303 -0.1985
 5814SOL    HW117687   2.341   3.653   3.450 -0.3418 -1.7735 -0.3568
 5814SOL    HW217688   2.195   3.620   3.422 -0.8785  0.1221  0.0840
 5815SOL     OW17689   3.436   4.784   2.510  0.0798  0.3762  0.1392
 5815SOL    HW117690   3.396   4.806   2.426 -0.4966  0.4620  0.4317
 5815SOL    HW217691   3.426   4.864   2.562  0.7472  0.4385  0.1766
 5816SOL     OW17692   4.901   0.982   5.959  0.4203  0.6775  0.2514
 5816SOL    HW117693   4.930   0.913   6.019  2.1797  0.0726 -1.1737
 5816SOL    HW217694   4.806   0.984   5.968  0.1802 -2.6468 -0.3053
 5817SOL     OW17695   2.749   4.120   5.857  0.4646 -0.3596  0.4531
 5817SOL    HW117696   2.769   4.175   5.781 -0.3347  1.6081  1.5911
 5817SOL    HW217697   2.823   4.134   5.916  0.0719 -0.2000  0.9101
 5818SOL     OW17698   4.148   2.826   5.553  0.2062 -0.4761 -0.2417
 5818SOL    HW117699   4.116   2.892   5.492  1.4499  0.3237 -0.0635
 5818SOL    HW217700   4.210   2.775   5.502  2.4076  1.1435  0.6796
 5819SOL     OW17701   0.379   0.543   5.346 -0.1919  0.6538  0.0636
 5819SOL    HW117702   0.362   0.635   5.323  1.5227  0.5672 -1.8553
 5819SOL    HW217703   0.474   0.533   5.336 -0.3325 -1.2914  0.3484
 5820SOL     OW17704   5.107   0.621   2.960  0.4834 -0.2914  0.1745
 5820SOL    HW117705   5.197   0.591   2.974 -0.0439 -1.6642  0.7229
 5820SOL    HW217706   5.056   0.541   2.950 -0.3688  0.4794 -2.3324
 5821SOL     OW17707   0.847   5.046   2.589 -0.2011 -0.5873  0.4745
 5821SOL    HW117708   0.758   5.029   2.620 -0.3801 -0.1432  0.2179
 5821SOL    HW217709   0.878   5.120   2.643 -1.1747  1.4158 -1.5326
 5822SOL     OW17710   5.401   1.860   5.949 -0.2140  0.2193 -0.9041
 5822SOL    HW117711   5.320   1.832   5.905  0.8512 -1.8653 -1.6453
 5822SOL    HW217712   5.454   1.781   5.955  1.1238  1.1767  1.0875
 5823SOL     OW17713   2.436   6.019   5.573  0.3990 -0.2364  0.4450
 5823SOL    HW117714   2.412   6.083   5.640  0.8837  0.4671 -0.0420
 5823SOL    HW217715   2.453   5.938   5.622 -1.0711 -0.2596  0.9860
 5824SOL     OW17716   0.543   5.491   0.840 -0.0082 -0.0751 -0.1207
 5824SOL    HW117717   0.617   5.474   0.899 -0.2645 -1.3140 -0.1163
 5824SOL    HW217718   0.555   5.428   0.768 -0.5887  0.2993 -0.5538
 5825SOL     OW17719   0.840   2.464   6.112  0.2625 -0.3847  0.3205
 5825SOL    HW117720   0.778   2.426   6.175  0.2420 -0.3944  0.2949
 5825SOL    HW217721   0.840   2.402   6.039 -0.3174  0.0285 -0.0394
 5826SOL     OW17722   4.342   2.799   3.239 -0.7546 -0.1239  0.0412
 5826SOL    HW117723   4.339   2.745   3.318 -0.6242 -0.2932 -0.0676
 5826SOL    HW217724   4.378   2.741   3.172 -2.3814 -0.5208 -0.5481
 5827SOL     OW17725   1.302   0.646   3.580 -0.3797  0.3717 -0.1475
 5827SOL    HW117726   1.278   0.566   3.534 -0.4642 -0.1664  0.8075
 5827SOL    HW217727   1.295   0.623   3.672 -1.6113  1.8346  0.1645
 5828SOL     OW17728   3.265   4.374   0.960  0.0660 -0.3582 -0.2544
 5828SOL    HW117729   3.175   4.364   0.992  0.1460  1.2829  0.5760
 5828SOL    HW217730   3.261   4.451   0.903  1.2503  0.7744  1.1281
 5829SOL     OW17731   5.745   5.588   2.673 -0.1520  0.3552 -0.3366
 5829SOL    HW117732   5.778   5.594   2.583  0.1583 -1.9430 -0.4203
 5829SOL    HW217733   5.661   5.634   2.671 -0.6194 -0.4877 -2.0689
 5830SOL     OW17734   0.972   4.935   2.392 -0.4238 -0.0203 -0.5891
 5830SOL    HW117735   0.943   4.974   2.474  1.2336 -0.6955  0.3598
 5830SOL    HW217736   0.984   5.010   2.333 -0.4439  0.5910  0.1707
 5831SOL     OW17737   5.689   4.232   1.743  0.4911 -0.0188 -0.0545
 5831SOL    HW117738   5.644   4.148   1.753  0.0151  0.2704  0.2468
 5831SOL    HW217739   5.619   4.295   1.725  0.8935  0.2365 -0.7790
 5832SOL     OW17740   2.757   5.799   2.161  0.3371  0.3550  0.7212
 5832SOL    HW117741   2.715   5.765   2.240  0.2301  0.6161  0.7766
 5832SOL    HW217742   2.765   5.723   2.104 -0.2618  0.3177  0.6849
 5833SOL     OW17743   2.986   3.771   2.566 -0.6463  0.2693 -0.2966
 5833SOL    HW117744   2.962   3.682   2.542 -0.2857 -0.0380  0.4396
 5833SOL    HW217745   3.081   3.768   2.578 -0.3842  1.1622 -1.9036
 5834SOL     OW17746   4.260   3.361   4.694 -0.5590  0.0036 -0.1209
 5834SOL    HW117747   4.342   3.394   4.730 -0.2629 -1.9363  1.1863
 5834SOL    HW217748   4.192   3.411   4.740 -0.1381 -1.2172  1.9446
 5835SOL     OW17749   2.357   1.648   3.603 -0.1884 -0.3823  0.2356
 5835SOL    HW117750   2.433   1.689   3.562 -1.1055 -0.1898 -1.3423
 5835SOL    HW217751   2.394   1.593   3.672  1.3878 -0.4481 -0.6177
 5836SOL     OW17752   3.418   4.708   0.339  0.0662  0.6432 -0.1667
 5836SOL    HW117753   3.335   4.677   0.375  0.0512  0.9963  0.1110
 5836SOL    HW217754   3.406   4.702   0.244  0.2329 -0.6060 -0.1236
 5837SOL     OW17755   1.762   0.014   1.775  0.2212 -0.4112  0.8186
 5837SOL    HW117756   1.836   0.003   1.835 -0.2300  0.3089  1.5164
 5837SOL    HW217757   1.763   0.107   1.751 -0.8035 -0.2681  1.2905
 5838SOL     OW17758   2.004   1.961   2.725  0.0886  0.0771 -0.0216
 5838SOL    HW117759   1.919   1.986   2.689 -0.4720  0.5223  1.5041
 5838SOL    HW217760   2.065   2.026   2.690 -0.2120 -0.1813 -1.0375
 5839SOL     OW17761   0.831   4.124   0.190 -0.3209  0.5258  0.1194
 5839SOL    HW117762   0.827   4.046   0.245 -0.3410  0.9263  0.6933
 5839SOL    HW217763   0.756   4.177   0.218 -0.5536  0.5638 -0.5585
 5840SOL     OW17764   3.059   2.966   5.263 -0.2684  0.0742 -0.6471
 5840SOL    HW117765   3.042   3.038   5.202 -2.8337 -0.8186 -1.1101
 5840SOL    HW217766   3.015   2.992   5.344  2.7726  1.0697  0.8367
 5841SOL     OW17767   4.274   6.117   1.617 -0.2716  0.1078 -0.0661
 5841SOL    HW117768   4.191   6.098   1.574 -0.1151 -1.1227  0.1473
 5841SOL    HW217769   4.292   6.209   1.597 -0.3033 -0.3650 -2.4432
 5842SOL     OW17770   1.193   4.539   2.307  0.3917  0.1920  0.0669
 5842SOL    HW117771   1.213   4.541   2.214 -1.2959  0.4289 -0.3223
 5842SOL    HW217772   1.193   4.631   2.334  1.2401  0.1041  0.4025
 5843SOL     OW17773   5.044   1.645   4.749 -0.0096  0.3211 -0.1387
 5843SOL    HW117774   5.043   1.738   4.771  1.6892  0.3482 -0.0904
 5843SOL    HW217775   4.971   1.608   4.799  0.4548  1.3019  1.3116
 5844SOL     OW17776   3.908   1.046   1.695  0.5976 -0.3527 -0.4998
 5844SOL    HW117777   3.863   0.963   1.678 -0.8720 -0.6875  3.7099
 5844SOL    HW217778   3.994   1.021   1.727  0.0008 -0.4177  1.1941
 5845SOL     OW17779   3.133   3.457   5.486 -0.4031 -0.2151  0.5112
 5845SOL    HW117780   3.143   3.481   5.578 -0.7558 -0.2572  0.5613
 5845SOL    HW217781   3.183   3.376   5.476  1.1333  0.7246  0.2482
 5846SOL     OW17782   5.370   3.538   2.787 -0.2739  0.5091 -0.2752
 5846SOL    HW117783   5.355   3.444   2.784 -1.8181  0.7324 -1.0641
 5846SOL    HW217784   5.380   3.559   2.880  1.5567 -0.6046 -0.1852
 5847SOL     OW17785   1.385   5.453   0.598  0.2307 -0.4206  0.0610
 5847SOL    HW117786   1.302   5.410   0.579  1.3309 -2.0784 -1.3178
 5847SOL    HW217787   1.450   5.384   0.589  1.8737  1.0497  0.0941
 5848SOL     OW17788   5.978   0.913   2.985  0.5447  0.0469 -0.4675
 5848SOL    HW117789   5.982   0.976   3.057 -0.5536 -1.8029  1.3216
 5848SOL    HW217790   5.895   0.866   2.998  1.1943 -1.6064 -1.8505
 5849SOL     OW17791   1.753   1.111   5.277  0.3969  0.0847 -0.4411
 5849SOL    HW117792   1.840   1.108   5.236  0.0302 -0.9814 -1.1833
 5849SOL    HW217793   1.749   1.032   5.331 -0.7593 -0.8648 -1.8366
 5850SOL     OW17794   5.912   5.934   0.434  0.2011  0.0803  0.5813
 5850SOL    HW117795   5.974   5.861   0.440 -1.0715 -1.1817 -0.8118
 5850SOL    HW217796   5.919   5.964   0.344 -0.4949  0.5886  0.6901
 5851SOL     OW17797   4.111   3.540   5.457  0.3800  0.2100 -0.5977
 5851SOL    HW117798   4.161   3.475   5.408  1.6236  0.1268  0.7316
 5851SOL    HW217799   4.158   3.549   5.540  0.1857  2.7253 -0.6940
 5852SOL     OW17800   3.151   4.772   6.010 -0.3919  0.1237  0.3208
 5852SOL    HW117801   3.193   4.782   6.095 -0.2178 -0.8441  0.3646
 5852SOL    HW217802   3.150   4.860   5.973  0.1206  0.4450  1.0491
 5853SOL     OW17803   0.061   0.991   4.671  0.1722 -0.5512  0.1242
 5853SOL    HW117804   0.074   1.011   4.579 -1.0272 -1.0259 -0.1725
 5853SOL    HW217805   0.133   1.036   4.716  1.0734 -0.7258 -1.0734
 5854SOL     OW17806   5.159   5.991   0.551 -0.0197  0.2872 -0.0635
 5854SOL    HW117807   5.225   5.926   0.576 -0.0941  1.2476  3.0309
 5854SOL    HW217808   5.087   5.939   0.515  1.0620 -1.0617 -0.3648
 5855SOL     OW17809   0.169   4.289   4.880  0.4728  0.4891  0.7224
 5855SOL    HW117810   0.194   4.214   4.934 -0.5021 -0.3621  0.0459
 5855SOL    HW217811   0.087   4.320   4.919  0.2973  0.5115  0.3402
 5856SOL     OW17812   1.983   0.442   3.651  0.3642  0.3112 -0.1688
 5856SOL    HW117813   2.003   0.471   3.562 -0.0986  0.5739 -0.1899
 5856SOL    HW217814   1.987   0.346   3.646  0.4911  0.3298 -0.4377
 5857SOL     OW17815   3.787   3.441   0.030  1.0209  0.1840  0.5225
 5857SOL    HW117816   3.749   3.515  -0.017 -0.7383  0.1853  1.8396
 5857SOL    HW217817   3.766   3.365  -0.024  0.1721  0.3230  0.6464
 5858SOL     OW17818   1.683   5.242   3.652 -0.0647 -0.5020 -0.4898
 5858SOL    HW117819   1.663   5.184   3.726 -1.7265  0.0545 -0.4726
 5858SOL    HW217820   1.767   5.210   3.619  0.6953 -0.8148  1.5847
 5859SOL     OW17821   0.787   0.311   3.942 -0.6752  0.4307  0.0890
 5859SOL    HW117822   0.700   0.321   3.904 -0.6266  0.8268  0.0722
 5859SOL    HW217823   0.836   0.385   3.908 -1.0097  1.6039  1.9754
 5860SOL     OW17824   3.179   0.061   2.568  0.0359  0.4005 -0.4696
 5860SOL    HW117825   3.196  -0.009   2.630 -1.3301 -0.6411 -1.2168
 5860SOL    HW217826   3.265   0.097   2.548  0.7883 -1.1948 -0.2211
 5861SOL     OW17827   4.420   5.931   1.495 -0.0328  0.7912 -0.4020
 5861SOL    HW117828   4.375   5.951   1.577  1.0086  2.1859 -0.1376
 5861SOL    HW217829   4.433   6.016   1.454  0.6528  0.2289 -1.3882
 5862SOL     OW17830   1.259   2.326   1.659 -0.0040 -0.8902  0.2006
 5862SOL    HW117831   1.201   2.252   1.675  1.1776 -2.0120 -0.5028
 5862SOL    HW217832   1.252   2.343   1.565  2.0142 -2.1479 -0.2327
 5863SOL     OW17833   2.050   1.586   4.795  0.0647 -0.0816 -0.2288
 5863SOL    HW117834   2.093   1.500   4.795 -0.9498 -0.6063 -0.3764
 5863SOL    HW217835   2.116   1.646   4.829  1.4829 -0.5602 -2.0285
 5864SOL     OW17836   6.091   5.226   5.011 -0.1697  0.3870  0.0898
 5864SOL    HW117837   6.085   5.282   4.934  0.8416  0.5955  0.1457
 5864SOL    HW217838   6.146   5.153   4.983  0.6454  0.7313  0.7486
 5865SOL     OW17839   4.345   5.135   3.720 -0.0577 -0.1191 -0.5741
 5865SOL    HW117840   4.430   5.166   3.753 -0.7658  0.0388  1.1758
 5865SOL    HW217841   4.307   5.211   3.676  0.5389 -0.0959 -1.0717
 5866SOL     OW17842   0.849   2.627   2.479  0.1534 -0.1154  0.3096
 5866SOL    HW117843   0.866   2.650   2.388 -0.3216  0.2107  0.2969
 5866SOL    HW217844   0.920   2.569   2.503 -1.8841 -3.7075 -1.5407
 5867SOL     OW17845   3.093   5.345   2.168 -0.5095  0.3014  0.0702
 5867SOL    HW117846   3.168   5.306   2.125  0.1522  0.7583  0.7781
 5867SOL    HW217847   3.098   5.438   2.147  0.9597  0.9155  2.6109
 5868SOL     OW17848   5.886   3.701   4.163  0.4090  0.8483  0.2049
 5868SOL    HW117849   5.792   3.719   4.154 -0.5017 -2.9306  0.4549
 5868SOL    HW217850   5.927   3.749   4.091 -1.6921  2.4353 -0.0317
 5869SOL     OW17851   2.618   0.867   3.947 -0.2512 -0.0630 -0.6909
 5869SOL    HW117852   2.661   0.872   4.033 -1.0413  1.5395 -0.3452
 5869SOL    HW217853   2.667   0.800   3.899  0.1292 -1.0904  1.0468
 5870SOL     OW17854   2.275   1.963   2.349 -0.0715  0.1442  0.2116
 5870SOL    HW117855   2.283   1.868   2.358  1.4699  0.2371  0.1386
 5870SOL    HW217856   2.284   1.997   2.438  0.1313  0.2535  0.1509
 5871SOL     OW17857   5.911   0.088   0.578 -0.7565 -0.0211 -0.7449
 5871SOL    HW117858   5.917  -0.007   0.593 -0.4751  0.0931 -0.0961
 5871SOL    HW217859   5.844   0.097   0.511 -0.4206 -0.7143 -1.1910
 5872SOL     OW17860   0.971   0.378   2.076 -0.4475  0.0912  0.1724
 5872SOL    HW117861   0.988   0.285   2.061 -0.5815  0.4154 -2.4485
 5872SOL    HW217862   1.053   0.412   2.113  0.6076 -0.5807 -1.4292
 5873SOL     OW17863   0.883   3.289   0.062  0.0176  0.4338  0.0862
 5873SOL    HW117864   0.838   3.269   0.144  0.1332 -1.1376 -0.1890
 5873SOL    HW217865   0.813   3.294  -0.003  0.0576  0.0340  0.0089
 5874SOL     OW17866   0.991   3.261   3.420 -0.0218 -0.2307  0.1988
 5874SOL    HW117867   0.958   3.193   3.360 -0.0126  0.6509 -0.8348
 5874SOL    HW217868   1.076   3.285   3.383 -0.1313  0.5122  0.4179
 5875SOL     OW17869   1.061   0.449   0.697  0.3214 -0.6584  0.3939
 5875SOL    HW117870   1.121   0.523   0.698 -1.8006  1.1763 -0.3426
 5875SOL    HW217871   1.074   0.409   0.611 -0.5575  0.6923 -0.4005
 5876SOL     OW17872   0.715   3.673   5.894  0.2769 -0.1933  0.4910
 5876SOL    HW117873   0.731   3.766   5.913  2.7446 -0.5939  0.6309
 5876SOL    HW217874   0.721   3.630   5.979 -1.8109 -0.4472  0.5817
 5877SOL     OW17875   0.611   3.392   5.903 -0.1061 -0.8271 -0.1717
 5877SOL    HW117876   0.569   3.309   5.923 -1.2940 -0.0763  0.5955
 5877SOL    HW217877   0.552   3.458   5.940  0.8321  0.3523 -0.7135
 5878SOL     OW17878   2.454   3.766   5.211  0.1747 -0.3851 -0.0133
 5878SOL    HW117879   2.455   3.755   5.116 -3.5073  2.2772 -0.5724
 5878SOL    HW217880   2.460   3.677   5.245  1.1735 -1.4591 -2.7231
 5879SOL     OW17881   4.706   0.407   1.079  0.0122 -0.1773  0.2834
 5879SOL    HW117882   4.799   0.430   1.077  0.1161 -0.5510  0.7036
 5879SOL    HW217883   4.688   0.369   0.993  0.8332 -2.3288  0.9928
 5880SOL     OW17884   3.279   4.085   1.218  0.1939  0.1827  0.1803
 5880SOL    HW117885   3.317   4.100   1.304  0.1995 -0.1797  0.2418
 5880SOL    HW217886   3.349   4.109   1.157  0.6723 -0.8639  0.2995
 5881SOL     OW17887   1.521   1.580   1.985  0.0956 -0.2570 -0.5341
 5881SOL    HW117888   1.593   1.530   2.024 -0.7355  0.3842  2.0261
 5881SOL    HW217889   1.502   1.648   2.049 -1.8843  0.4477 -1.7915
 5882SOL     OW17890   5.037   5.281   0.689 -0.1445  0.3482  0.6049
 5882SOL    HW117891   5.094   5.332   0.746 -1.7431  2.0016  0.8201
 5882SOL    HW217892   5.027   5.334   0.610  1.3614 -1.5234 -0.9549
 5883SOL     OW17893   0.087   1.051   0.905  0.3536 -0.4596  0.2644
 5883SOL    HW117894   0.057   1.080   0.819  1.6979  0.1544 -0.0164
 5883SOL    HW217895   0.159   0.991   0.887  1.1313  0.2430  0.9611
 5884SOL     OW17896   1.959   2.745   3.494  0.1975 -0.4265 -1.3511
 5884SOL    HW117897   1.883   2.718   3.546 -0.3525 -0.3070 -2.0805
 5884SOL    HW217898   2.030   2.754   3.558 -0.3752 -0.6381 -0.6763
 5885SOL     OW17899   2.298   5.214   5.335 -0.3586 -0.4117  0.0395
 5885SOL    HW117900   2.292   5.309   5.332 -1.7024 -0.4864 -0.2840
 5885SOL    HW217901   2.363   5.192   5.267 -0.2163  0.2538 -0.0455
 5886SOL     OW17902   3.502   2.627   3.498 -0.1721 -0.0897 -0.0100
 5886SOL    HW117903   3.512   2.634   3.593  0.2630 -2.4062  0.1915
 5886SOL    HW217904   3.418   2.668   3.479 -0.4293  0.0981  1.4278
 5887SOL     OW17905   5.889   2.147   5.122  0.0942 -0.1865  0.1574
 5887SOL    HW117906   5.913   2.069   5.072 -0.9296 -0.6384  0.3561
 5887SOL    HW217907   5.904   2.219   5.061  2.3040 -0.3693  0.3787
 5888SOL     OW17908   2.682   5.072   2.902 -0.1249 -0.6622 -0.1213
 5888SOL    HW117909   2.735   4.993   2.898 -0.0750 -0.6314 -0.0679
 5888SOL    HW217910   2.724   5.126   2.968 -0.2714 -0.6734 -0.0174
 5889SOL     OW17911   3.378   2.454   6.094  0.2483 -0.1002  0.1570
 5889SOL    HW117912   3.358   2.362   6.109  0.5624  0.0401  1.5772
 5889SOL    HW217913   3.422   2.456   6.009 -1.4299 -1.0068 -0.7822
 5890SOL     OW17914   3.060   0.022   5.897 -0.3620 -0.0518 -0.2164
 5890SOL    HW117915   3.007   0.071   5.960 -1.6175  0.7212 -1.7918
 5890SOL    HW217916   3.150   0.048   5.916 -0.7116  0.2412  1.1537
 5891SOL     OW17917   0.277   1.159   0.344 -0.5693  0.2197  0.1690
 5891SOL    HW117918   0.189   1.123   0.356 -0.0880 -0.0863  4.1032
 5891SOL    HW217919   0.336   1.085   0.362  0.5830  0.4955 -2.0729
 5892SOL     OW17920   4.431   1.003   4.091 -0.2169  0.2295 -0.2754
 5892SOL    HW117921   4.485   1.074   4.126 -0.8575  0.9897 -0.7946
 5892SOL    HW217922   4.344   1.041   4.083 -0.5892 -0.6463 -0.4878
 5893SOL     OW17923   1.756   1.899   5.298  0.2648 -0.5658 -0.6761
 5893SOL    HW117924   1.799   1.848   5.229 -1.3919 -0.6548 -1.6979
 5893SOL    HW217925   1.688   1.841   5.331  0.7711 -0.3699  0.7978
 5894SOL     OW17926   1.890   2.605   2.392  0.5379 -0.1278  0.4198
 5894SOL    HW117927   1.954   2.579   2.458  1.0652 -0.8615 -0.3640
 5894SOL    HW217928   1.865   2.524   2.349  1.9882  0.5324 -1.8830
 5895SOL     OW17929   1.758   1.794   1.699  0.8255 -0.3875  0.2216
 5895SOL    HW117930   1.791   1.881   1.679 -0.0062 -0.1441 -0.1406
 5895SOL    HW217931   1.754   1.790   1.794  1.2325 -0.1775  0.2491
 5896SOL     OW17932   4.118   5.242   3.294  0.1636 -0.4545  0.7688
 5896SOL    HW117933   4.199   5.211   3.334  0.1589  0.0832  1.2094
 5896SOL    HW217934   4.114   5.197   3.210  0.4463 -1.1878  1.1422
 5897SOL     OW17935   2.245   5.201   1.797 -0.0820  0.1442 -0.3082
 5897SOL    HW117936   2.153   5.175   1.793 -0.4050  0.7054  2.0080
 5897SOL    HW217937   2.279   5.158   1.875  1.3991  0.6659 -0.6255
 5898SOL     OW17938   3.941   5.702   0.777  0.1179  0.0498  0.0408
 5898SOL    HW117939   4.000   5.747   0.837  0.0132  0.1901  0.0412
 5898SOL    HW217940   3.911   5.625   0.824 -0.0941  0.2468  0.2339
 5899SOL     OW17941   1.561   3.761   4.115 -0.0095  0.0333  0.4257
 5899SOL    HW117942   1.503   3.685   4.125 -1.3874  1.0580  0.4614
 5899SOL    HW217943   1.626   3.733   4.051  1.7807 -2.4622  3.0421
 5900SOL     OW17944   0.831   3.043   3.964  0.2996 -0.0919 -0.2133
 5900SOL    HW117945   0.872   3.092   3.892 -0.3977  0.6021 -0.1400
 5900SOL    HW217946   0.877   3.073   4.042 -0.0203  0.3313 -0.1864
 5901SOL     OW17947   6.131   2.556   4.516 -1.4938  1.0911 -0.0156
 5901SOL    HW117948   6.099   2.513   4.437 -1.6088 -0.3475  0.7714
 5901SOL    HW217949   6.190   2.491   4.556 -1.0799  1.9638  0.8351
 5902SOL     OW17950   1.348   3.750   2.237  0.2653  0.4194 -0.9807
 5902SOL    HW117951   1.291   3.693   2.288  0.9366  0.1952 -0.4619
 5902SOL    HW217952   1.291   3.820   2.205 -0.2285  0.3678 -0.2179
 5903SOL     OW17953   3.131   3.365   6.034 -0.3331  0.3798 -0.0094
 5903SOL    HW117954   3.213   3.414   6.031  0.2186 -0.5562 -0.6703
 5903SOL    HW217955   3.126   3.320   5.950 -1.4447  0.2903  0.0847
 5904SOL     OW17956   0.047   5.129   5.796 -0.3024 -0.2224  0.7473
 5904SOL    HW117957   0.101   5.068   5.746  0.3969  0.5963  0.4800
 5904SOL    HW217958   0.109   5.194   5.829 -0.8762 -0.2473  1.9491
 5905SOL     OW17959   4.539   1.007   3.788 -0.4119  0.7244  0.0044
 5905SOL    HW117960   4.501   1.066   3.852 -1.2890  1.3161 -1.0422
 5905SOL    HW217961   4.604   0.956   3.838 -0.1060  2.1000  1.0513
 5906SOL     OW17962   5.296   0.351   1.311 -0.1054  0.6827 -0.8534
 5906SOL    HW117963   5.224   0.400   1.270  0.4840  2.8339  0.5163
 5906SOL    HW217964   5.297   0.382   1.402  0.2207 -2.0817  0.1981
 5907SOL     OW17965   2.397   5.601   4.061 -0.2282 -0.2532 -0.4310
 5907SOL    HW117966   2.308   5.574   4.041 -1.1369  0.4701  2.2106
 5907SOL    HW217967   2.387   5.668   4.129  2.3436 -0.6818  0.4793
 5908SOL     OW17968   1.912   6.085   1.044  0.4140 -0.2089 -0.1874
 5908SOL    HW117969   1.946   6.000   1.014 -0.6113 -1.1252  1.0818
 5908SOL    HW217970   1.958   6.101   1.127 -0.2155 -0.1057  0.1503
 5909SOL     OW17971   3.218   4.211   5.657  0.1204 -0.1005 -0.6964
 5909SOL    HW117972   3.202   4.134   5.602 -1.1451  0.7592 -1.5691
 5909SOL    HW217973   3.310   4.233   5.639  0.5678 -1.4850 -0.2875
 5910SOL     OW17974   1.459   4.859   3.857  0.1618  0.3110  0.0458
 5910SOL    HW117975   1.497   4.837   3.942 -0.6370 -0.9032  0.1122
 5910SOL    HW217976   1.467   4.955   3.851  1.2473  0.2995  0.9748
 5911SOL     OW17977   0.404   5.107   2.954 -0.5710  0.6127 -0.2842
 5911SOL    HW117978   0.416   5.027   2.904 -2.5037  0.5698 -0.7602
 5911SOL    HW217979   0.428   5.177   2.894 -0.1521  0.4491 -0.3089
 5912SOL     OW17980   5.829   5.561   0.349 -0.1773  0.3327 -0.2912
 5912SOL    HW117981   5.882   5.485   0.322  0.2545  1.1914 -2.0288
 5912SOL    HW217982   5.866   5.588   0.432  0.9250 -0.2141 -0.5847
 5913SOL     OW17983   4.426   0.934   3.549  0.3577 -0.0437 -0.0254
 5913SOL    HW117984   4.436   0.969   3.638  1.1489  0.4930 -0.3109
 5913SOL    HW217985   4.415   1.012   3.494  1.5093 -0.2544 -0.5892
 5914SOL     OW17986   0.574   5.506   5.987  0.1089  0.4364  0.8848
 5914SOL    HW117987   0.646   5.506   5.923 -1.7540 -0.6864 -1.3843
 5914SOL    HW217988   0.579   5.420   6.029  0.4130  0.5823  1.1544
 5915SOL     OW17989   3.645   5.554   1.384  0.6831  0.0705  0.5821
 5915SOL    HW117990   3.637   5.645   1.413  0.6329  0.4507 -0.5852
 5915SOL    HW217991   3.683   5.508   1.459 -1.5010  0.5661  2.0835
 5916SOL     OW17992   1.557   5.207   0.838  0.0313 -0.1158 -0.1652
 5916SOL    HW117993   1.633   5.265   0.848 -0.0803  0.3024 -1.5348
 5916SOL    HW217994   1.558   5.182   0.746 -0.0209 -2.1982  0.3607
 5917SOL     OW17995   4.337   5.702   0.839  0.3644  0.1451  0.4765
 5917SOL    HW117996   4.378   5.715   0.925  1.1682 -0.1729  0.1480
 5917SOL    HW217997   4.246   5.731   0.852  0.5844  0.5062  1.3163
 5918SOL     OW17998   5.731   0.927   2.442  0.0084 -0.2768  0.3918
 5918SOL    HW117999   5.745   0.832   2.433  3.7328  0.1283  0.3176
 5918SOL    HW218000   5.733   0.942   2.537  1.1285 -0.1473  0.3661
 5919SOL     OW18001   2.319   2.073   2.968 -0.1209 -0.2718 -0.1481
 5919SOL    HW118002   2.354   2.011   3.033 -0.5304 -0.6395 -0.2650
 5919SOL    HW218003   2.295   2.150   3.019 -2.3326 -1.3037  0.5158
 5920SOL     OW18004   0.967   4.130   5.670  0.1608  0.0672 -0.1208
 5920SOL    HW118005   0.991   4.037   5.667 -1.2033 -0.2865 -1.5176
 5920SOL    HW218006   0.924   4.140   5.755  1.0115 -0.3762  0.3779
 5921SOL     OW18007   0.087   3.329   5.227 -0.2746  0.3637  0.4562
 5921SOL    HW118008   0.169   3.314   5.181 -1.7613 -0.6120 -2.0426
 5921SOL    HW218009   0.026   3.358   5.159 -1.9293  1.5257  2.3051
 5922SOL     OW18010   5.198   2.253   2.269  0.7826  0.0491  0.0111
 5922SOL    HW118011   5.283   2.296   2.274  1.2745 -0.4086 -2.7903
 5922SOL    HW218012   5.217   2.166   2.236 -0.4270 -1.7194  3.4762
 5923SOL     OW18013   4.310   3.479   0.313  0.1492  0.5902 -0.0439
 5923SOL    HW118014   4.302   3.569   0.281  0.1348  1.0402  1.1830
 5923SOL    HW218015   4.405   3.464   0.317  0.3566  1.9681  3.4158
 5924SOL     OW18016   0.324   1.636   5.450 -0.6657 -0.5076  0.3764
 5924SOL    HW118017   0.354   1.726   5.466  1.1462 -0.5762 -2.0616
 5924SOL    HW218018   0.237   1.632   5.490 -0.1568  1.8389  1.8895
 5925SOL     OW18019   4.802   1.855   5.849  0.1742 -0.5935  0.0143
 5925SOL    HW118020   4.776   1.816   5.765 -0.4533 -0.6998  0.2490
 5925SOL    HW218021   4.836   1.782   5.900  0.4519 -0.5491 -0.1062
 5926SOL     OW18022   0.104   3.815   0.646 -0.4609  0.2686 -0.4287
 5926SOL    HW118023   0.121   3.909   0.653 -0.3788  0.3530 -1.5196
 5926SOL    HW218024   0.150   3.777   0.720  0.5814  0.9744 -0.6813
 5927SOL     OW18025   1.269   0.295   3.674 -0.3271  0.1547 -0.2050
 5927SOL    HW118026   1.267   0.370   3.733 -0.5457  0.9713 -1.2176
 5927SOL    HW218027   1.277   0.334   3.587 -0.4755 -1.0025 -0.7492
 5928SOL     OW18028   3.101   3.024   2.729 -0.7663  0.0737  0.0991
 5928SOL    HW118029   3.134   2.941   2.764 -0.8723  0.6923  1.7682
 5928SOL    HW218030   3.118   3.019   2.635  0.5248 -1.2431  0.3626
 5929SOL     OW18031   0.387   5.839   2.936 -0.5616  0.0423 -0.4760
 5929SOL    HW118032   0.360   5.868   3.023  1.1098  0.8548 -0.1738
 5929SOL    HW218033   0.434   5.757   2.952 -0.1536  0.2503 -0.5906
 5930SOL     OW18034   5.217   5.004   3.406 -0.2975 -0.0008 -0.1881
 5930SOL    HW118035   5.271   5.049   3.342  1.1112 -3.0098 -1.3058
 5930SOL    HW218036   5.264   5.013   3.489  1.4987 -1.6421 -0.9401
 5931SOL     OW18037   4.608   0.102   0.108 -0.3905  0.0989 -0.7356
 5931SOL    HW118038   4.687   0.055   0.082 -0.7059  0.4190 -2.3883
 5931SOL    HW218039   4.548   0.091   0.034 -1.7195  0.2776  0.2739
 5932SOL     OW18040   1.876   1.919   2.193 -0.0126  0.7790  0.5123
 5932SOL    HW118041   1.808   1.971   2.150 -1.2274  0.4563  1.9869
 5932SOL    HW218042   1.867   1.938   2.286  3.0167  2.0024  0.6805
 5933SOL     OW18043   0.657   0.762   4.347  0.6628 -0.2700 -0.1121
 5933SOL    HW118044   0.563   0.760   4.330  0.6276 -0.4966  0.0920
 5933SOL    HW218045   0.697   0.743   4.262  0.5032 -0.8949 -0.0556
 5934SOL     OW18046   2.422   3.241   4.578  0.2662 -0.0206  0.1961
 5934SOL    HW118047   2.339   3.221   4.623  0.1703 -4.2761 -1.4402
 5934SOL    HW218048   2.489   3.227   4.645 -0.1681  0.7699  0.8163
 5935SOL     OW18049   5.876   5.527   4.997 -0.1850 -0.3352  0.4372
 5935SOL    HW118050   5.921   5.570   5.069  1.9192  0.1319 -1.0812
 5935SOL    HW218051   5.803   5.585   4.976 -0.8076 -0.4578  2.1191
 5936SOL     OW18052   2.864   5.167   1.044  0.4380 -0.4280  0.5037
 5936SOL    HW118053   2.833   5.077   1.040 -0.8287  0.0265 -1.0495
 5936SOL    HW218054   2.958   5.159   1.063  0.4208 -2.0924  0.0562
 5937SOL     OW18055   4.763   1.633   5.107 -0.0329  0.2704 -0.3827
 5937SOL    HW118056   4.855   1.645   5.130  0.2880  1.9796 -2.3294
 5937SOL    HW218057   4.764   1.602   5.017 -1.3284 -3.2170  0.6346
 5938SOL     OW18058   5.635   4.922   3.896 -0.2584 -0.2944 -0.0226
 5938SOL    HW118059   5.662   4.855   3.833  1.8969  1.1231 -0.7067
 5938SOL    HW218060   5.593   4.990   3.842  0.2091  0.2296  0.2634
 5939SOL     OW18061   5.750   4.275   4.059  0.0124 -0.3521 -0.4554
 5939SOL    HW118062   5.785   4.229   3.982  0.7856 -0.8573  0.1863
 5939SOL    HW218063   5.822   4.277   4.121 -0.2689  1.0273 -0.1455
 5940SOL     OW18064   5.182   5.766   2.757  0.1839 -0.1049  0.0986
 5940SOL    HW118065   5.230   5.685   2.737  0.5858 -0.1394  1.1429
 5940SOL    HW218066   5.247   5.823   2.798 -0.2784  0.4733  0.0443
 5941SOL     OW18067   3.928   2.668   4.065 -0.5588 -0.2360 -0.0549
 5941SOL    HW118068   3.849   2.719   4.076 -1.0109 -1.0386  0.4981
 5941SOL    HW218069   3.901   2.577   4.078  0.2240 -0.6319 -0.9968
 5942SOL     OW18070   0.719   5.134   0.761 -0.0108  0.0943 -0.4221
 5942SOL    HW118071   0.639   5.136   0.815  0.6645 -1.5172  0.7056
 5942SOL    HW218072   0.737   5.041   0.749  1.7315  0.4344 -0.6277
 5943SOL     OW18073   5.132   5.065   0.900  0.5609 -0.1307  0.7781
 5943SOL    HW118074   5.096   4.983   0.867  0.1469  0.5811 -0.6059
 5943SOL    HW218075   5.096   5.132   0.842  2.8994  0.7865  0.2981
 5944SOL     OW18076   3.406   5.184   0.518  0.1679 -0.4108  0.5155
 5944SOL    HW118077   3.318   5.146   0.520 -0.3386  0.6352 -0.4205
 5944SOL    HW218078   3.390   5.278   0.508  1.4064 -0.3517 -1.3094
 5945SOL     OW18079   4.823   4.374   5.681  0.2810  0.5385  0.4827
 5945SOL    HW118080   4.869   4.298   5.716 -1.4751  0.0270  1.8854
 5945SOL    HW218081   4.892   4.438   5.663  1.8931 -1.5810 -1.4487
 5946SOL     OW18082   0.531   4.462   2.443  0.4780  0.2128 -0.4430
 5946SOL    HW118083   0.470   4.487   2.514  1.5265  0.2470  0.4757
 5946SOL    HW218084   0.523   4.533   2.379 -1.4105 -0.4390 -0.9852
 5947SOL     OW18085   3.814   3.749   6.069 -0.3477 -0.1129  0.2421
 5947SOL    HW118086   3.828   3.844   6.073  0.8227 -0.2690  0.1595
 5947SOL    HW218087   3.755   3.737   5.995  0.8159  0.4384 -0.8271
 5948SOL     OW18088   4.614   2.351   5.457 -0.2916  0.3482  0.5638
 5948SOL    HW118089   4.531   2.347   5.505 -0.3925  3.5287  0.8871
 5948SOL    HW218090   4.634   2.445   5.452  2.7571 -0.2524 -0.4606
 5949SOL     OW18091   0.309   2.132   3.877  0.1825  0.0672 -0.4494
 5949SOL    HW118092   0.361   2.076   3.936 -0.8158  0.4359  0.8461
 5949SOL    HW218093   0.260   2.071   3.822  1.3806 -0.2836 -1.1519
 5950SOL     OW18094   2.176   1.285   4.379 -0.4472 -0.0483 -0.1799
 5950SOL    HW118095   2.233   1.209   4.395 -0.8259 -0.0566  1.3451
 5950SOL    HW218096   2.155   1.281   4.286  0.6642 -1.0188 -0.4095
 5951SOL     OW18097   4.109   1.349   3.478 -0.2440  0.4738  0.1407
 5951SOL    HW118098   4.199   1.325   3.499 -0.5602  0.0617  1.0818
 5951SOL    HW218099   4.067   1.267   3.453 -1.1987  0.0168  2.8890
 5952SOL     OW18100   4.879   1.810   2.655  0.4831 -0.6095  0.2006
 5952SOL    HW118101   4.901   1.860   2.576  0.5549 -0.4309  0.3337
 5952SOL    HW218102   4.909   1.721   2.636  0.9675 -0.4541  0.2280
 5953SOL     OW18103   1.901   2.927   3.293  0.4556 -0.1197 -0.3189
 5953SOL    HW118104   1.946   2.862   3.348 -0.8063  1.4508  2.7874
 5953SOL    HW218105   1.812   2.892   3.283  0.3553  0.1472 -0.3661
 5954SOL     OW18106   4.238   2.933   1.049  0.2185 -0.4442  0.3440
 5954SOL    HW118107   4.222   2.839   1.049  2.0608 -0.7992  0.0750
 5954SOL    HW218108   4.333   2.941   1.055  0.0501  1.4224  1.2046
 5955SOL     OW18109   2.831   5.485   2.527  0.4499 -0.3978 -0.2612
 5955SOL    HW118110   2.792   5.418   2.470 -2.7865  1.3679 -0.3799
 5955SOL    HW218111   2.878   5.543   2.466 -0.1806 -0.3377 -0.6988
 5956SOL     OW18112   3.570   4.557   1.821  0.2755 -0.3959 -0.1829
 5956SOL    HW118113   3.502   4.526   1.762 -0.6610  0.9026  0.1469
 5956SOL    HW218114   3.606   4.634   1.778 -1.1191  1.1871  1.2945
 5957SOL     OW18115   3.094   2.564   5.336  0.2419 -0.0129  0.3891
 5957SOL    HW118116   3.041   2.544   5.413  1.0244  0.1397  0.9811
 5957SOL    HW218117   3.177   2.596   5.371  0.7811 -0.3687 -0.5155
 5958SOL     OW18118   2.799   0.521   3.066  0.0457  0.1531 -0.0306
 5958SOL    HW118119   2.726   0.541   3.125  1.0188  0.4496  1.1155
 5958SOL    HW218120   2.876   0.520   3.123  0.7649 -1.5780 -0.9618
 5959SOL     OW18121   3.777   2.990   4.744  0.1477 -0.6672  0.2195
 5959SOL    HW118122   3.855   2.963   4.792 -0.7982  0.2297  2.4194
 5959SOL    HW218123   3.766   3.083   4.767  0.3742  0.2119 -2.8785
 5960SOL     OW18124   3.935   1.221   4.958 -0.6256 -0.7770  0.2434
 5960SOL    HW118125   3.931   1.232   4.863 -1.8682  1.1894  0.4559
 5960SOL    HW218126   4.025   1.193   4.975 -0.1557 -0.4413 -1.4445
 5961SOL     OW18127   2.023   4.549   1.278  0.0216 -0.4367  0.3454
 5961SOL    HW118128   2.024   4.456   1.254 -0.4887 -0.3692  0.0551
 5961SOL    HW218129   1.967   4.553   1.356  0.2176 -0.4000  0.4857
 5962SOL     OW18130   1.441   0.457   5.914  0.5470  0.6294  0.4492
 5962SOL    HW118131   1.533   0.433   5.902  0.4791  0.7192 -0.2784
 5962SOL    HW218132   1.397   0.428   5.834 -0.0125  0.8156  0.6789
 5963SOL     OW18133   4.050   5.772   4.173 -0.4725 -0.2007 -0.0364
 5963SOL    HW118134   4.133   5.726   4.156 -0.3988 -0.6138  1.3463
 5963SOL    HW218135   4.076   5.861   4.196 -0.5949  0.4926 -2.3174
 5964SOL     OW18136   4.928   5.637   0.952  0.6099  0.4846  0.0614
 5964SOL    HW118137   4.871   5.646   1.028 -1.2363  1.6715 -1.3939
 5964SOL    HW218138   4.906   5.551   0.916  0.6666  0.4074  0.2084
 5965SOL     OW18139   2.997   5.909   5.608  0.3438 -0.5388 -0.2475
 5965SOL    HW118140   2.935   5.898   5.535  0.8530 -0.6357 -0.6754
 5965SOL    HW218141   2.946   5.951   5.677 -1.0242 -3.2548  0.5264
 5966SOL     OW18142   2.639   5.437   4.051 -0.1951  0.0827  0.3395
 5966SOL    HW118143   2.690   5.501   4.001 -3.0740  0.3714 -2.6160
 5966SOL    HW218144   2.567   5.488   4.088 -0.2956 -0.8393  1.4698
 5967SOL     OW18145   0.479   3.373   0.092 -0.4537  0.3489  0.1817
 5967SOL    HW118146   0.386   3.358   0.076 -0.7385  0.2188  1.7748
 5967SOL    HW218147   0.523   3.297   0.054 -0.9365  0.6051 -0.9392
 5968SOL     OW18148   4.417   4.517   3.705 -0.4561  0.3271  0.1478
 5968SOL    HW118149   4.365   4.477   3.776  0.8129 -1.2827  0.2261
 5968SOL    HW218150   4.482   4.570   3.750 -0.4395  0.3036  0.1519
 5969SOL     OW18151   0.942   5.938   2.316 -0.1128 -0.1083 -0.0973
 5969SOL    HW118152   0.887   5.936   2.238  0.7960 -1.7703 -0.7458
 5969SOL    HW218153   0.946   5.847   2.346  2.0366 -0.0242  0.0737
 5970SOL     OW18154   4.871   4.470   2.612 -0.1412  0.2061  0.3736
 5970SOL    HW118155   4.866   4.514   2.697 -0.2649 -0.1254  0.5390
 5970SOL    HW218156   4.842   4.381   2.630 -0.8108  0.3103 -0.1488
 5971SOL     OW18157   4.407   3.246   5.817  0.3961 -0.2243  0.8317
 5971SOL    HW118158   4.492   3.220   5.853  1.4181  2.0670  0.2813
 5971SOL    HW218159   4.372   3.308   5.880 -1.3183 -1.7697  1.4632
 5972SOL     OW18160   1.956   2.474   4.173  0.6007  0.2390  0.3041
 5972SOL    HW118161   1.907   2.418   4.234  0.2315 -0.4568 -0.6008
 5972SOL    HW218162   1.913   2.559   4.178  0.6360  0.2251  1.0716
 5973SOL     OW18163   0.698   1.173   0.918  0.1075  0.8070 -0.1402
 5973SOL    HW118164   0.779   1.165   0.866  0.0308  2.3791 -0.5619
 5973SOL    HW218165   0.637   1.113   0.876  0.2740  1.5188 -1.4490
 5974SOL     OW18166   3.817   5.285   4.203  0.0694 -0.0378  0.4370
 5974SOL    HW118167   3.785   5.195   4.209 -0.1305  0.0283  0.3593
 5974SOL    HW218168   3.788   5.326   4.284 -0.2882  0.1015  0.2376
 5975SOL     OW18169   4.609   2.108   5.334 -0.0989  0.2093  0.3238
 5975SOL    HW118170   4.603   2.191   5.382  0.5309  1.8547 -2.1979
 5975SOL    HW218171   4.536   2.111   5.273  0.6954 -0.4514 -0.6980
 5976SOL     OW18172   0.208   2.653   0.990  0.5841  0.3727 -0.0998
 5976SOL    HW118173   0.233   2.740   1.022 -0.2688  0.7774 -0.5106
 5976SOL    HW218174   0.118   2.641   1.022  0.1730  0.2580 -1.2660
 5977SOL     OW18175   0.519   4.547   0.422 -0.1694  0.0475 -0.2381
 5977SOL    HW118176   0.445   4.606   0.433  0.1987  0.4065  0.3754
 5977SOL    HW218177   0.587   4.582   0.480  0.1003 -0.8936  0.0424
 5978SOL     OW18178   0.040   5.070   2.383  0.1357  0.0646  0.2749
 5978SOL    HW118179   0.133   5.070   2.359 -0.0142 -1.0289 -0.3404
 5978SOL    HW218180   0.025   4.983   2.419 -0.9447 -0.1882 -0.7638
 5979SOL     OW18181   2.231   5.170   0.013  0.0386 -0.4876  0.0255
 5979SOL    HW118182   2.165   5.136   0.073 -0.7669  0.6806 -0.1714
 5979SOL    HW218183   2.263   5.092  -0.034 -1.3107 -1.0496 -0.0023
 5980SOL     OW18184   0.461   6.131   0.585  0.0615  0.2868  0.4849
 5980SOL    HW118185   0.447   6.199   0.651  1.4877  0.4799  0.6216
 5980SOL    HW218186   0.518   6.068   0.629 -0.8058 -0.7353  0.1746
 5981SOL     OW18187   0.118   3.120   5.388  0.1117 -0.1523 -0.1656
 5981SOL    HW118188   0.156   3.063   5.322  1.8025  1.5130 -0.7340
 5981SOL    HW218189   0.084   3.194   5.338  1.0774  0.9554  0.7553
 5982SOL     OW18190   4.889   3.133   4.482  0.6365 -0.1667  0.3531
 5982SOL    HW118191   4.864   3.098   4.567  1.3532 -0.2734  0.5316
 5982SOL    HW218192   4.814   3.116   4.425 -0.0637  0.3888  1.0904
 5983SOL     OW18193   3.447   2.648   0.534 -0.2099  0.1251 -0.2151
 5983SOL    HW118194   3.384   2.709   0.495 -1.3391 -0.1062  1.1764
 5983SOL    HW218195   3.434   2.566   0.486  1.0637  0.8245 -1.8501
 5984SOL     OW18196   4.250   2.446   2.345 -0.1530  0.0711  0.2279
 5984SOL    HW118197   4.213   2.387   2.280  0.7298 -1.0618  0.7059
 5984SOL    HW218198   4.213   2.416   2.428 -0.0437  0.4845  0.4272
 5985SOL     OW18199   2.279   1.785   2.023  0.5115 -0.2197 -0.0921
 5985SOL    HW118200   2.226   1.755   2.096 -0.1296  0.4665 -0.2556
 5985SOL    HW218201   2.324   1.863   2.057  1.5213 -0.8600  0.0811
 5986SOL     OW18202   3.197   4.164   5.210  0.5606  0.0824  0.1314
 5986SOL    HW118203   3.218   4.072   5.227  2.0760  0.5118  0.7077
 5986SOL    HW218204   3.212   4.208   5.294  1.7766  1.1712 -0.6260
 5987SOL     OW18205   2.330   1.192   0.259 -0.1971 -0.2089  0.0834
 5987SOL    HW118206   2.282   1.119   0.299  1.8393 -1.7619 -0.1329
 5987SOL    HW218207   2.422   1.165   0.264  0.5650  2.0904 -0.6032
 5988SOL     OW18208   3.970   1.355   1.955  0.3596  0.5111  0.1476
 5988SOL    HW118209   4.043   1.299   1.930  0.5978  1.2623 -0.9100
 5988SOL    HW218210   4.007   1.443   1.957 -0.6532  0.9894 -1.0681
 5989SOL     OW18211   4.118   3.942   6.034  0.0050  0.9834  0.0149
 5989SOL    HW118212   4.125   3.888   6.114 -0.4060  0.6479 -0.1663
 5989SOL    HW218213   4.172   3.896   5.970  0.3919  1.2926  0.1210
 5990SOL     OW18214   5.562   3.783   1.540 -0.5627 -0.6508  0.2165
 5990SOL    HW118215   5.472   3.798   1.512  0.0106 -0.4744 -1.6468
 5990SOL    HW218216   5.603   3.736   1.468  1.1195  0.2018  0.5621
 5991SOL     OW18217   4.634   5.548   0.709 -0.1446  0.0150  0.4624
 5991SOL    HW118218   4.709   5.492   0.728  0.1335  0.1359 -0.2365
 5991SOL    HW218219   4.654   5.632   0.750 -0.8559 -0.5650  2.0804
 5992SOL     OW18220   5.186   1.764   1.470  0.2564  0.4846 -0.0688
 5992SOL    HW118221   5.121   1.749   1.539 -1.7897 -1.5757 -2.2476
 5992SOL    HW218222   5.207   1.677   1.438  2.7122  1.2575 -0.7352
 5993SOL     OW18223   1.167   0.594   5.117 -0.6175  0.3397  0.1550
 5993SOL    HW118224   1.221   0.668   5.091 -0.7097  0.9392  1.5777
 5993SOL    HW218225   1.096   0.632   5.169 -1.8624 -0.5464 -0.8346
 5994SOL     OW18226   0.628   5.571   2.152  0.3934  0.1979 -0.1865
 5994SOL    HW118227   0.581   5.652   2.172  0.1181 -0.5182  2.3765
 5994SOL    HW218228   0.602   5.510   2.221  2.5741 -1.2740 -0.5666
 5995SOL     OW18229   0.616   0.707   3.464 -0.1784  0.0206  0.6644
 5995SOL    HW118230   0.639   0.703   3.372 -1.0790  0.5103  0.4061
 5995SOL    HW218231   0.680   0.651   3.508  1.9451  1.8693  0.0886
 5996SOL     OW18232   4.308   1.215   0.719 -0.4105  0.3128 -0.3905
 5996SOL    HW118233   4.228   1.210   0.667 -1.0099  1.3846  0.4045
 5996SOL    HW218234   4.281   1.194   0.808  0.2965  0.1697 -0.2035
 5997SOL     OW18235   3.339   4.027   2.103  0.2304  0.1559  0.2712
 5997SOL    HW118236   3.285   4.045   2.025  1.6243  1.0038 -0.5332
 5997SOL    HW218237   3.427   4.056   2.079  0.6962  0.4733  2.1942
 5998SOL     OW18238   0.962   4.432   4.828  0.3675  0.1443  0.2313
 5998SOL    HW118239   0.922   4.382   4.899  0.1878 -0.5408 -0.3379
 5998SOL    HW218240   1.047   4.460   4.862 -0.4459  1.3637  1.3524
 5999SOL     OW18241   1.083   2.611   3.250  0.3002 -0.0778 -0.7361
 5999SOL    HW118242   1.130   2.557   3.187  1.3703  0.5049 -0.4436
 5999SOL    HW218243   1.071   2.695   3.206  3.3073  1.2385  0.6565
 6000SOL     OW18244   0.049   0.746   5.108  0.0558  0.0109 -0.1156
 6000SOL    HW118245  -0.007   0.769   5.033 -0.3814 -2.3113 -0.5664
 6000SOL    HW218246   0.091   0.829   5.132 -1.6601  1.3279 -1.3519
 6001SOL     OW18247   0.032   0.001   6.060 -0.5718  0.5714 -0.3662
 6001SOL    HW118248   0.037  -0.021   5.967  0.4913  1.8770 -0.6465
 6001SOL    HW218249  -0.014   0.085   6.063 -1.1659  0.2305  0.3477
 6002SOL     OW18250   2.777   4.936   2.408 -0.4497 -0.1836  0.8432
 6002SOL    HW118251   2.702   4.977   2.366 -1.2133 -1.0570  1.3319
 6002SOL    HW218252   2.837   4.915   2.336 -2.1491 -2.5273  0.0014
 6003SOL     OW18253   1.241   0.292   4.193 -0.4954 -0.4525  0.0371
 6003SOL    HW118254   1.267   0.316   4.282 -3.1044  0.6028  0.5979
 6003SOL    HW218255   1.299   0.344   4.137 -0.0938  0.3290  1.1351
 6004SOL     OW18256   0.291   2.383   0.994 -0.2078  0.4310 -0.3178
 6004SOL    HW118257   0.211   2.331   0.985  0.1883 -0.3810  0.6955
 6004SOL    HW218258   0.263   2.473   0.976 -0.9543 -0.0804 -1.8957
 6005SOL     OW18259   3.270   4.492   3.174 -0.1521  0.0606 -0.1794
 6005SOL    HW118260   3.290   4.553   3.245  0.3848 -0.4133  0.0877
 6005SOL    HW218261   3.356   4.460   3.145 -0.3507  0.4662 -1.2417
 6006SOL     OW18262   0.846   4.755   4.988  0.6550 -0.0985  0.0820
 6006SOL    HW118263   0.809   4.676   5.026  3.0081 -0.7726  1.1419
 6006SOL    HW218264   0.792   4.772   4.910 -1.1445 -1.5524  0.9354
 6007SOL     OW18265   1.770   3.977   2.514 -0.0263 -0.5460  0.1456
 6007SOL    HW118266   1.866   3.983   2.506 -0.1891  1.9658 -0.8192
 6007SOL    HW218267   1.755   3.897   2.564  2.6549 -0.2106  1.6945
 6008SOL     OW18268   3.009   5.479   3.154 -0.2363  0.0531  0.3382
 6008SOL    HW118269   3.042   5.564   3.124 -1.1273  0.1462 -0.4173
 6008SOL    HW218270   3.020   5.482   3.249 -1.1268  1.4031  0.4281
 6009SOL     OW18271   5.526   5.721   2.772  0.0914 -0.0511  0.2238
 6009SOL    HW118272   5.456   5.660   2.748 -0.0759  0.0368  0.4801
 6009SOL    HW218273   5.504   5.749   2.861  0.5197 -0.1201  0.3588
 6010SOL     OW18274   4.923   2.602   0.036 -0.0088  1.1388 -0.2309
 6010SOL    HW118275   4.871   2.681   0.049  0.1540  1.2208 -0.0710
 6010SOL    HW218276   4.993   2.628  -0.024  0.4128  1.2870  0.3076
 6011SOL     OW18277   1.005   3.131   0.363  0.3174 -0.5629 -0.0211
 6011SOL    HW118278   0.947   3.069   0.408 -1.2845  0.3546 -0.7404
 6011SOL    HW218279   0.959   3.215   0.368  1.8837  0.3310 -0.1122
 6012SOL     OW18280   4.026   3.185   2.907  0.4061 -0.1519  0.3728
 6012SOL    HW118281   4.014   3.137   2.825 -2.5392  0.1110  0.5736
 6012SOL    HW218282   4.027   3.118   2.975  1.2520 -0.2395  0.2931
 6013SOL     OW18283   5.288   3.842   4.057 -0.1399  0.2721  0.3782
 6013SOL    HW118284   5.345   3.861   3.983  0.1897  1.6351  0.9386
 6013SOL    HW218285   5.251   3.756   4.038  0.8700  0.0637 -0.7649
 6014SOL     OW18286   5.983   1.028   1.622  0.1096  0.0202  0.5226
 6014SOL    HW118287   6.066   1.000   1.584  0.7423 -0.0511  1.8964
 6014SOL    HW218288   5.917   0.981   1.573  0.8427  0.5401 -1.0102
 6015SOL     OW18289   4.869   1.089   3.018 -0.1623 -0.8721  0.2797
 6015SOL    HW118290   4.798   1.035   3.052 -0.5257 -1.0788 -0.7886
 6015SOL    HW218291   4.835   1.128   2.938 -0.3966  2.0872  1.6822
 6016SOL     OW18292   0.204   5.056   4.183 -0.2726  0.0859  0.0295
 6016SOL    HW118293   0.130   5.004   4.215  0.8936 -1.9841 -0.4255
 6016SOL    HW218294   0.181   5.146   4.204 -1.3240 -0.7680  3.1598
 6017SOL     OW18295   1.583   6.125   5.294  0.7356 -0.0913 -0.5941
 6017SOL    HW118296   1.570   6.214   5.262 -0.3106 -0.3420 -0.9217
 6017SOL    HW218297   1.629   6.079   5.224  0.9096  0.0823 -0.5928
 6018SOL     OW18298   3.425   4.942   1.990  0.2714 -0.1075 -0.2994
 6018SOL    HW118299   3.394   4.877   1.927 -0.0641  1.1843 -1.5316
 6018SOL    HW218300   3.510   4.909   2.018 -0.3365 -1.5871 -0.0853
 6019SOL     OW18301   3.240   4.367   1.389 -0.0060  0.5605  0.1853
 6019SOL    HW118302   3.321   4.409   1.360 -0.3158  0.4569 -0.8515
 6019SOL    HW218303   3.171   4.407   1.337 -0.5509  0.2116  0.6255
 6020SOL     OW18304   0.503   0.996   0.861 -0.0169  0.8267 -0.0457
 6020SOL    HW118305   0.476   1.067   0.920  2.3790  1.1444  0.7954
 6020SOL    HW218306   0.433   0.991   0.796 -0.8337  3.1956  0.5319
 6021SOL     OW18307   5.925   3.537   2.987  0.3451 -0.2003  0.2317
 6021SOL    HW118308   5.849   3.562   2.935 -0.2576 -1.2962  0.5495
 6021SOL    HW218309   5.970   3.471   2.934  0.5268 -0.2674  0.4659
 6022SOL     OW18310   4.018   6.138   4.054  0.0447  0.1279  0.0089
 6022SOL    HW118311   4.070   6.095   3.986 -0.8004 -1.1410  0.1332
 6022SOL    HW218312   3.961   6.198   4.007 -0.4730 -0.6779 -0.4106
 6023SOL     OW18313   2.233   4.034   4.857  0.0736  0.8355 -0.5855
 6023SOL    HW118314   2.298   4.072   4.798 -0.2281  0.1117 -1.3865
 6023SOL    HW218315   2.215   3.947   4.822  0.6214 -0.0116  1.1386
 6024SOL     OW18316   1.580   0.024   0.736  0.1815 -0.7081 -0.0356
 6024SOL    HW118317   1.559   0.116   0.754  1.3291 -0.8281  2.3487
 6024SOL    HW218318   1.599  -0.013   0.823  0.8436 -2.9176 -1.0613
 6025SOL     OW18319   4.064   3.286   5.049  0.0298  0.4085 -0.5327
 6025SOL    HW118320   3.986   3.248   5.008 -0.1251  0.2252 -0.0735
 6025SOL    HW218321   4.125   3.213   5.057 -0.1870  0.3028  0.1567
 6026SOL     OW18322   2.744   5.185   0.762 -0.0198 -0.1609  0.3512
 6026SOL    HW118323   2.704   5.117   0.709 -1.5393  0.7600  0.2700
 6026SOL    HW218324   2.780   5.139   0.838 -4.3443 -0.7688  2.3069
 6027SOL     OW18325   2.088   4.847   2.202  0.2260 -0.5766  0.1368
 6027SOL    HW118326   2.162   4.846   2.263 -0.7938  1.7273  1.5858
 6027SOL    HW218327   2.112   4.786   2.133  3.3376 -0.1500  0.6945
 6028SOL     OW18328   0.451   1.345   2.452  0.3157  0.0770 -0.1872
 6028SOL    HW118329   0.510   1.374   2.383  1.5344 -0.6906  0.5036
 6028SOL    HW218330   0.505   1.292   2.510 -0.3842  1.5852  1.9831
 6029SOL     OW18331   3.065   5.563   3.409  0.8893  0.4668  0.0599
 6029SOL    HW118332   3.115   5.500   3.461  0.6317 -0.7924 -1.1588
 6029SOL    HW218333   3.111   5.646   3.420  1.1429  0.1189  1.8412
 6030SOL     OW18334   0.641   0.600   5.621  0.1951 -0.9031 -0.8262
 6030SOL    HW118335   0.644   0.549   5.540  0.8884 -1.6385 -0.3544
 6030SOL    HW218336   0.685   0.545   5.686 -0.8678 -0.5783  0.2018
 6031SOL     OW18337   3.324   0.881   0.812 -0.3959 -0.7496  0.0245
 6031SOL    HW118338   3.249   0.909   0.863  0.3989 -0.2801  0.9737
 6031SOL    HW218339   3.396   0.877   0.875  0.2635 -1.7075 -0.7482
 6032SOL     OW18340   1.558   3.207   6.038 -0.0879  0.0048 -0.2596
 6032SOL    HW118341   1.640   3.248   6.011 -0.6169  1.9304  0.8758
 6032SOL    HW218342   1.492   3.277   6.029 -1.3896 -1.1371  0.0121
 6033SOL     OW18343   2.380   2.158   1.710  0.2429 -0.2003  0.1067
 6033SOL    HW118344   2.432   2.114   1.778 -1.1955 -1.6753  0.3281
 6033SOL    HW218345   2.292   2.162   1.747 -0.3421 -0.0850 -1.2598
 6034SOL     OW18346   2.954   1.702   3.376 -0.0301  0.0377 -0.4665
 6034SOL    HW118347   3.034   1.742   3.342 -0.7331  2.3512  0.4534
 6034SOL    HW218348   2.896   1.775   3.396 -1.6793 -1.4882  0.6825
 6035SOL     OW18349   4.393   4.700   0.753  0.5159  0.2337  0.2187
 6035SOL    HW118350   4.432   4.668   0.672  0.8182 -0.5984  0.6723
 6035SOL    HW218351   4.456   4.764   0.787  1.4256 -0.9323  0.8313
 6036SOL     OW18352   1.657   0.875   2.320  0.0949 -0.3687  0.3803
 6036SOL    HW118353   1.640   0.969   2.325 -0.7325 -0.4949  0.0487
 6036SOL    HW218354   1.751   0.868   2.334  0.5508  0.6934 -1.6840
 6037SOL     OW18355   2.478   5.045   0.464 -0.0419 -0.4276  0.3128
 6037SOL    HW118356   2.515   5.012   0.382 -2.5261  0.1439 -1.1385
 6037SOL    HW218357   2.432   5.125   0.439  0.2966  0.5314  2.5650
 6038SOL     OW18358   1.032   4.338   4.597  0.0790  0.1874 -0.0819
 6038SOL    HW118359   0.989   4.379   4.672  1.6294 -0.0360  0.9781
 6038SOL    HW218360   1.000   4.387   4.521 -0.1977  1.5740  0.8922
 6039SOL     OW18361   4.741   1.499   2.025  0.1164  0.4478  0.6984
 6039SOL    HW118362   4.663   1.509   2.080 -1.3375 -1.7551 -0.7541
 6039SOL    HW218363   4.801   1.448   2.078 -0.4075  0.1535  1.0197
 6040SOL     OW18364   2.500   0.089   3.479  0.3373  0.4911 -0.1714
 6040SOL    HW118365   2.445   0.157   3.440  0.5424  0.9978  0.4221
 6040SOL    HW218366   2.509   0.114   3.570 -0.7725 -1.0786  0.4196
 6041SOL     OW18367   0.562   0.612   1.993  0.5000 -0.7096  0.2132
 6041SOL    HW118368   0.486   0.577   2.041 -2.5268  3.4888 -0.8778
 6041SOL    HW218369   0.611   0.661   2.059  1.5907 -2.3320  0.6536
 6042SOL     OW18370   1.665   3.755   2.623  0.1973  0.9378 -0.5362
 6042SOL    HW118371   1.575   3.762   2.654  0.8093  1.0316  1.3319
 6042SOL    HW218372   1.665   3.676   2.568 -0.5415 -0.4680  1.3836
 6043SOL     OW18373   1.496   0.277   4.851  0.0726  0.2736  0.0294
 6043SOL    HW118374   1.532   0.345   4.907 -0.4768  0.9541 -0.4332
 6043SOL    HW218375   1.443   0.222   4.910 -0.2336  0.7891  0.2407
 6044SOL     OW18376   0.994   1.808   3.859  0.1904  0.0396 -0.1338
 6044SOL    HW118377   0.989   1.754   3.780 -0.5184 -1.6151  0.9954
 6044SOL    HW218378   1.051   1.759   3.918  0.0159  0.8322  0.7165
 6045SOL     OW18379   3.456   0.068   2.551 -0.6807  0.5997  0.1009
 6045SOL    HW118380   3.453   0.009   2.627  0.7547 -0.7756 -0.8344
 6045SOL    HW218381   3.474   0.010   2.477 -1.1729  2.0105 -1.1701
 6046SOL     OW18382   3.779   2.503   4.475  0.7221  0.0320 -0.3266
 6046SOL    HW118383   3.688   2.513   4.446 -0.0326 -0.2653  1.7773
 6046SOL    HW218384   3.820   2.586   4.452  0.4753 -0.4693 -2.9457
 6047SOL     OW18385   5.246   0.414   3.274  0.9402  0.4258 -0.1536
 6047SOL    HW118386   5.303   0.343   3.242  1.0457 -0.4659  1.9091
 6047SOL    HW218387   5.258   0.414   3.369  0.1653  2.5724 -0.0000
 6048SOL     OW18388   5.071   4.013   0.615  0.2909  0.2432 -0.0241
 6048SOL    HW118389   4.996   3.955   0.602  0.3302 -0.1572  1.4203
 6048SOL    HW218390   5.143   3.955   0.637  1.1451  0.5954 -1.7475
 6049SOL     OW18391   1.509   5.057   5.612  0.9519 -0.3331  0.0191
 6049SOL    HW118392   1.518   5.046   5.707 -3.0979  1.0791  0.7832
 6049SOL    HW218393   1.510   5.152   5.599  0.8220 -0.4933 -1.2910
 6050SOL     OW18394   3.327   6.126   0.632 -0.1883 -0.1679  0.5601
 6050SOL    HW118395   3.357   6.196   0.573  1.7363  0.5267  2.2388
 6050SOL    HW218396   3.320   6.169   0.718 -2.4333 -1.2630  1.0073
 6051SOL     OW18397   4.010   5.733   0.481  0.1388  0.3477 -0.1144
 6051SOL    HW118398   3.931   5.701   0.436  0.0883 -0.1322  0.3118
 6051SOL    HW218399   3.977   5.782   0.556  0.2419  0.2192  0.0163
 6052SOL     OW18400   1.410   3.828   1.047 -1.0927 -0.0515  0.5571
 6052SOL    HW118401   1.406   3.832   0.951 -0.1065 -2.2428  0.3454
 6052SOL    HW218402   1.440   3.914   1.073  1.1516 -0.1484 -1.3411
 6053SOL     OW18403   5.975   4.375   0.770 -0.2687  0.4984 -0.3298
 6053SOL    HW118404   6.006   4.316   0.702  0.0023 -0.0865  0.2933
 6053SOL    HW218405   6.033   4.360   0.844 -2.4875 -1.3023  1.1966
 6054SOL     OW18406   1.457   4.650   4.180 -0.2412 -0.5477 -0.8823
 6054SOL    HW118407   1.472   4.595   4.103 -1.5350  0.3032 -1.7990
 6054SOL    HW218408   1.465   4.740   4.147  0.0780 -0.1636  0.1897
 6055SOL     OW18409   6.024   5.401   0.229  0.2898  0.6024 -0.8345
 6055SOL    HW118410   6.093   5.415   0.164  0.2073 -0.4530 -1.1696
 6055SOL    HW218411   6.007   5.307   0.226  1.0509  0.3182  1.5198
 6056SOL     OW18412   0.495   5.712   4.663 -0.1542 -0.5166  0.4670
 6056SOL    HW118413   0.543   5.722   4.581 -0.7248 -3.4872 -0.3545
 6056SOL    HW218414   0.404   5.729   4.639 -0.2532 -0.8310  0.6199
 6057SOL     OW18415   5.724   3.503   2.791  0.2183 -0.5530 -0.0232
 6057SOL    HW118416   5.669   3.445   2.844 -0.6202 -0.3480 -0.6592
 6057SOL    HW218417   5.676   3.515   2.710 -0.1688  1.9132  0.4893
 6058SOL     OW18418   3.245   3.877   2.751  0.0068 -0.2225  0.1698
 6058SOL    HW118419   3.216   3.949   2.695  2.5440 -0.4121 -1.5760
 6058SOL    HW218420   3.259   3.804   2.690 -0.6599 -1.6270  1.6325
 6059SOL     OW18421   1.673   3.514   3.131 -0.4607  0.0486 -0.2514
 6059SOL    HW118422   1.602   3.574   3.154  0.2576  1.2606 -1.0608
 6059SOL    HW218423   1.652   3.484   3.043 -0.3347 -0.1433 -0.2177
 6060SOL     OW18424   3.886   3.629   3.687  0.5275 -0.7982 -0.2912
 6060SOL    HW118425   3.939   3.584   3.752  1.1566  1.3790  0.8051
 6060SOL    HW218426   3.883   3.720   3.717 -1.5533 -0.2823 -1.7958
 6061SOL     OW18427   5.373   1.327   1.882  0.1991  0.3351 -0.0128
 6061SOL    HW118428   5.318   1.275   1.823 -1.4424  0.1684  1.5912
 6061SOL    HW218429   5.345   1.417   1.867  0.0843  0.3371  0.2229
 6062SOL     OW18430   3.115   2.602   3.580  0.0865 -0.0033  0.3029
 6062SOL    HW118431   3.162   2.662   3.521 -1.0960  1.2427  0.5692
 6062SOL    HW218432   3.171   2.524   3.584  0.5196  0.0998 -1.9743
 6063SOL     OW18433   5.427   3.131   4.395 -0.5449 -0.2717  0.6844
 6063SOL    HW118434   5.488   3.066   4.430 -0.6396  0.3118  2.0094
 6063SOL    HW218435   5.345   3.085   4.384 -0.0789 -0.8818 -0.4069
 6064SOL     OW18436   2.830   6.054   5.788  0.4852 -0.8238 -0.3023
 6064SOL    HW118437   2.777   6.133   5.783  0.9716 -0.5171 -0.6907
 6064SOL    HW218438   2.910   6.082   5.832 -0.4403 -1.7127  2.1236
 6065SOL     OW18439   5.252   4.835   2.864 -0.2071 -0.4131 -0.1823
 6065SOL    HW118440   5.239   4.770   2.934 -0.0994 -0.7490 -0.4731
 6065SOL    HW218441   5.207   4.797   2.788  0.2041 -0.3371 -0.4627
 6066SOL     OW18442   2.549   0.415   5.679 -0.4525  0.1817  0.2517
 6066SOL    HW118443   2.587   0.503   5.679  0.2531 -0.1129 -0.1024
 6066SOL    HW218444   2.565   0.382   5.767  1.8976 -0.6575 -0.4015
 6067SOL     OW18445   0.496   0.799   1.357  0.4522  0.5725  0.1291
 6067SOL    HW118446   0.421   0.856   1.373 -0.2907 -0.5394  0.7122
 6067SOL    HW218447   0.501   0.790   1.262 -1.5337 -1.0789  0.1186
 6068SOL     OW18448   0.906   0.201   5.873 -0.1121  0.3782  0.0776
 6068SOL    HW118449   0.905   0.114   5.832 -1.3031  0.3639  0.1064
 6068SOL    HW218450   0.882   0.184   5.965 -2.7979  0.9551 -0.4376
 6069SOL     OW18451   3.062   0.506   4.291 -0.0566 -0.2117  0.0193
 6069SOL    HW118452   3.064   0.484   4.384 -0.4046  1.0013  0.3355
 6069SOL    HW218453   3.115   0.586   4.285  1.3912 -1.2035 -1.1113
 6070SOL     OW18454   5.966   4.209   1.642 -0.6165 -0.0146  0.2325
 6070SOL    HW118455   6.024   4.283   1.663 -1.4034  0.7787 -0.3215
 6070SOL    HW218456   5.887   4.226   1.693 -1.3323  0.2721 -0.9411
 6071SOL     OW18457   1.862   0.270   0.435  0.1073 -0.0275 -0.0929
 6071SOL    HW118458   1.938   0.317   0.468  2.0397 -2.3299 -1.0091
 6071SOL    HW218459   1.863   0.186   0.481 -1.5648 -0.3435 -0.5604
 6072SOL     OW18460   4.107   5.187   0.196  0.3347  0.1269 -0.4639
 6072SOL    HW118461   4.038   5.203   0.131  1.2469  1.8242 -1.0794
 6072SOL    HW218462   4.181   5.156   0.145  1.1997  1.8707 -0.3615
 6073SOL     OW18463   2.868   5.457   5.965 -0.1244 -1.2389 -0.1795
 6073SOL    HW118464   2.904   5.368   5.971 -0.0110 -1.2570 -0.9696
 6073SOL    HW218465   2.807   5.453   5.892 -0.2734 -0.7153 -0.0872
 6074SOL     OW18466   2.524   3.264   4.097  0.4313  0.0883 -0.4435
 6074SOL    HW118467   2.497   3.247   4.006  0.6207 -1.6732 -0.1995
 6074SOL    HW218468   2.454   3.225   4.150 -0.1172  1.8539  0.1970
 6075SOL     OW18469   5.985   0.745   5.329 -0.1937  0.7835  0.2728
 6075SOL    HW118470   6.042   0.683   5.373 -0.6946 -0.5395 -0.8786
 6075SOL    HW218471   6.032   0.770   5.250 -1.0323 -0.0483 -0.5091
 6076SOL     OW18472   5.397   4.414   2.980  0.1645 -0.0781  0.9301
 6076SOL    HW118473   5.376   4.339   2.924 -1.6399 -0.0096  1.4718
 6076SOL    HW218474   5.463   4.380   3.041 -0.0973 -1.0137  0.7134
 6077SOL     OW18475   4.621   0.698   4.273 -0.4577 -0.0347 -0.1274
 6077SOL    HW118476   4.575   0.725   4.193  0.4503  0.6986 -0.4111
 6077SOL    HW218477   4.664   0.777   4.305 -1.9791  0.0458  1.9298
 6078SOL     OW18478   5.129   4.073   1.215  0.2600  0.1558  0.2183
 6078SOL    HW118479   5.066   4.111   1.154  0.4833 -1.4912 -1.1165
 6078SOL    HW218480   5.076   4.041   1.288 -0.0938  1.4652  0.5570
 6079SOL     OW18481   3.200   2.244   1.233  0.3584  0.1657  0.0895
 6079SOL    HW118482   3.180   2.287   1.316 -1.0118  1.6745 -0.9569
 6079SOL    HW218483   3.120   2.197   1.210  0.4043  0.4828 -0.7740
 6080SOL     OW18484   2.137   4.472   0.792  0.1111 -0.0406 -0.0595
 6080SOL    HW118485   2.058   4.526   0.786 -0.3652 -0.8243 -0.9901
 6080SOL    HW218486   2.119   4.410   0.862 -0.3009 -0.5337 -0.5966
 6081SOL     OW18487   3.387   2.205   3.246  0.4882 -0.2999 -0.0856
 6081SOL    HW118488   3.392   2.283   3.191  2.8977 -0.3448 -0.0503
 6081SOL    HW218489   3.418   2.134   3.190 -1.2221 -1.1930  0.0280
 6082SOL     OW18490   2.388   4.412   4.308 -0.1330  0.1884  0.5070
 6082SOL    HW118491   2.403   4.506   4.295 -1.4458  0.0035 -3.7251
 6082SOL    HW218492   2.405   4.373   4.222 -2.6152 -3.0239  1.2969
 6083SOL     OW18493   0.483   2.961   1.642 -0.3855 -0.0243  0.1688
 6083SOL    HW118494   0.496   2.982   1.735 -1.3214  1.6501 -0.0314
 6083SOL    HW218495   0.409   3.016   1.616 -1.5956 -2.1196 -1.0335
 6084SOL     OW18496   3.205   1.434   4.267 -0.3250 -0.1315  0.4102
 6084SOL    HW118497   3.192   1.387   4.184 -1.6749 -2.7256  1.9481
 6084SOL    HW218498   3.119   1.469   4.288 -0.1539 -0.0739  1.0337
 6085SOL     OW18499   4.144   2.096   0.448 -0.4329 -0.6514 -0.4253
 6085SOL    HW118500   4.116   2.148   0.372 -0.2957  0.1764  0.0797
 6085SOL    HW218501   4.153   2.007   0.414 -1.5968 -0.5349 -1.0956
 6086SOL     OW18502   1.667   3.838   5.408 -0.6102 -0.2495  0.0004
 6086SOL    HW118503   1.732   3.903   5.382 -1.2072  0.6086  0.6057
 6086SOL    HW218504   1.603   3.887   5.458 -0.5880 -1.4658  1.2837
 6087SOL     OW18505   5.138   3.626   4.836 -1.0676 -0.2100 -0.2248
 6087SOL    HW118506   5.070   3.694   4.844 -0.5386  0.4560 -1.2635
 6087SOL    HW218507   5.215   3.665   4.877 -0.4734  0.2460 -1.7106
 6088SOL     OW18508   2.297   5.259   4.170 -0.0899 -0.3165 -0.1432
 6088SOL    HW118509   2.390   5.268   4.190 -0.2579  0.4882  0.3053
 6088SOL    HW218510   2.253   5.265   4.255 -0.5287 -1.1581 -0.2943
 6089SOL     OW18511   2.063   2.144   1.732  0.3767 -0.5930  0.1197
 6089SOL    HW118512   1.970   2.137   1.713  0.2198 -0.0914  0.6800
 6089SOL    HW218513   2.101   2.064   1.696 -0.0714 -0.2163 -1.2524
 6090SOL     OW18514   3.471   5.589   3.318  0.1437  0.7200 -0.1872
 6090SOL    HW118515   3.567   5.598   3.317  0.3281 -0.9846 -1.8481
 6090SOL    HW218516   3.451   5.538   3.240 -2.2469  1.8885 -0.4164
 6091SOL     OW18517   5.483   2.861   3.937 -0.1737  0.2666 -0.2346
 6091SOL    HW118518   5.535   2.935   3.906 -0.5556  0.6080 -0.0613
 6091SOL    HW218519   5.490   2.866   4.032  0.2091 -0.2180 -0.2306
 6092SOL     OW18520   4.930   4.843   4.039 -0.0417  0.1899  0.2684
 6092SOL    HW118521   4.969   4.928   4.060  0.5130  0.0004  0.0445
 6092SOL    HW218522   4.997   4.799   3.986 -0.0033 -0.6803  1.0160
 6093SOL     OW18523   4.143   4.280   5.403  0.0621 -0.3910  0.2122
 6093SOL    HW118524   4.201   4.282   5.327 -0.8736 -0.5800 -0.5330
 6093SOL    HW218525   4.183   4.341   5.465  0.7473 -0.0901 -0.4995
 6094SOL     OW18526   2.499   1.748   0.083 -0.0666  0.0444 -0.5441
 6094SOL    HW118527   2.428   1.710   0.031 -1.4689 -1.2304  2.0987
 6094SOL    HW218528   2.456   1.815   0.136  0.8514 -0.1751  0.5190
 6095SOL     OW18529   2.470   3.819   5.800 -0.0444  0.2029 -0.1935
 6095SOL    HW118530   2.552   3.860   5.770  0.0724  0.5991  0.6192
 6095SOL    HW218531   2.429   3.886   5.854 -0.5614 -0.2521 -0.0166
 6096SOL     OW18532   5.823   2.492   6.054 -0.7219  0.3941  0.0006
 6096SOL    HW118533   5.789   2.582   6.052  0.5288  0.9459  1.3391
 6096SOL    HW218534   5.829   2.471   6.148 -0.7330 -0.9890 -0.2948
 6097SOL     OW18535   4.730   4.265   4.602 -0.0245  0.5435 -0.2063
 6097SOL    HW118536   4.686   4.320   4.667  0.1551 -0.0578  0.4298
 6097SOL    HW218537   4.822   4.290   4.607  0.0214  0.3506 -0.0809
 6098SOL     OW18538   4.228   3.536   5.696  0.6585 -0.0094  0.0025
 6098SOL    HW118539   4.232   3.631   5.710  0.0095 -0.1179  1.0261
 6098SOL    HW218540   4.167   3.504   5.764  0.5580 -1.1060 -0.5802
 6099SOL     OW18541   2.711   1.662   5.125  0.5860  0.5449 -0.0045
 6099SOL    HW118542   2.756   1.662   5.040  1.9004 -0.7859  0.6450
 6099SOL    HW218543   2.758   1.727   5.177  0.6647  0.3828  0.1283
 6100SOL     OW18544   6.103   4.461   6.125 -0.2296  0.3446  0.1050
 6100SOL    HW118545   6.122   4.370   6.147  1.5700  0.7395  0.3145
 6100SOL    HW218546   6.077   4.501   6.208 -1.7045 -0.0989 -0.1078
 6101SOL     OW18547   4.880   2.775   4.046  0.2326  0.2103  0.0819
 6101SOL    HW118548   4.846   2.843   4.105  0.4207  0.7602 -0.4414
 6101SOL    HW218549   4.808   2.712   4.040 -0.1567  0.6346  0.1384
 6102SOL     OW18550   2.457   4.798   5.428  0.1511 -0.2426 -0.4519
 6102SOL    HW118551   2.499   4.761   5.351  1.0169 -0.9169  0.3168
 6102SOL    HW218552   2.365   4.806   5.404  0.7240  1.5830 -2.3057
 6103SOL     OW18553   5.845   2.672   1.887 -0.2385  0.3257  0.3525
 6103SOL    HW118554   5.913   2.661   1.820  0.1191 -0.9056  0.8902
 6103SOL    HW218555   5.892   2.706   1.963 -0.3947  0.3873  0.4221
 6104SOL     OW18556   5.492   2.980   0.238  0.0113  0.8622 -0.2077
 6104SOL    HW118557   5.426   2.982   0.168 -2.0950  0.4624  1.6699
 6104SOL    HW218558   5.530   3.068   0.237 -0.0323  0.8917 -1.7873
 6105SOL     OW18559   5.900   1.072   0.519  0.1879 -0.6728 -0.2877
 6105SOL    HW118560   5.928   1.003   0.458  0.6055 -1.3394  0.6362
 6105SOL    HW218561   5.900   1.152   0.466  0.1072 -1.3047 -1.2723
 6106SOL     OW18562   1.303   0.091   0.751  0.5288  0.5965  0.2025
 6106SOL    HW118563   1.258   0.008   0.733  0.7958  0.5269 -0.1531
 6106SOL    HW218564   1.385   0.085   0.702  1.6933  0.0456  2.1009
 6107SOL     OW18565   1.683   3.052   0.130 -0.7669 -0.1659 -0.0524
 6107SOL    HW118566   1.705   3.118   0.065  1.0194  0.5682  1.2135
 6107SOL    HW218567   1.675   3.101   0.212 -1.2262 -1.2873  0.5936
 6108SOL     OW18568   1.834   0.676   3.381  0.0667  0.3819  0.1092
 6108SOL    HW118569   1.835   0.758   3.331  0.2377  0.3902  0.1273
 6108SOL    HW218570   1.749   0.636   3.359 -0.5890  1.1813  1.1111
 6109SOL     OW18571   4.188   3.229   2.563 -0.3593  0.2381 -0.4967
 6109SOL    HW118572   4.117   3.191   2.512  0.8048 -1.6172 -0.8582
 6109SOL    HW218573   4.211   3.161   2.627  2.2549 -0.0303 -1.5942
 6110SOL     OW18574   3.277   2.652   0.755  0.2603 -0.1782  0.1881
 6110SOL    HW118575   3.334   2.661   0.679  0.4640 -0.5406  0.2967
 6110SOL    HW218576   3.305   2.571   0.797 -0.1025 -0.1787  0.4378
 6111SOL     OW18577   5.596   3.881   0.445  0.0446  0.1214 -0.1570
 6111SOL    HW118578   5.628   3.957   0.397 -1.8265  0.3324 -1.1596
 6111SOL    HW218579   5.675   3.836   0.475  1.2521  0.8721 -2.0506
 6112SOL     OW18580   0.357   3.776   1.332  0.3766 -0.2506 -0.9270
 6112SOL    HW118581   0.450   3.775   1.355  0.3372 -1.6120 -0.7863
 6112SOL    HW218582   0.315   3.812   1.410  0.7080 -0.3764 -0.6844
 6113SOL     OW18583   3.124   0.658   6.079 -0.2956 -0.3592 -0.0881
 6113SOL    HW118584   3.106   0.736   6.028  2.5657  0.8134  0.5014
 6113SOL    HW218585   3.170   0.600   6.018  1.4866  0.2912  0.5705
 6114SOL     OW18586   6.123   2.314   0.323  0.1837  0.0070  0.2717
 6114SOL    HW118587   6.138   2.220   0.327 -0.0234 -0.0042  1.1124
 6114SOL    HW218588   6.088   2.336   0.410 -1.6927  0.5349 -0.5690
 6115SOL     OW18589   0.615   4.673   5.548  0.2334  0.0031  0.3022
 6115SOL    HW118590   0.665   4.627   5.480 -0.4480 -0.5632  0.1770
 6115SOL    HW218591   0.529   4.632   5.547  0.5420 -0.8580  2.3061
 6116SOL     OW18592   0.002   3.248   1.193  0.3669  0.4383 -0.2347
 6116SOL    HW118593   0.026   3.329   1.147 -0.4602  0.9737  0.2640
 6116SOL    HW218594  -0.052   3.277   1.267  0.5201 -0.5279  0.2661
 6117SOL     OW18595   0.705   2.058   0.660  0.2733 -0.1637  0.1083
 6117SOL    HW118596   0.620   2.103   0.656  0.5686  0.3225 -1.5908
 6117SOL    HW218597   0.736   2.058   0.569  2.0996 -0.3428  0.7008
 6118SOL     OW18598   5.672   0.706   3.610 -0.1027 -0.1789 -0.1058
 6118SOL    HW118599   5.607   0.730   3.675 -1.3515 -1.3602 -0.8732
 6118SOL    HW218600   5.626   0.713   3.526  0.7001 -1.1897 -0.6539
 6119SOL     OW18601   3.031   1.275   1.766  0.6296  0.1011  0.0730
 6119SOL    HW118602   3.031   1.360   1.721 -0.4133  0.8478  1.3882
 6119SOL    HW218603   3.106   1.279   1.825 -0.8828  1.2600  2.0528
 6120SOL     OW18604   1.279   1.794   5.817  0.0370 -0.0812  0.1996
 6120SOL    HW118605   1.323   1.792   5.902  0.7807 -0.1456 -0.1754
 6120SOL    HW218606   1.286   1.886   5.789  0.4850 -0.2136 -0.1371
 6121SOL     OW18607   5.098   3.262   2.145 -0.5109  0.3802  0.5959
 6121SOL    HW118608   5.026   3.269   2.082  0.8126 -1.8178 -1.3080
 6121SOL    HW218609   5.054   3.261   2.230 -2.6228  0.5437 -0.4210
 6122SOL     OW18610   1.585   5.279   0.554  0.1590  0.0970  0.8777
 6122SOL    HW118611   1.576   5.273   0.459 -0.3819  2.3618  0.7386
 6122SOL    HW218612   1.677   5.257   0.570  0.2236 -0.4483 -0.1397
 6123SOL     OW18613   2.201   3.040   0.053  1.0134  0.2864  0.3905
 6123SOL    HW118614   2.285   3.008   0.018  0.3068  0.9384 -2.1044
 6123SOL    HW218615   2.205   3.135   0.039 -1.0816  0.1036 -2.2013
 6124SOL     OW18616   2.006   5.284   2.785 -0.0851  0.1236  0.2255
 6124SOL    HW118617   1.994   5.336   2.706  0.8066 -0.3551 -0.2360
 6124SOL    HW218618   2.049   5.344   2.846  0.4304  0.1010 -0.1104
 6125SOL     OW18619   2.914   2.684   2.488  0.3236  0.2512  0.2171
 6125SOL    HW118620   2.973   2.710   2.417 -0.0773 -0.1670 -0.2837
 6125SOL    HW218621   2.878   2.599   2.459 -0.7499  0.6369  0.3597
 6126SOL     OW18622   5.492   5.277   0.841 -0.8870  0.0933 -0.1152
 6126SOL    HW118623   5.487   5.187   0.871  1.1735 -0.2454 -0.6609
 6126SOL    HW218624   5.492   5.329   0.921  3.7703 -0.7500  0.6989
 6127SOL     OW18625   3.118   0.723   3.913 -0.2857 -0.4287  0.1363
 6127SOL    HW118626   3.169   0.802   3.897 -1.7286  0.7305  1.0445
 6127SOL    HW218627   3.182   0.651   3.906  1.0539  0.7975 -0.6600
 6128SOL     OW18628   2.021   3.702   5.427 -0.0224 -0.3493 -0.4103
 6128SOL    HW118629   2.054   3.701   5.337 -0.0488  2.0885 -0.5189
 6128SOL    HW218630   1.959   3.630   5.431  0.5472 -0.9798 -2.1211
 6129SOL     OW18631   6.084   5.928   4.433  0.2008  0.1672 -0.2068
 6129SOL    HW118632   6.091   5.896   4.523 -1.0539 -1.4279 -0.6214
 6129SOL    HW218633   6.161   5.984   4.421  1.6966 -1.4583  1.1319
 6130SOL     OW18634   3.132   3.492   5.761  0.1961  0.5241 -0.3819
 6130SOL    HW118635   3.040   3.489   5.738 -0.0052 -0.3838  0.5098
 6130SOL    HW218636   3.142   3.572   5.813 -0.4535 -0.2423  0.9717
 6131SOL     OW18637   4.965   2.164   3.826  0.1613 -0.5184 -0.0185
 6131SOL    HW118638   4.989   2.077   3.795  2.3009  0.5407 -1.5664
 6131SOL    HW218639   4.935   2.211   3.748  1.3861  0.8271  0.2518
 6132SOL     OW18640   5.369   2.236   5.877 -0.1951 -0.3599  0.1075
 6132SOL    HW118641   5.380   2.327   5.852 -2.2599  0.1688  0.9087
 6132SOL    HW218642   5.443   2.218   5.935  0.5951  0.5855 -0.5719
 6133SOL     OW18643   5.189   2.143   5.345 -0.5055 -0.1732  0.0577
 6133SOL    HW118644   5.167   2.079   5.413  2.6997 -0.3978  1.0891
 6133SOL    HW218645   5.252   2.097   5.289  0.7003  1.5571 -0.0897
 6134SOL     OW18646   2.130   2.017   0.117  0.1087  0.5669 -0.8433
 6134SOL    HW118647   2.065   1.979   0.058  0.5766 -0.9678 -0.4284
 6134SOL    HW218648   2.183   1.942   0.145  0.2903  1.3454  1.0261
 6135SOL     OW18649   1.933   2.418   1.574  0.5234 -0.3010 -0.1117
 6135SOL    HW118650   2.007   2.405   1.634  1.0033  0.0847 -0.6064
 6135SOL    HW218651   1.904   2.508   1.591 -0.5414 -0.7973  0.8402
 6136SOL     OW18652   4.429   5.585   2.774 -0.1324  0.0378  0.1001
 6136SOL    HW118653   4.414   5.680   2.777  1.7293  0.3656  0.7670
 6136SOL    HW218654   4.490   5.569   2.845  0.2985 -1.5172 -0.5894
 6137SOL     OW18655   4.544   2.244   2.121 -0.4352 -0.5012  0.1617
 6137SOL    HW118656   4.562   2.156   2.089  0.4657 -0.6908  1.1610
 6137SOL    HW218657   4.630   2.282   2.139 -0.8577  0.1183  0.9452
 6138SOL     OW18658   1.155   2.001   0.779  0.1649 -0.0276  0.5059
 6138SOL    HW118659   1.072   1.961   0.805  0.3634 -0.7023  0.1051
 6138SOL    HW218660   1.180   2.054   0.855  0.5061 -1.6204  1.5537
 6139SOL     OW18661   1.951   1.408   4.458  0.5830  0.1427 -0.2582
 6139SOL    HW118662   1.943   1.502   4.477 -0.1415  0.1018 -0.3462
 6139SOL    HW218663   2.041   1.397   4.428  0.4931  0.9076 -0.8111
 6140SOL     OW18664   0.076   4.818   5.606  0.2959  0.0050  0.0844
 6140SOL    HW118665   0.149   4.852   5.555  0.1063 -0.5801 -0.6062
 6140SOL    HW218666   0.037   4.751   5.549  0.8238 -1.5655  1.4812
 6141SOL     OW18667   2.227   1.057   1.942 -0.0505 -0.4144 -0.4180
 6141SOL    HW118668   2.178   1.016   1.871 -0.7214  1.4227 -1.0733
 6141SOL    HW218669   2.316   1.068   1.907 -0.6745  1.6123 -1.5226
 6142SOL     OW18670   3.969   0.966   0.613 -0.0270  0.0600 -0.4309
 6142SOL    HW118671   3.906   0.965   0.541  0.3934  0.5569 -0.8103
 6142SOL    HW218672   3.941   1.038   0.669 -0.2816 -0.2492 -0.1516
 6143SOL     OW18673   1.424   5.455   4.244 -0.0206 -0.0063 -0.3802
 6143SOL    HW118674   1.516   5.458   4.216  0.1733  1.0756  0.3008
 6143SOL    HW218675   1.426   5.403   4.325  0.2369  1.1255  0.3791
 6144SOL     OW18676   6.138   1.303   5.815 -0.0975  0.1359 -0.0398
 6144SOL    HW118677   6.183   1.350   5.885 -0.3068 -0.3067  0.3924
 6144SOL    HW218678   6.209   1.276   5.756  0.3252 -1.1918  1.0140
 6145SOL     OW18679   2.630   1.268   3.982 -0.0013 -0.4172  0.2496
 6145SOL    HW118680   2.661   1.356   4.005  1.6494 -0.8335 -0.2752
 6145SOL    HW218681   2.704   1.227   3.938 -1.4201 -1.3877 -1.3300
 6146SOL     OW18682   3.440   2.771   5.809  0.3066 -0.4308  0.1857
 6146SOL    HW118683   3.371   2.804   5.867  0.2637 -1.2505  0.6167
 6146SOL    HW218684   3.475   2.695   5.854  1.9431  0.3196  0.2782
 6147SOL     OW18685   1.448   2.894   5.609 -0.2889 -0.5388  0.2707
 6147SOL    HW118686   1.380   2.842   5.653 -0.4781 -0.6649 -0.1649
 6147SOL    HW218687   1.495   2.937   5.680  0.0213 -1.4923  0.6632
 6148SOL     OW18688   3.770   0.520   2.824  0.4471 -0.1111  0.3767
 6148SOL    HW118689   3.753   0.524   2.918  0.5192 -0.9230  0.4328
 6148SOL    HW218690   3.809   0.434   2.811 -0.7484 -0.5410 -0.5865
 6149SOL     OW18691   4.448   1.776   2.585 -0.0321  0.1401 -0.3307
 6149SOL    HW118692   4.379   1.838   2.605  1.3878  0.8766  2.9540
 6149SOL    HW218693   4.529   1.827   2.589  0.8988 -0.9433 -2.8307
 6150SOL     OW18694   0.896   6.079   2.563 -0.1238  0.0622 -0.1780
 6150SOL    HW118695   0.947   6.026   2.624  1.3853  1.1356 -0.4614
 6150SOL    HW218696   0.921   6.048   2.476 -0.4636  0.1560 -0.3134
 6151SOL     OW18697   4.186   2.247   2.941 -0.4482 -0.5783 -0.4094
 6151SOL    HW118698   4.143   2.330   2.961 -0.2023 -0.3522 -0.8171
 6151SOL    HW218699   4.217   2.257   2.852  0.4919 -0.7174 -0.1086
 6152SOL     OW18700   0.253   4.479   0.199  0.0357  0.3057 -0.6541
 6152SOL    HW118701   0.159   4.492   0.213 -0.1270 -1.3786  0.1398
 6152SOL    HW218702   0.280   4.553   0.145 -1.5469  1.3468 -0.0947
 6153SOL     OW18703   3.628   5.478   2.341  0.2327 -0.0009 -0.3700
 6153SOL    HW118704   3.566   5.503   2.272 -1.0913  0.7297  1.0184
 6153SOL    HW218705   3.685   5.554   2.351 -1.7175  1.3021  1.5940
 6154SOL     OW18706   4.685   3.710   0.295  0.3178 -0.6500  0.0700
 6154SOL    HW118707   4.728   3.731   0.378 -0.9259  0.4292  0.4666
 6154SOL    HW218708   4.750   3.732   0.228  0.3433  1.1971  0.6451
 6155SOL     OW18709   0.048   3.604   1.466 -0.5103  0.4879 -0.1979
 6155SOL    HW118710   0.107   3.598   1.542  1.3494  1.0352 -1.5182
 6155SOL    HW218711  -0.010   3.529   1.475  1.3737 -0.9978  0.4293
 6156SOL     OW18712   0.858   3.079   5.151  0.3219  0.9063 -0.4646
 6156SOL    HW118713   0.878   3.022   5.225 -1.3056 -0.9070 -1.3114
 6156SOL    HW218714   0.942   3.090   5.106  1.0141  0.7061  0.7351
 6157SOL     OW18715   3.424   2.941   0.980  0.6226  0.0707 -0.0595
 6157SOL    HW118716   3.332   2.950   0.955  0.2240  0.6317  1.4837
 6157SOL    HW218717   3.440   2.847   0.978  0.5953  0.0536 -2.1618
 6158SOL     OW18718   2.970   3.557   3.027 -0.8831 -0.3480  0.2861
 6158SOL    HW118719   2.953   3.504   2.950  1.2348 -2.2606  1.0076
 6158SOL    HW218720   3.066   3.560   3.033 -0.9792  0.9363  2.0660
 6159SOL     OW18721   4.853   4.350   2.994 -0.1012 -0.1146 -0.3604
 6159SOL    HW118722   4.938   4.392   2.982  0.2032 -0.7346 -0.4674
 6159SOL    HW218723   4.805   4.406   3.055  0.2366  0.4468 -0.6136
 6160SOL     OW18724   5.918   2.387   0.535  0.1572  0.2816  0.1343
 6160SOL    HW118725   5.927   2.298   0.569  0.5158  0.1362 -0.3272
 6160SOL    HW218726   5.826   2.409   0.550  0.1293 -0.0690  0.4892
 6161SOL     OW18727   0.866   6.019   5.240 -0.0574  0.0195 -0.4573
 6161SOL    HW118728   0.856   5.939   5.292  0.2333 -0.2527 -0.8039
 6161SOL    HW218729   0.776   6.046   5.221 -0.2413  1.3469  1.9624
 6162SOL     OW18730   5.945   1.604   4.607  0.0105 -0.6334 -0.2228
 6162SOL    HW118731   5.927   1.510   4.605  1.6141 -0.9648 -1.9158
 6162SOL    HW218732   6.015   1.614   4.672 -1.0222 -0.3985  0.8849
 6163SOL     OW18733   4.872   4.712   1.472 -0.3144 -0.2482 -0.0905
 6163SOL    HW118734   4.891   4.732   1.381 -0.4028 -0.9205 -0.2561
 6163SOL    HW218735   4.789   4.757   1.489 -0.3932 -0.2761 -0.3961
 6164SOL     OW18736   6.046   3.020   0.535 -0.3831 -0.4134  0.4310
 6164SOL    HW118737   6.004   2.952   0.482 -1.2047  0.2325  0.2288
 6164SOL    HW218738   6.012   3.006   0.624  0.6120 -1.1877  0.7081
 6165SOL     OW18739   2.732   2.565   3.184  0.3721 -0.7524 -0.2333
 6165SOL    HW118740   2.706   2.483   3.224  0.0557 -0.3905  0.3201
 6165SOL    HW218741   2.794   2.603   3.246 -0.6209  0.1232  0.2610
 6166SOL     OW18742   0.875   2.350   3.564 -0.6398  0.3267 -0.2133
 6166SOL    HW118743   0.966   2.322   3.579 -0.9311  0.4633  2.4391
 6166SOL    HW218744   0.837   2.281   3.510  0.5982 -0.6262  0.0784
 6167SOL     OW18745   1.113   0.019   5.110  0.2118  0.5467 -0.2530
 6167SOL    HW118746   1.073   0.105   5.126  1.1002  1.1275 -1.0036
 6167SOL    HW218747   1.057  -0.043   5.156 -1.4124  1.3392 -1.0802
 6168SOL     OW18748   5.944   2.905   4.340  0.2444  0.1884 -0.1517
 6168SOL    HW118749   5.916   2.869   4.424  0.9577  2.0671  0.9541
 6168SOL    HW218750   5.985   2.831   4.294 -3.7255 -1.9783 -0.6779
 6169SOL     OW18751   1.870   4.918   4.057  0.4104  0.5262 -0.2742
 6169SOL    HW118752   1.947   4.922   4.001  1.7204  0.5243  1.4472
 6169SOL    HW218753   1.902   4.943   4.144 -2.0325  3.1221  0.0430
 6170SOL     OW18754   4.793   2.668   5.612 -0.3615  0.3769 -0.5477
 6170SOL    HW118755   4.879   2.668   5.570  0.0337 -1.6546  0.1112
 6170SOL    HW218756   4.795   2.742   5.672  1.7205 -0.7274  0.8741
 6171SOL     OW18757   4.517   1.980   3.986  0.2844  0.2759  0.1550
 6171SOL    HW118758   4.504   1.912   3.920  3.4589 -0.6950  0.3748
 6171SOL    HW218759   4.493   1.938   4.069 -1.4018  0.7251 -0.0699
 6172SOL     OW18760   2.186   1.645   5.389  0.1870  0.0654 -0.5410
 6172SOL    HW118761   2.267   1.692   5.410  0.5902 -0.0622 -1.7589
 6172SOL    HW218762   2.208   1.589   5.315 -0.9540 -0.1559 -0.7390
 6173SOL     OW18763   4.102   1.684   2.903  0.2890 -0.3952  0.5613
 6173SOL    HW118764   4.143   1.769   2.886  0.4072 -0.5261  0.1709
 6173SOL    HW218765   4.084   1.649   2.816 -0.1667 -0.5766  0.7286
 6174SOL     OW18766   5.452   2.615   0.539 -0.2811 -0.0261 -0.1947
 6174SOL    HW118767   5.373   2.561   0.537 -0.4874  0.2228  0.6505
 6174SOL    HW218768   5.444   2.666   0.620 -0.8300  2.3728 -1.6628
 6175SOL     OW18769   3.951   3.265   2.278 -0.2329  0.2958  0.7052
 6175SOL    HW118770   4.015   3.336   2.272 -0.2075  0.2504  0.4073
 6175SOL    HW218771   3.892   3.292   2.349 -0.3146  0.6886  0.4938
 6176SOL     OW18772   1.245   5.922   2.316  0.2084 -0.4760  0.0311
 6176SOL    HW118773   1.160   5.894   2.349 -0.5720 -0.0678 -1.5645
 6176SOL    HW218774   1.252   6.013   2.344 -0.5906 -0.0351 -1.1344
 6177SOL     OW18775   3.486   4.168   2.638 -0.2561 -0.0999 -0.1720
 6177SOL    HW118776   3.536   4.130   2.710 -0.7247 -0.8225 -0.2269
 6177SOL    HW218777   3.491   4.103   2.568  0.1980  0.5955 -0.8010
 6178SOL     OW18778   1.022   3.614   5.228 -0.2144  0.0395 -0.1143
 6178SOL    HW118779   1.055   3.608   5.138 -0.5681  1.1053 -0.3268
 6178SOL    HW218780   1.076   3.553   5.277 -1.5211 -2.4017 -1.4751
 6179SOL     OW18781   2.888   3.975   5.045 -0.2461  0.3386  0.1445
 6179SOL    HW118782   2.890   3.879   5.042 -0.2193  0.3455 -0.0425
 6179SOL    HW218783   2.804   3.995   5.085 -0.8127  0.2554 -0.9509
 6180SOL     OW18784   6.001   0.295   0.730  0.3461 -0.5584 -0.6432
 6180SOL    HW118785   5.961   0.239   0.663 -1.3392 -1.0209  0.7047
 6180SOL    HW218786   5.987   0.249   0.812 -0.1162  1.3219  0.3857
 6181SOL     OW18787   1.831   3.914   1.571  0.1257  0.6776  0.0450
 6181SOL    HW118788   1.921   3.885   1.554 -0.0236  0.3394 -0.1544
 6181SOL    HW218789   1.776   3.844   1.537 -0.1817 -0.0797  1.9254
 6182SOL     OW18790   4.766   5.457   0.136 -0.2541 -0.2068 -0.6761
 6182SOL    HW118791   4.672   5.448   0.123 -0.5234 -0.1328  1.0052
 6182SOL    HW218792   4.805   5.389   0.081 -1.3903 -1.2951 -0.1752
 6183SOL     OW18793   4.616   6.108   2.186  0.0613 -0.4625  0.4623
 6183SOL    HW118794   4.527   6.140   2.170  0.2532 -0.2397 -0.2184
 6183SOL    HW218795   4.626   6.110   2.281 -0.8140 -0.9160  0.5696
 6184SOL     OW18796   1.653   5.551   0.040  0.6675  0.1395  0.9638
 6184SOL    HW118797   1.602   5.618  -0.004 -0.6440 -1.1696  0.4006
 6184SOL    HW218798   1.713   5.599   0.096 -1.5418  1.7782  2.0641
 6185SOL     OW18799   1.572   3.432   1.000  0.2177 -0.5750  0.0633
 6185SOL    HW118800   1.562   3.492   1.074  1.1572 -1.4344  0.9252
 6185SOL    HW218801   1.646   3.377   1.023  0.5558 -0.8600 -1.5488
 6186SOL     OW18802   0.951   2.943   4.640 -0.2329  0.6479 -0.3783
 6186SOL    HW118803   0.937   2.892   4.720 -0.9460  2.2341  0.5754
 6186SOL    HW218804   1.006   2.888   4.585  1.5638  0.0763  1.8213
 6187SOL     OW18805   4.905   4.070   3.596 -0.4041  0.1098  0.8669
 6187SOL    HW118806   4.815   4.094   3.621  0.6126  1.5201  3.6111
 6187SOL    HW218807   4.916   3.982   3.630 -0.2472  0.5964  2.1375
 6188SOL     OW18808   2.755   1.946   1.280 -0.4593 -0.3604  0.1075
 6188SOL    HW118809   2.691   1.875   1.291 -0.0436 -0.6973  0.4092
 6188SOL    HW218810   2.702   2.026   1.275 -0.9678 -0.7471 -0.8621
 6189SOL     OW18811   2.638   5.421   0.707  0.3392  0.2090 -0.1567
 6189SOL    HW118812   2.600   5.399   0.622 -0.8199  0.6799  0.2280
 6189SOL    HW218813   2.688   5.343   0.731 -1.6670 -1.0786  0.0396
 6190SOL     OW18814   2.325   1.277   0.005  0.2290  0.3898 -0.2181
 6190SOL    HW118815   2.410   1.313   0.031  1.0468 -2.1911  0.9451
 6190SOL    HW218816   2.299   1.221   0.077 -1.3681 -0.6896 -1.5648
 6191SOL     OW18817   3.766   0.710   3.951 -0.3087 -0.0170 -0.1209
 6191SOL    HW118818   3.734   0.712   4.041  0.9583  1.3188  0.3240
 6191SOL    HW218819   3.704   0.765   3.902  0.5770  1.5994  0.5110
 6192SOL     OW18820   3.944   0.034   3.505  0.0311 -0.0606  0.1209
 6192SOL    HW118821   3.950   0.128   3.491  2.0007 -0.0269  0.8416
 6192SOL    HW218822   3.875   0.024   3.570  1.2557  1.1358  1.6985
 6193SOL     OW18823   3.869   4.647   3.845  0.4002  0.4192  0.2075
 6193SOL    HW118824   3.778   4.642   3.817  0.2306 -0.0713  0.8287
 6193SOL    HW218825   3.866   4.695   3.928  0.7206  0.4864  0.1831
 6194SOL     OW18826   5.119   5.009   4.843  0.2061  0.6730  0.1354
 6194SOL    HW118827   5.158   5.095   4.826 -0.1510  0.6977 -0.6146
 6194SOL    HW218828   5.042   5.007   4.786 -0.2316  0.1667  0.7434
 6195SOL     OW18829   2.671   2.250   4.994  0.1015 -0.6691  0.5625
 6195SOL    HW118830   2.645   2.287   5.078  0.7884 -0.7370  0.8115
 6195SOL    HW218831   2.670   2.155   5.009 -0.7138 -0.7282  0.2065
 6196SOL     OW18832   1.097   4.727   1.460  0.7638  0.5996 -0.3790
 6196SOL    HW118833   1.154   4.675   1.403 -0.1188  0.5499 -1.2477
 6196SOL    HW218834   1.064   4.797   1.403 -1.9004 -0.7276 -0.6351
 6197SOL     OW18835   5.347   1.270   2.811 -0.0718  0.1109  0.5623
 6197SOL    HW118836   5.407   1.281   2.884  0.1755 -0.1320  0.3967
 6197SOL    HW218837   5.273   1.328   2.832  0.3143  0.5775  0.6619
 6198SOL     OW18838   4.820   4.301   0.897 -0.6663  0.0826 -0.0570
 6198SOL    HW118839   4.744   4.356   0.880 -0.2445  0.5435 -0.4849
 6198SOL    HW218840   4.856   4.333   0.980  0.6618  1.7211 -1.2046
 6199SOL     OW18841   1.637   4.171   5.687 -0.2000  0.6014  0.5314
 6199SOL    HW118842   1.578   4.215   5.748  0.7055  0.3118  1.6427
 6199SOL    HW218843   1.616   4.210   5.602 -0.9436  1.5849  1.1422
 6200SOL     OW18844   5.984   1.804   2.954 -0.3136 -0.5520  1.0304
 6200SOL    HW118845   5.969   1.898   2.941 -1.5117 -0.7062  1.1857
 6200SOL    HW218846   6.078   1.794   2.945 -0.4586  0.0252 -3.1888
 6201SOL     OW18847   4.216   5.391   5.251  0.3856  0.0441 -0.0998
 6201SOL    HW118848   4.207   5.302   5.216  0.0996  0.6083 -1.5259
 6201SOL    HW218849   4.127   5.417   5.273  0.6202 -0.5192  1.7051
 6202SOL     OW18850   2.374   5.611   2.714 -0.1486 -0.7331  0.6034
 6202SOL    HW118851   2.359   5.596   2.621 -1.2135  0.5175  0.5374
 6202SOL    HW218852   2.429   5.538   2.742 -0.8166 -1.7939 -0.7294
 6203SOL     OW18853   0.584   0.915   2.417 -0.1531 -0.0998 -0.3830
 6203SOL    HW118854   0.646   0.873   2.476  0.9571 -0.5089 -1.7804
 6203SOL    HW218855   0.506   0.929   2.470  0.6478 -0.8246  1.0456
 6204SOL     OW18856   3.220   2.010   4.258  0.3679 -0.2405 -0.3385
 6204SOL    HW118857   3.248   2.100   4.243  0.3485 -0.4107 -1.5007
 6204SOL    HW218858   3.147   2.017   4.319  0.6542  0.4899 -0.0730
 6205SOL     OW18859   5.131   1.519   5.975 -0.5137 -0.0993  0.0374
 6205SOL    HW118860   5.124   1.567   6.057 -1.2680 -0.2838  0.0952
 6205SOL    HW218861   5.153   1.585   5.910  0.8350 -0.0677  0.4967
 6206SOL     OW18862   4.303   0.134   3.899  0.3108 -0.7770  0.0938
 6206SOL    HW118863   4.306   0.177   3.984 -0.5609  0.7661 -0.6234
 6206SOL    HW218864   4.228   0.075   3.904 -1.3078  1.1226 -0.3679
 6207SOL     OW18865   1.486   1.075   3.758  0.5420 -0.1080 -0.2247
 6207SOL    HW118866   1.495   1.166   3.786  2.4676 -0.6272  1.0412
 6207SOL    HW218867   1.472   1.026   3.839 -2.0024 -0.8406 -1.0227
 6208SOL     OW18868   4.525   5.500   0.453 -0.4780 -0.0267 -0.2798
 6208SOL    HW118869   4.545   5.528   0.543  1.2774  0.2950 -0.7477
 6208SOL    HW218870   4.541   5.578   0.400  1.0577 -0.9172 -1.1795
 6209SOL     OW18871   5.870   0.548   3.004 -0.6379 -0.0151  0.7215
 6209SOL    HW118872   5.822   0.631   3.004 -2.5042 -0.7452 -4.0332
 6209SOL    HW218873   5.805   0.483   3.029 -0.4510 -0.4362  0.1422
 6210SOL     OW18874   3.359   1.451   3.322  0.0712 -0.0478 -0.0940
 6210SOL    HW118875   3.383   1.501   3.243 -0.3681 -0.6691 -0.6351
 6210SOL    HW218876   3.288   1.393   3.293 -0.5194  0.1493  0.9155
 6211SOL     OW18877   0.010   5.546   3.281 -0.0030  0.0932 -0.0951
 6211SOL    HW118878  -0.023   5.474   3.228 -0.5185 -0.0387  0.3981
 6211SOL    HW218879   0.094   5.514   3.314  0.1465  0.0342 -0.5261
 6212SOL     OW18880   1.224   5.391   0.965  0.2873  0.8065  0.0595
 6212SOL    HW118881   1.182   5.461   0.915  0.7724 -0.4454 -2.2345
 6212SOL    HW218882   1.174   5.387   1.047 -4.0821 -0.3550 -2.2914
 6213SOL     OW18883   2.377   4.392   2.173  0.5027 -0.6806 -0.0459
 6213SOL    HW118884   2.425   4.460   2.220  1.8321 -0.9782 -0.8944
 6213SOL    HW218885   2.414   4.393   2.085 -1.3093 -0.7279 -0.8574
 6214SOL     OW18886   5.281   5.926   0.242  0.2161 -0.0262 -0.5371
 6214SOL    HW118887   5.212   5.872   0.281 -0.4551  0.8041 -0.5571
 6214SOL    HW218888   5.236   6.006   0.213  1.4892  1.3755  1.1623
 6215SOL     OW18889   0.553   2.591   4.426  0.3083  0.6039 -0.3773
 6215SOL    HW118890   0.582   2.556   4.510 -1.2843 -0.5029 -0.2374
 6215SOL    HW218891   0.563   2.519   4.364 -2.1260  0.1003 -0.2880
 6216SOL     OW18892   5.305   1.920   0.341 -0.2875 -0.0087  0.3632
 6216SOL    HW118893   5.386   1.870   0.336 -0.1854  0.2336 -0.5739
 6216SOL    HW218894   5.278   1.932   0.250 -1.0527  0.4426  0.6349
 6217SOL     OW18895   1.317   6.002   0.424  0.7253 -0.2081  0.3486
 6217SOL    HW118896   1.331   6.080   0.478  1.0785 -1.1005  1.6152
 6217SOL    HW218897   1.400   5.954   0.430  0.8005 -0.3050 -1.0862
 6218SOL     OW18898   3.631   3.310   4.406 -0.5525  0.4253  0.5470
 6218SOL    HW118899   3.698   3.248   4.435 -0.6470  0.4853  0.9020
 6218SOL    HW218900   3.663   3.395   4.434 -1.5285  0.2932  2.1681
 6219SOL     OW18901   4.953   5.225   2.910  0.4657 -0.0902  0.4312
 6219SOL    HW118902   4.898   5.205   2.985 -0.0747  0.4894  0.1904
 6219SOL    HW218903   4.892   5.240   2.838  0.9640 -0.1968 -0.0208
 6220SOL     OW18904   3.718   3.600   1.294  0.6951  0.3401  0.3175
 6220SOL    HW118905   3.656   3.671   1.310  0.9294  0.6457 -0.0963
 6220SOL    HW218906   3.705   3.540   1.367 -1.0827 -0.3207 -0.4848
 6221SOL     OW18907   0.470   2.178   0.572  0.1829  0.4270 -0.1411
 6221SOL    HW118908   0.393   2.192   0.627  0.7745  3.4507  0.0601
 6221SOL    HW218909   0.465   2.245   0.505  2.1132  0.0251 -0.7544
 6222SOL     OW18910   5.097   3.657   0.811 -0.5711 -0.3134 -0.0250
 6222SOL    HW118911   5.011   3.698   0.804 -1.5283 -2.1789  0.0025
 6222SOL    HW218912   5.127   3.678   0.899  0.0701  2.2108 -0.7624
 6223SOL     OW18913   2.241   2.457   0.107 -0.0690  0.1494  0.5021
 6223SOL    HW118914   2.320   2.441   0.056  0.3910  0.8232  0.9868
 6223SOL    HW218915   2.253   2.405   0.187 -0.3993 -0.2321  0.3074
 6224SOL     OW18916   5.774   3.044   5.108 -0.1123 -0.0577  0.0999
 6224SOL    HW118917   5.688   3.018   5.140  0.0527  0.2457  0.8043
 6224SOL    HW218918   5.777   3.139   5.119  0.2502 -0.0461 -0.0685
 6225SOL     OW18919   1.795   3.978   3.727  0.0113  0.1437 -0.5216
 6225SOL    HW118920   1.791   3.898   3.676  0.9432  1.1262 -2.2122
 6225SOL    HW218921   1.798   4.048   3.662 -0.4253  1.5415  0.9038
 6226SOL     OW18922   1.059   2.232   4.964  0.5583 -0.4931  0.2070
 6226SOL    HW118923   1.112   2.252   4.886 -0.7231 -1.0118 -0.8319
 6226SOL    HW218924   1.056   2.136   4.967  2.0373 -0.5322  1.9391
 6227SOL     OW18925   4.447   3.102   0.740 -0.0721 -0.1829  0.1903
 6227SOL    HW118926   4.419   3.012   0.722 -1.2272 -0.3077  2.3103
 6227SOL    HW218927   4.365   3.151   0.749  0.4962  0.6147  1.2121
 6228SOL     OW18928   3.068   5.558   1.869 -0.0578  0.2964  0.0392
 6228SOL    HW118929   2.980   5.558   1.907 -0.1822 -0.7247 -0.2066
 6228SOL    HW218930   3.054   5.538   1.776  0.4153  0.2727 -0.0279
 6229SOL     OW18931   0.245   2.010   3.320 -0.1791  0.2288  0.1678
 6229SOL    HW118932   0.274   1.927   3.359  1.7566  0.4858 -0.6166
 6229SOL    HW218933   0.173   2.038   3.376  0.2224 -1.1436  1.4602
 6230SOL     OW18934   6.001   5.124   0.283  0.8504  0.5002 -0.3753
 6230SOL    HW118935   6.069   5.056   0.277  2.0262  1.7494 -2.3283
 6230SOL    HW218936   5.922   5.082   0.249  0.7513 -0.7743  1.2954
 6231SOL     OW18937   2.030   5.850   0.998  0.1436 -0.2604  0.3806
 6231SOL    HW118938   2.064   5.873   0.911  0.6421  1.0103  0.8830
 6231SOL    HW218939   2.033   5.754   1.001 -0.0986 -0.3315 -1.0812
 6232SOL     OW18940   5.030   2.672   3.843 -0.6877  0.0162 -0.0449
 6232SOL    HW118941   5.107   2.723   3.870 -0.0428 -1.7973  1.8291
 6232SOL    HW218942   4.966   2.685   3.912 -1.2343 -0.2184 -0.4967
 6233SOL     OW18943   3.624   1.013   0.809 -0.5707  0.0298  0.3575
 6233SOL    HW118944   3.581   1.019   0.724  0.7082  1.4135 -0.2374
 6233SOL    HW218945   3.574   0.946   0.856 -1.4582 -0.6013 -1.3740
 6234SOL     OW18946   3.407   1.456   6.087 -0.5067 -0.0918 -0.3040
 6234SOL    HW118947   3.395   1.544   6.122 -1.9621 -0.5169  0.3204
 6234SOL    HW218948   3.475   1.418   6.143 -0.3019  0.4205 -0.1965
 6235SOL     OW18949   1.027   4.077   3.378 -0.3822 -0.0876  0.1171
 6235SOL    HW118950   0.998   4.020   3.307  0.7657 -0.6825  0.0960
 6235SOL    HW218951   1.113   4.108   3.351  0.6317 -1.2826  1.7341
 6236SOL     OW18952   4.674   1.414   1.070  0.3619  0.3140  0.0203
 6236SOL    HW118953   4.690   1.372   0.985  0.8228  0.2234  0.1477
 6236SOL    HW218954   4.588   1.384   1.096  1.2226 -1.6833  0.7511
 6237SOL     OW18955   0.666   4.444   2.734  0.1411  0.1472 -0.0007
 6237SOL    HW118956   0.656   4.405   2.648 -0.1214  1.1738 -0.4478
 6237SOL    HW218957   0.759   4.437   2.753 -0.0259 -1.5053  0.3368
 6238SOL     OW18958   2.433   2.438   1.849 -0.1646 -0.1266 -0.3781
 6238SOL    HW118959   2.527   2.429   1.857 -0.0538  0.3551 -1.0547
 6238SOL    HW218960   2.415   2.529   1.876 -0.5930 -0.5712  0.9536
 6239SOL     OW18961   0.438   1.869   5.415 -0.1330  0.4104  0.3263
 6239SOL    HW118962   0.399   1.952   5.443  1.6084  2.3688 -2.5540
 6239SOL    HW218963   0.426   1.868   5.320  2.1539 -1.4072 -0.0080
 6240SOL     OW18964   5.823   3.112   3.156  0.3763  0.4064  0.1896
 6240SOL    HW118965   5.879   3.076   3.225 -0.9048 -0.9832  0.5717
 6240SOL    HW218966   5.789   3.194   3.194 -1.4295 -1.0243  1.8873
 6241SOL     OW18967   0.645   1.118   3.292  0.0647  0.1609 -0.2366
 6241SOL    HW118968   0.701   1.040   3.298 -1.3482 -0.8425  0.6635
 6241SOL    HW218969   0.558   1.083   3.272 -0.5224  1.5591 -0.2201
 6242SOL     OW18970   4.338   1.973   0.587 -0.5313 -0.3029 -0.0536
 6242SOL    HW118971   4.412   1.930   0.544  0.3534  0.7933  0.2973
 6242SOL    HW218972   4.310   2.039   0.524 -1.0050 -0.5071 -0.0556
 6243SOL     OW18973   2.870   4.958   5.671 -0.5143  0.4636  0.2207
 6243SOL    HW118974   2.790   4.967   5.723 -0.7085  0.7725 -0.1310
 6243SOL    HW218975   2.917   4.886   5.713 -0.6875  0.6824  0.8034
 6244SOL     OW18976   0.843   4.085   5.350 -0.0088  0.1339 -0.4659
 6244SOL    HW118977   0.866   4.178   5.354  0.2166  0.0742 -0.3123
 6244SOL    HW218978   0.766   4.077   5.405  2.0566 -0.3830  2.6004
 6245SOL     OW18979   5.539   3.946   3.890  0.1938  0.2817  0.7708
 6245SOL    HW118980   5.465   3.920   3.836 -0.5865  0.9495  1.4867
 6245SOL    HW218981   5.578   3.863   3.919  0.9085 -0.0983 -1.1407
 6246SOL     OW18982   0.584   2.621   2.953 -0.3491 -0.0786 -0.2590
 6246SOL    HW118983   0.621   2.555   2.895 -2.7915 -1.5739 -0.2399
 6246SOL    HW218984   0.593   2.584   3.041  0.1868  0.6021 -0.0165
 6247SOL     OW18985   4.223   5.025   5.744  0.2633 -0.3039 -0.1405
 6247SOL    HW118986   4.280   5.006   5.670 -0.7620 -1.8426 -0.5903
 6247SOL    HW218987   4.138   5.046   5.705  0.0906  0.3729  0.5623
 6248SOL     OW18988   4.358   3.942   0.746 -0.6405  0.3815  0.0232
 6248SOL    HW118989   4.301   4.014   0.720 -1.3320 -0.4097 -0.7310
 6248SOL    HW218990   4.299   3.867   0.757  0.2574 -0.5629 -1.1883
 6249SOL     OW18991   1.371   5.817   4.053 -0.4414  0.0673 -0.4139
 6249SOL    HW118992   1.392   5.739   4.003 -1.0730 -0.8847  0.7385
 6249SOL    HW218993   1.418   5.888   4.009 -1.5606 -0.5572 -2.7642
 6250SOL     OW18994   5.946   4.681   2.890  0.3275 -0.0775 -0.2230
 6250SOL    HW118995   5.856   4.689   2.920  0.4070  4.3296 -0.4425
 6250SOL    HW218996   5.998   4.729   2.955  2.0165  0.2429 -1.7062
 6251SOL     OW18997   1.493   3.577   5.031 -0.2599  0.2197 -0.2847
 6251SOL    HW118998   1.532   3.602   5.115  0.4929  0.2651 -0.6379
 6251SOL    HW218999   1.529   3.491   5.012 -0.6210  0.1009 -0.4464
 6252SOL     OW19000   2.778   4.362   4.300  0.0735 -0.5827  0.2584
 6252SOL    HW119001   2.715   4.433   4.314  0.9965  0.5182 -0.9198
 6252SOL    HW219002   2.799   4.332   4.388 -0.9128  0.0914  0.7515
 6253SOL     OW19003   3.588   1.534   3.650 -0.3328 -0.2771 -0.1456
 6253SOL    HW119004   3.601   1.521   3.744 -3.0372  2.7859  0.8648
 6253SOL    HW219005   3.662   1.587   3.622 -1.1064  1.5785  1.1364
 6254SOL     OW19006   4.292   0.421   4.782  0.4971 -0.7560  0.1006
 6254SOL    HW119007   4.229   0.349   4.776  0.9538 -1.1552  0.0150
 6254SOL    HW219008   4.240   0.496   4.810  0.6300 -2.0015  4.3006
 6255SOL     OW19009   1.850   1.946   0.572  0.9825 -0.1003  0.3335
 6255SOL    HW119010   1.844   1.874   0.509 -0.4130  0.1735  0.1290
 6255SOL    HW219011   1.759   1.970   0.590  1.3777  2.2934 -0.4071
 6256SOL     OW19012   1.832   2.691   5.064  0.1640 -0.0399  0.0594
 6256SOL    HW119013   1.851   2.703   4.971  0.7562 -0.0456  0.1743
 6256SOL    HW219014   1.852   2.775   5.104  0.6639 -0.2667  0.2964
 6257SOL     OW19015   0.465   3.271   1.302  0.0908 -0.7625 -0.6007
 6257SOL    HW119016   0.390   3.306   1.350 -1.1077 -2.3215 -1.2455
 6257SOL    HW219017   0.515   3.223   1.368  1.4487  1.5380  0.1702
 6258SOL     OW19018   5.166   4.305   2.663 -0.3017 -0.3410  0.0170
 6258SOL    HW119019   5.139   4.328   2.752 -0.0479  2.3892 -0.5117
 6258SOL    HW219020   5.190   4.213   2.668 -0.4709 -0.3156  2.7287
 6259SOL     OW19021   2.745   5.290   4.234 -0.2079 -0.2157 -0.3286
 6259SOL    HW119022   2.714   5.333   4.154 -0.1127 -1.4235 -1.0518
 6259SOL    HW219023   2.670   5.237   4.263  0.5409 -1.7089 -1.0402
 6260SOL     OW19024   4.654   6.084   3.712  0.0201 -0.1389  0.1070
 6260SOL    HW119025   4.647   6.111   3.804 -2.4558 -0.9229  0.2350
 6260SOL    HW219026   4.746   6.060   3.700  0.3874 -0.0611  2.3767
 6261SOL     OW19027   4.128   6.052   1.165 -0.3330 -0.1533  0.4981
 6261SOL    HW119028   4.141   6.073   1.072  0.1730 -0.1472  0.5685
 6261SOL    HW219029   4.158   6.129   1.212 -0.4133 -0.2290  0.6775
 6262SOL     OW19030   4.899   4.745   0.901  0.1271  0.0144  0.1638
 6262SOL    HW119031   4.879   4.691   0.825 -0.0682  0.2405  0.0521
 6262SOL    HW219032   4.813   4.765   0.939 -0.0017  2.1008 -1.0814
 6263SOL     OW19033   1.676   3.350   3.967  0.1592 -0.3644 -0.0184
 6263SOL    HW119034   1.661   3.348   4.062  2.4006  1.3543  0.4872
 6263SOL    HW219035   1.608   3.408   3.933  1.0897  1.4875  1.0683
 6264SOL     OW19036   0.901   4.021   0.551  0.3737 -0.2410 -0.6760
 6264SOL    HW119037   0.897   3.944   0.494  1.1733  0.4215 -1.6699
 6264SOL    HW219038   0.812   4.057   0.550 -0.2573 -1.6631  0.5744
 6265SOL     OW19039   0.556   3.057   3.981 -0.2708 -0.0289  0.1199
 6265SOL    HW119040   0.647   3.030   3.979 -0.1319  0.4341 -0.1049
 6265SOL    HW219041   0.552   3.132   3.921 -0.8096 -0.0876  0.0722
 6266SOL     OW19042   4.807   5.499   1.636 -0.2316 -0.0353 -0.4659
 6266SOL    HW119043   4.812   5.452   1.719  2.1252  2.0123  0.6875
 6266SOL    HW219044   4.718   5.533   1.633 -0.5553 -0.6931  0.9207
 6267SOL     OW19045   0.836   1.407   5.301  0.2939 -0.1450 -0.0920
 6267SOL    HW119046   0.793   1.338   5.351  1.8860  1.3096  3.5892
 6267SOL    HW219047   0.900   1.360   5.247 -1.2743 -1.7652 -0.6671
 6268SOL     OW19048   5.567   3.526   4.108 -0.4957 -0.5922  0.1484
 6268SOL    HW119049   5.581   3.462   4.178  1.0206 -0.2577  0.1799
 6268SOL    HW219050   5.519   3.477   4.040 -0.3513 -1.4338  0.6358
 6269SOL     OW19051   2.569   3.378   0.607 -0.3526  0.1891 -0.1864
 6269SOL    HW119052   2.477   3.403   0.612 -0.3279  0.3288 -0.4265
 6269SOL    HW219053   2.583   3.324   0.685 -0.1814  1.6694  0.8637
 6270SOL     OW19054   2.232   4.645   1.805 -0.4504 -0.0431  0.9460
 6270SOL    HW119055   2.202   4.554   1.812 -0.3186 -0.1893 -0.1591
 6270SOL    HW219056   2.295   4.644   1.733  1.1566  0.5350  2.2671
 6271SOL     OW19057   4.868   4.243   3.255 -0.4820  0.2716 -0.1561
 6271SOL    HW119058   4.893   4.324   3.300  0.4205  0.0879 -0.2982
 6271SOL    HW219059   4.875   4.264   3.162  1.9894 -0.5589 -0.2410
 6272SOL     OW19060   6.019   0.412   1.743 -0.8182  0.1642 -0.0158
 6272SOL    HW119061   6.031   0.317   1.743 -0.0618  0.2428  0.8292
 6272SOL    HW219062   5.952   0.428   1.677 -2.0237 -1.1032  0.8567
 6273SOL     OW19063   2.436   5.847   2.804  0.0531 -0.3246 -0.3424
 6273SOL    HW119064   2.407   5.763   2.767 -1.4226  0.8083 -1.9509
 6273SOL    HW219065   2.420   5.910   2.733  2.0144  1.1824  0.4814
 6274SOL     OW19066   3.469   0.001   5.636 -0.3526  0.2987  0.0723
 6274SOL    HW119067   3.458   0.094   5.657  1.6834  0.5549  0.2851
 6274SOL    HW219068   3.382  -0.037   5.648 -0.9516  1.9099  1.3465
 6275SOL     OW19069   5.544   0.205   6.135 -0.2346 -0.8990  0.0038
 6275SOL    HW119070   5.562   0.126   6.083 -1.5189 -1.4499  0.3431
 6275SOL    HW219071   5.519   0.271   6.071  0.0244 -1.0156 -0.2190
 6276SOL     OW19072   2.885   5.900   3.734 -0.6450  0.4516 -0.2084
 6276SOL    HW119073   2.810   5.895   3.675 -1.1908 -0.5007  0.5313
 6276SOL    HW219074   2.901   5.994   3.744 -0.0843  0.6457 -2.3913
 6277SOL     OW19075   5.220   2.956   5.242 -0.0644  0.3362  0.2366
 6277SOL    HW119076   5.271   2.914   5.173 -0.2724  0.4443  0.0164
 6277SOL    HW219077   5.129   2.947   5.214 -0.3389 -1.5170  1.5278
 6278SOL     OW19078   2.703   3.537   1.231  0.5379  0.0728  0.3140
 6278SOL    HW119079   2.796   3.517   1.229  0.1424 -2.1324  1.3904
 6278SOL    HW219080   2.673   3.508   1.317 -1.4067 -0.6860 -0.5467
 6279SOL     OW19081   5.925   0.354   3.623 -0.0350 -0.1462 -0.2691
 6279SOL    HW119082   5.925   0.449   3.615 -0.1862 -0.1261 -0.0730
 6279SOL    HW219083   5.832   0.332   3.636 -0.0631 -0.3703 -0.8581
 6280SOL     OW19084   3.276   5.214   5.969  0.3133  0.2092  0.0711
 6280SOL    HW119085   3.247   5.283   5.910  0.4225  1.3422  1.3029
 6280SOL    HW219086   3.371   5.222   5.971  0.2257  2.0652  2.4786
 6281SOL     OW19087   5.606   3.030   5.406 -0.3598  0.0428  0.4508
 6281SOL    HW119088   5.681   2.976   5.381 -0.1684  1.2302 -1.7328
 6281SOL    HW219089   5.628   3.118   5.377 -2.0744  0.6748  0.9138
 6282SOL     OW19090   2.549   1.116   0.501 -0.7212  0.5693 -0.0343
 6282SOL    HW119091   2.477   1.153   0.552  0.2753 -0.6931  2.5197
 6282SOL    HW219092   2.527   1.022   0.495  0.9847  0.0190  1.4707
 6283SOL     OW19093   3.720   1.564   4.529 -0.4767 -0.4846  0.7188
 6283SOL    HW119094   3.639   1.518   4.546 -0.6078 -1.3517 -1.8239
 6283SOL    HW219095   3.706   1.652   4.566 -2.7467 -0.4693 -0.0365
 6284SOL     OW19096   2.893   2.986   0.096 -0.0797 -0.2147  0.2978
 6284SOL    HW119097   2.950   2.916   0.126 -0.0232  0.2618  1.3350
 6284SOL    HW219098   2.949   3.063   0.091  0.1442 -0.4464 -1.9825
 6285SOL     OW19099   0.203   5.320   1.288 -0.0896  0.5112 -0.2195
 6285SOL    HW119100   0.173   5.399   1.332 -1.8284 -0.0086 -0.4044
 6285SOL    HW219101   0.173   5.331   1.197  1.5321  0.5845 -0.7728
 6286SOL     OW19102   3.192   3.279   2.641 -0.6671 -0.1052  0.1388
 6286SOL    HW119103   3.124   3.258   2.578  0.7796 -1.5352 -1.0221
 6286SOL    HW219104   3.227   3.194   2.669 -0.3066  0.5470  1.7823
 6287SOL     OW19105   4.039   4.894   1.931  0.6264  0.1636 -0.7664
 6287SOL    HW119106   3.983   4.960   1.891  0.8726  0.3702 -0.7757
 6287SOL    HW219107   4.013   4.893   2.023 -0.4351 -0.8206 -1.0504
 6288SOL     OW19108   3.797   0.107   5.894  0.1732  0.4321  0.4703
 6288SOL    HW119109   3.810   0.202   5.896 -0.2628  0.4879  1.2498
 6288SOL    HW219110   3.852   0.076   5.822 -0.8764  1.4583 -0.8459
 6289SOL     OW19111   1.582   4.225   4.419 -0.4171  0.3665  0.0941
 6289SOL    HW119112   1.508   4.172   4.451  0.5898 -0.5306  1.0329
 6289SOL    HW219113   1.635   4.163   4.368  0.2808  0.7119  0.3970
 6290SOL     OW19114   0.963   4.083   3.004 -0.5269  0.6764  0.1390
 6290SOL    HW119115   0.894   4.113   3.064 -1.4164 -0.8145 -0.0809
 6290SOL    HW219116   0.969   4.152   2.938 -0.7938  1.4961  0.9449
 6291SOL     OW19117   4.118   2.463   5.549 -0.1136 -0.2560 -0.1203
 6291SOL    HW119118   4.111   2.385   5.604  2.0190  0.5727  1.4369
 6291SOL    HW219119   4.058   2.526   5.589 -0.2054 -0.3786 -0.0645
 6292SOL     OW19120   4.145   4.760   5.240 -0.4104 -0.3990  0.2102
 6292SOL    HW119121   4.078   4.738   5.305 -1.2517  0.3293 -0.3838
 6292SOL    HW219122   4.204   4.820   5.286 -0.5251 -0.5412  0.5479
 6293SOL     OW19123   0.475   5.150   5.326  0.5924 -0.0072  0.0806
 6293SOL    HW119124   0.470   5.243   5.347  1.6724  0.2087 -0.5708
 6293SOL    HW219125   0.448   5.106   5.407 -5.3613  0.8114 -0.9772
 6294SOL     OW19126   4.165   3.091   6.123 -0.1546  1.0068 -0.6640
 6294SOL    HW119127   4.231   3.151   6.158 -0.5326  0.2627  1.4854
 6294SOL    HW219128   4.213   3.011   6.103 -0.4106  0.1656  1.6911
 6295SOL     OW19129   5.712   4.090   0.278 -0.0799 -0.5743 -0.0070
 6295SOL    HW119130   5.726   4.058   0.189 -0.0530 -1.7988  0.4153
 6295SOL    HW219131   5.694   4.184   0.268 -2.0294 -1.0481 -1.4800
 6296SOL     OW19132   2.606   1.374   4.747  0.1442  0.4620 -0.7676
 6296SOL    HW119133   2.640   1.384   4.658  0.9485 -1.8412 -0.7917
 6296SOL    HW219134   2.674   1.325   4.793 -0.9522  0.2414  0.6898
 6297SOL     OW19135   4.580   0.683   5.766 -0.4680 -0.5023  0.3243
 6297SOL    HW119136   4.633   0.607   5.792  0.4511  0.3209  0.9262
 6297SOL    HW219137   4.588   0.744   5.839  1.9177  1.7838 -1.6639
 6298SOL     OW19138   0.384   1.811   3.516  0.3413  0.3256 -0.0371
 6298SOL    HW119139   0.427   1.760   3.447 -2.3325 -1.4935 -0.5122
 6298SOL    HW219140   0.303   1.763   3.534 -0.4425  2.3531  2.3312
 6299SOL     OW19141   2.519   1.764   1.537 -0.1733  0.3715 -0.8128
 6299SOL    HW119142   2.568   1.745   1.457  1.8583  0.7465  0.2680
 6299SOL    HW219143   2.512   1.680   1.582  1.8303  0.6904  0.2265
 6300SOL     OW19144   0.744   4.840   4.648  0.2918 -0.3717 -0.0343
 6300SOL    HW119145   0.770   4.748   4.649  0.3112 -0.3646  1.0196
 6300SOL    HW219146   0.815   4.885   4.602 -0.0856 -0.9736 -1.2517
 6301SOL     OW19147   5.399   1.319   4.339  0.1950  0.0268  0.2715
 6301SOL    HW119148   5.329   1.365   4.385 -0.2624  0.3376 -0.7005
 6301SOL    HW219149   5.472   1.381   4.338 -0.5332  0.9302 -1.3396
 6302SOL     OW19150   2.572   0.861   1.307  0.5634  0.4553  0.1944
 6302SOL    HW119151   2.631   0.845   1.381 -0.1269  0.4523  0.7523
 6302SOL    HW219152   2.629   0.856   1.230  1.1735 -0.2097  0.6694
 6303SOL     OW19153   6.011   0.771   0.498 -0.1783 -0.2689 -0.1920
 6303SOL    HW119154   5.932   0.741   0.453 -0.2338  1.1938 -1.1007
 6303SOL    HW219155   6.041   0.694   0.547  0.6890 -2.4611 -3.7735
 6304SOL     OW19156   4.551   2.895   0.210  0.1991 -0.9814 -0.7399
 6304SOL    HW119157   4.535   2.986   0.235 -1.0581 -1.2336 -0.5707
 6304SOL    HW219158   4.625   2.900   0.150 -1.2284  0.4553 -2.5216
 6305SOL     OW19159   1.490   3.989   5.544  0.1510 -0.0552 -0.6233
 6305SOL    HW119160   1.429   4.046   5.496 -0.7226  0.2537  0.8052
 6305SOL    HW219161   1.526   4.044   5.613  0.9762 -0.6488 -0.5697
 6306SOL     OW19162   5.035   3.261   2.792 -0.7310  0.0339  0.3823
 6306SOL    HW119163   4.984   3.236   2.715 -0.2230  0.8344 -0.2273
 6306SOL    HW219164   5.056   3.177   2.835  0.6983 -0.6265 -1.4611
 6307SOL     OW19165   0.360   6.044   1.666 -0.0802  0.1117 -0.2098
 6307SOL    HW119166   0.359   5.949   1.674  1.5871 -0.0340 -1.1814
 6307SOL    HW219167   0.268   6.069   1.657 -0.5853 -1.3337  0.7084
 6308SOL     OW19168   1.762   5.674   3.295  1.0580 -0.1537 -0.0888
 6308SOL    HW119169   1.700   5.606   3.270 -1.1855  1.9526 -0.6324
 6308SOL    HW219170   1.834   5.666   3.232 -1.2468  0.7020 -3.0169
 6309SOL     OW19171   5.631   2.417   4.860  0.1331 -0.6145  0.4597
 6309SOL    HW119172   5.553   2.386   4.907 -1.1367  1.3403 -0.2096
 6309SOL    HW219173   5.701   2.416   4.925 -1.5238  1.8688  2.5084
 6310SOL     OW19174   6.132   0.429   1.052 -0.1633 -0.4086  0.1972
 6310SOL    HW119175   6.061   0.480   1.013  0.0733 -0.6015 -0.5193
 6310SOL    HW219176   6.129   0.345   1.005  0.8709 -0.2246 -0.2362
 6311SOL     OW19177   5.462   5.532   5.912 -0.6035 -0.1320 -0.2578
 6311SOL    HW119178   5.518   5.480   5.968  0.5021 -0.3646 -1.5307
 6311SOL    HW219179   5.471   5.622   5.946  1.8702  0.1287 -1.3960
 6312SOL     OW19180   3.635   0.319   2.983  0.0492 -0.2991 -0.4339
 6312SOL    HW119181   3.548   0.327   2.944 -0.5124 -0.7736  0.6874
 6312SOL    HW219182   3.633   0.379   3.058  1.1255  0.6333 -1.1077
 6313SOL     OW19183   4.686   3.938   1.388 -0.0192 -0.1437  0.5137
 6313SOL    HW119184   4.647   3.906   1.306 -1.3268 -1.4335  1.5929
 6313SOL    HW219185   4.627   4.009   1.416 -0.2282 -0.4731  0.9133
 6314SOL     OW19186   0.513   0.543   5.058  0.8110 -0.1890 -0.3756
 6314SOL    HW119187   0.600   0.504   5.049  1.8894  2.1075 -0.3577
 6314SOL    HW219188   0.483   0.554   4.968  0.1023 -1.7838 -0.3753
 6315SOL     OW19189   4.607   0.282   1.944  0.1146 -0.2010  0.2583
 6315SOL    HW119190   4.686   0.234   1.917  0.5951  0.3656  0.6289
 6315SOL    HW219191   4.546   0.214   1.971  0.4996 -0.6468  0.0287
 6316SOL     OW19192   0.205   4.849   5.898 -0.6092 -0.3992 -0.0343
 6316SOL    HW119193   0.112   4.868   5.910 -0.5219  0.4015 -0.5522
 6316SOL    HW219194   0.218   4.854   5.803  0.1295  0.3331  0.0963
 6317SOL     OW19195   1.301   5.065   3.305  0.1805 -0.2774 -0.7022
 6317SOL    HW119196   1.218   5.025   3.333 -0.7364  1.8282 -0.1542
 6317SOL    HW219197   1.328   5.014   3.229 -3.5072  1.0012 -3.1559
 6318SOL     OW19198   4.924   5.328   2.522  0.4248  0.2012  0.0915
 6318SOL    HW119199   5.003   5.325   2.468  1.2731 -2.7183  1.2589
 6318SOL    HW219200   4.943   5.395   2.588  1.8036 -0.1689  0.1155
 6319SOL     OW19201   2.896   3.445   3.761  0.2525  0.2859  0.1477
 6319SOL    HW119202   2.842   3.477   3.688 -2.3148 -3.6101 -0.0007
 6319SOL    HW219203   2.939   3.367   3.726  1.0029 -0.2292  2.0978
 6320SOL     OW19204   2.734   3.353   1.763  0.4705 -0.4419  0.5362
 6320SOL    HW119205   2.649   3.326   1.799  0.3858  0.4686  1.0424
 6320SOL    HW219206   2.783   3.385   1.838  0.1668  1.8207 -0.1548
 6321SOL     OW19207   1.317   0.993   2.303  0.5590 -0.4692  0.4704
 6321SOL    HW119208   1.361   0.985   2.218 -0.2577 -1.3571  0.1047
 6321SOL    HW219209   1.251   1.061   2.290  0.8585 -0.1522  0.5920
 6322SOL     OW19210   5.565   4.432   0.519 -0.4157 -0.1915 -0.0479
 6322SOL    HW119211   5.660   4.421   0.520 -0.2273  1.2151  1.8865
 6322SOL    HW219212   5.533   4.373   0.587 -1.1709 -2.0360 -1.9037
 6323SOL     OW19213   2.797   4.338   2.013 -0.1303 -0.0084 -0.3452
 6323SOL    HW119214   2.771   4.259   1.965  0.0265  0.7071 -1.6729
 6323SOL    HW219215   2.892   4.339   2.007  0.0322 -0.8056  1.5123
 6324SOL     OW19216   3.335   5.922   1.668  0.0044  0.0961  0.5732
 6324SOL    HW119217   3.266   5.898   1.607  1.2430 -0.4863 -0.6639
 6324SOL    HW219218   3.320   5.867   1.746  0.3769 -1.7374 -0.5853
 6325SOL     OW19219   0.486   4.001   0.549 -0.5110 -0.3014  0.4844
 6325SOL    HW119220   0.528   4.075   0.593 -2.4426  0.8677  0.5105
 6325SOL    HW219221   0.514   4.007   0.458 -0.6514  0.4936  0.4886
 6326SOL     OW19222   2.428   1.111   5.122 -0.4765  0.0199  0.1556
 6326SOL    HW119223   2.477   1.184   5.085 -1.5290 -0.5163 -2.5402
 6326SOL    HW219224   2.441   1.119   5.217  1.8069  1.9535 -0.2171
 6327SOL     OW19225   1.059   0.835   5.854 -0.0503  1.2387 -0.7725
 6327SOL    HW119226   1.124   0.855   5.922 -1.7473  1.0144  0.9928
 6327SOL    HW219227   1.079   0.896   5.783  1.1240  2.2253  0.3612
 6328SOL     OW19228   4.358   3.510   3.338  0.0937  0.3394 -0.0883
 6328SOL    HW119229   4.359   3.424   3.294  1.4491 -0.9345  2.2435
 6328SOL    HW219230   4.449   3.524   3.365 -0.7386  0.6727  2.8455
 6329SOL     OW19231   3.763   1.162   1.937  0.7718  0.2864  0.2097
 6329SOL    HW119232   3.831   1.229   1.944  0.0390  1.0483  0.0787
 6329SOL    HW219233   3.765   1.134   1.845  0.8653  0.3469  0.1939
 6330SOL     OW19234   0.365   0.830   5.369 -0.0752 -0.5598  0.8914
 6330SOL    HW119235   0.346   0.924   5.374 -0.1368 -0.5279  0.1822
 6330SOL    HW219236   0.321   0.793   5.445 -2.7136 -0.4170 -0.4352
 6331SOL     OW19237   1.890   4.599   0.869 -0.2423  0.2136  0.0743
 6331SOL    HW119238   1.812   4.547   0.889  0.0528 -0.6345 -0.8795
 6331SOL    HW219239   1.860   4.663   0.804 -0.1214 -0.2272 -0.4262
 6332SOL     OW19240   1.916   5.465   3.911  0.4534 -0.3579 -0.0175
 6332SOL    HW119241   1.845   5.406   3.935  1.4941 -1.4542  0.4469
 6332SOL    HW219242   1.932   5.447   3.818  0.2550 -0.2301 -0.0789
 6333SOL     OW19243   0.959   0.955   1.397 -0.0243  0.3396  0.8528
 6333SOL    HW119244   0.972   0.993   1.310 -0.9820 -1.5455 -0.1681
 6333SOL    HW219245   0.867   0.971   1.418 -0.7492 -2.1809 -0.0689
 6334SOL     OW19246   5.988   0.781   4.396  0.3925  0.4997 -0.3855
 6334SOL    HW119247   5.900   0.773   4.432  0.5700 -0.5076 -0.1222
 6334SOL    HW219248   5.979   0.837   4.319 -0.3515  0.9703  0.0389
 6335SOL     OW19249   5.644   3.707   3.922 -0.4339  0.1111 -0.1897
 6335SOL    HW119250   5.642   3.654   3.842  0.1974  0.6412 -0.5566
 6335SOL    HW219251   5.620   3.645   3.992 -2.6780  0.0099 -0.9666
 6336SOL     OW19252   0.717   2.565   4.065  0.0774 -0.2630  0.1797
 6336SOL    HW119253   0.798   2.514   4.057  1.1546  1.1437  1.4992
 6336SOL    HW219254   0.677   2.560   3.978  2.5203  0.4708 -1.0958
 6337SOL     OW19255   1.101   0.563   5.689  0.2766  0.3089 -0.2105
 6337SOL    HW119256   1.126   0.635   5.631 -1.0346  0.4043 -0.6942
 6337SOL    HW219257   1.046   0.604   5.755 -0.5939 -0.2498 -0.5696
 6338SOL     OW19258   1.405   1.172   4.783 -0.1329  0.1462 -0.2031
 6338SOL    HW119259   1.354   1.091   4.787  1.5420 -0.9129  0.8370
 6338SOL    HW219260   1.495   1.145   4.801  0.5569  2.1860 -0.2977
 6339SOL     OW19261   0.070   5.667   1.849 -0.4772  0.2523  0.0478
 6339SOL    HW119262  -0.010   5.621   1.875 -0.2933 -1.0844 -1.5822
 6339SOL    HW219263   0.141   5.611   1.879 -0.2505 -0.6053 -1.9245
 6340SOL     OW19264   2.458   1.579   3.196 -0.0711 -0.0537  0.1694
 6340SOL    HW119265   2.541   1.598   3.153  0.3793  1.5115  1.6421
 6340SOL    HW219266   2.461   1.627   3.278 -1.9759 -0.8774  0.7910
 6341SOL     OW19267   3.201   5.028   2.456 -0.2107  0.2534  0.1022
 6341SOL    HW119268   3.126   5.008   2.512 -0.3823  1.7135  0.4365
 6341SOL    HW219269   3.247   5.098   2.502  1.2381 -0.4536 -0.2221
 6342SOL     OW19270   0.094   0.399   5.832 -0.4234 -0.5440  0.6979
 6342SOL    HW119271   0.179   0.363   5.806  0.1810  0.4085  1.3112
 6342SOL    HW219272   0.030   0.339   5.794  0.5281 -1.4520  0.5012
 6343SOL     OW19273   1.029   4.924   1.278  0.0752 -0.2133 -0.3944
 6343SOL    HW119274   1.015   5.017   1.260  0.0630  0.1112  1.1414
 6343SOL    HW219275   0.961   4.879   1.227 -2.0569  0.8628  1.3355
 6344SOL     OW19276   5.939   4.555   3.848 -0.2434  0.1616  0.0480
 6344SOL    HW119277   6.033   4.552   3.828 -0.3435 -0.1919 -0.3914
 6344SOL    HW219278   5.935   4.564   3.943  0.2604  3.1948 -0.1427
 6345SOL     OW19279   2.947   2.144   1.154 -0.8502  0.1410  0.0986
 6345SOL    HW119280   2.894   2.173   1.079  0.2596 -1.9550 -1.5970
 6345SOL    HW219281   2.895   2.076   1.196 -0.7156  0.0556  0.1294
 6346SOL     OW19282   1.260   4.510   2.869 -0.3363 -0.0765  0.2636
 6346SOL    HW119283   1.273   4.594   2.825  1.2715 -0.3587  0.1528
 6346SOL    HW219284   1.250   4.447   2.797 -3.2189  0.1945  0.3242
 6347SOL     OW19285   1.714   5.762   1.389 -0.5794 -0.4645  0.1857
 6347SOL    HW119286   1.798   5.719   1.403  0.2443  1.1026  0.2990
 6347SOL    HW219287   1.697   5.752   1.295 -0.1786 -0.6471  0.1314
 6348SOL     OW19288   1.621   1.060   0.935 -0.0268  0.2763  0.1151
 6348SOL    HW119289   1.654   1.053   1.024 -0.3245 -1.1704  0.1353
 6348SOL    HW219290   1.536   1.103   0.944 -0.0641  0.1163  0.5335
 6349SOL     OW19291   5.033   0.837   3.436 -0.1527  0.1719  0.2654
 6349SOL    HW119292   5.057   0.774   3.367 -1.7324  0.8898 -0.9980
 6349SOL    HW219293   5.012   0.782   3.512  1.8424 -0.6236  0.2889
 6350SOL     OW19294   0.909   0.069   1.487 -0.6764  0.6136  0.5477
 6350SOL    HW119295   0.865   0.082   1.571 -0.4285  0.4845  0.6976
 6350SOL    HW219296   0.968   0.143   1.478 -2.2398  1.8173 -0.5153
 6351SOL     OW19297   4.897   5.754   3.322 -0.2089 -0.2574 -0.4124
 6351SOL    HW119298   4.804   5.731   3.320 -0.3173  0.1887 -2.0250
 6351SOL    HW219299   4.908   5.817   3.251  0.9640  1.1966  0.9786
 6352SOL     OW19300   3.588   5.791   5.139 -0.0823  0.2042 -0.6890
 6352SOL    HW119301   3.632   5.818   5.220  0.6876  0.9934 -1.3500
 6352SOL    HW219302   3.595   5.696   5.139  0.1476  0.2084  0.0409
 6353SOL     OW19303   5.938   5.003   6.122  0.3664 -0.3055  0.8557
 6353SOL    HW119304   5.850   4.998   6.158  0.5679 -1.9683  1.1776
 6353SOL    HW219305   5.935   5.078   6.062 -0.0456  2.4365  4.0349
 6354SOL     OW19306   2.469   5.835   4.908  0.0032  0.0159  0.2724
 6354SOL    HW119307   2.385   5.823   4.864 -0.6228  0.0398  1.4228
 6354SOL    HW219308   2.473   5.764   4.972  0.9367 -0.0724  0.1302
 6355SOL     OW19309   1.743   2.507   0.922 -0.2370  0.1203 -0.0237
 6355SOL    HW119310   1.732   2.465   0.837 -0.6018 -0.1763  0.1684
 6355SOL    HW219311   1.736   2.435   0.985  1.2415  0.1318  0.2031
 6356SOL     OW19312   4.756   5.666   1.165 -0.1674  0.2516  0.1893
 6356SOL    HW119313   4.756   5.580   1.207 -2.5793  0.3938  0.5760
 6356SOL    HW219314   4.783   5.726   1.234 -0.5348  0.0503  0.5110
 6357SOL     OW19315   2.511   0.510   5.209  0.0146 -0.1353 -0.6018
 6357SOL    HW119316   2.555   0.427   5.226  0.6652  0.0825 -1.1481
 6357SOL    HW219317   2.582   0.575   5.211 -0.5200  0.4377  0.0374
 6358SOL     OW19318   1.244   2.693   5.697 -0.2145  0.0933  0.2755
 6358SOL    HW119319   1.202   2.720   5.779 -0.3822 -0.7603  0.4855
 6358SOL    HW219320   1.175   2.648   5.649 -0.3311  1.2860 -0.7001
 6359SOL     OW19321   4.784   2.579   2.786  0.4144  0.4967 -0.0586
 6359SOL    HW119322   4.717   2.617   2.729 -0.0942  0.4545  0.5056
 6359SOL    HW219323   4.738   2.559   2.867  1.2728  1.0863  0.5796
 6360SOL     OW19324   3.325   1.620   2.227  0.1393  0.0107  0.0169
 6360SOL    HW119325   3.296   1.529   2.220 -0.1444  0.1048 -0.0398
 6360SOL    HW219326   3.351   1.644   2.138  0.9948 -0.2704  0.1814
 6361SOL     OW19327   4.955   3.662   5.475  0.3024 -0.2760  0.1642
 6361SOL    HW119328   4.966   3.605   5.399  0.4893 -0.5302  0.3796
 6361SOL    HW219329   4.862   3.653   5.498  0.5706 -1.3471  0.8618
 6362SOL     OW19330   1.318   6.050   5.335  0.6509 -0.0708 -0.3089
 6362SOL    HW119331   1.403   6.087   5.359  0.1533  2.1372 -1.6651
 6362SOL    HW219332   1.254   6.112   5.369 -0.4149 -1.3425  0.0920
 6363SOL     OW19333   2.300   4.475   3.100  0.1981  0.0375 -0.1786
 6363SOL    HW119334   2.242   4.404   3.128 -0.1647  1.1854  2.2355
 6363SOL    HW219335   2.242   4.537   3.055 -0.5420  1.1640  2.1953
 6364SOL     OW19336   5.405   2.315   5.389  0.2947 -0.3888  0.6244
 6364SOL    HW119337   5.363   2.401   5.397  1.6085  0.2239  1.4308
 6364SOL    HW219338   5.335   2.256   5.363 -1.0078  0.5903  1.7735
 6365SOL     OW19339   2.867   1.269   5.273 -0.4202 -0.0368 -0.6180
 6365SOL    HW119340   2.874   1.265   5.177 -1.4294  0.3887 -0.7241
 6365SOL    HW219341   2.957   1.280   5.303 -0.2449  1.6419 -1.6246
 6366SOL     OW19342   0.525   0.945   2.956 -0.6774  0.2751 -0.1913
 6366SOL    HW119343   0.600   0.945   2.897  0.6165  0.3739  1.4132
 6366SOL    HW219344   0.465   1.008   2.917  0.7388  1.3682 -0.6839
 6367SOL     OW19345   1.311   1.772   0.667 -0.0396 -0.1763 -0.5330
 6367SOL    HW119346   1.280   1.855   0.702 -2.1079 -0.4054 -1.6531
 6367SOL    HW219347   1.350   1.727   0.742  1.6163  1.9726 -0.0340
 6368SOL     OW19348   1.770   1.711   4.324 -0.8112 -0.4722  0.3271
 6368SOL    HW119349   1.773   1.671   4.237 -0.5967  0.1997  0.0170
 6368SOL    HW219350   1.852   1.682   4.366  0.5667  1.5424 -0.7823
 6369SOL     OW19351   2.383   5.985   2.573  0.1844 -0.3085  0.1188
 6369SOL    HW119352   2.405   6.009   2.483 -1.3528  2.2465  0.3253
 6369SOL    HW219353   2.410   6.060   2.626  0.7616 -1.6244  1.7823
 6370SOL     OW19354   5.488   0.876   5.494 -0.2386 -0.0391  0.2403
 6370SOL    HW119355   5.571   0.921   5.508 -0.0774 -0.3796  0.3867
 6370SOL    HW219356   5.457   0.907   5.409  1.1797 -1.6742 -0.9504
 6371SOL     OW19357   4.794   0.471   0.665  0.0979 -0.2360  0.4657
 6371SOL    HW119358   4.742   0.403   0.709 -1.0023 -1.0520 -1.9091
 6371SOL    HW219359   4.740   0.550   0.670  0.2183 -0.1844  1.0049
 6372SOL     OW19360   3.649   0.841   1.621 -0.1123  0.8811 -0.1125
 6372SOL    HW119361   3.712   0.772   1.643  1.6062  2.2712 -0.4501
 6372SOL    HW219362   3.602   0.857   1.703 -0.1093 -0.2501  0.1315
 6373SOL     OW19363   3.662   1.447   2.294 -0.9168 -0.2503 -0.0740
 6373SOL    HW119364   3.644   1.470   2.386  0.3895  1.7029 -0.2493
 6373SOL    HW219365   3.658   1.530   2.248  1.0921 -0.7942 -1.3396
 6374SOL     OW19366   1.154   3.673   0.543  0.2787 -0.0459  0.4563
 6374SOL    HW119367   1.244   3.644   0.528  0.5226  1.1797 -0.6416
 6374SOL    HW219368   1.149   3.758   0.500 -1.6698 -0.4798 -0.2686
 6375SOL     OW19369   4.103   3.489   0.703 -0.3199  0.0976  0.5235
 6375SOL    HW119370   4.101   3.437   0.623 -0.4666 -1.7908  1.6819
 6375SOL    HW219371   4.010   3.503   0.724 -0.3574 -1.2452  1.4255
 6376SOL     OW19372   4.575   6.135   2.471 -0.0033 -0.0848  0.0570
 6376SOL    HW119373   4.588   6.077   2.546  0.3254 -0.5169 -0.3194
 6376SOL    HW219374   4.491   6.178   2.487  1.2422  1.8429  1.9879
 6377SOL     OW19375   2.058   4.278   1.222 -0.4732 -0.4235 -0.4591
 6377SOL    HW119376   2.120   4.298   1.293  1.0366  0.9670 -2.0761
 6377SOL    HW219377   2.041   4.184   1.231 -1.7356 -0.0199  2.7728
 6378SOL     OW19378   5.358   0.363   4.625 -0.1484 -0.6319  0.1154
 6378SOL    HW119379   5.449   0.341   4.602 -1.1397 -4.8884 -0.4822
 6378SOL    HW219380   5.318   0.388   4.542  0.4850  1.7319  0.4557
 6379SOL     OW19381   3.090   4.688   0.332 -0.0868 -0.0087 -0.3959
 6379SOL    HW119382   3.058   4.717   0.246 -1.0263  2.0783  0.5957
 6379SOL    HW219383   3.056   4.600   0.341 -0.1978 -0.1760 -2.0390
 6380SOL     OW19384   3.506   5.424   2.577  0.2565 -0.1492  0.2727
 6380SOL    HW119385   3.449   5.500   2.565 -0.7551 -1.0652 -0.9095
 6380SOL    HW219386   3.568   5.428   2.504  2.2591  1.2307  1.9213
 6381SOL     OW19387   0.018   3.712   4.038 -0.3574 -1.1463  0.1480
 6381SOL    HW119388   0.099   3.684   3.995 -0.6139  2.5855 -3.3518
 6381SOL    HW219389   0.045   3.788   4.091 -1.3267 -0.7837  0.1373
 6382SOL     OW19390   4.306   4.084   3.960  0.2139 -0.9363  0.1591
 6382SOL    HW119391   4.371   4.094   3.890 -0.1193  0.1194 -0.0115
 6382SOL    HW219392   4.294   3.989   3.968 -0.1959 -1.0840 -1.6522
 6383SOL     OW19393   4.141   1.767   5.220 -0.5359 -0.3466 -0.4193
 6383SOL    HW119394   4.211   1.701   5.221  0.0565  0.2630 -1.0553
 6383SOL    HW219395   4.085   1.741   5.148 -0.1557 -0.0090 -0.8396
 6384SOL     OW19396   2.850   5.546   4.386 -0.1217 -0.7947  0.0918
 6384SOL    HW119397   2.882   5.460   4.360 -1.9991 -1.8651  1.1246
 6384SOL    HW219398   2.911   5.575   4.454 -0.9143 -2.4937  1.5787
 6385SOL     OW19399   5.892   5.281   3.708 -0.3405  0.4057  0.0116
 6385SOL    HW119400   5.818   5.265   3.649 -0.3123 -1.4037  0.3808
 6385SOL    HW219401   5.888   5.208   3.770  1.8668  0.1541 -0.0668
 6386SOL     OW19402   2.407   0.797   1.525  0.7145  0.6770  0.1860
 6386SOL    HW119403   2.452   0.881   1.514  0.9533  0.5721  0.3787
 6386SOL    HW219404   2.442   0.742   1.455 -0.4953  1.1858 -0.8562
 6387SOL     OW19405   2.067   5.965   5.552 -0.5120  0.0765 -0.2813
 6387SOL    HW119406   2.098   5.888   5.598 -1.2649  0.9324  1.7561
 6387SOL    HW219407   2.147   6.013   5.528 -0.0997 -0.4809 -0.0334
 6388SOL     OW19408   4.868   4.706   5.812 -0.3231  0.3346 -0.3338
 6388SOL    HW119409   4.859   4.769   5.883 -3.5308  1.0205 -1.1956
 6388SOL    HW219410   4.866   4.760   5.732 -0.4528 -0.6665 -1.0194
 6389SOL     OW19411   5.689   5.202   4.821 -0.5435  0.0292 -0.0746
 6389SOL    HW119412   5.701   5.138   4.750 -0.5497 -0.7763  0.6265
 6389SOL    HW219413   5.729   5.282   4.788 -1.0926 -0.1489 -1.2306
 6390SOL     OW19414   1.762   0.764   6.065 -0.0551 -0.5302 -0.0750
 6390SOL    HW119415   1.840   0.815   6.085 -0.5417  0.5468 -0.8041
 6390SOL    HW219416   1.784   0.716   5.986  0.1532 -0.9005  0.2031
 6391SOL     OW19417   5.525   5.520   3.926  0.3254  0.0489  0.5427
 6391SOL    HW119418   5.578   5.585   3.879 -0.3621  1.4209  1.5792
 6391SOL    HW219419   5.466   5.573   3.980  2.2400 -1.3262  4.3922
 6392SOL     OW19420   1.042   3.478   6.006  0.1139  0.1804  0.4908
 6392SOL    HW119421   0.977   3.453   5.941  0.3305  0.0937  0.3081
 6392SOL    HW219422   1.016   3.431   6.086 -1.0321  1.4604  0.9023
 6393SOL     OW19423   3.739   3.732   1.037  0.4625 -0.4335 -0.5844
 6393SOL    HW119424   3.674   3.716   1.106 -0.1301  0.1541 -0.9937
 6393SOL    HW219425   3.773   3.645   1.016  1.7293 -0.4958  1.4607
 6394SOL     OW19426   2.768   0.631   0.650 -0.6393  0.0045 -0.3407
 6394SOL    HW119427   2.831   0.667   0.587 -0.9499  0.9018 -0.1544
 6394SOL    HW219428   2.816   0.560   0.694 -0.2469 -0.2832 -1.2142
 6395SOL     OW19429   1.316   2.248   0.912 -0.5103  0.1624 -0.0361
 6395SOL    HW119430   1.401   2.237   0.869 -0.8076 -0.6470 -0.4376
 6395SOL    HW219431   1.287   2.336   0.887 -0.2871  0.0223 -0.7933
 6396SOL     OW19432   2.382   1.097   3.727 -0.4263 -0.0667 -0.1128
 6396SOL    HW119433   2.370   1.187   3.696 -1.7792  0.6774  2.2725
 6396SOL    HW219434   2.371   1.103   3.822 -0.9101 -2.8082  0.0937
 6397SOL     OW19435   1.786   4.816   1.591 -0.3083 -0.1155 -0.2429
 6397SOL    HW119436   1.721   4.783   1.529  0.6666 -2.5368 -0.0647
 6397SOL    HW219437   1.870   4.789   1.556  0.4523  0.6468  0.8891
 6398SOL     OW19438   0.628   6.097   5.448  0.7469  0.5010  0.1235
 6398SOL    HW119439   0.683   6.173   5.429 -0.5015  1.3235 -0.2879
 6398SOL    HW219440   0.610   6.058   5.363  0.3636  0.4662  0.2186
 6399SOL     OW19441   1.142   2.088   0.104 -0.5613 -0.4132 -0.0367
 6399SOL    HW119442   1.197   2.047   0.038 -0.4149  1.3305 -1.0417
 6399SOL    HW219443   1.076   2.022   0.125  2.0111 -2.7408  1.4864
 6400SOL     OW19444   1.073   4.394   0.530 -0.1311 -0.1145  0.1317
 6400SOL    HW119445   1.058   4.313   0.579  0.3282 -0.0063  0.4606
 6400SOL    HW219446   0.989   4.414   0.490  0.3143 -2.1681 -2.1074
 6401SOL     OW19447   1.781   5.079   1.425 -0.1779 -0.3218 -0.6523
 6401SOL    HW119448   1.727   5.001   1.411 -0.0875 -0.1033 -2.4478
 6401SOL    HW219449   1.870   5.050   1.405  0.0424 -0.0600 -0.0759
 6402SOL     OW19450   5.081   2.453   3.022  0.5020 -0.7109  0.1140
 6402SOL    HW119451   5.016   2.514   3.058 -0.2327 -0.2564 -1.8837
 6402SOL    HW219452   5.163   2.502   3.024  0.9996 -1.4530  3.1101
 6403SOL     OW19453   4.994   1.486   0.656  0.2510  0.1065  0.2407
 6403SOL    HW119454   5.073   1.534   0.679  0.4676  1.1768 -2.3083
 6403SOL    HW219455   4.926   1.523   0.712  1.4155 -0.4461  2.0789
 6404SOL     OW19456   3.636   5.384   4.413  0.5520  0.4898  0.6666
 6404SOL    HW119457   3.607   5.446   4.346 -1.1456 -0.9547 -0.0100
 6404SOL    HW219458   3.636   5.436   4.494 -2.5925  1.0448  0.4547
 6405SOL     OW19459   2.371   2.371   5.912  0.0574 -0.0832  0.0363
 6405SOL    HW119460   2.291   2.374   5.859  0.6412 -0.3016 -0.8958
 6405SOL    HW219461   2.356   2.300   5.974 -0.9535  0.6883  0.7010
 6406SOL     OW19462   4.913   5.500   3.810  0.1723 -0.1778  0.0725
 6406SOL    HW119463   5.004   5.493   3.839 -0.1566 -0.3453  1.0780
 6406SOL    HW219464   4.861   5.493   3.890 -0.7502 -0.5010 -0.5427
 6407SOL     OW19465   3.292   1.854   0.782  0.3071  0.5861 -0.3215
 6407SOL    HW119466   3.259   1.888   0.699 -0.3712  0.6110 -0.0540
 6407SOL    HW219467   3.357   1.788   0.758 -0.1902  0.2904 -0.8810
 6408SOL     OW19468   0.973   5.693   2.436  0.3734 -0.1802  0.3202
 6408SOL    HW119469   1.057   5.649   2.423 -0.0118 -0.2087 -2.5868
 6408SOL    HW219470   0.911   5.622   2.454  0.9073 -0.1473  2.6380
 6409SOL     OW19471   1.108   3.744   5.947  0.0135  0.6345  0.4528
 6409SOL    HW119472   1.167   3.669   5.943  1.1824  1.5461 -0.0346
 6409SOL    HW219473   1.021   3.706   5.957  0.6659 -0.7510  1.1171
 6410SOL     OW19474   1.002   3.860   5.690 -0.1748 -0.4145 -0.5233
 6410SOL    HW119475   1.023   3.777   5.646  0.4579 -0.6692  0.2233
 6410SOL    HW219476   1.032   3.847   5.780 -0.0414  0.6447 -0.4033
 6411SOL     OW19477   3.490   2.229   1.318  0.0114  0.1366 -0.2617
 6411SOL    HW119478   3.396   2.243   1.328 -0.1011 -1.6049  1.8825
 6411SOL    HW219479   3.497   2.158   1.254 -0.3211 -1.3557  1.2905
 6412SOL     OW19480   2.115   5.835   2.559  0.2474 -0.2470 -0.3853
 6412SOL    HW119481   2.131   5.877   2.643  0.5676 -1.0742 -0.0201
 6412SOL    HW219482   2.175   5.878   2.498  1.1536 -0.7087  0.1535
 6413SOL     OW19483   4.045   4.080   3.764  0.3477 -0.1391 -0.0662
 6413SOL    HW119484   4.055   4.146   3.696  1.5740 -0.5900 -0.3478
 6413SOL    HW219485   4.112   4.103   3.829 -0.0459 -0.3844  0.4292
 6414SOL     OW19486   3.255   0.318   0.659 -0.0730  0.0450  0.1758
 6414SOL    HW119487   3.214   0.374   0.725  0.2475  2.5823 -1.6333
 6414SOL    HW219488   3.348   0.341   0.662 -0.2233  1.0958 -1.9015
 6415SOL     OW19489   0.068   0.308   4.222  0.0312  0.8643 -0.1015
 6415SOL    HW119490   0.134   0.357   4.174  0.3828  1.2156  0.7133
 6415SOL    HW219491   0.007   0.375   4.254 -1.8343  0.3987 -2.4327
 6416SOL     OW19492   1.970   0.811   2.628  0.1961  0.0833 -0.1535
 6416SOL    HW119493   1.915   0.741   2.661  1.2081 -0.4364  0.4839
 6416SOL    HW219494   2.004   0.855   2.706  1.2575 -0.0783 -0.5020
 6417SOL     OW19495   1.714   5.628   5.545  0.3579  0.0413  0.0625
 6417SOL    HW119496   1.625   5.648   5.515  0.7168  0.0830 -1.0038
 6417SOL    HW219497   1.704   5.612   5.639 -0.9288 -0.7980 -0.1843
 6418SOL     OW19498   4.329   0.262   3.446  0.9196 -0.5461  0.1630
 6418SOL    HW119499   4.372   0.246   3.530  1.7716 -0.9049 -0.3315
 6418SOL    HW219500   4.241   0.292   3.469  1.3973  0.1125  1.1982
 6419SOL     OW19501   0.402   2.660   5.079 -0.2266  0.6989 -0.8105
 6419SOL    HW119502   0.456   2.646   5.002  3.1011  2.1352  1.0477
 6419SOL    HW219503   0.418   2.583   5.134 -0.1180  1.1042 -0.2708
 6420SOL     OW19504   1.809   0.487   1.896  0.4731 -0.1596 -0.5741
 6420SOL    HW119505   1.744   0.424   1.925 -0.3653 -0.1225 -2.2925
 6420SOL    HW219506   1.818   0.548   1.970  0.3324 -1.5049  0.5923
 6421SOL     OW19507   0.723   1.578   1.188  0.4956  0.1633  0.1679
 6421SOL    HW119508   0.802   1.527   1.208  0.7137 -0.1762 -1.4194
 6421SOL    HW219509   0.681   1.529   1.117  0.7333  2.1865 -1.4515
 6422SOL     OW19510   2.894   3.163   5.439  0.1599  0.6385  0.4175
 6422SOL    HW119511   2.909   3.178   5.532  0.0834 -0.8420  0.6895
 6422SOL    HW219512   2.830   3.091   5.436  1.9616 -1.0292 -0.7393
 6423SOL     OW19513   0.600   6.041   5.198  0.3686  0.1389  0.3620
 6423SOL    HW119514   0.541   6.117   5.200 -0.9721 -0.7790 -1.2540
 6423SOL    HW219515   0.580   5.998   5.115  1.6241 -1.5815  0.9011
 6424SOL     OW19516   5.127   4.523   2.288  0.2320 -0.0647  0.0451
 6424SOL    HW119517   5.216   4.508   2.319  0.8774  2.0812 -0.5757
 6424SOL    HW219518   5.137   4.584   2.215 -1.7000 -0.4157 -0.5832
 6425SOL     OW19519   1.635   4.998   4.720  0.0519 -0.1683  0.0889
 6425SOL    HW119520   1.696   4.949   4.664 -0.0589 -0.7530  0.4655
 6425SOL    HW219521   1.574   5.039   4.658 -0.2653 -1.0668 -0.2200
 6426SOL     OW19522   2.034   1.231   5.814  0.1018 -0.3731 -0.1515
 6426SOL    HW119523   2.065   1.303   5.870  1.2178 -1.8143  1.1731
 6426SOL    HW219524   1.944   1.216   5.842 -0.2863  0.7421 -0.7245
 6427SOL     OW19525   5.031   3.870   4.309 -0.0371  0.4019 -0.0159
 6427SOL    HW119526   4.994   3.956   4.289  2.3058  1.4642 -0.1079
 6427SOL    HW219527   5.009   3.856   4.401  0.1149  1.4255  0.1903
 6428SOL     OW19528   2.215   2.906   2.276  0.5591  0.1259 -0.0031
 6428SOL    HW119529   2.243   2.814   2.271  1.5189  0.3751  0.5252
 6428SOL    HW219530   2.179   2.925   2.189  2.8688  0.0259 -1.0533
 6429SOL     OW19531   4.506   4.837   4.841  0.1759  0.1927 -0.0363
 6429SOL    HW119532   4.601   4.824   4.848 -0.0153 -1.5443 -0.3087
 6429SOL    HW219533   4.469   4.784   4.911 -0.6485 -0.0874 -0.6673
 6430SOL     OW19534   3.212   2.036   5.208 -0.2612 -0.1581  0.1149
 6430SOL    HW119535   3.223   1.951   5.166  2.3154  0.7691 -1.2856
 6430SOL    HW219536   3.158   2.087   5.146 -3.2944 -1.1530  1.7196
 6431SOL     OW19537   4.720   1.320   0.529  0.2791  0.0108 -0.1911
 6431SOL    HW119538   4.791   1.377   0.558  0.8984 -0.6012 -0.4677
 6431SOL    HW219539   4.706   1.343   0.437 -0.3663  0.6140  0.0504
 6432SOL     OW19540   5.544   4.190   2.452 -0.2599  0.1700 -0.6946
 6432SOL    HW119541   5.518   4.109   2.409 -0.8878  0.8463 -1.6346
 6432SOL    HW219542   5.626   4.216   2.409 -0.5941  0.5555 -1.1094
 6433SOL     OW19543   0.060   1.749   4.418  0.2851  0.0666 -0.2002
 6433SOL    HW119544   0.102   1.663   4.426  1.2821  0.6255  0.8427
 6433SOL    HW219545   0.049   1.778   4.508  0.6467  1.3513 -0.5573
 6434SOL     OW19546   0.768   3.507   5.548  0.5497 -0.6946  0.3297
 6434SOL    HW119547   0.684   3.464   5.538 -0.1102  0.4201  0.8919
 6434SOL    HW219548   0.794   3.489   5.639 -1.0400  2.2597  1.4813
 6435SOL     OW19549   0.757   3.856   4.292  0.2682 -0.3488 -0.2720
 6435SOL    HW119550   0.769   3.947   4.265  0.9069 -0.2833  0.2385
 6435SOL    HW219551   0.833   3.836   4.346  0.2798 -1.2797 -0.6192
 6436SOL     OW19552   4.385   1.384   1.744  0.0267  0.4279 -0.0924
 6436SOL    HW119553   4.405   1.444   1.671  0.3043  0.2934 -0.1299
 6436SOL    HW219554   4.370   1.442   1.819  1.5924  0.5216  0.1881
 6437SOL     OW19555   2.091   1.386   6.026  0.1135  0.0407 -0.2100
 6437SOL    HW119556   2.059   1.471   6.056  1.4944 -0.1558  2.1066
 6437SOL    HW219557   2.162   1.365   6.087 -0.0925 -2.7100 -0.8002
 6438SOL     OW19558   4.500   3.527   0.949 -0.0296  0.1573  0.0284
 6438SOL    HW119559   4.406   3.516   0.959  0.0674 -1.0195 -0.2064
 6438SOL    HW219560   4.515   3.529   0.855  0.1670  0.5388  0.0638
 6439SOL     OW19561   1.776   1.061   0.085  0.4077  0.2443  0.1297
 6439SOL    HW119562   1.837   1.114   0.136  0.7974  0.0065 -0.0807
 6439SOL    HW219563   1.701   1.119   0.070  0.4250  0.4195  0.6911
 6440SOL     OW19564   0.741   2.541   0.620  0.4444  0.0243  0.0256
 6440SOL    HW119565   0.648   2.520   0.623  0.3944 -0.4906 -2.6772
 6440SOL    HW219566   0.785   2.459   0.645  0.2051  0.0160  0.4325
 6441SOL     OW19567   2.418   3.237   0.362 -0.1852  0.2199 -0.1836
 6441SOL    HW119568   2.386   3.276   0.443 -1.8798  2.0539 -1.6287
 6441SOL    HW219569   2.347   3.179   0.334 -0.1637  0.5539 -0.9541
 6442SOL     OW19570   1.190   1.585   0.527  0.3555 -0.0045  0.8203
 6442SOL    HW119571   1.160   1.554   0.612 -0.2892  0.3124  0.7140
 6442SOL    HW219572   1.230   1.670   0.545 -1.7521  1.1126  0.5302
 6443SOL     OW19573   3.681   4.371   3.132  0.5270 -0.3564  0.1030
 6443SOL    HW119574   3.605   4.314   3.123  0.6745 -0.2489 -2.7435
 6443SOL    HW219575   3.645   4.453   3.166 -0.3883 -0.7509  0.1215
 6444SOL     OW19576   5.744   5.697   4.406  0.7141 -0.0628  0.2857
 6444SOL    HW119577   5.816   5.708   4.345 -0.2242 -0.3063 -0.9081
 6444SOL    HW219578   5.728   5.785   4.441  1.6897 -0.0418  0.7186
 6445SOL     OW19579   6.100   4.563   0.249  0.2210 -0.6456 -0.1302
 6445SOL    HW119580   6.081   4.654   0.226 -0.2108 -0.8261 -0.5188
 6445SOL    HW219581   6.132   4.567   0.339  0.2746 -0.1027 -0.1702
 6446SOL     OW19582   1.247   5.709   2.145 -0.0723 -0.2292 -0.0842
 6446SOL    HW119583   1.292   5.764   2.210  0.9254  0.7699 -1.5486
 6446SOL    HW219584   1.161   5.692   2.183  0.4564  0.3754  1.4618
 6447SOL     OW19585   4.265   4.818   0.458 -0.1346 -0.0338  0.8321
 6447SOL    HW119586   4.216   4.815   0.376  0.4179 -2.4157  0.5070
 6447SOL    HW219587   4.200   4.805   0.526 -0.0279 -4.3335  0.3496
 6448SOL     OW19588   2.209   0.868   1.083 -0.3420  0.0023 -0.2351
 6448SOL    HW119589   2.271   0.915   1.139 -1.5695  0.1261  1.0789
 6448SOL    HW219590   2.169   0.936   1.030  1.5748 -0.2326 -2.1129
 6449SOL     OW19591   0.327   3.829   2.320  0.2231 -0.0484 -0.4154
 6449SOL    HW119592   0.400   3.859   2.373  0.3545 -1.1894  0.0750
 6449SOL    HW219593   0.354   3.743   2.288 -0.7430 -0.3214 -0.5460
 6450SOL     OW19594   5.712   1.005   5.557 -0.6191 -0.2027 -0.5398
 6450SOL    HW119595   5.783   0.942   5.558 -1.5577 -1.3934  2.5904
 6450SOL    HW219596   5.753   1.088   5.584 -0.0136 -0.3106 -1.1112
 6451SOL     OW19597   0.211   2.456   0.317  0.2415  0.1864 -0.4691
 6451SOL    HW119598   0.186   2.515   0.388  0.4918  1.9337 -1.7758
 6451SOL    HW219599   0.142   2.389   0.317  0.5429 -0.1969  1.7439
 6452SOL     OW19600   4.419   1.889   4.456  0.0828  0.2550  0.1747
 6452SOL    HW119601   4.397   1.978   4.481 -1.5014  0.8122 -2.7838
 6452SOL    HW219602   4.376   1.834   4.522 -0.3942  1.6174  1.0372
 6453SOL     OW19603   4.171   3.200   2.121  0.3333  0.2338 -0.4031
 6453SOL    HW119604   4.201   3.116   2.087  2.2001 -0.0115  1.6154
 6453SOL    HW219605   4.076   3.190   2.129  0.0038 -0.2964 -3.6148
 6454SOL     OW19606   6.130   4.205   2.022 -0.0624  0.0725 -0.5591
 6454SOL    HW119607   6.050   4.248   1.991 -2.0643 -2.2994  0.9613
 6454SOL    HW219608   6.104   4.162   2.103  2.4032 -1.9437 -0.7243
 6455SOL     OW19609   2.486   3.514   5.330  0.5055  0.2614 -0.6112
 6455SOL    HW119610   2.413   3.452   5.328  0.5716  0.1146  0.4898
 6455SOL    HW219611   2.483   3.551   5.419  2.4419 -0.5631 -0.1545
 6456SOL     OW19612   1.654   3.654   3.857  0.5089  0.3719 -0.1493
 6456SOL    HW119613   1.572   3.652   3.807  0.7972  0.6139 -0.6369
 6456SOL    HW219614   1.719   3.617   3.798  1.2389  2.4180 -0.7084
 6457SOL     OW19615   0.013   3.918   1.481  0.4444  0.0345 -0.0258
 6457SOL    HW119616   0.023   3.823   1.482 -0.6060 -0.0923  0.8725
 6457SOL    HW219617   0.074   3.949   1.414  0.7358 -1.2765 -0.3808
 6458SOL     OW19618   4.189   1.130   5.013  0.0461  0.2215 -0.0184
 6458SOL    HW119619   4.229   1.057   4.966  0.4981 -0.1268  0.8774
 6458SOL    HW219620   4.249   1.204   5.000 -0.3263  0.3922 -0.7862
 6459SOL     OW19621   5.734   4.389   0.903  0.0665 -0.1860 -0.3407
 6459SOL    HW119622   5.810   4.341   0.869 -0.7699 -0.8652 -1.3040
 6459SOL    HW219623   5.718   4.458   0.838 -0.6880 -0.6064 -0.6040
 6460SOL     OW19624   1.728   0.492   0.626 -0.1040 -0.7017  0.1879
 6460SOL    HW119625   1.695   0.572   0.585  2.8494  0.4920 -0.0974
 6460SOL    HW219626   1.768   0.443   0.555  0.1326 -1.3188  0.7315
 6461SOL     OW19627   1.261   1.867   1.649  0.5646  0.2479  0.4260
 6461SOL    HW119628   1.317   1.792   1.629 -0.5003 -1.2962  2.8128
 6461SOL    HW219629   1.172   1.834   1.638  0.0798  1.4932  0.4786
 6462SOL     OW19630   1.518   3.231   3.249 -0.3481 -0.3109 -0.2231
 6462SOL    HW119631   1.569   3.241   3.169  0.3459  0.5571  0.3160
 6462SOL    HW219632   1.578   3.189   3.311 -0.9853 -1.2880 -0.2386
 6463SOL     OW19633   5.489   4.738   1.321 -0.1012  1.1347  0.3318
 6463SOL    HW119634   5.448   4.745   1.235 -1.1186 -0.1680  0.6682
 6463SOL    HW219635   5.578   4.709   1.303  0.3163  2.7637 -0.3578
 6464SOL     OW19636   6.089   1.932   5.348  0.4946  0.1250  0.2081
 6464SOL    HW119637   6.113   2.024   5.354  1.0298  0.0679 -0.7754
 6464SOL    HW219638   6.024   1.928   5.278  0.7995 -0.3013 -0.0575
 6465SOL     OW19639   3.675   3.781   0.555  0.1057 -0.1179 -0.6844
 6465SOL    HW119640   3.749   3.835   0.582 -0.8216 -0.0568  1.9456
 6465SOL    HW219641   3.621   3.839   0.501  2.8155 -0.7176 -4.4470
 6466SOL     OW19642   2.392   3.021   1.999  0.6723 -0.0113  0.2558
 6466SOL    HW119643   2.350   3.105   2.020 -1.8032 -0.9619 -0.5468
 6466SOL    HW219644   2.426   2.990   2.083 -0.5114  0.7219  1.0384
 6467SOL     OW19645   4.925   1.887   4.398  0.3417 -0.3783  0.2357
 6467SOL    HW119646   4.877   1.946   4.456 -1.2244 -1.6142  0.2986
 6467SOL    HW219647   4.911   1.922   4.310 -0.8355 -0.7844  0.2428
 6468SOL     OW19648   5.025   2.816   4.703  0.2604 -1.1578 -0.1392
 6468SOL    HW119649   5.115   2.824   4.670 -0.1770 -0.7434 -1.3060
 6468SOL    HW219650   5.023   2.732   4.749  1.2996 -1.0598  0.1011
 6469SOL     OW19651   6.137   5.457   5.993 -0.0081  0.0402  0.2149
 6469SOL    HW119652   6.170   5.530   6.045 -0.7161  1.0536 -0.7088
 6469SOL    HW219653   6.117   5.389   6.058 -0.2090  1.0040  1.2054
 6470SOL     OW19654   3.927   3.466   1.588  0.5769  0.0144 -0.0133
 6470SOL    HW119655   3.959   3.390   1.540  0.5146  0.4313 -0.7238
 6470SOL    HW219656   3.832   3.460   1.583  0.5630 -0.0996  0.3230
 6471SOL     OW19657   3.805   3.329   3.950  0.1453 -0.2192  0.2589
 6471SOL    HW119658   3.785   3.289   3.865  1.2525 -0.2979  0.0101
 6471SOL    HW219659   3.797   3.258   4.013 -0.3509 -0.2403  0.1748
 6472SOL     OW19660   0.542   2.961   4.423 -0.4457 -0.1572 -0.6208
 6472SOL    HW119661   0.450   2.986   4.437 -0.5410  0.4559 -2.0874
 6472SOL    HW219662   0.589   3.045   4.419  0.1832 -0.4675  0.0863
 6473SOL     OW19663   0.335   2.181   5.253 -0.0836 -0.0572 -0.0076
 6473SOL    HW119664   0.367   2.091   5.260 -0.7731 -0.3136 -0.0202
 6473SOL    HW219665   0.258   2.174   5.197  0.8251  0.7972 -1.4290
 6474SOL     OW19666   2.294   0.497   1.353 -0.2741 -0.0081  0.2336
 6474SOL    HW119667   2.242   0.504   1.273  1.2286 -1.6577 -0.9635
 6474SOL    HW219668   2.268   0.412   1.390  1.3666 -0.7847 -0.2985
 6475SOL     OW19669   2.335   4.959   1.585  0.5316  0.0874  0.4745
 6475SOL    HW119670   2.340   5.006   1.502 -0.4157 -1.5684 -0.5767
 6475SOL    HW219671   2.301   5.023   1.647  3.4487  2.0642  0.2439
 6476SOL     OW19672   4.330   2.651   4.143 -0.3658  0.1707 -0.0447
 6476SOL    HW119673   4.323   2.580   4.079 -0.6463  1.4396 -1.4834
 6476SOL    HW219674   4.287   2.617   4.222 -1.1645 -0.9752 -0.9485
 6477SOL     OW19675   1.946   3.893   5.983  0.2117 -0.7783  0.5750
 6477SOL    HW119676   1.888   3.877   5.908  1.0352 -2.0436  0.1825
 6477SOL    HW219677   2.033   3.900   5.946  0.4084  0.6825  1.2155
 6478SOL     OW19678   4.357   4.393   1.404 -0.6891  0.2900 -0.7576
 6478SOL    HW119679   4.378   4.412   1.312 -2.4847 -0.1645 -1.3091
 6478SOL    HW219680   4.274   4.439   1.420 -1.7540 -1.6743 -0.1817
 6479SOL     OW19681   3.708   3.170   6.118 -0.0754  0.0876 -0.2046
 6479SOL    HW119682   3.616   3.156   6.095 -0.0855 -0.7623  0.3380
 6479SOL    HW219683   3.755   3.157   6.036 -0.2628 -1.3819 -0.0973
 6480SOL     OW19684   2.220   2.125   3.933  0.1337  0.1511 -0.2894
 6480SOL    HW119685   2.211   2.039   3.894  0.4544  0.4911 -1.1281
 6480SOL    HW219686   2.133   2.165   3.925 -0.0540 -0.1349  0.2310
 6481SOL     OW19687   5.411   0.812   4.882 -0.1860 -0.6119 -0.2311
 6481SOL    HW119688   5.462   0.813   4.964  2.0612  0.2827 -1.5417
 6481SOL    HW219689   5.371   0.726   4.880 -0.6886 -0.5106  2.0041
 6482SOL     OW19690   0.024   2.257   4.514  0.0991  0.3848  0.1019
 6482SOL    HW119691  -0.071   2.268   4.517 -0.1793 -1.6208 -0.0218
 6482SOL    HW219692   0.046   2.260   4.421  0.2570  1.2989  0.1510
 6483SOL     OW19693   5.696   4.830   5.380 -0.1953  0.1083  0.1104
 6483SOL    HW119694   5.721   4.916   5.348 -2.5718 -0.0441 -2.5815
 6483SOL    HW219695   5.772   4.775   5.362  0.8192  1.3155  0.5450
 6484SOL     OW19696   0.321   4.009   2.642  0.2974 -0.0666 -0.4006
 6484SOL    HW119697   0.270   3.977   2.568  1.5411 -0.4135 -1.1334
 6484SOL    HW219698   0.257   4.019   2.713 -0.5422 -1.8871 -0.8499
 6485SOL     OW19699   3.036   0.972   0.338  0.0030  0.3741  0.3270
 6485SOL    HW119700   2.981   1.001   0.411 -1.0928 -2.0321  0.5318
 6485SOL    HW219701   2.999   1.017   0.262  1.0482  2.7763  1.1563
 6486SOL     OW19702   1.497   3.162   3.711  0.1426  0.2149  0.1491
 6486SOL    HW119703   1.441   3.087   3.731  0.4241  0.0335  0.2648
 6486SOL    HW219704   1.586   3.127   3.715  0.2677  0.5194  0.0479
 6487SOL     OW19705   0.984   2.832   3.072  0.0129 -0.3461 -0.2956
 6487SOL    HW119706   0.966   2.755   3.017 -0.8478  0.5886 -1.3690
 6487SOL    HW219707   0.903   2.883   3.069  0.9138  1.1346 -0.4837
 6488SOL     OW19708   0.074   4.603   0.512 -0.0970 -0.1892 -0.5669
 6488SOL    HW119709   0.160   4.565   0.527 -0.0544 -0.2058 -0.8343
 6488SOL    HW219710   0.075   4.686   0.560 -0.0368 -0.3262 -0.3329
 6489SOL     OW19711   4.431   4.998   2.034 -0.1540 -0.2381 -0.2172
 6489SOL    HW119712   4.407   4.913   1.997 -0.4553 -0.8304  1.2745
 6489SOL    HW219713   4.435   4.983   2.128 -1.2467  1.6462  0.1783
 6490SOL     OW19714   0.235   3.107   4.835  0.6867  0.1512  0.2522
 6490SOL    HW119715   0.196   3.039   4.890  0.1727 -0.1955 -0.5172
 6490SOL    HW219716   0.272   3.060   4.761  0.8903  0.6531  0.0280
 6491SOL     OW19717   4.176   3.179   1.479 -0.1975 -0.4324  0.4508
 6491SOL    HW119718   4.232   3.233   1.424 -1.1584  0.0465 -0.0871
 6491SOL    HW219719   4.087   3.205   1.455 -0.6500 -1.0758  1.3783
 6492SOL     OW19720   4.923   1.656   4.100  0.0789  0.2528 -0.0575
 6492SOL    HW119721   4.910   1.599   4.024 -1.9714 -0.4724  0.7467
 6492SOL    HW219722   4.860   1.727   4.088 -1.5737 -0.8131  1.7494
 6493SOL     OW19723   0.936   5.133   1.039 -0.4308 -0.4971  0.4471
 6493SOL    HW119724   0.993   5.186   1.095  0.1558  0.5706 -1.1005
 6493SOL    HW219725   0.880   5.196   0.994  0.0931 -1.1624 -1.2253
 6494SOL     OW19726   3.353   4.078   4.293  0.2283 -0.1600  0.2254
 6494SOL    HW119727   3.314   4.126   4.366  0.3586 -2.0695  1.6191
 6494SOL    HW219728   3.447   4.078   4.312  0.0301 -3.0729  1.6789
 6495SOL     OW19729   1.546   5.352   2.562  0.1731 -0.1993 -0.2989
 6495SOL    HW119730   1.617   5.403   2.601 -0.2510  0.2208 -0.0629
 6495SOL    HW219731   1.527   5.395   2.479 -1.0443  0.8268  0.4740
 6496SOL     OW19732   5.914   0.657   1.104  0.1273  0.0087 -0.2765
 6496SOL    HW119733   5.920   0.642   1.199  1.1534 -0.1117 -0.3576
 6496SOL    HW219734   5.821   0.640   1.084 -0.1600  0.2909  0.7431
 6497SOL     OW19735   0.938   0.475   3.607 -0.5683 -0.1934  0.4032
 6497SOL    HW119736   0.967   0.391   3.642  0.4801  0.8003  2.0314
 6497SOL    HW219737   0.848   0.484   3.638 -0.1576 -0.0281  1.5977
 6498SOL     OW19738   1.004   1.425   3.908  0.4905  0.0657 -0.2982
 6498SOL    HW119739   0.993   1.403   3.815  0.7826  1.3088 -0.6473
 6498SOL    HW219740   1.095   1.453   3.915  1.8530 -4.0320  1.2644
 6499SOL     OW19741   1.653   5.126   2.148  0.1446  0.2275 -0.0933
 6499SOL    HW119742   1.735   5.078   2.147  0.2064  0.3005  1.0723
 6499SOL    HW219743   1.587   5.063   2.176  0.1068  0.6141  0.7247
 6500SOL     OW19744   3.996   2.247   5.362 -0.7832 -0.3044  0.0503
 6500SOL    HW119745   4.045   2.316   5.408 -0.3606 -0.3898 -0.2625
 6500SOL    HW219746   4.052   2.169   5.369 -1.3268 -0.6565  0.5286
 6501SOL     OW19747   1.975   5.969   1.947 -0.1368  0.3865 -0.0954
 6501SOL    HW119748   1.978   5.923   1.864  0.8255  2.6927 -1.4474
 6501SOL    HW219749   2.066   5.974   1.976 -0.3766  0.2441  0.7258
 6502SOL     OW19750   1.306   1.412   4.839 -0.0157 -0.6492  0.1948
 6502SOL    HW119751   1.356   1.330   4.837  1.0637 -0.0046 -0.3559
 6502SOL    HW219752   1.359   1.470   4.894 -0.4017 -0.0923 -0.0150
 6503SOL     OW19753   5.357   2.989   5.922 -0.0256  0.1667  0.2573
 6503SOL    HW119754   5.330   2.958   6.009  0.4880  2.6305  1.3957
 6503SOL    HW219755   5.364   3.084   5.932  3.0804  0.2710 -1.6212
 6504SOL     OW19756   4.274   5.702   4.781  0.2677  0.0071  0.4413
 6504SOL    HW119757   4.247   5.759   4.709 -0.1708 -0.3828  0.2948
 6504SOL    HW219758   4.250   5.614   4.753  2.0670 -0.4250  0.1343
 6505SOL     OW19759   5.273   3.336   5.777  0.3957 -0.6808  0.1191
 6505SOL    HW119760   5.256   3.376   5.692 -2.9250 -2.4186 -0.2103
 6505SOL    HW219761   5.338   3.392   5.818 -0.9664  2.6273 -1.8780
 6506SOL     OW19762   5.118   5.213   5.097 -0.2468  0.2812 -0.3946
 6506SOL    HW119763   5.192   5.220   5.037  0.9312  1.6334  1.1238
 6506SOL    HW219764   5.056   5.280   5.066  0.1884  0.7129 -0.3427
 6507SOL     OW19765   4.118   0.163   0.988  0.4065  0.3340  0.1801
 6507SOL    HW119766   4.027   0.192   0.981  0.6295  1.4053  1.3092
 6507SOL    HW219767   4.160   0.229   1.043  1.5357 -0.8755  0.8325
 6508SOL     OW19768   0.522   1.163   5.696 -0.3841 -0.4283 -0.2648
 6508SOL    HW119769   0.557   1.195   5.613  0.7053 -0.7883  0.0438
 6508SOL    HW219770   0.525   1.068   5.689  1.3191 -0.4906  0.8164
 6509SOL     OW19771   3.000   3.616   6.103 -0.1120  0.0789 -0.0101
 6509SOL    HW119772   3.016   3.522   6.092 -0.2201  0.0123  0.3724
 6509SOL    HW219773   3.006   3.630   6.197  1.4883  0.7479 -0.1788
 6510SOL     OW19774   3.410   5.412   1.868  0.9127 -0.3038  0.0966
 6510SOL    HW119775   3.419   5.474   1.940  1.4186  0.8750 -0.9485
 6510SOL    HW219776   3.328   5.366   1.887  0.8761  0.1902  1.2590
 6511SOL     OW19777   1.763   3.238   2.319  0.4034 -0.2181  0.0876
 6511SOL    HW119778   1.751   3.146   2.296  1.3319 -0.2886 -0.1331
 6511SOL    HW219779   1.846   3.241   2.366  0.2311  0.4629  0.3648
 6512SOL     OW19780   2.167   5.934   0.388 -0.1930  0.1972  0.6924
 6512SOL    HW119781   2.107   6.005   0.363 -1.5206 -1.3526 -0.7821
 6512SOL    HW219782   2.163   5.931   0.484 -2.5762  0.1129  0.6399
 6513SOL     OW19783   0.919   5.678   0.269 -0.1341 -0.3248 -0.4154
 6513SOL    HW119784   0.930   5.718   0.183 -0.4312  2.0432  0.5829
 6513SOL    HW219785   0.858   5.606   0.253 -0.5337  0.3304 -2.1163
 6514SOL     OW19786   4.630   5.761   0.940 -0.7555 -0.3561  0.0273
 6514SOL    HW119787   4.552   5.815   0.953  0.0136  1.1745 -1.3534
 6514SOL    HW219788   4.646   5.721   1.025 -3.5067 -1.4110  0.1461
 6515SOL     OW19789   2.390   4.148   4.690 -0.2902 -0.5689  0.0480
 6515SOL    HW119790   2.437   4.153   4.773 -0.1525 -0.1484 -0.0563
 6515SOL    HW219791   2.442   4.199   4.628 -0.5848 -0.5691 -0.2087
 6516SOL     OW19792   3.959   2.268   4.626 -0.0015 -0.2975  0.4114
 6516SOL    HW119793   3.975   2.299   4.537 -1.7740 -1.0106 -0.2026
 6516SOL    HW219794   3.889   2.324   4.659 -0.6747 -1.2523  0.6425
 6517SOL     OW19795   1.842   6.116   5.574 -0.5259  0.4150 -0.2018
 6517SOL    HW119796   1.909   6.049   5.590 -0.9292 -0.7062 -2.7540
 6517SOL    HW219797   1.759   6.072   5.596 -0.7632  0.1137 -1.5824
 6518SOL     OW19798   0.700   1.455   3.714 -0.3752 -0.0094  0.3389
 6518SOL    HW119799   0.742   1.417   3.637 -0.5210 -0.9440  0.7110
 6518SOL    HW219800   0.609   1.467   3.688  0.1630  2.5734 -0.6753
 6519SOL     OW19801   5.179   3.926   0.047 -0.1416  1.1293 -0.2831
 6519SOL    HW119802   5.145   4.007   0.085 -2.2982 -0.2956  0.9918
 6519SOL    HW219803   5.121   3.907  -0.026  1.6877  1.8116 -2.0204
 6520SOL     OW19804   2.423   3.666   5.544  0.5346  0.1272  0.2756
 6520SOL    HW119805   2.442   3.678   5.637 -0.6499 -1.7056  0.8261
 6520SOL    HW219806   2.438   3.751   5.504 -0.2787  1.3291  2.3914
 6521SOL     OW19807   0.824   5.715   1.315  0.5261  0.4539 -0.2894
 6521SOL    HW119808   0.761   5.692   1.383  1.4255  1.7523  1.0357
 6521SOL    HW219809   0.816   5.645   1.250 -1.2932 -0.1115  0.4966
 6522SOL     OW19810   5.813   5.601   5.690  0.0060  0.5442  0.1979
 6522SOL    HW119811   5.850   5.609   5.778  3.4547 -1.6666 -0.8680
 6522SOL    HW219812   5.774   5.514   5.689  3.4095 -1.1523 -1.3890
 6523SOL     OW19813   4.811   4.000   0.217 -0.1014 -0.3508 -0.2039
 6523SOL    HW119814   4.854   4.037   0.140  2.4722 -0.7772  0.8986
 6523SOL    HW219815   4.866   3.925   0.241  0.0205  0.5572  2.7793
 6524SOL     OW19816   5.890   4.642   2.565  0.2452  0.4516  0.3235
 6524SOL    HW119817   5.815   4.611   2.514  0.5344 -1.4158  0.9492
 6524SOL    HW219818   5.851   4.693   2.636 -0.1685  3.0727 -1.6200
 6525SOL     OW19819   5.502   5.709   5.508 -0.2385 -0.6816 -0.0588
 6525SOL    HW119820   5.553   5.681   5.432  1.1491  2.2071 -0.3307
 6525SOL    HW219821   5.427   5.756   5.472 -0.3245 -0.4950  0.3556
 6526SOL     OW19822   4.373   5.351   2.893 -0.1784  0.6806  0.3945
 6526SOL    HW119823   4.277   5.350   2.896 -0.5021 -2.9497 -3.2641
 6526SOL    HW219824   4.393   5.418   2.827 -0.3318  0.3282 -0.0168
 6527SOL     OW19825   4.347   0.235   2.726 -0.4016  0.7276 -0.6723
 6527SOL    HW119826   4.281   0.213   2.792  0.7750 -0.3082  0.2099
 6527SOL    HW219827   4.313   0.196   2.645 -1.4369  1.2512 -0.5124
 6528SOL     OW19828   4.474   4.456   6.031  0.1602 -0.2234 -0.2638
 6528SOL    HW119829   4.511   4.506   5.958  1.1428 -0.0075  0.3497
 6528SOL    HW219830   4.472   4.366   6.000  0.4176 -0.1104 -0.6210
 6529SOL     OW19831   4.026   5.862   3.487  0.1779  0.4636 -0.0153
 6529SOL    HW119832   4.066   5.817   3.561 -1.3803 -0.5854  0.2240
 6529SOL    HW219833   3.983   5.939   3.525  0.5115  0.6636 -0.0364
 6530SOL     OW19834   0.425   3.666   3.189  0.2274  0.8301 -0.5532
 6530SOL    HW119835   0.399   3.620   3.109  1.3316  0.7857 -0.9009
 6530SOL    HW219836   0.418   3.600   3.258 -0.2675  0.7351 -0.6936
 6531SOL     OW19837   0.874   4.304   3.460  0.3238 -0.4755  0.7837
 6531SOL    HW119838   0.926   4.234   3.420  0.9062  0.0743  0.5757
 6531SOL    HW219839   0.933   4.379   3.466 -0.4270  0.1544  0.5596
 6532SOL     OW19840   4.362   2.873   6.101 -0.3382 -0.0389  0.3306
 6532SOL    HW119841   4.362   2.800   6.039  0.2895 -1.7862  2.2466
 6532SOL    HW219842   4.444   2.918   6.086 -1.2950  1.1333 -1.7415
 6533SOL     OW19843   3.225   5.424   4.009  0.5844  0.1131  0.5028
 6533SOL    HW119844   3.176   5.344   3.989  0.6879  0.4533 -1.1887
 6533SOL    HW219845   3.201   5.444   4.100 -0.6114 -1.0026  0.4631
 6534SOL     OW19846   3.525   5.922   1.103  0.6158 -0.4302 -0.2824
 6534SOL    HW119847   3.432   5.934   1.123  0.7205  0.9946 -0.5566
 6534SOL    HW219848   3.553   6.006   1.066  1.6762 -1.3060 -1.5529
 6535SOL     OW19849   1.630   4.816   1.366  0.0643  0.3029  0.4008
 6535SOL    HW119850   1.539   4.836   1.391 -0.6743 -0.3219 -1.5539
 6535SOL    HW219851   1.631   4.825   1.270  2.4325  1.6364  0.4871
 6536SOL     OW19852   5.940   0.829   0.785  0.4247 -0.2865 -0.0070
 6536SOL    HW119853   5.935   0.748   0.735 -0.0572  0.0490 -0.5053
 6536SOL    HW219854   5.881   0.889   0.741  0.4622  0.2122  0.6018
 6537SOL     OW19855   1.788   3.172   3.256  0.0999 -0.5165  0.0309
 6537SOL    HW119856   1.837   3.090   3.266  2.8595  0.8058 -1.3867
 6537SOL    HW219857   1.791   3.190   3.162  0.6184  1.7712  0.4392
 6538SOL     OW19858   5.760   5.881   5.491 -0.0513  0.1458  0.3860
 6538SOL    HW119859   5.712   5.810   5.534 -1.0815  0.0458 -0.8855
 6538SOL    HW219860   5.694   5.929   5.442  0.9133  0.9719 -0.1440
 6539SOL     OW19861   0.083   0.268   0.214  0.5782 -0.7875 -0.4584
 6539SOL    HW119862   0.065   0.174   0.213  0.4525 -0.7641 -0.4691
 6539SOL    HW219863   0.051   0.299   0.129  1.4134 -0.8761 -0.8065
 6540SOL     OW19864   2.130   5.148   4.435 -0.3137  0.2946  0.2693
 6540SOL    HW119865   2.156   5.236   4.463 -1.9251  0.3254  1.8278
 6540SOL    HW219866   2.087   5.110   4.512  1.9267 -2.5777  0.2964
 6541SOL     OW19867   0.951   3.320   1.811  0.4450  0.5168  0.1851
 6541SOL    HW119868   0.913   3.262   1.745  0.2683  2.9336 -1.9856
 6541SOL    HW219869   1.038   3.284   1.828  0.0608 -0.7865 -0.5008
 6542SOL     OW19870   4.764   4.639   4.663  0.1708 -0.5599 -0.4417
 6542SOL    HW119871   4.711   4.569   4.700 -2.6867  0.9265 -1.4290
 6542SOL    HW219872   4.774   4.701   4.735 -1.1822  0.0504 -0.7444
 6543SOL     OW19873   1.273   0.167   2.969  0.0152 -0.2981  0.1497
 6543SOL    HW119874   1.243   0.160   3.060 -0.1755  0.4132  0.1486
 6543SOL    HW219875   1.322   0.249   2.966 -0.4796 -0.0199 -0.5259
 6544SOL     OW19876   4.797   3.730   0.562  0.1381 -0.7226  0.6460
 6544SOL    HW119877   4.798   3.757   0.654 -1.4969  0.4201  0.3900
 6544SOL    HW219878   4.838   3.644   0.561  2.4472  0.2672  2.0640
 6545SOL     OW19879   4.964   5.745   1.576  0.5062 -0.0875 -0.4997
 6545SOL    HW119880   4.943   5.656   1.603 -0.6653  0.4968  0.6468
 6545SOL    HW219881   4.922   5.801   1.642  0.7822  1.3281 -1.4676
 6546SOL     OW19882   2.531   2.731   4.481 -0.9056  0.7292  0.0772
 6546SOL    HW119883   2.518   2.793   4.552  2.5530  1.6696  0.0597
 6546SOL    HW219884   2.541   2.786   4.403 -1.1203 -0.0882 -0.5378
 6547SOL     OW19885   0.453   4.577   3.949  0.1226  0.6533  0.5629
 6547SOL    HW119886   0.430   4.503   4.004 -0.7543  0.4490 -0.0718
 6547SOL    HW219887   0.479   4.538   3.865  1.7638  0.9392  0.8968
 6548SOL     OW19888   6.028   0.159   4.848 -0.0642 -0.3559  0.1116
 6548SOL    HW119889   6.070   0.096   4.907  1.4263  2.0266  1.7807
 6548SOL    HW219890   6.101   0.210   4.813 -1.3512  2.4421  1.2733
 6549SOL     OW19891   3.869   0.588   3.090  0.0849  0.1717  0.3112
 6549SOL    HW119892   3.962   0.568   3.085  0.0846 -0.2655  1.5441
 6549SOL    HW219893   3.862   0.680   3.064  0.6889 -0.1253 -0.9526
 6550SOL     OW19894   6.072   5.827   3.964  0.2297 -0.1088  0.2266
 6550SOL    HW119895   6.023   5.805   3.885  0.9978 -0.6840 -0.0906
 6550SOL    HW219896   6.087   5.743   4.007 -0.3721  0.2169  1.1072
 6551SOL     OW19897   1.887   3.829   3.964 -0.3676 -0.4290  0.1283
 6551SOL    HW119898   1.934   3.775   3.901 -0.1064  0.0318 -0.0763
 6551SOL    HW219899   1.826   3.880   3.911  1.0607  1.2490  0.0179
 6552SOL     OW19900   0.498   4.817   0.842  0.1993 -0.1009 -0.3361
 6552SOL    HW119901   0.450   4.757   0.785 -0.8321  0.9837 -0.6483
 6552SOL    HW219902   0.473   4.904   0.812 -0.1048  0.5118  1.5598
 6553SOL     OW19903   3.792   4.235   1.104 -0.1785  0.0183  0.3165
 6553SOL    HW119904   3.848   4.256   1.179  0.9910 -0.2150 -0.4552
 6553SOL    HW219905   3.715   4.194   1.142  1.0913 -1.5513  1.3079
 6554SOL     OW19906   1.817   0.719   2.961 -0.7903 -0.2650  0.2641
 6554SOL    HW119907   1.888   0.779   2.936 -0.1862 -0.9745  0.2367
 6554SOL    HW219908   1.819   0.651   2.894 -0.2264 -1.3131  1.3035
 6555SOL     OW19909   1.780   3.490   0.784 -0.1124  0.4791  0.0156
 6555SOL    HW119910   1.873   3.511   0.784  0.3586 -1.3343 -1.9172
 6555SOL    HW219911   1.770   3.424   0.854  0.3631 -0.3997 -0.7259
 6556SOL     OW19912   0.914   1.970   5.404 -0.1059  0.0173  0.3259
 6556SOL    HW119913   0.965   2.050   5.392 -1.0758  0.7179  0.6977
 6556SOL    HW219914   0.934   1.917   5.327  0.0599  0.8983 -0.2548
 6557SOL     OW19915   1.714   1.210   3.119  0.0782  0.2339  0.6730
 6557SOL    HW119916   1.645   1.274   3.138  1.4138  1.5889  1.1964
 6557SOL    HW219917   1.687   1.169   3.037 -1.8110  0.0264  1.3451
 6558SOL     OW19918   0.099   4.499   1.627 -0.0097 -0.3786  0.4865
 6558SOL    HW119919   0.074   4.559   1.556  0.8247  0.3469  0.7867
 6558SOL    HW219920   0.171   4.543   1.671  0.2367 -1.3507  1.0849
 6559SOL     OW19921   2.829   1.330   4.232  0.1818  0.5963 -0.2966
 6559SOL    HW119922   2.904   1.288   4.190  0.1490  0.4918 -0.2507
 6559SOL    HW219923   2.865   1.409   4.272  0.2486  0.5970 -0.3587
 6560SOL     OW19924   2.785   0.108   4.793  0.1911 -0.4092  0.0269
 6560SOL    HW119925   2.730   0.054   4.736  0.6259 -1.3296  0.4441
 6560SOL    HW219926   2.871   0.108   4.752  0.2864 -0.3450  0.2220
 6561SOL     OW19927   2.150   2.577   2.891 -0.2096 -0.4524  0.4179
 6561SOL    HW119928   2.176   2.665   2.918 -0.5528 -0.3274  0.3397
 6561SOL    HW219929   2.123   2.534   2.972 -1.0577 -0.1393  0.3047
 6562SOL     OW19930   2.488   4.315   0.753 -0.6983  0.2724 -0.2569
 6562SOL    HW119931   2.423   4.299   0.821 -1.3916  1.0504 -0.7124
 6562SOL    HW219932   2.492   4.232   0.705 -0.6256 -0.0972  0.3715
 6563SOL     OW19933   2.893   3.975   1.510 -0.2418  0.1731 -0.3312
 6563SOL    HW119934   2.970   4.031   1.514  0.0378 -0.0699 -1.7932
 6563SOL    HW219935   2.824   4.031   1.474 -0.3961  0.0248 -0.2696
 6564SOL     OW19936   4.739   1.359   5.361  0.1511  0.3104  0.3700
 6564SOL    HW119937   4.808   1.364   5.295  0.7693  1.3426  1.0732
 6564SOL    HW219938   4.741   1.444   5.404 -1.1797  0.1436  0.7939
 6565SOL     OW19939   1.842   1.858   0.989  0.0119 -0.4595 -0.8939
 6565SOL    HW119940   1.853   1.946   0.952  2.0380 -0.6249 -0.7417
 6565SOL    HW219941   1.884   1.800   0.926  3.2487 -0.7844  1.3647
 6566SOL     OW19942   4.095   0.197   3.121 -0.4723  0.0078  0.0409
 6566SOL    HW119943   4.003   0.179   3.102 -0.4457 -1.1586  0.8909
 6566SOL    HW219944   4.137   0.196   3.035 -0.9343 -1.4920 -0.1996
 6567SOL     OW19945   6.143   4.217   0.119  0.6371  0.8427 -0.2259
 6567SOL    HW119946   6.095   4.144   0.158 -0.7284  0.8206 -1.8094
 6567SOL    HW219947   6.229   4.213   0.158 -0.0599 -0.3358  1.2844
 6568SOL     OW19948   2.628   3.290   0.218 -0.5474 -0.3481 -0.2868
 6568SOL    HW119949   2.620   3.221   0.152 -2.2236  0.0877 -0.5892
 6568SOL    HW219950   2.542   3.293   0.260 -0.9060  2.2977 -1.0483
 6569SOL     OW19951   3.203   2.443   3.940  0.1310 -0.1591  0.6053
 6569SOL    HW119952   3.155   2.525   3.952 -0.0087 -0.0922 -0.2938
 6569SOL    HW219953   3.294   2.466   3.959  0.4049  0.7088 -1.4463
 6570SOL     OW19954   0.268   2.836   4.730  0.2192  0.0078 -0.2145
 6570SOL    HW119955   0.232   2.775   4.795  0.7443 -0.5523 -0.4374
 6570SOL    HW219956   0.207   2.830   4.656 -0.0220  0.1574 -0.0296
 6571SOL     OW19957   0.526   2.894   3.607  0.1850  0.3169  0.3676
 6571SOL    HW119958   0.523   2.812   3.657  2.0659  0.8187  1.4005
 6571SOL    HW219959   0.505   2.962   3.672  1.0179  0.8352  0.1110
 6572SOL     OW19960   4.355   1.591   4.248  0.0080 -0.1615 -0.0166
 6572SOL    HW119961   4.417   1.660   4.226 -1.0164  0.4598 -1.1036
 6572SOL    HW219962   4.316   1.567   4.164 -1.5342 -0.2159  0.6877
 6573SOL     OW19963   4.629   3.434   1.225  0.0950  0.0628  0.0077
 6573SOL    HW119964   4.543   3.431   1.183  0.7285 -2.5074 -1.3277
 6573SOL    HW219965   4.665   3.519   1.199 -0.3614 -0.5763 -3.1453
 6574SOL     OW19966   1.492   4.148   1.425  0.1895 -0.0157  0.0257
 6574SOL    HW119967   1.480   4.234   1.466 -0.5589 -0.7715  1.4694
 6574SOL    HW219968   1.467   4.085   1.493  2.4839 -1.4663 -0.3410
 6575SOL     OW19969   0.128   6.033   0.168  0.1563  0.0595  0.1950
 6575SOL    HW119970   0.123   6.081   0.085 -0.8001 -0.1877  0.0877
 6575SOL    HW219971   0.076   5.954   0.152  0.7521 -0.4489  0.7367
 6576SOL     OW19972   0.333   1.661   4.254  0.2122 -0.4689 -0.0286
 6576SOL    HW119973   0.293   1.574   4.260 -1.5933  0.2370 -0.9820
 6576SOL    HW219974   0.321   1.686   4.162  1.2842  0.5334  0.0818
 6577SOL     OW19975   2.215   0.675   1.932 -0.0892 -0.6128  0.1891
 6577SOL    HW119976   2.128   0.696   1.899  0.1273 -0.6913 -0.4338
 6577SOL    HW219977   2.268   0.660   1.854  0.2154 -1.6545  0.5726
 6578SOL     OW19978   1.003   0.761   0.218 -0.0480 -0.2835 -0.0800
 6578SOL    HW119979   0.975   0.719   0.299  0.9348  0.7857  0.8327
 6578SOL    HW219980   1.020   0.688   0.158  0.1867 -1.1164  0.9852
 6579SOL     OW19981   6.017   3.922   0.054  0.1175 -0.4401 -0.5976
 6579SOL    HW119982   5.955   3.988   0.023 -1.0975 -1.3177 -0.1197
 6579SOL    HW219983   6.021   3.857  -0.016 -2.3964 -2.2653  0.7663
 6580SOL     OW19984   0.279   0.457   1.038  0.1316  0.4264 -0.0254
 6580SOL    HW119985   0.197   0.436   1.083  0.3998 -1.8190 -0.4624
 6580SOL    HW219986   0.252   0.484   0.950 -0.1745  0.0762 -0.0439
 6581SOL     OW19987   3.428   3.764   4.410  0.1930  0.1085  0.6377
 6581SOL    HW119988   3.372   3.708   4.463 -1.0152  0.7360  0.0598
 6581SOL    HW219989   3.437   3.844   4.461 -0.5581  0.5200  0.1431
 6582SOL     OW19990   1.186   1.262   5.052  0.0895 -0.7197 -0.0356
 6582SOL    HW119991   1.161   1.296   4.966  0.2955  3.3546  1.3189
 6582SOL    HW219992   1.267   1.213   5.036  0.1192 -0.0843 -2.1348
 6583SOL     OW19993   1.769   5.263   4.570 -0.2490  0.0922  0.2198
 6583SOL    HW119994   1.791   5.318   4.646 -1.1739  1.5819 -0.5496
 6583SOL    HW219995   1.819   5.183   4.584  0.6961  0.8826  1.6933
 6584SOL     OW19996   3.794   6.081   4.561  0.1932 -0.1306  0.3128
 6584SOL    HW119997   3.809   6.000   4.513  1.5267 -0.8204  1.8315
 6584SOL    HW219998   3.806   6.150   4.495 -1.3238 -1.1225 -1.0852
 6585SOL     OW19999   0.966   1.692   4.893 -0.0699  0.6352  0.6459
 6585SOL    HW120000   1.019   1.677   4.814  0.9125  1.2761  1.1714
 6585SOL    HW220001   0.877   1.670   4.865  0.4336 -0.3634 -0.2855
 6586SOL     OW20002   5.531   3.224   5.660  0.4926 -0.0033 -0.0292
 6586SOL    HW120003   5.438   3.213   5.640  0.1032  0.3879  1.4844
 6586SOL    HW220004   5.575   3.165   5.599 -0.8565 -1.5675  0.4270
 6587SOL     OW20005   3.352   4.708   4.771  0.2146  0.1086  0.0696
 6587SOL    HW120006   3.445   4.691   4.785 -0.1270 -0.6394  1.6068
 6587SOL    HW220007   3.309   4.626   4.796 -0.7418 -0.3014 -2.5907
 6588SOL     OW20008   0.539   3.826   2.998  0.2097  0.2855  0.4995
 6588SOL    HW120009   0.625   3.862   3.018  1.4302 -1.5163 -1.1572
 6588SOL    HW220010   0.522   3.764   3.069  1.4362 -1.1344 -0.3942
 6589SOL     OW20011   0.923   4.481   2.259  0.6554  0.5427 -0.0891
 6589SOL    HW120012   1.004   4.531   2.267  0.5370  0.4379  2.8637
 6589SOL    HW220013   0.865   4.517   2.326 -0.5643 -1.5026  0.0669
 6590SOL     OW20014   0.877   6.094   4.826  0.4943 -0.3403 -0.4393
 6590SOL    HW120015   0.884   6.171   4.770 -1.6022 -0.8072 -1.4367
 6590SOL    HW220016   0.938   6.031   4.788 -0.1040 -0.2645 -1.5618
 6591SOL     OW20017   4.813   1.202   1.620 -0.7935 -0.0107  0.4397
 6591SOL    HW120018   4.782   1.218   1.531 -0.3519 -0.0909  0.2668
 6591SOL    HW220019   4.789   1.281   1.669 -1.6732 -0.2609  0.4289
 6592SOL     OW20020   4.748   2.149   0.276 -0.2123 -0.4196 -0.1810
 6592SOL    HW120021   4.694   2.132   0.200  1.2149 -0.8823 -1.1296
 6592SOL    HW220022   4.696   2.209   0.329 -0.2624  1.9223 -2.6847
 6593SOL     OW20023   0.620   6.053   2.625 -0.4386  0.6500  0.3346
 6593SOL    HW120024   0.705   6.054   2.579  1.2117 -0.0475  3.1247
 6593SOL    HW220025   0.616   6.138   2.668 -1.5100  0.9373 -0.3117
 6594SOL     OW20026   2.254   1.594   4.417  0.8228 -0.5801  0.3016
 6594SOL    HW120027   2.190   1.605   4.346 -0.0505  0.4822  1.2051
 6594SOL    HW220028   2.220   1.520   4.468 -0.4314  0.7391  1.4785
 6595SOL     OW20029   3.567   2.648   2.331 -0.2640 -0.1480  0.0345
 6595SOL    HW120030   3.605   2.625   2.416 -0.1227  0.7465  0.2228
 6595SOL    HW220031   3.639   2.637   2.269 -0.3303 -0.6678  0.0417
 6596SOL     OW20032   5.416   3.427   3.897 -0.1429 -0.0404  0.0321
 6596SOL    HW120033   5.346   3.481   3.933 -0.2534  0.1470 -0.4539
 6596SOL    HW220034   5.425   3.354   3.959  1.3060  1.4867  1.7495
 6597SOL     OW20035   5.079   2.984   1.958  0.3715 -0.4084 -0.6306
 6597SOL    HW120036   5.087   2.936   2.040 -0.3300  1.7480  0.7790
 6597SOL    HW220037   5.169   2.990   1.925  0.8278 -0.3841  0.5560
 6598SOL     OW20038   2.563   1.070   2.077  0.3803 -0.4827  0.1494
 6598SOL    HW120039   2.520   1.086   1.993 -0.8254  0.2728  0.8758
 6598SOL    HW220040   2.584   0.977   2.076 -0.2192 -0.6194 -0.7254
 6599SOL     OW20041   2.547   4.943   4.821  0.0118  0.3235 -0.0892
 6599SOL    HW120042   2.534   4.875   4.755  3.0192  0.0416 -0.5209
 6599SOL    HW220043   2.600   4.902   4.889  0.2614  1.6880  0.5921
 6600SOL     OW20044   2.542   5.256   2.399  0.0896 -1.5048  0.4903
 6600SOL    HW120045   2.527   5.190   2.331  0.5720 -2.0678  0.9181
 6600SOL    HW220046   2.554   5.204   2.479 -1.4333 -0.8274  1.1934
 6601SOL     OW20047   4.568   0.772   2.178  0.1768  0.1304  0.0029
 6601SOL    HW120048   4.634   0.789   2.246 -0.6305  1.7806  0.4327
 6601SOL    HW220049   4.616   0.783   2.096  0.8055 -0.2935  0.3097
 6602SOL     OW20050   4.395   1.808   5.599 -0.2169 -0.0152  0.3719
 6602SOL    HW120051   4.335   1.734   5.592 -1.8183  1.2199  0.3776
 6602SOL    HW220052   4.377   1.861   5.521  0.2816  0.8095  0.7998
 6603SOL     OW20053   0.210   4.976   5.169 -0.2153 -0.0403 -0.0616
 6603SOL    HW120054   0.207   5.065   5.202  1.5279  0.3691 -0.9134
 6603SOL    HW220055   0.274   4.931   5.224  1.5523  0.2338 -1.7716
 6604SOL     OW20056   2.012   1.536   1.812 -0.2368 -0.0779 -0.0912
 6604SOL    HW120057   2.065   1.552   1.734 -0.6172 -0.4130 -0.4206
 6604SOL    HW220058   1.988   1.624   1.843  1.7636  0.1577  0.9512
 6605SOL     OW20059   4.771   4.073   0.697 -0.8387  0.2073  0.8311
 6605SOL    HW120060   4.785   4.141   0.763  0.2289 -0.2412  1.0871
 6605SOL    HW220061   4.809   3.995   0.736 -2.2699 -0.6247  0.6455
 6606SOL     OW20062   2.149   0.987   5.824 -0.1592 -0.0390  0.4692
 6606SOL    HW120063   2.236   1.007   5.789 -0.5387  0.4830 -0.1883
 6606SOL    HW220064   2.116   1.072   5.855 -1.0362  0.0396 -0.6487
 6607SOL     OW20065   5.155   6.013   4.936 -0.1168  0.0825  0.4770
 6607SOL    HW120066   5.096   6.075   4.892 -1.3398 -0.2817  1.5479
 6607SOL    HW220067   5.125   5.927   4.906  0.2145 -0.0886  0.6281
 6608SOL     OW20068   4.418   3.280   1.050  0.3549 -0.1727  0.1363
 6608SOL    HW120069   4.491   3.307   0.995  1.4146 -0.8378  1.1548
 6608SOL    HW220070   4.340   3.308   1.003  1.1353 -1.8223 -2.3345
 6609SOL     OW20071   2.608   1.723   1.276  0.3141  0.6797  0.1221
 6609SOL    HW120072   2.548   1.724   1.201 -1.5077  2.7890  1.4949
 6609SOL    HW220073   2.665   1.647   1.259 -2.5669 -1.3663 -1.3857
 6610SOL     OW20074   5.061   5.456   1.161 -0.8540 -0.0995 -0.1222
 6610SOL    HW120075   5.083   5.548   1.151  0.3022 -0.2172  1.0305
 6610SOL    HW220076   5.100   5.431   1.245 -0.4272 -1.8471 -0.8055
 6611SOL     OW20077   4.412   4.495   0.447  0.6718 -0.3947  0.3569
 6611SOL    HW120078   4.450   4.444   0.375 -0.3330 -0.1735 -0.3568
 6611SOL    HW220079   4.460   4.578   0.447  0.1841 -0.0995 -0.5610
 6612SOL     OW20080   3.775   1.305   6.023  0.0287  0.1990  0.1495
 6612SOL    HW120081   3.772   1.363   6.099 -3.0103  1.6337 -0.9026
 6612SOL    HW220082   3.683   1.282   6.006  0.5679 -0.1534 -2.9819
 6613SOL     OW20083   3.506   5.030   0.780  0.4913  0.3187 -0.1656
 6613SOL    HW120084   3.582   5.084   0.797  0.0739  0.9712 -0.3371
 6613SOL    HW220085   3.464   5.070   0.703  0.3581 -0.4407 -0.4982
 6614SOL     OW20086   4.208   5.733   5.413  0.4332  0.3603 -0.0289
 6614SOL    HW120087   4.224   5.816   5.458 -1.3384  1.2355 -0.9404
 6614SOL    HW220088   4.191   5.757   5.322  1.4197 -1.1601 -0.6695
 6615SOL     OW20089   5.862   0.418   5.737  0.1663  0.0030 -0.3850
 6615SOL    HW120090   5.770   0.443   5.741 -0.2533 -1.2724 -1.1825
 6615SOL    HW220091   5.881   0.381   5.823 -0.2115 -0.1725 -0.3761
 6616SOL     OW20092   1.484   5.867   2.428  0.1206 -0.4550 -0.0293
 6616SOL    HW120093   1.400   5.895   2.392  0.6600 -1.0437 -1.8566
 6616SOL    HW220094   1.461   5.811   2.502 -1.0503  0.5551  0.4020
 6617SOL     OW20095   5.912   5.635   5.953 -0.3636 -0.0237 -0.2571
 6617SOL    HW120096   5.996   5.595   5.975 -0.4682 -1.2347 -1.8818
 6617SOL    HW220097   5.854   5.610   6.025  0.4554  0.1826  0.4958
 6618SOL     OW20098   5.558   0.857   3.300  0.9107 -0.3389  0.0771
 6618SOL    HW120099   5.506   0.937   3.288  0.4496 -0.2705  2.1764
 6618SOL    HW220100   5.501   0.786   3.272  0.4462 -0.1081  0.4378
 6619SOL     OW20101   2.777   1.977   5.031 -0.5484  0.4456 -0.0393
 6619SOL    HW120102   2.862   2.021   5.029 -0.4336  0.2058 -0.3988
 6619SOL    HW220103   2.761   1.959   5.124 -0.6865  1.4190  0.1382
 6620SOL     OW20104   2.330   3.697   2.722 -0.2225  0.5424 -0.3334
 6620SOL    HW120105   2.255   3.724   2.774 -0.5557 -0.3103 -0.3627
 6620SOL    HW220106   2.404   3.702   2.783 -0.6019 -0.3984  0.2290
 6621SOL     OW20107   1.151   2.186   1.137 -0.0157 -0.5858  0.1048
 6621SOL    HW120108   1.206   2.136   1.197  1.4733 -0.0133 -0.7279
 6621SOL    HW220109   1.212   2.220   1.071 -1.3991 -0.0607 -0.9568
 6622SOL     OW20110   2.966   4.869   1.404 -0.1266 -0.1339  0.0491
 6622SOL    HW120111   3.035   4.925   1.440  0.0422 -0.2370 -0.1106
 6622SOL    HW220112   2.923   4.924   1.338 -1.4463  0.6003  1.4659
 6623SOL     OW20113   4.785   4.184   2.799 -0.0105 -0.2899 -0.4238
 6623SOL    HW120114   4.819   4.095   2.810  0.6499  0.1836  2.0195
 6623SOL    HW220115   4.813   4.230   2.878 -1.4481  1.7449 -1.0161
 6624SOL     OW20116   0.809   1.538   4.051  0.0503 -0.5066  0.1867
 6624SOL    HW120117   0.863   1.496   3.984  0.0916 -0.2366  0.0485
 6624SOL    HW220118   0.721   1.505   4.035  0.0322 -0.3224 -0.1027
 6625SOL     OW20119   0.170   5.663   4.781  0.1051  0.0678 -0.0350
 6625SOL    HW120120   0.209   5.729   4.722  0.0106 -0.2085 -0.4112
 6625SOL    HW220121   0.235   5.652   4.850 -0.6098  1.7948  0.9597
 6626SOL     OW20122   2.830   6.025   2.279 -0.5627 -0.2312  0.4255
 6626SOL    HW120123   2.789   5.939   2.270  0.0418 -0.5047  0.2356
 6626SOL    HW220124   2.893   6.030   2.207 -0.4751  0.3020  0.5317
 6627SOL     OW20125   4.593   3.409   2.111 -0.2585 -0.0481  0.1177
 6627SOL    HW120126   4.592   3.444   2.022 -0.8773 -1.6503 -0.5427
 6627SOL    HW220127   4.506   3.370   2.123 -0.1163 -0.0307  1.3539
 6628SOL     OW20128   0.534   1.959   5.763 -0.1862  0.5281  0.0849
 6628SOL    HW120129   0.613   1.970   5.710  0.3335  0.2902  0.8062
 6628SOL    HW220130   0.549   1.879   5.813 -0.1230  1.3977  1.5196
 6629SOL     OW20131   4.971   0.732   0.337 -0.1553 -0.6863 -0.4820
 6629SOL    HW120132   4.963   0.746   0.431  0.7631 -0.5388 -0.4174
 6629SOL    HW220133   4.931   0.647   0.322 -0.6634 -0.5380 -0.0250
 6630SOL     OW20134   2.902   3.971   3.274 -0.3877 -0.1777 -0.5308
 6630SOL    HW120135   2.830   4.032   3.258 -1.0915 -1.3103 -1.9686
 6630SOL    HW220136   2.859   3.890   3.301  0.4113 -0.5709 -0.4219
 6631SOL     OW20137   5.505   0.775   4.173 -0.2992 -0.0765  0.5223
 6631SOL    HW120138   5.476   0.734   4.091 -0.6745 -0.1935  0.7102
 6631SOL    HW220139   5.437   0.751   4.236  0.2521 -0.4162  0.9879
 6632SOL     OW20140   2.012   4.892   2.692 -0.1132 -0.5593 -0.5278
 6632SOL    HW120141   2.065   4.817   2.664 -2.0884 -1.9584 -0.7309
 6632SOL    HW220142   1.981   4.931   2.610 -1.4497 -1.3310 -0.4169
 6633SOL     OW20143   1.137   5.287   2.485 -0.0926 -0.1894 -0.6798
 6633SOL    HW120144   1.165   5.224   2.419 -1.0218 -0.4913 -0.7991
 6633SOL    HW220145   1.152   5.243   2.569 -3.0844 -1.6661 -0.7938
 6634SOL     OW20146   5.340   0.875   0.504 -0.1350 -0.6157  0.0735
 6634SOL    HW120147   5.431   0.844   0.495 -1.1107 -3.8064 -0.0971
 6634SOL    HW220148   5.311   0.839   0.588 -1.4586 -0.2681 -0.2187
 6635SOL     OW20149   2.571   1.333   1.390  0.8314 -0.4209  0.4316
 6635SOL    HW120150   2.660   1.368   1.401  0.1566  0.9065  2.2042
 6635SOL    HW220151   2.522   1.404   1.349 -0.0135 -0.0524  1.9764
 6636SOL     OW20152   5.314   1.520   5.419 -0.5247 -0.2920  0.4228
 6636SOL    HW120153   5.313   1.606   5.377  0.5605  0.1003  1.1553
 6636SOL    HW220154   5.251   1.468   5.369 -0.2789  0.5538 -0.8072
 6637SOL     OW20155   1.898   1.565   2.441  0.4935 -0.5461 -0.9206
 6637SOL    HW120156   1.928   1.655   2.448  0.7595 -0.5123 -2.2178
 6637SOL    HW220157   1.937   1.533   2.359 -2.2221 -0.7759 -2.2440
 6638SOL     OW20158   4.613   1.238   1.831 -0.0386  0.2826 -0.1479
 6638SOL    HW120159   4.590   1.147   1.814 -0.9242  0.5448 -0.4219
 6638SOL    HW220160   4.538   1.288   1.799 -0.3376  0.9943  1.5628
 6639SOL     OW20161   1.481   1.492   1.727 -0.0992  0.5292  0.1451
 6639SOL    HW120162   1.503   1.522   1.816 -1.0349  1.3538  0.1192
 6639SOL    HW220163   1.385   1.492   1.726 -0.0898  0.7978 -0.9626
 6640SOL     OW20164   5.212   4.568   3.576 -0.1989  0.2040 -0.2095
 6640SOL    HW120165   5.167   4.632   3.631 -0.9744  0.4940 -1.1399
 6640SOL    HW220166   5.274   4.526   3.634 -0.2301  1.2524  0.6236
 6641SOL     OW20167   3.047   2.117   4.953 -0.3153 -0.1788 -0.1133
 6641SOL    HW120168   3.049   2.198   5.004  1.1493 -0.3309  0.1024
 6641SOL    HW220169   3.106   2.133   4.879  0.9190 -1.4476  0.5657
 6642SOL     OW20170   3.363   5.380   1.476 -0.3072  0.0583 -0.5105
 6642SOL    HW120171   3.366   5.328   1.396  3.0224 -0.1148 -0.4322
 6642SOL    HW220172   3.329   5.465   1.449  0.6456 -0.0324 -2.1247
 6643SOL     OW20173   5.646   0.812   5.927  0.3089 -0.0380 -0.7102
 6643SOL    HW120174   5.583   0.823   5.998  3.4563  2.0696  2.0172
 6643SOL    HW220175   5.654   0.899   5.889  1.2842 -0.3843 -1.3237
 6644SOL     OW20176   2.124   5.034   5.913 -0.0183 -0.1986  0.1139
 6644SOL    HW120177   2.080   4.997   5.989 -0.0247  0.0522  0.2329
 6644SOL    HW220178   2.053   5.052   5.851 -0.0384 -0.1980  0.1367
 6645SOL     OW20179   2.914   0.450   1.040 -0.5521 -0.9102 -0.9769
 6645SOL    HW120180   2.897   0.429   1.131  0.0257  1.1284 -0.3440
 6645SOL    HW220181   2.829   0.473   1.004 -0.4245  0.9398 -0.1731
 6646SOL     OW20182   5.558   5.541   3.584 -0.0593 -0.4654  0.7085
 6646SOL    HW120183   5.594   5.455   3.603  0.3007 -0.1074  1.7078
 6646SOL    HW220184   5.475   5.523   3.539  0.4784 -1.3136  0.0320
 6647SOL     OW20185   5.415   4.121   1.466 -0.0389 -0.1502  0.0512
 6647SOL    HW120186   5.332   4.084   1.498  0.3698  0.1322  1.4741
 6647SOL    HW220187   5.481   4.090   1.528  0.9275 -0.2857 -1.0091
 6648SOL     OW20188   4.757   2.386   3.578 -0.3654 -0.0637  0.0870
 6648SOL    HW120189   4.679   2.437   3.597 -0.1431  0.8747 -1.3578
 6648SOL    HW220190   4.830   2.445   3.599 -0.0818 -0.2301 -0.4223
 6649SOL     OW20191   0.268   2.685   3.028 -0.3776 -0.5204  0.5696
 6649SOL    HW120192   0.269   2.633   2.948  0.9546 -0.1714  0.3358
 6649SOL    HW220193   0.323   2.637   3.090 -0.6422 -0.3209  0.9675
 6650SOL     OW20194   5.147   5.495   3.951 -0.3406  0.4552 -0.4494
 6650SOL    HW120195   5.119   5.521   4.039 -0.5440 -0.2536 -0.3007
 6650SOL    HW220196   5.201   5.568   3.921  0.5617  0.2763  0.6583
 6651SOL     OW20197   4.299   5.646   3.626  0.0451  0.3586 -0.0683
 6651SOL    HW120198   4.280   5.558   3.591 -1.1221  1.0474 -1.2505
 6651SOL    HW220199   4.387   5.665   3.594 -0.4449  0.3821 -1.4693
 6652SOL     OW20200   0.166   2.339   4.004 -0.0681 -0.0774  0.2223
 6652SOL    HW120201   0.188   2.406   3.940  0.4926  0.1434  0.6377
 6652SOL    HW220202   0.211   2.260   3.973 -1.0029 -0.3589 -0.4493
 6653SOL     OW20203   4.156   6.082   6.093  0.0460 -0.2024 -0.2126
 6653SOL    HW120204   4.074   6.132   6.100 -0.2268 -0.7610  0.8693
 6653SOL    HW220205   4.159   6.055   6.002 -0.6679  0.3386 -0.4151
 6654SOL     OW20206   2.091   2.505   2.561 -0.4729  0.6298 -0.4965
 6654SOL    HW120207   2.064   2.416   2.535  1.3771  0.0854 -0.7091
 6654SOL    HW220208   2.186   2.501   2.563 -0.3952  1.7616  2.5782
 6655SOL     OW20209   3.797   4.018   6.054 -0.8461 -0.2089  0.0428
 6655SOL    HW120210   3.868   4.035   5.992 -1.2621 -1.4000 -0.8125
 6655SOL    HW220211   3.831   4.045   6.139  0.9034 -1.4030 -0.2364
 6656SOL     OW20212   3.601   0.578   4.142 -0.8413 -0.1724 -0.4399
 6656SOL    HW120213   3.627   0.656   4.191 -2.2419 -0.0120  0.0869
 6656SOL    HW220214   3.664   0.512   4.168 -0.0968  0.5713 -0.2993
 6657SOL     OW20215   4.560   4.575   5.404  0.1704 -0.7374 -0.1902
 6657SOL    HW120216   4.652   4.554   5.390  0.4037  0.2448 -0.1882
 6657SOL    HW220217   4.512   4.501   5.366  0.9623 -1.4717  0.2146
 6658SOL     OW20218   1.025   4.759   3.782  0.2455 -0.2061  0.2810
 6658SOL    HW120219   0.951   4.736   3.726  0.6155  0.8675 -0.7105
 6658SOL    HW220220   1.083   4.683   3.778 -0.2614 -0.5870  0.1067
 6659SOL     OW20221   6.084   1.867   0.639  0.1378  0.0893  0.3538
 6659SOL    HW120222   6.166   1.912   0.620 -0.7870  1.7569  0.2009
 6659SOL    HW220223   6.085   1.853   0.734  1.1521 -1.0765  0.1978
 6660SOL     OW20224   0.208   1.485   3.652 -0.4411  0.1015 -0.3724
 6660SOL    HW120225   0.188   1.572   3.617  0.2918  0.5821  0.3713
 6660SOL    HW220226   0.122   1.442   3.660 -0.6345 -1.4382 -5.9781
 6661SOL     OW20227   1.374   5.493   2.064 -0.5296 -0.4090  0.1774
 6661SOL    HW120228   1.457   5.506   2.020 -1.2573 -1.2031 -1.5419
 6661SOL    HW220229   1.344   5.581   2.088 -0.4309  0.1421 -1.6038
 6662SOL     OW20230   1.129   0.630   1.836 -0.2667  0.3764 -0.4795
 6662SOL    HW120231   1.196   0.595   1.895  1.4717  0.8366 -2.0724
 6662SOL    HW220232   1.171   0.704   1.793 -1.5044  0.1617 -2.1639
 6663SOL     OW20233   2.436   3.112   3.011 -0.5800 -0.0456 -0.1211
 6663SOL    HW120234   2.406   3.033   3.056  0.2261  0.4852  1.4151
 6663SOL    HW220235   2.377   3.120   2.936 -0.4198 -2.3273 -0.5735
 6664SOL     OW20236   2.622   0.493   4.470 -0.2606  0.2061  0.3055
 6664SOL    HW120237   2.638   0.571   4.418 -0.6948  0.7655  0.9979
 6664SOL    HW220238   2.703   0.442   4.462 -0.8679 -0.5188 -2.2084
 6665SOL     OW20239   6.072   5.260   2.544 -0.0212  0.1302  0.1045
 6665SOL    HW120240   6.000   5.213   2.587  0.0921 -0.2866 -0.1541
 6665SOL    HW220241   6.118   5.192   2.494  0.0364  0.5544 -0.4228
 6666SOL     OW20242   0.347   0.579   5.701 -0.3218  0.3205  0.0120
 6666SOL    HW120243   0.318   0.491   5.724 -0.2865 -0.9311 -4.0457
 6666SOL    HW220244   0.426   0.566   5.649 -0.0318  2.7971 -0.3117
 6667SOL     OW20245   2.584   5.861   5.800 -0.6153 -0.1131 -0.1835
 6667SOL    HW120246   2.635   5.866   5.719 -1.4091  1.2109 -0.6240
 6667SOL    HW220247   2.620   5.930   5.855  0.2575 -1.3210  0.8435
 6668SOL     OW20248   4.758   5.055   3.499  0.5461  0.0365 -0.4618
 6668SOL    HW120249   4.740   5.078   3.408 -0.4868 -0.0619 -0.2995
 6668SOL    HW220250   4.739   4.961   3.504 -1.6331  0.4617  0.3471
 6669SOL     OW20251   5.568   5.253   2.090  0.4957 -0.2057 -0.1001
 6669SOL    HW120252   5.594   5.240   1.999 -2.6345 -3.3453 -0.7866
 6669SOL    HW220253   5.631   5.201   2.140  1.1999  0.0964 -0.6542
 6670SOL     OW20254   5.318   4.371   4.460 -0.2045 -0.0743 -0.2560
 6670SOL    HW120255   5.283   4.460   4.451  1.9072  0.9174  0.5716
 6670SOL    HW220256   5.285   4.341   4.545 -0.0743  0.3379 -0.0573
 6671SOL     OW20257   1.121   1.143   1.242  0.1634 -1.2694  0.2172
 6671SOL    HW120258   1.086   1.232   1.248  2.6858 -0.2546  1.1440
 6671SOL    HW220259   1.084   1.108   1.162 -0.4781  0.8270 -0.4592
 6672SOL     OW20260   1.031   1.306   0.074 -0.0401 -0.5893  0.1331
 6672SOL    HW120261   1.003   1.215   0.073  0.8601 -0.9075  1.2562
 6672SOL    HW220262   1.049   1.327  -0.018 -1.5584 -1.0936 -0.3140
 6673SOL     OW20263   3.848   6.126   1.266  0.0487 -0.3201  0.2492
 6673SOL    HW120264   3.871   6.059   1.331  1.7258  0.2952  0.3505
 6673SOL    HW220265   3.926   6.133   1.211 -0.9254 -0.0057 -1.1373
 6674SOL     OW20266   1.996   3.661   1.007 -0.0816 -0.6589  0.4652
 6674SOL    HW120267   2.003   3.587   1.067 -0.3842 -0.4536  0.7620
 6674SOL    HW220268   2.014   3.624   0.921 -1.0792 -1.2609  0.4983
 6675SOL     OW20269   4.848   2.667   0.834 -0.0483 -0.6648  0.2952
 6675SOL    HW120270   4.777   2.662   0.771  0.6321 -0.2725 -0.5172
 6675SOL    HW220271   4.847   2.758   0.865 -0.1475 -0.7614  0.5811
 6676SOL     OW20272   3.855   0.467   1.655  0.2857 -0.3313 -0.1488
 6676SOL    HW120273   3.770   0.474   1.697  0.5746 -0.4450  0.4714
 6676SOL    HW220274   3.836   0.443   1.564 -0.3542  0.1059 -0.1277
 6677SOL     OW20275   1.654   5.440   1.398 -0.8063 -0.1297  0.4722
 6677SOL    HW120276   1.645   5.373   1.465 -0.3628  1.5217  2.2879
 6677SOL    HW220277   1.609   5.516   1.435 -0.4888  0.8516 -1.0873
 6678SOL     OW20278   3.110   2.103   1.766  0.3535  0.1477  0.0686
 6678SOL    HW120279   3.092   2.173   1.704  0.9948 -1.4483 -2.0241
 6678SOL    HW220280   3.070   2.025   1.728  0.5510 -0.8490  1.7942
 6679SOL     OW20281   3.108   4.695   0.663 -0.3568  0.2831 -0.5463
 6679SOL    HW120282   3.188   4.653   0.694 -1.1446 -0.4699  0.5523
 6679SOL    HW220283   3.083   4.646   0.585 -0.8284 -0.8290  0.2687
 6680SOL     OW20284   0.568   0.311   1.892  0.6573 -0.2456  0.2530
 6680SOL    HW120285   0.571   0.312   1.987  1.7848 -0.6085  0.2264
 6680SOL    HW220286   0.525   0.228   1.869  0.0658  0.0018  0.4365
 6681SOL     OW20287   5.892   6.082   5.649  0.1331  0.0716  0.1519
 6681SOL    HW120288   5.831   6.025   5.602  0.8585 -0.1565 -0.5306
 6681SOL    HW220289   5.868   6.171   5.622 -2.0892  0.3110  2.4716
 6682SOL     OW20290   3.463   0.699   2.079  0.1188 -0.6404  0.5328
 6682SOL    HW120291   3.439   0.736   2.164 -0.9345  1.3671 -0.5506
 6682SOL    HW220292   3.549   0.738   2.060  0.4409 -1.2372  0.7431
 6683SOL     OW20293   1.893   0.530   4.639  0.0326 -0.3626  0.2135
 6683SOL    HW120294   1.975   0.492   4.671  0.3723 -1.5077 -1.8734
 6683SOL    HW220295   1.843   0.456   4.606 -1.2378  0.5006  0.1330
 6684SOL     OW20296   5.330   0.103   5.395  0.0993 -0.0310 -0.9809
 6684SOL    HW120297   5.296   0.036   5.455  1.9109  0.3351  0.5881
 6684SOL    HW220298   5.263   0.112   5.328 -2.0250 -0.5356  0.9518
 6685SOL     OW20299   1.242   0.817   1.629 -0.1313  0.2568  0.2794
 6685SOL    HW120300   1.319   0.766   1.603  0.7334  0.9798  1.3237
 6685SOL    HW220301   1.234   0.884   1.561 -0.1515 -0.1371 -0.1078
 6686SOL     OW20302   3.808   4.954   1.142 -0.6436 -0.0202 -0.6046
 6686SOL    HW120303   3.795   5.048   1.145 -1.6758 -0.1103 -1.6113
 6686SOL    HW220304   3.872   4.936   1.211 -0.3542  1.4177 -0.4778
 6687SOL     OW20305   0.237   3.981   5.777  0.0778  0.2281 -0.6042
 6687SOL    HW120306   0.184   3.971   5.698 -0.9524  3.2750 -0.4129
 6687SOL    HW220307   0.326   3.958   5.748 -0.6855 -1.4142 -1.8546
 6688SOL     OW20308   3.611   2.881   4.245  0.1019 -0.9830 -0.4281
 6688SOL    HW120309   3.533   2.881   4.300  0.9338 -1.1158  0.8019
 6688SOL    HW220310   3.603   2.801   4.192  0.1951 -1.9202  0.8998
 6689SOL     OW20311   4.892   2.330   5.467 -0.2406  0.1559  0.0978
 6689SOL    HW120312   4.903   2.244   5.510  1.5515  0.0635 -0.4873
 6689SOL    HW220313   4.797   2.344   5.467 -0.4713 -1.0837  1.6504
 6690SOL     OW20314   0.582   5.354   0.601 -0.2706 -0.0966 -0.5380
 6690SOL    HW120315   0.629   5.271   0.613 -0.9929 -0.6740 -1.5706
 6690SOL    HW220316   0.570   5.361   0.506 -0.0763  1.2824 -0.4847
 6691SOL     OW20317   4.906   0.546   3.677 -0.1998  0.3071  0.3582
 6691SOL    HW120318   4.959   0.469   3.696 -0.9940 -0.8483 -1.8394
 6691SOL    HW220319   4.819   0.512   3.657 -0.3222  1.6356 -1.6749
 6692SOL     OW20320   4.135   2.769   3.921 -0.7331 -0.2764  0.0020
 6692SOL    HW120321   4.207   2.773   3.985 -0.5602  0.8188 -0.2303
 6692SOL    HW220322   4.059   2.740   3.971  0.2324 -3.3773 -0.1145
 6693SOL     OW20323   0.299   4.652   1.739 -0.6869  0.5192  0.1479
 6693SOL    HW120324   0.261   4.730   1.780 -1.1583  0.4992 -0.2373
 6693SOL    HW220325   0.363   4.687   1.677 -1.4781  0.6484 -0.6160
 6694SOL     OW20326   5.897   6.103   2.929 -0.1896  0.0588 -0.0365
 6694SOL    HW120327   5.821   6.064   2.971  0.2739 -0.7339  0.0772
 6694SOL    HW220328   5.902   6.191   2.966 -1.9125  0.6699 -1.1383
 6695SOL     OW20329   1.952   0.234   6.069  0.6355 -0.0258  0.4427
 6695SOL    HW120330   1.936   0.171   6.140  1.7205 -1.5028 -0.5632
 6695SOL    HW220331   2.024   0.288   6.101  0.6640 -0.2328  0.7344
 6696SOL     OW20332   2.330   0.613   6.015 -0.2554  0.1559 -0.2227
 6696SOL    HW120333   2.339   0.708   6.017  0.4153  0.0995 -0.1052
 6696SOL    HW220334   2.413   0.581   6.050 -0.1160 -0.4805 -1.1111
 6697SOL     OW20335   5.394   5.523   2.077 -0.0561  0.1482 -0.0139
 6697SOL    HW120336   5.479   5.530   2.034  0.0180  0.6619  0.2168
 6697SOL    HW220337   5.393   5.435   2.114  0.9358  0.6214  1.1791
 6698SOL     OW20338   1.241   2.381   2.039 -0.5362  0.3631 -0.0273
 6698SOL    HW120339   1.200   2.313   1.986 -2.0378 -0.0730  1.6187
 6698SOL    HW220340   1.298   2.428   1.977  0.1731 -2.0322 -1.3159
 6699SOL     OW20341   4.069   6.056   3.289  0.0599  0.2742  0.3338
 6699SOL    HW120342   4.100   5.996   3.357 -0.8921  0.3963  0.9011
 6699SOL    HW220343   4.003   6.110   3.333 -1.7645 -0.6929 -1.0446
 6700SOL     OW20344   0.296   4.494   0.837 -0.5114  0.1883 -0.1494
 6700SOL    HW120345   0.376   4.453   0.871  0.6303  1.3588 -1.3259
 6700SOL    HW220346   0.289   4.461   0.747 -2.5323 -1.5032  0.5288
 6701SOL     OW20347   5.615   1.828   4.817  0.4891  0.0372  0.0452
 6701SOL    HW120348   5.697   1.866   4.787 -0.1759  1.7559  0.3004
 6701SOL    HW220349   5.550   1.855   4.752  0.1213 -1.4428 -0.2463
 6702SOL     OW20350   1.833   1.177   0.791 -0.1075  0.9635  0.5115
 6702SOL    HW120351   1.767   1.146   0.853 -2.0343 -0.9544 -2.2185
 6702SOL    HW220352   1.794   1.256   0.752 -0.3098  0.4979 -0.2657
 6703SOL     OW20353   3.766   4.311   1.856  0.4334  0.0500 -0.1273
 6703SOL    HW120354   3.712   4.380   1.817  1.8162  0.7011 -0.9441
 6703SOL    HW220355   3.789   4.255   1.782  0.8354 -0.2397  0.2202
 6704SOL     OW20356   5.208   4.519   0.795  0.2100 -0.1867  0.9064
 6704SOL    HW120357   5.259   4.479   0.866  0.4994  0.2077  0.9210
 6704SOL    HW220358   5.138   4.456   0.779 -0.1799 -0.0319  1.9110
 6705SOL     OW20359   4.346   3.125   4.804 -0.5199 -0.0144 -0.2184
 6705SOL    HW120360   4.283   3.193   4.778 -0.1573  0.1747 -0.6166
 6705SOL    HW220361   4.339   3.121   4.899 -0.3015  0.8365 -0.1521
 6706SOL     OW20362   5.423   0.101   3.699  0.0885 -0.1762  0.1487
 6706SOL    HW120363   5.455   0.054   3.776  0.2687 -1.1031 -0.4682
 6706SOL    HW220364   5.443   0.042   3.625 -0.9622  0.2428 -0.4990
 6707SOL     OW20365   5.377   4.360   3.718 -0.0825 -0.2021  0.7989
 6707SOL    HW120366   5.328   4.292   3.672  0.7690 -1.1874  1.3031
 6707SOL    HW220367   5.449   4.313   3.761  0.8347  1.0943  0.7329
 6708SOL     OW20368   1.638   1.907   5.693  0.8304  0.2388  0.0735
 6708SOL    HW120369   1.569   1.972   5.679  1.9313  1.2432 -0.8988
 6708SOL    HW220370   1.602   1.826   5.658 -1.0423 -0.0477  2.3701
 6709SOL     OW20371   3.630   5.856   4.603 -0.0316  0.2249  0.0819
 6709SOL    HW120372   3.633   5.948   4.626 -1.0689  0.0973  0.7462
 6709SOL    HW220373   3.571   5.816   4.666 -0.5995 -0.6666 -0.9632
 6710SOL     OW20374   4.607   4.176   1.962 -0.2592  0.7069 -0.6487
 6710SOL    HW120375   4.625   4.192   2.055 -1.3782  0.5996 -0.3970
 6710SOL    HW220376   4.622   4.261   1.920  0.3824  0.7220 -0.3888
 6711SOL     OW20377   3.642   5.818   0.286 -0.0666 -0.2739 -0.3773
 6711SOL    HW120378   3.571   5.879   0.307  0.2774 -0.3728  1.1960
 6711SOL    HW220379   3.701   5.868   0.231  0.5380  1.0847  1.4031
 6712SOL     OW20380   5.909   3.319   4.496  0.2719 -0.0411  0.3419
 6712SOL    HW120381   5.818   3.343   4.514  0.2797 -0.1805  0.5745
 6712SOL    HW220382   5.930   3.363   4.414 -0.4946 -1.2145 -0.5221
 6713SOL     OW20383   2.656   1.945   0.330 -0.7430 -0.3564  0.1297
 6713SOL    HW120384   2.667   2.009   0.260 -1.0174  1.0521  1.3202
 6713SOL    HW220385   2.668   1.996   0.410  0.9753 -2.1916  1.1129
 6714SOL     OW20386   2.882   5.590   1.180 -0.0301  0.9395  0.1774
 6714SOL    HW120387   2.925   5.622   1.101  1.3909  2.7621  1.5891
 6714SOL    HW220388   2.820   5.524   1.149  2.3605 -0.3976 -2.1592
 6715SOL     OW20389   4.094   1.151   0.887 -0.4982  0.0783 -0.0492
 6715SOL    HW120390   4.007   1.156   0.848 -0.1504 -1.6391 -1.1329
 6715SOL    HW220391   4.099   1.063   0.924  0.0808  0.8421  1.7707
 6716SOL     OW20392   3.793   3.447   4.590 -0.0485  0.0285  0.5886
 6716SOL    HW120393   3.876   3.488   4.566  0.1392 -1.1678 -0.9910
 6716SOL    HW220394   3.732   3.520   4.599  0.2541  0.7461 -2.2014
 6717SOL     OW20395   5.127   0.958   3.670  0.2269 -0.0759 -0.7253
 6717SOL    HW120396   5.174   0.918   3.743  0.9248 -0.6318 -1.4657
 6717SOL    HW220397   5.038   0.923   3.678  0.4372 -0.5675 -0.4546
 6718SOL     OW20398   2.496   0.842   5.638 -0.1923 -0.1368 -0.3645
 6718SOL    HW120399   2.429   0.865   5.574 -0.7090  0.5966  0.4179
 6718SOL    HW220400   2.568   0.904   5.621  0.2787 -0.8809 -1.1606
 6719SOL     OW20401   4.248   6.055   4.279 -0.6177 -0.0751  0.3476
 6719SOL    HW120402   4.217   6.137   4.241  1.3637  0.7003  0.2960
 6719SOL    HW220403   4.322   6.029   4.224 -0.2510 -1.0711  1.2781
 6720SOL     OW20404   1.501   3.805   4.877 -0.2572  0.6310  0.6683
 6720SOL    HW120405   1.491   3.733   4.939 -1.1188  0.7882  0.7188
 6720SOL    HW220406   1.426   3.798   4.819  0.7416  0.2417 -0.6326
 6721SOL     OW20407   6.006   5.389   4.800  0.2030 -0.0577  0.3936
 6721SOL    HW120408   5.944   5.371   4.730  0.0062  0.4562  0.4314
 6721SOL    HW220409   5.957   5.442   4.863  0.0983 -1.2635  1.3675
 6722SOL     OW20410   2.637   3.421   1.496 -0.1397  0.0694  0.2334
 6722SOL    HW120411   2.680   3.408   1.580  1.0331 -0.3501 -0.4094
 6722SOL    HW220412   2.634   3.334   1.456  0.1754  0.4033 -0.5467
 6723SOL     OW20413   1.979   4.404   2.387 -0.2521  0.1200  0.1376
 6723SOL    HW120414   2.062   4.388   2.342 -1.1157 -1.0112 -1.1364
 6723SOL    HW220415   2.001   4.405   2.480  1.1042 -0.6919 -0.1622
 6724SOL     OW20416   1.447   1.800   2.168 -0.2019  0.1276 -0.5911
 6724SOL    HW120417   1.485   1.753   2.243 -0.6463  3.2636  1.8252
 6724SOL    HW220418   1.517   1.858   2.138 -0.6918  0.3944 -1.2528
 6725SOL     OW20419   2.571   5.465   2.798  0.3207  0.1325 -0.8577
 6725SOL    HW120420   2.620   5.460   2.716  0.8868  1.0625 -0.5901
 6725SOL    HW220421   2.633   5.433   2.864  0.0071 -0.2178 -0.7253
 6726SOL     OW20422   2.386   0.279   4.620  0.1397  0.4056 -0.0449
 6726SOL    HW120423   2.380   0.214   4.689  2.1664 -0.8297 -0.9420
 6726SOL    HW220424   2.449   0.343   4.652  1.3759 -0.3734 -0.8560
 6727SOL     OW20425   0.142   4.273   2.727 -0.3247 -0.4712  0.4918
 6727SOL    HW120426   0.147   4.340   2.795 -1.3929  0.4300 -0.3045
 6727SOL    HW220427   0.231   4.238   2.722  0.5098  1.5894  0.1971
 6728SOL     OW20428   4.149   3.915   4.191 -0.4560  0.0545  0.1514
 6728SOL    HW120429   4.103   3.873   4.263  1.0974  0.7302  1.6038
 6728SOL    HW220430   4.170   3.843   4.131 -1.0880 -0.6496  0.7574
 6729SOL     OW20431   2.592   5.462   2.202  0.3995 -0.0383 -0.0159
 6729SOL    HW120432   2.580   5.536   2.261 -0.2705  0.1770 -0.4116
 6729SOL    HW220433   2.604   5.387   2.260 -0.7040  0.0945  0.4076
 6730SOL     OW20434   3.718   0.116   2.604  0.1515  0.0296 -0.2589
 6730SOL    HW120435   3.744   0.156   2.521 -0.7553  0.2937 -0.4238
 6730SOL    HW220436   3.625   0.099   2.594  0.1983 -0.6681  0.4149
 6731SOL     OW20437   4.639   2.360   1.570  0.0288 -0.2787  0.2066
 6731SOL    HW120438   4.692   2.430   1.532  0.1736 -0.3643  0.2508
 6731SOL    HW220439   4.551   2.377   1.537 -0.1269  0.4842  0.9730
 6732SOL     OW20440   0.651   5.616   1.518  0.3920  0.1418 -0.1324
 6732SOL    HW120441   0.564   5.641   1.486  0.7227 -0.5985 -1.6979
 6732SOL    HW220442   0.634   5.549   1.584 -0.2560  0.8262  0.4217
 6733SOL     OW20443   0.287   2.232   5.509 -0.6498  1.4332 -0.2558
 6733SOL    HW120444   0.306   2.322   5.536  1.3815  0.6394  1.2355
 6733SOL    HW220445   0.328   2.222   5.424  1.2108  1.2969  0.6094
 6734SOL     OW20446   0.254   5.025   0.720  0.3483 -0.2921  0.3523
 6734SOL    HW120447   0.300   5.083   0.781 -2.7536  1.5929  1.1176
 6734SOL    HW220448   0.239   5.079   0.642  0.5263 -1.3086 -0.4192
 6735SOL     OW20449   2.499   3.561   3.963 -1.1687 -0.3321  0.4102
 6735SOL    HW120450   2.441   3.485   3.964 -0.9955 -0.5180 -1.0213
 6735SOL    HW220451   2.584   3.527   3.988 -1.3245 -0.3808  0.8846
 6736SOL     OW20452   5.141   3.206   0.138 -0.2818  0.5473 -0.2709
 6736SOL    HW120453   5.222   3.256   0.125  0.0648  0.1657  0.3286
 6736SOL    HW220454   5.120   3.218   0.230 -0.4886  0.0284 -0.2451
 6737SOL     OW20455   0.630   3.165   6.131 -0.5923 -0.1796  0.2799
 6737SOL    HW120456   0.649   3.106   6.057  1.5535 -0.2435  0.8398
 6737SOL    HW220457   0.621   3.107   6.206 -0.3324  0.0685  0.5034
 6738SOL     OW20458   0.901   4.737   1.132  0.1000  0.2884  0.1263
 6738SOL    HW120459   0.832   4.699   1.076 -1.4096  0.6719  1.6483
 6738SOL    HW220460   0.911   4.674   1.203  0.7364  0.6535  0.3678
 6739SOL     OW20461   4.200   5.358   3.638 -0.1355 -0.6634  0.3827
 6739SOL    HW120462   4.136   5.313   3.582  0.8425  0.3307 -1.6620
 6739SOL    HW220463   4.149   5.388   3.714 -2.0588 -0.1531 -1.0208
 6740SOL     OW20464   4.857   0.877   3.688 -0.4593  0.1763 -0.0845
 6740SOL    HW120465   4.798   0.837   3.623  1.6406 -3.6520  0.0625
 6740SOL    HW220466   4.818   0.855   3.773 -0.8122  1.1406  0.0168
 6741SOL     OW20467   0.271   0.268   2.368  1.6502  0.2636 -0.0399
 6741SOL    HW120468   0.350   0.214   2.369  2.1962  1.0510  0.4272
 6741SOL    HW220469   0.257   0.293   2.459 -0.9662 -2.4183  0.4514
 6742SOL     OW20470   2.194   1.224   1.687  0.0255 -0.1028 -0.4018
 6742SOL    HW120471   2.193   1.129   1.676  0.7556  0.0328 -1.8362
 6742SOL    HW220472   2.195   1.259   1.597  0.7189  1.2383  0.0977
 6743SOL     OW20473   5.503   3.272   5.961 -0.2150  0.0085  0.0349
 6743SOL    HW120474   5.483   3.278   5.867 -0.1643  0.7999  0.0732
 6743SOL    HW220475   5.591   3.308   5.969 -0.2879  0.0995  0.4186
 6744SOL     OW20476   3.063   3.875   4.431  0.5650  0.2547  0.1425
 6744SOL    HW120477   3.106   3.895   4.515  0.2431 -0.3402  0.4529
 6744SOL    HW220478   2.970   3.892   4.447  0.5152  0.2444 -0.1328
 6745SOL     OW20479   0.376   1.049   4.742 -0.1839  0.6359  0.5196
 6745SOL    HW120480   0.393   1.137   4.776  1.0057  0.6282 -0.0044
 6745SOL    HW220481   0.336   1.064   4.657 -0.4164  0.6705  0.6353
 6746SOL     OW20482   2.095   3.156   3.343 -0.2977  0.1450 -0.1778
 6746SOL    HW120483   2.041   3.093   3.296  1.6111  0.1063 -2.4943
 6746SOL    HW220484   2.152   3.103   3.398 -0.0672 -0.0645 -0.6106
 6747SOL     OW20485   2.297   5.727   1.447  0.1539  0.4531  0.2499
 6747SOL    HW120486   2.274   5.731   1.540  0.3403  0.7764  0.2861
 6747SOL    HW220487   2.265   5.642   1.418 -1.7329  1.1569  0.1318
 6748SOL     OW20488   2.739   2.288   4.354 -0.0050  0.1230 -0.4652
 6748SOL    HW120489   2.727   2.360   4.415 -0.8244 -0.8223  0.5440
 6748SOL    HW220490   2.676   2.305   4.284 -0.3234  0.2984 -0.1373
 6749SOL     OW20491   4.897   0.493   3.383 -0.2598 -0.2833 -1.4006
 6749SOL    HW120492   4.942   0.536   3.310 -0.9238  1.1220 -1.0273
 6749SOL    HW220493   4.894   0.560   3.452 -1.3141 -0.9399 -0.7783
 6750SOL     OW20494   1.650   2.644   2.009  0.4795 -0.2533 -0.2038
 6750SOL    HW120495   1.732   2.674   2.048  0.5088 -1.2894  0.5987
 6750SOL    HW220496   1.648   2.550   2.028 -0.8542 -0.2549 -0.2723
 6751SOL     OW20497   3.815   5.914   1.026  0.3144  0.1250  0.0605
 6751SOL    HW120498   3.764   5.834   1.018  0.3054  0.0928  0.4429
 6751SOL    HW220499   3.751   5.982   1.049  0.5044 -0.0087  1.0323
 6752SOL     OW20500   2.796   4.498   6.094  0.1773 -0.8399  0.0271
 6752SOL    HW120501   2.720   4.495   6.035  0.3103 -0.5230 -0.1596
 6752SOL    HW220502   2.759   4.483   6.181 -0.6977  3.1478  0.4999
 6753SOL     OW20503   3.216   1.232   3.206 -0.2493 -0.2260 -0.2388
 6753SOL    HW120504   3.301   1.205   3.172 -0.5398 -0.8020 -0.5108
 6753SOL    HW220505   3.155   1.216   3.134 -0.4009  1.3652 -0.4983
 6754SOL     OW20506   2.423   0.890   5.915 -0.0009 -0.1623 -0.1461
 6754SOL    HW120507   2.461   0.883   5.828 -0.1200 -0.7693 -0.1501
 6754SOL    HW220508   2.423   0.984   5.933  0.9208 -0.1090 -0.3942
 6755SOL     OW20509   4.958   0.805   4.388 -0.7874 -0.1102 -0.0773
 6755SOL    HW120510   5.001   0.869   4.444 -1.2768  0.1810 -0.0198
 6755SOL    HW220511   5.029   0.756   4.347 -0.3949  0.5645 -0.2270
 6756SOL     OW20512   4.887   2.830   2.942 -0.0615 -0.2394  0.3534
 6756SOL    HW120513   4.837   2.791   2.870 -0.5238 -0.1823  0.6458
 6756SOL    HW220514   4.904   2.757   3.001 -1.9555  0.1908  1.5037
 6757SOL     OW20515   2.514   0.194   4.915  0.1607  0.9159 -0.1177
 6757SOL    HW120516   2.479   0.282   4.931  2.2886  1.7029  0.5500
 6757SOL    HW220517   2.609   0.207   4.906  0.4537 -1.2376 -0.6924
 6758SOL     OW20518   0.938   2.593   0.989  0.0188  0.5335 -0.3215
 6758SOL    HW120519   0.931   2.688   0.990 -3.2729  0.4032 -1.0355
 6758SOL    HW220520   0.944   2.568   1.081  2.5619  1.4004 -0.1666
 6759SOL     OW20521   2.468   3.429   5.764  0.0490 -0.1035 -0.5984
 6759SOL    HW120522   2.452   3.467   5.850  0.7344 -2.4446  0.6654
 6759SOL    HW220523   2.385   3.437   5.718  0.0508  2.4006 -0.2609
 6760SOL     OW20524   5.762   1.722   4.125  0.1830 -0.2500 -0.2968
 6760SOL    HW120525   5.756   1.810   4.088  0.3481 -0.6921 -1.4361
 6760SOL    HW220526   5.792   1.735   4.215 -0.4936  0.8856 -0.2234
 6761SOL     OW20527   4.884   3.237   0.405  0.0236  0.5289 -0.4309
 6761SOL    HW120528   4.925   3.296   0.342  0.1549  1.4325  0.4797
 6761SOL    HW220529   4.926   3.153   0.390  0.4395  0.8612 -1.1811
 6762SOL     OW20530   1.159   1.308   1.495  0.0859 -1.0971  0.0579
 6762SOL    HW120531   1.246   1.290   1.458  0.7617 -1.1703  1.6056
 6762SOL    HW220532   1.115   1.361   1.428  1.3065 -1.0913 -0.7735
 6763SOL     OW20533   5.415   1.254   5.833 -0.1129  0.7645 -0.1031
 6763SOL    HW120534   5.406   1.273   5.740 -1.0087 -0.6397 -0.3367
 6763SOL    HW220535   5.462   1.329   5.868 -0.4557  1.7023 -1.5410
 6764SOL     OW20536   0.055   2.185   0.948 -0.1429  0.2378 -0.0941
 6764SOL    HW120537   0.087   2.118   0.889 -0.1890  0.6166 -0.5559
 6764SOL    HW220538   0.020   2.253   0.891  0.0653  0.7367  0.3590
 6765SOL     OW20539   0.840   2.935   3.574  0.1061  0.0033 -0.0914
 6765SOL    HW120540   0.926   2.895   3.558  0.7189  0.9466  0.7406
 6765SOL    HW220541   0.859   3.012   3.627 -1.2578  0.2800  0.0256
 6766SOL     OW20542   2.185   1.852   1.756  0.0088  0.0294 -0.0634
 6766SOL    HW120543   2.181   1.837   1.851 -3.0370  2.3873  0.3454
 6766SOL    HW220544   2.189   1.764   1.718  1.1247 -0.9897  2.1978
 6767SOL     OW20545   5.212   3.459   5.520  0.0675 -0.2985  0.2039
 6767SOL    HW120546   5.192   3.376   5.477 -2.0808  0.1459  0.2341
 6767SOL    HW220547   5.233   3.519   5.449  0.8611 -0.6599  0.1265
 6768SOL     OW20548   2.867   5.841   4.904 -0.2499  0.0043  0.3592
 6768SOL    HW120549   2.887   5.829   4.997  1.2127 -0.2339  0.0402
 6768SOL    HW220550   2.869   5.936   4.891 -0.7177  0.0511  0.6226
 6769SOL     OW20551   1.017   2.011   1.812  0.1072 -0.2304  0.1910
 6769SOL    HW120552   0.979   2.016   1.724 -1.2859 -1.4927  0.6783
 6769SOL    HW220553   1.040   1.919   1.823  1.9086  0.2289  0.5237
 6770SOL     OW20554   2.611   3.253   1.083  0.0505 -0.1627 -0.4117
 6770SOL    HW120555   2.547   3.272   1.152 -0.3353 -0.0266 -0.8037
 6770SOL    HW220556   2.694   3.243   1.130  0.0095  1.0563 -0.0428
 6771SOL     OW20557   2.982   1.890   0.920  0.1038  0.1770  0.3508
 6771SOL    HW120558   2.989   1.886   1.015 -2.5852  0.7688  0.6424
 6771SOL    HW220559   3.035   1.966   0.895  1.7320 -0.6149  1.1813
 6772SOL     OW20560   2.747   1.355   5.886 -0.1490 -0.1272  0.4638
 6772SOL    HW120561   2.751   1.388   5.797 -0.1237  0.4888  0.6902
 6772SOL    HW220562   2.838   1.351   5.915 -0.2220  0.6550  0.8144
 6773SOL     OW20563   5.249   3.945   3.515  0.4545 -0.0119  0.0956
 6773SOL    HW120564   5.326   3.974   3.466 -1.3837  0.4825 -2.7248
 6773SOL    HW220565   5.211   4.025   3.550 -0.1090  0.0192 -0.5936
 6774SOL     OW20566   0.450   1.126   3.564 -0.0830 -0.1446  0.1862
 6774SOL    HW120567   0.533   1.087   3.591  1.4201  2.9603  0.5417
 6774SOL    HW220568   0.384   1.079   3.614  1.6186 -1.5838  1.2085
 6775SOL     OW20569   0.515   5.770   0.366  0.4288 -0.7720  0.2098
 6775SOL    HW120570   0.478   5.709   0.429 -0.4196 -1.0920 -0.5656
 6775SOL    HW220571   0.583   5.720   0.321  1.0247 -0.5474  0.8465
 6776SOL     OW20572   0.372   4.842   3.997 -0.3475 -0.0166 -0.2899
 6776SOL    HW120573   0.377   4.747   4.010 -0.6894 -0.0767 -0.5742
 6776SOL    HW220574   0.299   4.854   3.936  0.6386  0.3023 -1.4726
 6777SOL     OW20575   2.439   4.366   3.440  0.6470  0.1392  0.0511
 6777SOL    HW120576   2.489   4.339   3.362 -1.1666 -2.5503 -0.2992
 6777SOL    HW220577   2.477   4.315   3.511 -1.0905 -1.4990 -0.1180
 6778SOL     OW20578   3.350   5.207   5.125 -0.2056 -0.2774 -0.4664
 6778SOL    HW120579   3.361   5.261   5.204 -1.3030  1.9786 -1.7560
 6778SOL    HW220580   3.257   5.184   5.125 -0.6810  1.4164 -2.0388
 6779SOL     OW20581   2.222   0.672   4.897  0.2208 -0.1640  0.5931
 6779SOL    HW120582   2.146   0.677   4.955 -0.0646  1.1271  0.1557
 6779SOL    HW220583   2.279   0.743   4.926  2.3957 -2.4309  2.3619
 6780SOL     OW20584   6.073   3.416   5.048 -0.5308 -0.1773 -0.0222
 6780SOL    HW120585   6.070   3.371   4.963 -1.6898  0.1789 -0.1901
 6780SOL    HW220586   6.039   3.504   5.030 -0.3865  0.0408  0.7284
 6781SOL     OW20587   5.161   3.951   4.706  0.0534 -0.0037 -0.0918
 6781SOL    HW120588   5.102   3.919   4.638  0.1070  0.4216 -0.3404
 6781SOL    HW220589   5.111   4.018   4.752 -0.3105 -0.9239  0.8826
 6782SOL     OW20590   3.313   1.637   4.632 -0.2204 -0.1266 -0.1233
 6782SOL    HW120591   3.254   1.612   4.703  0.2564  2.6081  1.3997
 6782SOL    HW220592   3.313   1.562   4.573 -3.0258 -1.3297  1.2092
 6783SOL     OW20593   2.731   3.711   4.649  0.0877 -0.4413  0.3852
 6783SOL    HW120594   2.638   3.689   4.650  0.1166 -0.7522 -1.0054
 6783SOL    HW220595   2.748   3.738   4.558  1.3439 -0.3613  0.6212
 6784SOL     OW20596   5.095   5.821   1.846 -0.2384  0.0777 -0.0478
 6784SOL    HW120597   5.113   5.812   1.940  2.6755  0.2138 -0.5188
 6784SOL    HW220598   5.162   5.768   1.804 -1.5088  0.0069 -2.1044
 6785SOL     OW20599   3.312   5.870   5.146 -0.2138 -0.5541  0.2799
 6785SOL    HW120600   3.400   5.849   5.118 -0.2066  0.5726 -0.6325
 6785SOL    HW220601   3.255   5.836   5.077 -0.4405 -0.6844  0.5284
 6786SOL     OW20602   3.526   0.173   5.169  0.2576 -0.6695  0.2437
 6786SOL    HW120603   3.459   0.110   5.143  0.7678 -1.7548  1.4174
 6786SOL    HW220604   3.592   0.168   5.100 -0.3853 -0.3535 -0.3994
 6787SOL     OW20605   6.007   5.909   5.373  0.1652 -0.1776  0.1927
 6787SOL    HW120606   6.078   5.898   5.437 -0.2562 -0.7369  0.5746
 6787SOL    HW220607   5.929   5.879   5.419 -0.1378 -0.6214 -0.5966
 6788SOL     OW20608   5.011   6.049   4.301 -0.3051 -0.4767  0.4206
 6788SOL    HW120609   4.949   6.075   4.233  0.3730  4.4098  1.3280
 6788SOL    HW220610   4.961   5.992   4.359 -2.6889  0.0338 -1.0113
 6789SOL     OW20611   1.106   5.263   3.915 -0.0141  0.6887 -0.1196
 6789SOL    HW120612   1.171   5.321   3.956  0.2422  0.7503 -0.5924
 6789SOL    HW220613   1.038   5.322   3.883  0.1773  0.7212 -0.4762
 6790SOL     OW20614   1.627   2.010   1.965  0.2785  0.0006 -0.4068
 6790SOL    HW120615   1.545   2.025   1.918 -1.0856  0.7952  2.0816
 6790SOL    HW220616   1.655   2.096   1.993  1.5800 -0.3626 -0.5245
 6791SOL     OW20617   3.209   2.289   4.162  0.0547 -0.2020  0.3414
 6791SOL    HW120618   3.205   2.311   4.069  0.3092  0.8151  0.5555
 6791SOL    HW220619   3.119   2.300   4.194  0.1773  0.5984  0.4455
 6792SOL     OW20620   1.672   4.202   3.916  1.0072  0.3274  0.1718
 6792SOL    HW120621   1.750   4.157   3.948  0.3471 -0.7349  0.3282
 6792SOL    HW220622   1.637   4.144   3.849 -0.5208  0.0048  1.2066
 6793SOL     OW20623   0.531   4.181   2.653  0.5794  0.4387 -0.3520
 6793SOL    HW120624   0.543   4.214   2.564 -1.9199  1.2625 -0.4757
 6793SOL    HW220625   0.450   4.131   2.649 -0.0063  1.1342  1.5907
 6794SOL     OW20626   2.521   0.181   0.744 -0.5360 -0.0316 -0.4694
 6794SOL    HW120627   2.517   0.146   0.834  0.5913 -1.2229 -0.8368
 6794SOL    HW220628   2.614   0.197   0.729 -0.7690  0.6448 -1.2581
 6795SOL     OW20629   3.178   0.775   2.149 -0.1361 -0.0552  0.4087
 6795SOL    HW120630   3.260   0.816   2.175  0.9808 -2.4761  0.9785
 6795SOL    HW220631   3.194   0.741   2.061 -0.9292  0.3923  0.0768
 6796SOL     OW20632   0.618   3.218   3.774 -0.1437  0.4172  0.8054
 6796SOL    HW120633   0.648   3.231   3.684  0.8864 -0.5332  0.9774
 6796SOL    HW220634   0.627   3.304   3.816  1.6246  0.3606  0.6122
 6797SOL     OW20635   2.675   0.561   1.002 -0.1424  0.0915  0.5772
 6797SOL    HW120636   2.583   0.554   1.028  0.3052 -0.6561  2.0859
 6797SOL    HW220637   2.719   0.593   1.081  1.1567 -1.4228  0.5160
 6798SOL     OW20638   5.953   1.944   0.351  0.6363  0.3352  0.5917
 6798SOL    HW120639   6.043   1.977   0.345  0.5604  0.5607  0.6659
 6798SOL    HW220640   5.903   1.998   0.290  0.8430 -0.8662 -0.6763
 6799SOL     OW20641   3.408   1.099   0.998  0.5573  0.4713 -0.4067
 6799SOL    HW120642   3.331   1.052   1.028  1.0313  0.2819  0.5449
 6799SOL    HW220643   3.404   1.093   0.903 -0.3280  0.0404 -0.3531
 6800SOL     OW20644   5.450   4.018   4.933 -0.0980  0.6532  0.0535
 6800SOL    HW120645   5.435   4.097   4.881 -2.2316 -0.5695 -1.3379
 6800SOL    HW220646   5.472   3.951   4.869  0.2727 -0.2111  1.0612
 6801SOL     OW20647   1.501   5.665   5.344  0.6408  0.0154  0.2240
 6801SOL    HW120648   1.431   5.636   5.403  0.9185  1.0886  1.1099
 6801SOL    HW220649   1.467   5.745   5.304  0.9468 -0.0359 -0.1465
 6802SOL     OW20650   2.367   5.915   4.539  0.3808 -0.0674  0.4906
 6802SOL    HW120651   2.316   5.990   4.570  0.6873  0.0457  0.7275
 6802SOL    HW220652   2.399   5.942   4.453  0.1014 -0.1112  0.3724
 6803SOL     OW20653   3.724   1.376   4.993 -0.0981 -0.3472 -0.1412
 6803SOL    HW120654   3.726   1.408   4.902 -0.6864  0.4459  0.1188
 6803SOL    HW220655   3.804   1.323   5.001 -0.9823 -1.9927 -1.6663
 6804SOL     OW20656   1.271   0.296   5.126 -0.3073  0.8135  0.0143
 6804SOL    HW120657   1.204   0.289   5.058 -0.2199 -1.7715  0.0890
 6804SOL    HW220658   1.233   0.251   5.202  1.4087 -0.6718  0.0713
 6805SOL     OW20659   0.473   5.075   6.081 -0.2170  0.2991 -0.1247
 6805SOL    HW120660   0.529   5.038   6.012  0.5591  0.1469  0.5754
 6805SOL    HW220661   0.509   5.162   6.097 -1.4252  1.0190 -1.0592
 6806SOL     OW20662   0.775   0.460   1.856 -0.5538  0.4014  0.5034
 6806SOL    HW120663   0.839   0.433   1.921 -0.1988 -0.3498 -0.1391
 6806SOL    HW220664   0.694   0.417   1.882 -0.0168 -1.3202 -0.4623
 6807SOL     OW20665   2.012   0.464   0.517 -0.0573  0.1403 -0.7464
 6807SOL    HW120666   2.040   0.462   0.608 -1.4260  0.6963 -0.2762
 6807SOL    HW220667   2.086   0.502   0.470 -0.0110  1.6087  0.4333
 6808SOL     OW20668   2.302   4.094   4.201  0.2645  0.9941 -0.1206
 6808SOL    HW120669   2.329   4.159   4.136  0.2295  0.2793 -0.8666
 6808SOL    HW220670   2.375   4.033   4.207  0.0269  0.7197  0.0636
 6809SOL     OW20671   1.585   3.272   5.668 -0.3484 -0.0575 -0.9163
 6809SOL    HW120672   1.498   3.264   5.707 -0.4085  0.4923 -0.9324
 6809SOL    HW220673   1.586   3.359   5.629  1.1571  1.0564  1.4039
 6810SOL     OW20674   1.262   1.400   4.422  0.0346  0.0348 -0.1495
 6810SOL    HW120675   1.319   1.459   4.471 -2.0489  1.0414  1.2048
 6810SOL    HW220676   1.293   1.313   4.446  1.1070  0.5356  0.3945
 6811SOL     OW20677   3.727   4.427   5.848 -0.1688 -0.8985  0.3243
 6811SOL    HW120678   3.795   4.457   5.788 -1.4555  1.0328 -0.2841
 6811SOL    HW220679   3.732   4.487   5.922  0.6664 -2.5733  1.6768
 6812SOL     OW20680   2.048   2.440   4.750 -0.0458  0.2492 -0.0909
 6812SOL    HW120681   2.085   2.508   4.807 -0.1986 -0.5659  1.0237
 6812SOL    HW220682   1.988   2.392   4.807  0.1395 -0.8806 -0.8222
 6813SOL     OW20683   3.884   2.396   0.055 -0.0130  0.1422 -0.3781
 6813SOL    HW120684   3.923   2.483   0.066  0.4644 -0.0062 -0.9137
 6813SOL    HW220685   3.957   2.338   0.036 -0.3818 -0.3111 -0.4405
 6814SOL     OW20686   3.338   0.547   0.169 -0.5745 -0.4813  0.0659
 6814SOL    HW120687   3.302   0.632   0.196  1.3205  1.1831 -2.1158
 6814SOL    HW220688   3.299   0.531   0.083  1.4552 -0.1175 -0.9863
 6815SOL     OW20689   4.512   5.166   0.214 -0.6045 -0.0336  0.5839
 6815SOL    HW120690   4.435   5.112   0.203 -1.7499  1.4357  1.0791
 6815SOL    HW220691   4.523   5.210   0.130 -1.3849  1.0699  1.0285
 6816SOL     OW20692   2.546   5.293   5.581  0.4900  0.0743  0.4326
 6816SOL    HW120693   2.495   5.353   5.636  0.5240 -0.0756  0.6281
 6816SOL    HW220694   2.496   5.212   5.582 -0.6683  0.7076 -1.5413
 6817SOL     OW20695   0.795   5.871   4.048  0.2894 -0.1664 -0.3598
 6817SOL    HW120696   0.751   5.929   4.110 -1.0708 -0.1357 -1.3126
 6817SOL    HW220697   0.886   5.868   4.078 -0.2198  0.2373  1.3258
 6818SOL     OW20698   2.786   4.382   2.346 -0.1464 -0.7877 -0.2963
 6818SOL    HW120699   2.802   4.411   2.436 -0.0542 -0.3930 -0.4413
 6818SOL    HW220700   2.840   4.304   2.336 -0.1900 -0.8576  0.0044
 6819SOL     OW20701   1.101   2.254   5.952  0.4679 -0.0321  0.2739
 6819SOL    HW120702   1.176   2.213   5.996  0.3766  0.7402  1.1920
 6819SOL    HW220703   1.112   2.348   5.970  0.9708  0.4373 -2.2162
 6820SOL     OW20704   3.582   4.545   4.427  0.4166  0.1876  0.1590
 6820SOL    HW120705   3.585   4.450   4.438  2.1571 -0.0595 -1.7880
 6820SOL    HW220706   3.493   4.569   4.452  0.0824 -1.8587  1.1835
 6821SOL     OW20707   4.300   0.932   1.123 -0.0406 -0.2544  0.1577
 6821SOL    HW120708   4.223   0.892   1.082 -0.5896  0.3610  0.5668
 6821SOL    HW220709   4.266   1.011   1.165  1.2422  1.3546 -1.6980
 6822SOL     OW20710   3.476   0.485   5.075  0.2995 -0.6264  0.5199
 6822SOL    HW120711   3.564   0.461   5.048  0.3823  0.0501  0.1798
 6822SOL    HW220712   3.486   0.569   5.119 -0.8159  2.4107 -4.3391
 6823SOL     OW20713   0.367   4.848   3.466  0.5286 -0.3443 -0.2501
 6823SOL    HW120714   0.376   4.753   3.470  1.2259 -0.2837 -0.3368
 6823SOL    HW220715   0.431   4.881   3.528 -0.4468  0.0439  0.5781
 6824SOL     OW20716   5.844   4.221   5.684  0.0533 -0.5949 -0.1157
 6824SOL    HW120717   5.809   4.267   5.608  0.4678 -1.5641 -0.9195
 6824SOL    HW220718   5.937   4.245   5.686  0.0498 -0.5912  0.0748
 6825SOL     OW20719   4.015   5.462   0.354  0.3241  0.1099 -0.0099
 6825SOL    HW120720   3.926   5.450   0.385  0.3110  0.4559  0.0962
 6825SOL    HW220721   4.033   5.555   0.368  0.1819  0.3780 -1.3774
 6826SOL     OW20722   2.174   5.850   0.695 -0.2001  0.9039 -0.1962
 6826SOL    HW120723   2.265   5.834   0.721 -0.2745  0.5717 -0.1437
 6826SOL    HW220724   2.136   5.763   0.683 -0.8428  1.0235  0.9161
 6827SOL     OW20725   3.363   0.976   1.946  0.0561  0.2047 -0.1377
 6827SOL    HW120726   3.409   0.924   2.012  1.1349  0.2913 -0.7891
 6827SOL    HW220727   3.421   0.974   1.870 -1.3803 -0.2995 -1.2571
 6828SOL     OW20728   5.496   6.117   2.472 -0.1062 -0.7253  0.0359
 6828SOL    HW120729   5.438   6.133   2.397  0.8142 -0.6003 -0.6675
 6828SOL    HW220730   5.472   6.185   2.535  0.2351  0.2291 -0.8348
 6829SOL     OW20731   2.009   2.992   5.873  0.0644  0.5103  0.0594
 6829SOL    HW120732   1.960   3.025   5.797 -0.5062  0.3833  0.3644
 6829SOL    HW220733   1.989   3.054   5.943 -0.7854 -0.2996  0.5584
 6830SOL     OW20734   1.193   1.135   3.713 -0.0961 -0.0413 -1.0246
 6830SOL    HW120735   1.284   1.104   3.716  0.2333  0.9056 -1.1011
 6830SOL    HW220736   1.143   1.061   3.747  0.6295 -0.8345 -1.6141
 6831SOL     OW20737   5.085   0.571   5.119 -0.1616  0.1882 -0.1578
 6831SOL    HW120738   5.052   0.603   5.203  1.9090  1.7514  0.1201
 6831SOL    HW220739   5.055   0.635   5.055  1.8554  1.4116  0.0450
 6832SOL     OW20740   4.313   0.294   4.107 -0.5618  0.1582  0.3929
 6832SOL    HW120741   4.367   0.340   4.171 -0.8157 -0.1613  0.8453
 6832SOL    HW220742   4.224   0.325   4.124 -0.7335 -0.4799  0.6973
 6833SOL     OW20743   4.077   5.422   1.567  0.1311 -0.4732 -0.4683
 6833SOL    HW120744   4.010   5.449   1.630  1.5357 -0.3960  1.0630
 6833SOL    HW220745   4.116   5.504   1.536  1.0493 -0.5653  0.4045
 6834SOL     OW20746   5.661   3.773   5.122  0.4197 -0.6513 -0.2447
 6834SOL    HW120747   5.715   3.827   5.065 -0.0689 -0.8269 -0.8828
 6834SOL    HW220748   5.723   3.735   5.185  0.9792 -0.5448 -0.7235
 6835SOL     OW20749   5.956   2.588   3.579 -0.6475  0.4764  0.1908
 6835SOL    HW120750   6.023   2.654   3.599  1.5574 -1.2533 -1.0795
 6835SOL    HW220751   5.892   2.635   3.526  1.2796  1.4884 -1.3667
 6836SOL     OW20752   0.822   4.442   1.608  0.4265 -0.4836 -0.1133
 6836SOL    HW120753   0.797   4.523   1.565  1.0775 -0.3328 -0.2121
 6836SOL    HW220754   0.781   4.373   1.556  0.5708 -0.2616 -0.5196
 6837SOL     OW20755   3.054   2.381   0.872  1.0626 -0.1031  0.2435
 6837SOL    HW120756   3.073   2.342   0.958  2.1984 -1.4808 -0.5893
 6837SOL    HW220757   3.139   2.409   0.839  0.5911  0.6952 -0.3190
 6838SOL     OW20758   3.032   5.281   1.524  0.3427 -0.1560 -0.5177
 6838SOL    HW120759   3.097   5.352   1.526  0.5350 -0.3419  0.9783
 6838SOL    HW220760   2.986   5.293   1.441  1.7220  0.4937 -1.2215
 6839SOL     OW20761   4.764   3.268   3.510  0.3211  0.1021  0.0331
 6839SOL    HW120762   4.751   3.181   3.548 -1.7392  0.3972  0.1558
 6839SOL    HW220763   4.781   3.253   3.418 -0.6418 -0.4284 -0.0652
 6840SOL     OW20764   1.331   3.858   6.093 -0.4098  0.1844 -0.1127
 6840SOL    HW120765   1.362   3.932   6.041 -0.4615  0.5349  0.3565
 6840SOL    HW220766   1.246   3.835   6.054  0.2480 -0.5624 -1.1814
 6841SOL     OW20767   2.359   0.347   2.843 -0.7046 -0.6162  0.7007
 6841SOL    HW120768   2.306   0.337   2.764 -2.0203 -0.6223  1.5532
 6841SOL    HW220769   2.449   0.334   2.813 -1.1726 -0.6466 -0.7834
 6842SOL     OW20770   2.685   4.498   4.703 -0.3469  0.4290  0.2333
 6842SOL    HW120771   2.737   4.418   4.704 -0.4718  0.3029 -1.0001
 6842SOL    HW220772   2.749   4.568   4.689 -0.3309  0.4430  0.3799
 6843SOL     OW20773   1.667   4.459   1.739  0.1443  0.2809  0.8479
 6843SOL    HW120774   1.604   4.524   1.709  0.6458  0.5910  0.4352
 6843SOL    HW220775   1.620   4.376   1.738  0.0577  0.3312 -0.5321
 6844SOL     OW20776   2.940   3.118   2.938  0.5021  0.1716  0.0933
 6844SOL    HW120777   2.988   3.080   2.864 -1.0277 -0.6232 -0.5466
 6844SOL    HW220778   2.912   3.042   2.990 -2.6850  0.2627 -1.2421
 6845SOL     OW20779   2.446   0.038   4.044  0.4780 -0.4563  0.5372
 6845SOL    HW120780   2.475   0.126   4.067  2.1434 -1.2046  1.5160
 6845SOL    HW220781   2.355   0.049   4.016  0.7832  1.6188  0.2125
 6846SOL     OW20782   2.488   2.704   6.014 -0.3029 -0.1096 -0.6792
 6846SOL    HW120783   2.443   2.621   6.028  0.3669 -0.4191 -0.3305
 6846SOL    HW220784   2.420   2.763   5.981 -1.5230  0.0784  1.9017
 6847SOL     OW20785   3.011   5.917   1.771  0.4016  0.0617  0.5728
 6847SOL    HW120786   2.915   5.914   1.782 -0.2368 -1.0305 -3.6763
 6847SOL    HW220787   3.043   5.954   1.854 -3.6852  0.9232  2.0195
 6848SOL     OW20788   2.822   0.063   2.932  0.1764 -0.5927 -0.0181
 6848SOL    HW120789   2.867   0.103   2.857  0.6744 -0.5313  0.3043
 6848SOL    HW220790   2.893   0.031   2.988 -0.2142 -1.8457 -0.2137
 6849SOL     OW20791   2.149   1.471   5.613  0.7483 -0.4915 -0.2045
 6849SOL    HW120792   2.198   1.404   5.565 -1.0471 -0.5585 -2.0335
 6849SOL    HW220793   2.138   1.542   5.550 -2.6593 -1.0377 -0.3775
 6850SOL     OW20794   2.220   5.979   1.422  0.3024 -0.1345  0.0822
 6850SOL    HW120795   2.276   5.901   1.421 -1.2120 -1.2648  0.7746
 6850SOL    HW220796   2.221   6.008   1.512 -0.0410 -0.0346  0.0548
 6851SOL     OW20797   4.089   4.541   3.376 -0.0499  0.1137 -0.3956
 6851SOL    HW120798   4.045   4.577   3.452  0.5516  2.3398 -1.0219
 6851SOL    HW220799   4.167   4.498   3.411 -0.9256 -0.8772  0.4046
 6852SOL     OW20800   3.022   4.026   4.176  0.1413 -0.3717  0.3725
 6852SOL    HW120801   3.075   3.969   4.120 -0.5969 -0.8442  0.1373
 6852SOL    HW220802   3.062   4.020   4.263  0.0385 -1.3093  0.3637
 6853SOL     OW20803   3.204   5.503   2.673  1.0513 -0.2203 -0.5118
 6853SOL    HW120804   3.207   5.437   2.743 -0.5709 -0.5380 -0.7113
 6853SOL    HW220805   3.147   5.465   2.607  0.8428  0.9962 -1.0539
 6854SOL     OW20806   5.292   4.337   5.480  0.2366 -0.4666  0.4535
 6854SOL    HW120807   5.367   4.382   5.441  0.3648  0.7925  2.0830
 6854SOL    HW220808   5.328   4.254   5.511  0.4935 -0.7432 -0.5189
 6855SOL     OW20809   4.587   2.035   1.966  0.1331 -0.3198  0.5219
 6855SOL    HW120810   4.635   1.953   1.977  0.9778 -0.1564 -1.3840
 6855SOL    HW220811   4.637   2.083   1.899 -0.3134  1.7759  1.5931
 6856SOL     OW20812   0.847   0.834   3.829 -0.1983 -0.0646  0.2695
 6856SOL    HW120813   0.753   0.824   3.840  0.0185 -1.4317  1.0850
 6856SOL    HW220814   0.862   0.823   3.735 -1.1485  3.3063 -0.4243
 6857SOL     OW20815   2.130   1.402   1.029 -0.3464  0.2639  0.1227
 6857SOL    HW120816   2.198   1.404   0.961 -0.4880 -0.1226 -0.0388
 6857SOL    HW220817   2.171   1.442   1.105  1.9434 -4.3258  1.6932
 6858SOL     OW20818   5.202   3.587   0.253  0.1238  0.0244 -0.4759
 6858SOL    HW120819   5.237   3.676   0.245 -0.6994  0.2679 -1.5026
 6858SOL    HW220820   5.279   3.533   0.270  0.4993  1.0711  1.4700
 6859SOL     OW20821   1.263   4.068   3.188  0.5263 -0.2512  0.0500
 6859SOL    HW120822   1.333   4.130   3.211 -0.6610  1.3924 -0.5753
 6859SOL    HW220823   1.267   4.061   3.093 -0.2524 -0.0032 -0.0076
 6860SOL     OW20824   5.645   1.567   2.493 -0.1087  0.5341  0.0489
 6860SOL    HW120825   5.644   1.545   2.586 -2.3782  0.2904  0.0295
 6860SOL    HW220826   5.674   1.658   2.490 -1.1649  0.9301  1.1101
 6861SOL     OW20827   1.667   2.251   2.465  0.2075 -0.3484 -0.1738
 6861SOL    HW120828   1.689   2.160   2.482 -1.9409 -0.9124 -0.0879
 6861SOL    HW220829   1.573   2.250   2.444  0.0098  1.8812  0.2804
 6862SOL     OW20830   3.151   0.309   2.089  0.3103  0.6679 -0.0962
 6862SOL    HW120831   3.123   0.232   2.039 -0.3946  1.1193 -0.4050
 6862SOL    HW220832   3.184   0.370   2.024 -1.5905  1.6890 -0.1769
 6863SOL     OW20833   0.957   0.750   3.587  0.3939  0.0571 -0.1836
 6863SOL    HW120834   1.040   0.783   3.623  0.2212  0.9365 -0.5839
 6863SOL    HW220835   0.969   0.655   3.584  1.0598  0.1073  0.5803
 6864SOL     OW20836   6.044   2.613   0.127 -0.2208  0.3307 -0.9686
 6864SOL    HW120837   6.094   2.555   0.070  1.0199  1.4972 -1.1158
 6864SOL    HW220838   6.099   2.691   0.137 -0.2497  0.0976  1.9889
 6865SOL     OW20839   4.527   3.828   1.178 -0.0990 -0.2925  0.0439
 6865SOL    HW120840   4.446   3.866   1.213  0.7858  0.9909  0.7603
 6865SOL    HW220841   4.545   3.879   1.099 -0.2586 -0.9284 -0.4118
 6866SOL     OW20842   0.934   3.443   2.055 -0.3466  0.0810  0.0762
 6866SOL    HW120843   1.012   3.403   2.092 -0.2911 -1.9980 -2.0364
 6866SOL    HW220844   0.915   3.391   1.977 -3.0845  1.3349 -0.2258
 6867SOL     OW20845   1.207   1.590   2.033 -0.6066 -0.4657 -0.3285
 6867SOL    HW120846   1.200   1.685   2.046 -0.2499 -0.4111 -0.5120
 6867SOL    HW220847   1.286   1.579   1.980  0.0030 -0.9513  0.6651
 6868SOL     OW20848   5.516   3.825   2.891 -0.2203  0.3887 -0.4137
 6868SOL    HW120849   5.446   3.863   2.945 -0.7014  0.6762 -1.2270
 6868SOL    HW220850   5.534   3.891   2.824  1.7243  0.8658  0.5097
 6869SOL     OW20851   1.393   2.122   2.215  0.6330 -0.5998  0.4735
 6869SOL    HW120852   1.398   2.197   2.156  1.3301 -0.0621  1.1980
 6869SOL    HW220853   1.354   2.052   2.162  0.2877  0.1702 -0.3077
 6870SOL     OW20854   4.274   2.599   2.712 -0.5738  0.0226 -0.1044
 6870SOL    HW120855   4.352   2.627   2.664 -0.9799  1.2726 -0.0669
 6870SOL    HW220856   4.276   2.504   2.707  0.6274  0.0578 -0.6251
 6871SOL     OW20857   1.688   5.095   3.892  0.2942 -0.0141  0.2793
 6871SOL    HW120858   1.690   5.010   3.936 -1.6665  0.3824  1.2407
 6871SOL    HW220859   1.745   5.151   3.945  0.0867 -0.2360  0.7394
 6872SOL     OW20860   3.789   2.985   2.609  0.1301 -0.0831  0.0831
 6872SOL    HW120861   3.746   3.066   2.582  1.1611 -0.4518 -3.0831
 6872SOL    HW220862   3.871   2.983   2.559  0.8843 -2.3326  1.2590
 6873SOL     OW20863   2.333   5.017   4.985 -0.2357  0.3499 -0.1751
 6873SOL    HW120864   2.298   5.100   4.951  0.1486  0.4793 -0.2609
 6873SOL    HW220865   2.414   5.003   4.935  1.5143  1.6182  2.0874
 6874SOL     OW20866   1.056   0.291   3.972  0.7525  0.2100  0.2130
 6874SOL    HW120867   1.133   0.284   4.028  0.6034 -0.2639  0.3632
 6874SOL    HW220868   0.985   0.316   4.032  1.0407  1.9662 -0.1277
 6875SOL     OW20869   5.382   2.303   4.975  0.2057  0.3553  0.5023
 6875SOL    HW120870   5.374   2.215   4.940 -0.6748  0.3902  0.5840
 6875SOL    HW220871   5.307   2.312   5.034 -0.6094  1.6742 -0.6632
 6876SOL     OW20872   5.850   2.203   0.270 -0.3361 -0.3778 -0.4718
 6876SOL    HW120873   5.850   2.298   0.270  0.1113 -0.2880  2.2281
 6876SOL    HW220874   5.757   2.179   0.264 -0.3370  0.0750 -3.5832
 6877SOL     OW20875   3.057   0.868   5.311  0.2026  0.2682  0.6316
 6877SOL    HW120876   3.069   0.779   5.346  0.2675 -0.5873 -1.4635
 6877SOL    HW220877   3.120   0.874   5.240  0.2708  2.0691  0.8036
 6878SOL     OW20878   3.811   3.401   5.713 -0.1632  0.1040  0.0251
 6878SOL    HW120879   3.787   3.326   5.658 -0.3094  0.9863 -1.1314
 6878SOL    HW220880   3.832   3.471   5.652  0.0846  0.9934  1.0899
 6879SOL     OW20881   1.859   0.252   4.613  0.4765  0.2308  0.0034
 6879SOL    HW120882   1.792   0.195   4.650 -0.7969  1.8546  0.3041
 6879SOL    HW220883   1.875   0.217   4.525 -0.0619 -0.7149  0.2638
 6880SOL     OW20884   1.633   0.208   0.142 -0.0885  0.2755  0.1773
 6880SOL    HW120885   1.717   0.169   0.119  0.5824 -0.4727  3.4025
 6880SOL    HW220886   1.656   0.289   0.188 -1.1617  0.3654  0.5949
 6881SOL     OW20887   2.248   2.186   4.190  0.2840  0.2674 -0.2160
 6881SOL    HW120888   2.254   2.279   4.210  2.3742  0.0872  0.2186
 6881SOL    HW220889   2.253   2.181   4.095  2.3673  0.5395 -0.1689
 6882SOL     OW20890   2.509   2.965   2.281  0.1711  0.6144  0.7499
 6882SOL    HW120891   2.422   2.951   2.317  0.9901  0.3129  2.7738
 6882SOL    HW220892   2.529   3.057   2.302 -0.1196  1.0659 -0.8339
 6883SOL     OW20893   5.676   4.030   1.286 -0.1466 -0.0701  0.0016
 6883SOL    HW120894   5.649   3.940   1.304 -0.9854 -0.0430 -1.0238
 6883SOL    HW220895   5.761   4.039   1.329 -0.4940 -1.0506  0.9243
 6884SOL     OW20896   1.064   4.927   0.923 -0.0177  0.2960  0.4915
 6884SOL    HW120897   1.014   4.996   0.968 -1.7306 -0.9668  0.6262
 6884SOL    HW220898   1.088   4.866   0.992 -1.7395 -1.1070 -0.0766
 6885SOL     OW20899   0.880   0.645   0.431 -0.5377  0.1127  0.0497
 6885SOL    HW120900   0.807   0.679   0.483 -1.1846  1.4964 -1.6768
 6885SOL    HW220901   0.853   0.557   0.407 -0.8955  0.0154  0.7691
 6886SOL     OW20902   1.747   1.556   4.857  0.2020 -0.0979 -0.1837
 6886SOL    HW120903   1.726   1.515   4.773  1.8102 -0.1057 -0.6243
 6886SOL    HW220904   1.750   1.650   4.837  1.0834 -0.1362 -0.2750
 6887SOL     OW20905   2.928   1.032   1.262 -0.2266 -0.7779  0.7527
 6887SOL    HW120906   2.876   1.047   1.183  0.0032 -1.9836  0.3604
 6887SOL    HW220907   2.950   0.939   1.260  0.2020 -0.7265  1.9889
 6888SOL     OW20908   1.010   1.026   0.046  0.3889 -0.2337  0.1574
 6888SOL    HW120909   0.957   1.050  -0.031  0.3957 -0.7069  0.0049
 6888SOL    HW220910   1.003   0.931   0.051  1.0317 -0.2772  0.2774
 6889SOL     OW20911   2.061   3.117   4.213 -0.6622  0.0106 -0.5171
 6889SOL    HW120912   1.996   3.179   4.244  1.4375  1.8200  0.5138
 6889SOL    HW220913   2.100   3.080   4.293  0.3595 -0.1614 -1.0708
 6890SOL     OW20914   0.385   4.134   4.213  0.1443  0.2141 -0.0082
 6890SOL    HW120915   0.442   4.072   4.258 -0.3391  0.3028  0.7525
 6890SOL    HW220916   0.297   4.104   4.233 -0.1277 -0.6180 -2.1318
 6891SOL     OW20917   3.910   0.979   2.627  0.2670  0.7748  0.0555
 6891SOL    HW120918   3.878   0.890   2.637  1.7297  0.1629 -0.4268
 6891SOL    HW220919   3.926   1.009   2.717 -0.9795  0.8615  0.2616
 6892SOL     OW20920   3.585   3.033   1.987  0.0703 -0.1182  0.4669
 6892SOL    HW120921   3.663   3.050   1.934 -0.8516 -1.5498 -1.4754
 6892SOL    HW220922   3.550   3.120   2.007  1.5328  0.5074  0.4479
 6893SOL     OW20923   4.699   5.615   2.563 -0.0017  0.7200  0.3544
 6893SOL    HW120924   4.621   5.608   2.619 -0.3659 -1.5650 -0.3754
 6893SOL    HW220925   4.772   5.591   2.621 -0.0637  0.8387  0.4851
 6894SOL     OW20926   2.815   0.278   4.405 -0.4406 -0.1543  0.2024
 6894SOL    HW120927   2.838   0.189   4.431 -0.5883 -0.1752  0.2594
 6894SOL    HW220928   2.893   0.310   4.358 -0.5354 -0.4507 -0.1666
 6895SOL     OW20929   2.775   2.703   2.957 -0.0095 -0.1562 -0.5575
 6895SOL    HW120930   2.698   2.698   2.900  0.0067 -1.2703 -0.4880
 6895SOL    HW220931   2.751   2.652   3.034  0.4547  0.2686 -0.1278
 6896SOL     OW20932   3.937   3.391   3.258 -0.1213  0.3793  0.1921
 6896SOL    HW120933   3.878   3.443   3.312 -1.6752 -2.1042  1.0900
 6896SOL    HW220934   3.893   3.384   3.174 -0.8534 -0.9467  0.6602
 6897SOL     OW20935   3.587   2.056   5.856  0.0965 -0.0789 -0.2908
 6897SOL    HW120936   3.531   2.011   5.919 -0.0296  0.4468 -0.0217
 6897SOL    HW220937   3.530   2.075   5.782  0.5321 -1.8024 -1.1326
 6898SOL     OW20938   4.534   2.528   0.210  0.1252  0.0347 -0.0708
 6898SOL    HW120939   4.452   2.576   0.199 -0.6034 -1.1117  0.1846
 6898SOL    HW220940   4.565   2.513   0.121  0.6859  1.4979 -0.1384
 6899SOL     OW20941   1.789   4.494   0.267  0.2874  0.3653 -0.1199
 6899SOL    HW120942   1.712   4.446   0.235 -0.3959  1.2290  0.2049
 6899SOL    HW220943   1.755   4.579   0.293  1.2137  0.4530  0.8456
 6900SOL     OW20944   5.793   3.771   2.800  0.6708  0.1097  0.0709
 6900SOL    HW120945   5.706   3.809   2.809  0.2450 -1.0565  1.2995
 6900SOL    HW220946   5.783   3.681   2.831  1.9338 -0.6031 -1.4299
 6901SOL     OW20947   2.825   4.590   3.207  0.3036  0.2610 -0.3007
 6901SOL    HW120948   2.911   4.610   3.168  0.9557 -2.4669 -0.5063
 6901SOL    HW220949   2.779   4.542   3.138 -1.1593  1.1258  0.0496
 6902SOL     OW20950   2.134   4.689   0.128 -0.5181  0.4754 -1.0076
 6902SOL    HW120951   2.183   4.757   0.174 -0.3509 -0.0986 -0.3320
 6902SOL    HW220952   2.072   4.655   0.193  0.8093 -1.4616 -0.6673
 6903SOL     OW20953   0.796   1.928   2.090 -0.2222  0.2214 -0.2352
 6903SOL    HW120954   0.877   1.951   2.136 -0.9980 -0.0829  1.3301
 6903SOL    HW220955   0.815   1.844   2.048  0.2051  0.0591  0.2749
 6904SOL     OW20956   3.857   5.873   3.987  0.4280 -0.3748  0.0257
 6904SOL    HW120957   3.911   5.810   4.035  2.1958  0.2877 -0.9701
 6904SOL    HW220958   3.903   5.956   3.998  0.1448  0.0413 -1.6747
 6905SOL     OW20959   2.139   3.363   3.663 -0.0583 -0.0120  0.4560
 6905SOL    HW120960   2.222   3.337   3.702  0.3252  0.9024  0.2780
 6905SOL    HW220961   2.072   3.329   3.722  0.4469 -0.6264  0.6792
 6906SOL     OW20962   3.279   4.999   2.996 -0.1107 -0.0682  0.1018
 6906SOL    HW120963   3.278   5.090   3.026  0.8765  0.4717 -1.3692
 6906SOL    HW220964   3.281   5.005   2.901 -2.1585 -1.6949 -0.1184
 6907SOL     OW20965   5.410   3.634   2.527  0.1300  0.4770 -0.0676
 6907SOL    HW120966   5.505   3.624   2.522  0.2641  1.7606 -0.6308
 6907SOL    HW220967   5.389   3.625   2.620  0.8672  0.5982  0.1130
 6908SOL     OW20968   2.257   5.440   1.403  0.2965  0.3310 -0.3368
 6908SOL    HW120969   2.294   5.469   1.319 -0.1167 -0.6033 -0.8603
 6908SOL    HW220970   2.264   5.345   1.400  0.3328  0.2925  0.7307
 6909SOL     OW20971   1.647   4.461   6.030  0.2361 -0.3212 -0.8215
 6909SOL    HW120972   1.593   4.461   6.109  1.2694  0.6877 -0.0893
 6909SOL    HW220973   1.675   4.552   6.020  1.2292 -0.6918 -1.5749
 6910SOL     OW20974   5.438   3.944   2.319  0.1877 -0.1228 -0.0083
 6910SOL    HW120975   5.412   3.853   2.335  0.3197 -0.1721 -0.0727
 6910SOL    HW220976   5.356   3.988   2.296  0.2227 -0.3783 -0.6600
 6911SOL     OW20977   3.439   3.137   6.043  0.2472 -0.1111 -0.0287
 6911SOL    HW120978   3.409   3.067   5.986  1.1225  0.3551 -1.0961
 6911SOL    HW220979   3.424   3.218   5.993  1.5211  0.2653  0.1514
 6912SOL     OW20980   5.120   0.749   2.176 -0.3958 -0.3911  0.0300
 6912SOL    HW120981   5.114   0.738   2.271 -0.9418 -0.0488  0.0447
 6912SOL    HW220982   5.132   0.844   2.164 -3.3133  0.0258 -0.3216
 6913SOL     OW20983   5.965   6.096   5.189 -0.2869 -0.8947  0.3249
 6913SOL    HW120984   5.893   6.146   5.227  0.6546 -1.4890  3.1084
 6913SOL    HW220985   5.983   6.027   5.253  0.1259 -3.3036 -2.1667
 6914SOL     OW20986   2.848   0.977   5.069  0.2833  0.3551 -0.7992
 6914SOL    HW120987   2.867   1.068   5.045 -0.5632  0.6476 -0.3921
 6914SOL    HW220988   2.776   0.983   5.132  0.1679 -0.6040 -0.8228
 6915SOL     OW20989   0.029   3.550   0.916  0.3266  0.3756  0.2422
 6915SOL    HW120990   0.048   3.546   1.010  0.3550 -0.4910  0.2160
 6915SOL    HW220991   0.101   3.600   0.879  0.2351  0.8538  0.7057
 6916SOL     OW20992   3.030   5.917   2.711 -0.3356  0.5547 -0.1841
 6916SOL    HW120993   3.067   5.974   2.778  0.7402 -0.4533  0.1037
 6916SOL    HW220994   2.974   5.975   2.659  0.9796  1.9421 -0.1092
 6917SOL     OW20995   3.072   5.024   4.298 -0.1927 -0.1685 -0.5242
 6917SOL    HW120996   3.108   4.967   4.366  0.1537 -0.6361 -1.0957
 6917SOL    HW220997   3.024   4.966   4.240 -0.2866  0.1929 -0.8124
 6918SOL     OW20998   4.609   3.674   2.342 -0.5755  0.2476 -0.2790
 6918SOL    HW120999   4.629   3.738   2.274 -0.9126  0.5133 -0.1334
 6918SOL    HW221000   4.686   3.617   2.345 -1.0821 -0.5578 -1.7622
 6919SOL     OW21001   5.194   2.273   4.579  0.4013 -0.2567 -0.5027
 6919SOL    HW121002   5.164   2.182   4.580 -0.7428  0.1015  0.6373
 6919SOL    HW221003   5.123   2.321   4.536  0.5158  0.2458 -0.1371
 6920SOL     OW21004   2.809   3.417   3.252  0.4312  0.0142  0.1763
 6920SOL    HW121005   2.846   3.451   3.171  0.7686  0.1737  0.3941
 6920SOL    HW221006   2.754   3.343   3.225 -0.6607  0.9894 -0.3523
 6921SOL     OW21007   1.930   0.882   2.382 -0.3318 -0.2011 -0.1498
 6921SOL    HW121008   1.936   0.851   2.472 -0.3353 -1.7570 -0.6518
 6921SOL    HW221009   1.965   0.971   2.385 -1.5815  0.2862  1.6110
 6922SOL     OW21010   1.780   5.666   2.103 -0.7574 -0.7011 -0.6195
 6922SOL    HW121011   1.784   5.588   2.158 -0.1398 -0.1039  0.2156
 6922SOL    HW221012   1.872   5.688   2.086 -0.8990 -1.5248 -2.8987
 6923SOL     OW21013   2.649   3.703   3.541  0.3646  0.1504  0.2943
 6923SOL    HW121014   2.568   3.707   3.592  0.5086 -1.0262  0.6475
 6923SOL    HW221015   2.716   3.740   3.598  0.1680  0.6410  0.2054
 6924SOL     OW21016   3.264   1.389   5.522  0.0983 -0.1559  0.2886
 6924SOL    HW121017   3.219   1.439   5.590 -0.4216 -1.2368  0.7612
 6924SOL    HW221018   3.275   1.302   5.560  0.4414 -0.5755 -0.7490
 6925SOL     OW21019   3.714   1.752   3.865  0.3985  0.2302 -0.6367
 6925SOL    HW121020   3.719   1.667   3.909 -1.0167  0.8544  0.8512
 6925SOL    HW221021   3.620   1.770   3.859  0.6521  1.3939 -1.5609
 6926SOL     OW21022   5.309   0.748   1.957 -0.4089  0.3264  0.2495
 6926SOL    HW121023   5.370   0.676   1.977  0.1739  0.6060 -0.4546
 6926SOL    HW221024   5.366   0.821   1.935 -0.9860  0.3034 -1.4316
 6927SOL     OW21025   2.566   4.450   5.954  0.1526  0.3867  0.3560
 6927SOL    HW121026   2.531   4.361   5.955  0.0079  0.4423  0.3279
 6927SOL    HW221027   2.496   4.503   5.914  1.1368  0.1196 -1.8957
 6928SOL     OW21028   2.063   3.556   1.664 -0.7654 -0.3708 -0.1590
 6928SOL    HW121029   2.109   3.616   1.722 -0.5742 -0.5727 -0.1015
 6928SOL    HW221030   1.981   3.536   1.710 -0.1292 -1.3905  0.5498
 6929SOL     OW21031   3.512   5.422   5.619 -0.3125  0.3661 -0.1682
 6929SOL    HW121032   3.429   5.393   5.657  0.8971  0.9128  3.2558
 6929SOL    HW221033   3.491   5.505   5.577 -1.7067 -0.0801 -0.4088
 6930SOL     OW21034   3.591   0.546   5.686 -0.3205  0.2184  0.0433
 6930SOL    HW121035   3.537   0.594   5.624 -1.0641  1.0911  1.3292
 6930SOL    HW221036   3.528   0.497   5.739  0.3011 -0.4487  0.1852
 6931SOL     OW21037   0.215   5.415   0.173 -0.3200 -0.3194 -0.3842
 6931SOL    HW121038   0.238   5.508   0.179  0.8242 -0.5041 -1.4634
 6931SOL    HW221039   0.275   5.372   0.233 -1.4704 -0.2877  0.8151
 6932SOL     OW21040   3.005   1.312   0.630  0.1339  0.4536  0.7826
 6932SOL    HW121041   3.083   1.342   0.585  0.5334 -1.8281 -0.1869
 6932SOL    HW221042   2.952   1.391   0.643  2.3579  1.9743  1.0701
 6933SOL     OW21043   5.737   1.833   3.690 -0.3283 -0.0972  0.2205
 6933SOL    HW121044   5.706   1.901   3.630 -1.0104 -0.7463 -0.1777
 6933SOL    HW221045   5.753   1.880   3.772 -1.5396  0.4253  0.1803
 6934SOL     OW21046   1.103   1.001   3.088  0.3788 -0.2524 -0.0541
 6934SOL    HW121047   1.082   0.922   3.138 -0.1173 -0.9510 -1.3264
 6934SOL    HW221048   1.161   1.051   3.146 -2.3703  0.3731  2.4229
 6935SOL     OW21049   0.728   2.205   4.911  0.0206  0.0806 -0.9289
 6935SOL    HW121050   0.710   2.118   4.946 -2.1615  0.4100 -1.0508
 6935SOL    HW221051   0.735   2.191   4.816  2.1777 -0.2680 -0.7694
 6936SOL     OW21052   1.420   0.936   5.476 -0.6941 -0.5618  0.8056
 6936SOL    HW121053   1.437   0.978   5.561  1.8869  0.0521  0.0805
 6936SOL    HW221054   1.410   1.009   5.415 -1.4614 -1.0097  0.3805
 6937SOL     OW21055   5.672   4.572   1.203 -0.1539 -0.1650 -0.4656
 6937SOL    HW121056   5.625   4.491   1.184 -0.3833  0.1883 -1.4721
 6937SOL    HW221057   5.753   4.543   1.244 -0.8025 -0.8347  0.3854
 6938SOL     OW21058   1.172   3.331   0.176  0.1552  0.7878 -0.6389
 6938SOL    HW121059   1.137   3.407   0.223  1.3769  0.7313  0.4393
 6938SOL    HW221060   1.095   3.282   0.148 -0.6600  0.7128  1.5396
 6939SOL     OW21061   3.701   5.465   1.096 -0.8506 -0.0749 -0.2712
 6939SOL    HW121062   3.710   5.471   1.191  1.1183  0.8509 -0.4765
 6939SOL    HW221063   3.630   5.526   1.075 -1.0540 -0.0129  0.5472
 6940SOL     OW21064   2.782   6.021   4.310  0.3621  0.5778  0.0595
 6940SOL    HW121065   2.716   5.955   4.287 -0.6329  1.8108 -0.7441
 6940SOL    HW221066   2.755   6.100   4.262  1.7262  1.4730  0.7059
 6941SOL     OW21067   1.939   3.945   1.964 -0.2138  0.3897  0.5860
 6941SOL    HW121068   2.001   3.953   1.893  0.2121  0.2150  0.9350
 6941SOL    HW221069   1.870   4.009   1.944 -0.4922 -0.1856 -0.3766
 6942SOL     OW21070   4.043   5.228   1.376 -0.0340 -0.5910  0.4066
 6942SOL    HW121071   4.127   5.256   1.339 -0.3886 -0.1137 -0.0447
 6942SOL    HW221072   4.037   5.275   1.459 -0.2403  0.0289  0.0441
 6943SOL     OW21073   2.218   4.364   1.789 -0.0199 -0.2773  0.0586
 6943SOL    HW121074   2.292   4.304   1.776  0.3142  0.0998  0.1697
 6943SOL    HW221075   2.149   4.309   1.825  0.4508 -0.5100  0.6433
 6944SOL     OW21076   5.155   0.319   4.207 -0.0763  0.5104 -0.1964
 6944SOL    HW121077   5.218   0.270   4.154 -1.1189  0.1826 -1.1601
 6944SOL    HW221078   5.079   0.330   4.150 -1.3740 -0.1720  1.3313
 6945SOL     OW21079   4.748   0.791   1.958  0.0002 -0.1234  0.1206
 6945SOL    HW121080   4.721   0.700   1.945 -0.5623  0.1586 -0.7160
 6945SOL    HW221081   4.843   0.785   1.973 -0.1693 -0.9196  1.0251
 6946SOL     OW21082   1.621   3.291   4.233  0.3645 -0.0099 -0.1967
 6946SOL    HW121083   1.603   3.338   4.315  0.1630  0.0049 -0.2489
 6946SOL    HW221084   1.567   3.212   4.239 -0.1237  0.2927 -0.5917
 6947SOL     OW21085   0.000   0.571   5.447 -0.5503 -0.0667  0.5084
 6947SOL    HW121086   0.094   0.550   5.445 -0.3438  0.8555  0.1059
 6947SOL    HW221087  -0.042   0.493   5.412  0.0808 -0.4235  0.5149
 6948SOL     OW21088   5.450   3.823   5.330 -0.2187  0.0353 -0.2032
 6948SOL    HW121089   5.520   3.807   5.393  0.4497 -1.0731 -1.1622
 6948SOL    HW221090   5.495   3.826   5.245 -1.0960  1.3829 -0.6517
 6949SOL     OW21091   3.778   4.718   4.944  0.0525 -0.1933 -0.1996
 6949SOL    HW121092   3.759   4.642   5.000  0.7564 -2.5406 -2.9159
 6949SOL    HW221093   3.870   4.738   4.962  0.0696 -0.4577  0.0271
 6950SOL     OW21094   4.202   2.499   0.879  0.0571 -0.5426  0.2271
 6950SOL    HW121095   4.148   2.533   0.808  0.8211 -2.4604 -1.3639
 6950SOL    HW221096   4.173   2.547   0.956  0.5335  3.0696 -1.6389
 6951SOL     OW21097   4.069   0.632   0.754 -0.1414  0.2642  0.3468
 6951SOL    HW121098   4.093   0.605   0.666  1.3215  3.0071 -0.1961
 6951SOL    HW221099   4.091   0.557   0.809  0.3045 -0.9539 -1.4054
 6952SOL     OW21100   1.353   3.083   0.098 -0.5638 -0.4672  0.6771
 6952SOL    HW121101   1.308   3.126   0.170 -2.0298  0.7408 -0.8650
 6952SOL    HW221102   1.417   3.147   0.068 -0.9301 -0.3883  0.0411
 6953SOL     OW21103   3.620   0.984   5.541 -0.3778 -0.6196 -0.1942
 6953SOL    HW121104   3.538   0.937   5.554 -0.4412 -0.3021  0.6137
 6953SOL    HW221105   3.647   0.962   5.452 -2.6997  1.4140 -1.5048
 6954SOL     OW21106   0.323   2.527   2.568 -0.4284  0.2010 -0.1162
 6954SOL    HW121107   0.393   2.592   2.579  0.2085 -0.4494 -0.2739
 6954SOL    HW221108   0.283   2.522   2.655 -0.6987  1.0410 -0.1829
 6955SOL     OW21109   4.841   2.944   0.068 -0.4900 -0.4796 -0.1247
 6955SOL    HW121110   4.874   2.954   0.158  0.3416  1.4854 -0.5859
 6955SOL    HW221111   4.917   2.959   0.013 -1.5076  1.0760 -1.1902
 6956SOL     OW21112   5.987   2.556   4.802  0.4235  0.0739 -0.5442
 6956SOL    HW121113   5.947   2.527   4.720 -0.9441 -0.6077  0.3322
 6956SOL    HW221114   5.928   2.622   4.836  1.2425  0.7134 -0.3331
 6957SOL     OW21115   0.500   5.902   1.419 -0.3969 -0.7174 -0.1840
 6957SOL    HW121116   0.580   5.892   1.471 -0.2589  1.6570  0.1481
 6957SOL    HW221117   0.485   5.815   1.383  2.1360 -1.3345  0.0337
 6958SOL     OW21118   0.219   3.521   0.442 -0.1386 -0.1095  0.4305
 6958SOL    HW121119   0.153   3.552   0.504  0.7362 -0.7162  1.7076
 6958SOL    HW221120   0.281   3.593   0.435 -0.8445  0.4186 -0.6865
 6959SOL     OW21121   1.052   2.287   5.655 -0.4813 -1.0167 -0.0723
 6959SOL    HW121122   1.098   2.210   5.620  0.0288 -0.3726 -0.8339
 6959SOL    HW221123   1.075   2.288   5.748 -0.9370 -2.0954  0.0690
 6960SOL     OW21124   3.254   2.579   4.945 -0.1694  0.4786  0.2758
 6960SOL    HW121125   3.211   2.654   4.984 -1.3499  0.0541 -0.1655
 6960SOL    HW221126   3.229   2.582   4.852 -0.7270 -0.7744  0.3666
 6961SOL     OW21127   4.062   5.011   3.882 -0.7671  0.2041  0.3358
 6961SOL    HW121128   4.070   5.100   3.849 -1.1475  0.5782  1.2104
 6961SOL    HW221129   4.131   5.004   3.949  0.7520 -0.9160 -1.2678
 6962SOL     OW21130   3.433   0.654   0.698 -0.2400  0.0099 -0.2856
 6962SOL    HW121131   3.528   0.666   0.701 -0.3914  1.8274 -1.0982
 6962SOL    HW221132   3.399   0.725   0.752 -1.1527 -0.4936 -0.1868
 6963SOL     OW21133   5.036   4.154   0.108  0.0874 -0.2172 -0.1538
 6963SOL    HW121134   5.015   4.179   0.018  0.2723 -0.4216 -0.2533
 6963SOL    HW221135   5.065   4.236   0.150 -2.6039  0.4954  0.5054
 6964SOL     OW21136   0.167   5.387   5.571 -0.2243  0.1869 -0.0073
 6964SOL    HW121137   0.173   5.349   5.659  0.8329  0.1265 -0.1030
 6964SOL    HW221138   0.249   5.435   5.559 -1.1806  1.8915 -0.1831
 6965SOL     OW21139   5.497   2.479   5.831 -0.3522 -0.1104 -0.5317
 6965SOL    HW121140   5.501   2.518   5.918 -0.4673  2.7819 -1.7086
 6965SOL    HW221141   5.550   2.537   5.776  0.5232 -2.3855 -2.2540
 6966SOL     OW21142   2.813   2.606   0.530  0.1481 -0.4708 -0.0898
 6966SOL    HW121143   2.871   2.621   0.605  0.3566  0.4720 -0.4340
 6966SOL    HW221144   2.725   2.626   0.563  0.2610  0.1142 -0.1484
 6967SOL     OW21145   2.348   2.733   1.005 -0.5161  0.1116  0.6467
 6967SOL    HW121146   2.332   2.713   0.913 -1.8055 -1.8717  1.2451
 6967SOL    HW221147   2.264   2.716   1.048  0.8182 -2.0798  2.6326
 6968SOL     OW21148   4.661   3.627   5.530  0.0770 -0.3226  0.4534
 6968SOL    HW121149   4.640   3.553   5.586  0.2262 -0.6054  0.1421
 6968SOL    HW221150   4.601   3.618   5.455 -0.2463  0.1529  0.6504
 6969SOL     OW21151   5.799   2.587   4.218 -0.1429 -0.3146  0.2456
 6969SOL    HW121152   5.813   2.669   4.171 -0.4562  0.6856  1.8280
 6969SOL    HW221153   5.724   2.604   4.275 -0.6549 -1.9394  0.1068
 6970SOL     OW21154   1.201   4.262   0.040 -0.1571 -0.2501  0.1528
 6970SOL    HW121155   1.267   4.265   0.110 -0.7334  0.1670  0.6839
 6970SOL    HW221156   1.228   4.331  -0.021  0.4384 -0.7232 -0.1332
 6971SOL     OW21157   4.322   4.563   4.333  0.6954 -0.2238 -0.2510
 6971SOL    HW121158   4.266   4.641   4.330  2.0053  0.6982 -2.4087
 6971SOL    HW221159   4.269   4.498   4.380 -0.1411  2.1267  2.3364
 6972SOL     OW21160   0.747   0.070   3.797  0.0828 -0.3821  0.3092
 6972SOL    HW121161   0.811  -0.001   3.810 -0.3948 -0.7985  0.4217
 6972SOL    HW221162   0.760   0.128   3.872 -0.5059 -1.1136  0.9915
 6973SOL     OW21163   0.152   3.597   3.383 -0.1143 -0.0608 -0.3275
 6973SOL    HW121164   0.209   3.671   3.406 -1.6767  1.3385 -0.7785
 6973SOL    HW221165   0.118   3.619   3.297  1.0186 -2.3819 -1.4627
 6974SOL     OW21166   0.393   1.812   6.047  0.1113 -0.3478 -0.1189
 6974SOL    HW121167   0.478   1.814   6.003  0.5093  0.2939  0.6476
 6974SOL    HW221168   0.380   1.721   6.071  1.4038 -0.1959  1.2866
 6975SOL     OW21169   4.849   4.385   3.672 -0.3531  0.1162  0.0843
 6975SOL    HW121170   4.788   4.311   3.664  1.3707 -1.1882 -3.1654
 6975SOL    HW221171   4.921   4.351   3.724  0.6245 -0.7811 -1.7361
 6976SOL     OW21172   3.245   5.399   3.544  0.2578 -0.7063 -0.1024
 6976SOL    HW121173   3.179   5.335   3.572 -1.3960  0.7320 -0.5643
 6976SOL    HW221174   3.295   5.417   3.624 -0.7415 -0.8890  0.5969
 6977SOL     OW21175   2.217   4.228   2.354  0.1348 -0.3463 -0.4253
 6977SOL    HW121176   2.179   4.190   2.274 -0.1155 -1.6364  0.2703
 6977SOL    HW221177   2.295   4.275   2.324 -0.0789 -0.6261 -1.4536
 6978SOL     OW21178   5.433   3.341   4.700 -0.3439  0.1661  0.2628
 6978SOL    HW121179   5.408   3.381   4.784  0.0758  1.1418 -0.0542
 6978SOL    HW221180   5.355   3.352   4.645  0.1861  1.7950 -0.2346
 6979SOL     OW21181   5.687   4.563   4.285 -0.3030 -0.0294 -0.1241
 6979SOL    HW121182   5.647   4.607   4.360  0.3325 -0.1181  0.2724
 6979SOL    HW221183   5.639   4.481   4.277 -0.9247  0.3450 -0.3339
 6980SOL     OW21184   1.267   3.754   5.285  0.1212 -0.4736 -0.0011
 6980SOL    HW121185   1.303   3.711   5.363 -0.4851 -0.2506  0.4129
 6980SOL    HW221186   1.198   3.812   5.319 -2.2503 -2.5620 -0.9024
 6981SOL     OW21187   5.493   5.844   4.749  0.4546  0.1956 -0.0576
 6981SOL    HW121188   5.428   5.788   4.791 -0.3429 -0.6080 -2.2420
 6981SOL    HW221189   5.486   5.928   4.795 -2.6829  0.3815 -0.6671
 6982SOL     OW21190   0.434   5.301   0.337  0.5425 -0.1352  0.3480
 6982SOL    HW121191   0.454   5.218   0.293 -1.6909  0.8888 -2.9941
 6982SOL    HW221192   0.498   5.363   0.301  0.8567  0.0738  1.2259
 6983SOL     OW21193   4.446   2.604   2.322 -0.2062  0.5871 -0.4262
 6983SOL    HW121194   4.377   2.538   2.329  0.1961  0.2712  1.0367
 6983SOL    HW221195   4.513   2.563   2.268  0.5944 -0.7628  1.4925
 6984SOL     OW21196   2.918   0.073   1.718 -0.1052 -0.3410 -0.0828
 6984SOL    HW121197   2.903  -0.020   1.701 -3.3996  0.3274 -1.7100
 6984SOL    HW221198   2.949   0.109   1.635 -1.0336  0.3246 -0.1681
 6985SOL     OW21199   4.166   3.810   3.023  0.1684  0.1121 -0.0333
 6985SOL    HW121200   4.184   3.719   3.044 -0.0928  0.1578  0.3957
 6985SOL    HW221201   4.235   3.860   3.067  0.3416  0.1163 -0.3107
 6986SOL     OW21202   2.416   3.925   0.712 -0.0547  0.4839  0.2565
 6986SOL    HW121203   2.323   3.942   0.723 -0.2344 -0.6781  0.6235
 6986SOL    HW221204   2.430   3.928   0.618 -1.5951 -4.6314 -0.4339
 6987SOL     OW21205   2.728   1.583   3.123  0.1120  0.2807  0.0243
 6987SOL    HW121206   2.763   1.538   3.200 -1.4793  0.9000  1.1847
 6987SOL    HW221207   2.801   1.587   3.062  0.9928 -1.6301  0.8736
 6988SOL     OW21208   6.111   6.067   4.966  0.3203  0.4233 -0.2361
 6988SOL    HW121209   6.100   5.972   4.956 -0.6208  0.6375 -1.5742
 6988SOL    HW221210   6.065   6.088   5.047  3.0449 -0.6140  1.7521
 6989SOL     OW21211   2.222   4.483   5.561  0.1193 -0.2896  0.1939
 6989SOL    HW121212   2.195   4.413   5.502 -0.4147 -0.2223  0.3518
 6989SOL    HW221213   2.139   4.523   5.590  0.4182  0.5689 -0.0982
 6990SOL     OW21214   1.005   3.619   4.312  0.0844 -0.4257  0.6245
 6990SOL    HW121215   1.009   3.714   4.325 -0.3066 -0.2503 -0.4504
 6990SOL    HW221216   1.011   3.583   4.400 -1.2107  0.6401  1.1812
 6991SOL     OW21217   3.916   0.018   5.659  0.2217  0.5185  0.4860
 6991SOL    HW121218   3.972  -0.025   5.594  1.4835  0.0108  1.8517
 6991SOL    HW221219   3.917   0.110   5.635 -1.1147  0.0685 -1.4808
 6992SOL     OW21220   2.840   2.575   1.791 -0.2861 -0.5059  0.1012
 6992SOL    HW121221   2.806   2.494   1.752 -0.5063  0.0154 -0.8100
 6992SOL    HW221222   2.920   2.593   1.741  1.2976 -1.6186  2.0851
 6993SOL     OW21223   1.548   2.095   2.851  0.1380  0.4591 -0.1854
 6993SOL    HW121224   1.458   2.115   2.876 -0.1556  2.5452 -2.5911
 6993SOL    HW221225   1.592   2.180   2.848  2.1612 -0.4859  0.6686
 6994SOL     OW21226   1.083   0.810   2.101 -0.7097  0.2422 -0.3520
 6994SOL    HW121227   1.027   0.754   2.155 -1.5943 -0.1792 -1.6798
 6994SOL    HW221228   1.167   0.810   2.147 -1.5298  0.2293  1.2431
 6995SOL     OW21229   5.683   5.018   0.119 -0.0334 -0.6573 -0.2753
 6995SOL    HW121230   5.666   5.106   0.153 -0.4231 -0.4116 -1.0793
 6995SOL    HW221231   5.626   4.961   0.170 -0.8331 -0.2583 -0.7120
 6996SOL     OW21232   2.848   0.962   5.874  0.0368 -0.2707 -0.1581
 6996SOL    HW121233   2.798   1.039   5.902 -1.6711 -1.0091 -0.9902
 6996SOL    HW221234   2.811   0.890   5.924 -1.2102 -1.1592 -2.2029
 6997SOL     OW21235   0.286   3.288   5.020 -0.0693 -0.0266 -0.1260
 6997SOL    HW121236   0.257   3.263   4.933 -1.2842 -0.5794  0.4076
 6997SOL    HW221237   0.376   3.319   5.008  0.0613 -0.8390 -1.4425
 6998SOL     OW21238   5.461   0.142   1.363 -0.4045 -0.0082 -0.1316
 6998SOL    HW121239   5.405   0.216   1.342  0.7953  0.3637 -2.3490
 6998SOL    HW221240   5.401   0.067   1.368 -1.5152  0.9162  1.2863
 6999SOL     OW21241   1.883   0.133   4.366 -0.2642  0.1753  0.0080
 6999SOL    HW121242   1.826   0.064   4.400 -0.9692 -0.9168 -3.0978
 6999SOL    HW221243   1.823   0.200   4.332  0.2457 -0.2778 -1.9147
 7000SOL     OW21244   0.620   3.667   4.138  0.0731 -1.0255 -0.0078
 7000SOL    HW121245   0.670   3.734   4.185  0.4804 -1.1220 -0.2985
 7000SOL    HW221246   0.544   3.714   4.103  0.4707 -0.6635 -0.3968
 7001SOL     OW21247   1.022   0.954   3.984  0.0330  0.4103 -0.0785
 7001SOL    HW121248   0.955   1.022   3.986 -0.4699 -0.0588 -0.5464
 7001SOL    HW221249   0.994   0.895   3.914  0.2622 -0.4733  0.5518
 7002SOL     OW21250   1.292   6.046   4.673 -0.1647 -0.3243  0.0799
 7002SOL    HW121251   1.289   6.062   4.767 -2.5968  4.2601 -0.5196
 7002SOL    HW221252   1.207   6.007   4.652  0.6856 -2.1369 -0.2583
 7003SOL     OW21253   2.381   0.890   0.487  0.3231 -0.2258  0.4308
 7003SOL    HW121254   2.432   0.850   0.417  0.1245 -1.5453  1.0095
 7003SOL    HW221255   2.386   0.827   0.559 -2.5391 -0.6757  0.3421
 7004SOL     OW21256   4.517   2.778   4.571  0.1920  0.0354  0.1305
 7004SOL    HW121257   4.500   2.822   4.654 -1.8720 -1.7171  0.7198
 7004SOL    HW221258   4.465   2.828   4.507 -1.8119 -1.1516  0.7259
 7005SOL     OW21259   2.953   5.176   5.539  0.0820 -0.0373  0.5145
 7005SOL    HW121260   2.920   5.095   5.577 -2.2383  0.8424  0.5522
 7005SOL    HW221261   2.981   5.152   5.450 -2.8330 -0.5318 -0.3764
 7006SOL     OW21262   0.060   0.093   5.197  0.5540 -0.0834  0.3602
 7006SOL    HW121263   0.121   0.025   5.170  0.7046 -0.0293  0.5588
 7006SOL    HW221264  -0.024   0.048   5.209  1.4577 -1.0526  4.2869
 7007SOL     OW21265   3.128   5.343   4.562 -0.0031  0.1851  0.9207
 7007SOL    HW121266   3.092   5.430   4.575  0.1963  0.3120  0.6255
 7007SOL    HW221267   3.090   5.312   4.480  1.2414  0.6822  0.1272
 7008SOL     OW21268   3.736   0.900   5.964  0.2077  0.4017 -0.1820
 7008SOL    HW121269   3.709   0.964   5.898 -1.8236  0.6851  0.8268
 7008SOL    HW221270   3.662   0.839   5.970  2.1196 -2.2661 -1.2504
 7009SOL     OW21271   1.210   1.011   0.783  0.1941 -0.1578  0.8507
 7009SOL    HW121272   1.240   0.937   0.836  1.7534 -0.8851 -0.9078
 7009SOL    HW221273   1.268   1.083   0.807  1.4107 -0.6975 -0.3146
 7010SOL     OW21274   1.910   4.093   4.028 -0.0027  0.1847  0.2633
 7010SOL    HW121275   1.941   4.115   4.115  1.1853  0.0820 -0.1188
 7010SOL    HW221276   1.924   3.999   4.020 -1.6530 -0.1188  0.5483
 7011SOL     OW21277   4.847   0.310   4.962 -0.4009  0.4811 -0.8371
 7011SOL    HW121278   4.783   0.273   4.901  0.0136 -0.2820 -0.8113
 7011SOL    HW221279   4.797   0.331   5.040 -0.4502 -1.0204 -0.4524
 7012SOL     OW21280   2.546   3.895   2.740 -0.3360 -0.1077  0.0935
 7012SOL    HW121281   2.586   3.981   2.731 -0.7700  0.1949  0.9035
 7012SOL    HW221282   2.605   3.835   2.694 -0.1361  0.6476 -0.6466
 7013SOL     OW21283   3.309   4.692   5.068  0.0989  0.6312  0.1805
 7013SOL    HW121284   3.295   4.618   5.009 -1.1360 -0.4924  1.7683
 7013SOL    HW221285   3.240   4.683   5.134 -1.1604  4.1613 -0.4316
 7014SOL     OW21286   4.609   5.347   5.637  0.0524  0.5987  0.2132
 7014SOL    HW121287   4.564   5.380   5.560  0.9465  0.0870 -0.5559
 7014SOL    HW221288   4.597   5.252   5.633  2.2075  0.2924 -0.7360
 7015SOL     OW21289   1.970   5.650   5.894  0.0145 -0.2446  0.6195
 7015SOL    HW121290   1.999   5.710   5.825  0.0971 -1.8106 -0.7596
 7015SOL    HW221291   2.024   5.673   5.970  1.3184  0.2429 -0.4185
 7016SOL     OW21292   0.395   5.080   3.823  0.5870 -0.2446  0.4776
 7016SOL    HW121293   0.446   5.018   3.771  2.2600 -0.1378  1.9157
 7016SOL    HW221294   0.323   5.028   3.859  0.6612 -0.8034 -0.1634
 7017SOL     OW21295   5.940   4.553   5.927  0.0870 -0.0537  0.0592
 7017SOL    HW121296   5.992   4.579   5.851  0.0499 -0.6692 -0.1806
 7017SOL    HW221297   6.001   4.507   5.984 -0.6427 -2.9446 -1.3113
 7018SOL     OW21298   5.036   3.118   4.878 -0.0915  0.0207  0.1075
 7018SOL    HW121299   5.088   3.197   4.862  0.1753  0.1176  1.3265
 7018SOL    HW221300   4.959   3.128   4.822 -0.3097  1.3967  0.6058
 7019SOL     OW21301   5.630   2.842   1.672  0.1512  0.4025  0.1393
 7019SOL    HW121302   5.622   2.753   1.705  2.9514  1.0930  3.1881
 7019SOL    HW221303   5.553   2.887   1.705 -0.4068 -0.4839  0.0708
 7020SOL     OW21304   0.628   0.027   4.940  0.1061  0.7205 -0.5065
 7020SOL    HW121305   0.559  -0.009   4.883 -0.3127 -0.4619  0.7195
 7020SOL    HW221306   0.709   0.008   4.894 -0.2155 -0.3783 -0.6475
 7021SOL     OW21307   0.178   3.823   1.915  0.0313  0.7342  0.5327
 7021SOL    HW121308   0.089   3.832   1.882 -0.4086 -1.2156  1.0222
 7021SOL    HW221309   0.195   3.903   1.963 -1.0887  1.5492 -0.3851
 7022SOL     OW21310   0.047   2.329   4.932  0.2739 -0.2409  0.0564
 7022SOL    HW121311  -0.024   2.346   4.871 -0.3781 -1.0917  0.5535
 7022SOL    HW221312   0.125   2.365   4.890 -0.2528 -0.3541 -1.0326
 7023SOL     OW21313   3.174   4.829   4.008 -0.6789  0.0355  0.1651
 7023SOL    HW121314   3.081   4.852   4.006 -1.1112 -1.5804 -0.4632
 7023SOL    HW221315   3.218   4.902   3.967 -1.6960  0.7347  0.2668
 7024SOL     OW21316   2.682   4.133   3.331  0.6404  0.5675 -0.5679
 7024SOL    HW121317   2.645   4.156   3.416  0.5424  0.0814 -0.4750
 7024SOL    HW221318   2.610   4.090   3.285  1.0958 -0.4211 -0.3724
 7025SOL     OW21319   5.356   0.751   4.557  0.2409  0.4930 -0.1837
 7025SOL    HW121320   5.289   0.820   4.556 -0.9269 -0.5988  0.0434
 7025SOL    HW221321   5.334   0.697   4.632  0.7046 -0.5345 -0.7644
 7026SOL     OW21322   4.920   6.011   3.632  0.2454 -0.2105  0.5184
 7026SOL    HW121323   4.935   5.917   3.627 -1.0804 -0.3765 -1.4183
 7026SOL    HW221324   4.992   6.050   3.581 -0.0671 -0.2940  0.0076
 7027SOL     OW21325   3.857   0.881   0.855 -0.0531  0.3342  0.7149
 7027SOL    HW121326   3.774   0.927   0.843 -2.4129 -3.5745  0.2600
 7027SOL    HW221327   3.892   0.871   0.766  0.1902  0.7601  0.7604
 7028SOL     OW21328   4.597   1.591   5.992 -0.2611  0.1545  0.2546
 7028SOL    HW121329   4.671   1.645   6.018 -0.3543  0.9019 -0.9424
 7028SOL    HW221330   4.601   1.589   5.896 -2.0878  0.6660  0.1362
 7029SOL     OW21331   0.102   0.381   3.687 -0.3599  0.0114  0.0711
 7029SOL    HW121332   0.017   0.338   3.680 -0.6491  0.6142 -0.2285
 7029SOL    HW221333   0.141   0.345   3.767 -0.3146 -1.2689 -0.5219
 7030SOL     OW21334   4.724   3.012   5.392  0.0574 -0.0737 -0.3070
 7030SOL    HW121335   4.633   3.026   5.416  0.4486  1.7660  0.3020
 7030SOL    HW221336   4.756   3.099   5.367  2.1326 -0.2835  1.3091
 7031SOL     OW21337   2.122   0.209   5.838  0.2892  0.8027  0.0026
 7031SOL    HW121338   2.044   0.237   5.886 -1.1263  0.0696 -1.7441
 7031SOL    HW221339   2.129   0.115   5.856 -0.6356  0.3842 -1.6618
 7032SOL     OW21340   0.579   1.486   2.254  0.1218 -0.5581  0.4418
 7032SOL    HW121341   0.574   1.575   2.289 -0.1507 -0.6106  0.5368
 7032SOL    HW221342   0.504   1.479   2.195  0.1148 -0.7416  0.4709
 7033SOL     OW21343   1.954   1.408   2.213 -0.5975 -0.2665  0.1120
 7033SOL    HW121344   1.950   1.437   2.122 -0.5912 -0.6132  0.0020
 7033SOL    HW221345   1.915   1.321   2.213  1.6484 -1.3351  0.0019
 7034SOL     OW21346   1.595   1.130   1.499  0.6368  0.0497  0.0239
 7034SOL    HW121347   1.551   1.164   1.421  0.4815  0.4707  0.2924
 7034SOL    HW221348   1.688   1.128   1.475  0.6047  0.3047 -0.1207
 7035SOL     OW21349   2.368   2.798   4.078  0.5762 -0.8149  1.3437
 7035SOL    HW121350   2.321   2.877   4.053  0.8228 -1.1286 -0.2467
 7035SOL    HW221351   2.431   2.827   4.144  2.4799  0.9144 -1.0621
 7036SOL     OW21352   5.610   4.947   0.621 -0.4633  0.1945 -0.3596
 7036SOL    HW121353   5.534   4.888   0.612 -0.1194 -0.3298  0.1171
 7036SOL    HW221354   5.602   4.982   0.710 -0.3455  0.4253 -0.4399
 7037SOL     OW21355   3.022   2.083   0.296 -0.0750 -0.0240 -0.4941
 7037SOL    HW121356   3.107   2.122   0.316  0.1774 -0.3229 -0.9423
 7037SOL    HW221357   2.969   2.098   0.374 -0.0004  1.2346 -0.6518
 7038SOL     OW21358   5.840   3.794   1.645 -0.0489 -0.7659 -0.5097
 7038SOL    HW121359   5.763   3.813   1.592 -1.1827 -0.8293  1.0389
 7038SOL    HW221360   5.849   3.870   1.703  1.3585 -0.5467 -0.9536
 7039SOL     OW21361   0.196   2.742   3.464  0.2780 -0.1629 -0.5019
 7039SOL    HW121362   0.218   2.736   3.371  3.6741  1.7248  0.0071
 7039SOL    HW221363   0.250   2.674   3.505  0.5619  0.5190  0.2753
 7040SOL     OW21364   0.161   4.917   0.320  0.4623  0.0215  0.5816
 7040SOL    HW121365   0.175   5.011   0.324  2.5586 -0.2447  0.7187
 7040SOL    HW221366   0.193   4.892   0.233 -1.6287 -0.3984 -0.1404
 7041SOL     OW21367   1.114   5.147   3.052  0.4180 -0.7227  0.2590
 7041SOL    HW121368   1.200   5.185   3.038  0.3291 -0.4345  0.4806
 7041SOL    HW221369   1.124   5.055   3.026  0.9424 -0.8291  0.8103
 7042SOL     OW21370   3.921   1.096   2.910  0.1219  0.5173  0.1199
 7042SOL    HW121371   3.939   1.187   2.884 -1.4323  0.3943 -1.5775
 7042SOL    HW221372   3.854   1.103   2.978  0.4760  0.6297  0.4689
 7043SOL     OW21373   3.500   1.921   3.398  0.1789 -0.1578  0.1556
 7043SOL    HW121374   3.472   1.838   3.434  1.8760 -0.2456  1.4362
 7043SOL    HW221375   3.473   1.986   3.463 -1.2152  0.3411 -0.8761
 7044SOL     OW21376   4.350   5.893   3.805 -0.2113  0.4033  0.4998
 7044SOL    HW121377   4.386   5.829   3.744 -0.1404  0.1396  0.8204
 7044SOL    HW221378   4.384   5.867   3.890 -1.0596  0.2268  0.7873
 7045SOL     OW21379   4.704   2.889   5.142 -0.2260  0.6914 -0.1924
 7045SOL    HW121380   4.690   2.917   5.232 -0.0396  0.1122  0.0233
 7045SOL    HW221381   4.656   2.953   5.089  0.7427  1.7968  0.2387
 7046SOL     OW21382   1.335   5.579   3.453 -0.7081  0.4062  0.7035
 7046SOL    HW121383   1.426   5.553   3.437 -0.6555  1.1020 -0.2387
 7046SOL    HW221384   1.309   5.530   3.531  0.4460  0.1384  0.9377
 7047SOL     OW21385   1.501   2.803   1.351  0.4580  1.4112  0.2771
 7047SOL    HW121386   1.519   2.846   1.267 -0.6215  0.4934 -0.4645
 7047SOL    HW221387   1.423   2.749   1.334  0.1561  1.2799  1.9067
 7048SOL     OW21388   0.698   4.837   3.358  0.4140 -0.4366  0.0271
 7048SOL    HW121389   0.676   4.918   3.403 -1.2712 -0.1459 -1.2097
 7048SOL    HW221390   0.758   4.864   3.289 -0.1402 -0.2121 -0.3798
 7049SOL     OW21391   1.108   4.103   0.720  0.1623 -0.3560  0.2916
 7049SOL    HW121392   1.115   4.026   0.776  0.5086 -0.6245 -0.1070
 7049SOL    HW221393   1.030   4.088   0.667  0.6378 -0.7851 -0.2976
 7050SOL     OW21394   1.543   4.288   5.443  0.0419  0.5461 -0.7822
 7050SOL    HW121395   1.601   4.232   5.392  0.4964  1.2541 -1.0667
 7050SOL    HW221396   1.459   4.284   5.398  0.1841  0.4140 -1.0345
 7051SOL     OW21397   2.266   3.321   5.360 -0.6570  0.0048  0.4964
 7051SOL    HW121398   2.243   3.251   5.421  3.3438 -0.0153  2.3380
 7051SOL    HW221399   2.307   3.275   5.286 -1.4335  0.2513 -0.0945
 7052SOL     OW21400   3.178   5.811   0.969 -0.2393 -0.3158 -0.0083
 7052SOL    HW121401   3.104   5.798   0.910 -2.0825  2.0615  1.5590
 7052SOL    HW221402   3.219   5.725   0.977 -2.2715 -1.5227 -1.6525
 7053SOL     OW21403   2.532   4.364   3.166 -0.4164  0.3566 -0.0184
 7053SOL    HW121404   2.595   4.413   3.112 -0.5205  1.2779  0.6694
 7053SOL    HW221405   2.451   4.415   3.161 -0.4335  0.4591  0.9666
 7054SOL     OW21406   2.098   5.551   4.760  0.0645  0.6741  0.2189
 7054SOL    HW121407   2.092   5.551   4.855  1.8446 -1.7580  0.4393
 7054SOL    HW221408   2.163   5.619   4.739  2.0543 -0.8494  1.0838
 7055SOL     OW21409   1.780   3.267   0.966  0.4755 -0.0207 -0.0924
 7055SOL    HW121410   1.830   3.213   0.906  1.8745  0.0160  1.0048
 7055SOL    HW221411   1.806   3.237   1.053  0.2379  1.4768  0.5213
 7056SOL     OW21412   0.280   1.967   4.354 -0.1673 -0.0539 -0.0332
 7056SOL    HW121413   0.338   1.973   4.430  1.3180 -1.0440 -1.0300
 7056SOL    HW221414   0.267   1.872   4.342  0.1415  0.0562 -1.3724
 7057SOL     OW21415   4.443   2.857   2.170 -0.3760  0.3375 -0.6738
 7057SOL    HW121416   4.461   2.774   2.214  0.8951  1.1209  0.3249
 7057SOL    HW221417   4.441   2.834   2.077 -1.2617 -1.0089 -0.3572
 7058SOL     OW21418   5.914   0.456   1.405  0.1492  0.4557 -0.2034
 7058SOL    HW121419   5.954   0.372   1.429  0.5414 -0.0521 -2.3667
 7058SOL    HW221420   5.820   0.440   1.408  0.2229 -0.4701 -1.7316
 7059SOL     OW21421   0.004   2.120   3.134 -0.0341 -0.0627  0.0664
 7059SOL    HW121422   0.057   2.040   3.135 -0.0793 -0.1397 -1.7402
 7059SOL    HW221423  -0.035   2.122   3.047 -1.3489  1.0893  0.6578
 7060SOL     OW21424   0.385   3.255   5.450  0.2211 -0.0036  0.3425
 7060SOL    HW121425   0.299   3.231   5.483 -0.8041  0.7591 -1.5739
 7060SOL    HW221426   0.393   3.208   5.367  0.6994  1.5598 -0.5477
 7061SOL     OW21427   5.009   5.175   5.640  0.0015  0.0570 -0.4518
 7061SOL    HW121428   4.984   5.168   5.548 -1.6503 -1.8396  0.0693
 7061SOL    HW221429   4.941   5.230   5.679  0.2845  0.2523 -0.2340
 7062SOL     OW21430   3.302   3.008   0.212  0.3930  0.0157 -0.2345
 7062SOL    HW121431   3.257   3.071   0.155  0.7706  1.3028  0.8514
 7062SOL    HW221432   3.394   3.018   0.190  0.5364  0.4828  0.5309
 7063SOL     OW21433   5.070   1.867   3.272  0.1968  0.3781 -0.0152
 7063SOL    HW121434   5.125   1.897   3.200  1.1163  1.1756  0.9806
 7063SOL    HW221435   5.085   1.772   3.275  1.1954  0.5203 -0.0466
 7064SOL     OW21436   0.852   3.802   2.978 -0.7075 -0.2245  0.2817
 7064SOL    HW121437   0.856   3.716   2.936 -2.6669 -0.2310  0.0048
 7064SOL    HW221438   0.839   3.864   2.905 -1.8431  0.0072  0.6574
 7065SOL     OW21439   0.763   2.269   5.695  0.0141 -0.1783  0.0945
 7065SOL    HW121440   0.852   2.275   5.659  0.4828  0.4227  1.2911
 7065SOL    HW221441   0.717   2.343   5.656  0.1232 -0.3067 -0.2884
 7066SOL     OW21442   5.226   2.405   4.137 -0.2201  0.3793 -0.0277
 7066SOL    HW121443   5.279   2.445   4.068  0.5977 -1.1158 -0.3106
 7066SOL    HW221444   5.207   2.476   4.198  1.4960  1.1215 -0.3163
 7067SOL     OW21445   3.621   5.407   2.847  0.2967  0.1425 -0.1154
 7067SOL    HW121446   3.593   5.419   2.756 -0.1314  2.7267  0.2811
 7067SOL    HW221447   3.707   5.451   2.851  1.6431 -2.3463  0.1438
 7068SOL     OW21448   0.383   4.824   5.354 -0.6994  0.0436  0.0052
 7068SOL    HW121449   0.321   4.871   5.410 -0.8404  1.2646 -1.1225
 7068SOL    HW221450   0.469   4.843   5.391 -0.5193  3.2833 -1.7712
 7069SOL     OW21451   0.985   1.713   4.424 -0.3256 -0.5727 -0.8825
 7069SOL    HW121452   1.019   1.707   4.334 -3.3868  0.8809 -2.2868
 7069SOL    HW221453   0.910   1.653   4.425 -0.9922  0.2501  0.3417
 7070SOL     OW21454   1.002   1.971   2.524  0.0578  0.0545  0.3205
 7070SOL    HW121455   0.973   1.896   2.575 -0.6517  0.0354 -0.0962
 7070SOL    HW221456   0.934   2.037   2.537  0.8295  0.7431  0.9275
 7071SOL     OW21457   3.759   5.128   1.471  0.0713 -0.5754  0.3827
 7071SOL    HW121458   3.835   5.078   1.502 -0.1073 -2.0594 -1.4334
 7071SOL    HW221459   3.775   5.141   1.378 -0.5711  1.6264  0.5287
 7072SOL     OW21460   1.864   5.398   4.323 -0.4440 -0.0603 -0.3442
 7072SOL    HW121461   1.946   5.420   4.367 -0.5739 -0.5568  0.1446
 7072SOL    HW221462   1.826   5.327   4.374 -1.3880  0.4327 -0.3264
 7073SOL     OW21463   5.935   2.135   0.017 -0.6259 -0.1002  0.1096
 7073SOL    HW121464   5.852   2.152  -0.028 -1.3873 -1.0881  1.0722
 7073SOL    HW221465   5.914   2.146   0.110  0.5540  0.5131  0.3178
 7074SOL     OW21466   1.059   0.351   2.429  0.1396 -0.3917 -0.1229
 7074SOL    HW121467   1.069   0.323   2.338 -1.1499 -1.9604  0.1672
 7074SOL    HW221468   0.972   0.319   2.454  1.3719 -2.1058  2.3702
 7075SOL     OW21469   4.708   5.333   1.844  0.1677  0.3264 -0.1638
 7075SOL    HW121470   4.617   5.319   1.871 -0.2957 -1.7803 -2.5309
 7075SOL    HW221471   4.758   5.269   1.894 -0.0590 -0.3953 -0.8398
 7076SOL     OW21472   3.741   3.243   4.770  0.0911 -0.1574 -0.3779
 7076SOL    HW121473   3.709   3.285   4.850 -0.0719  0.0637 -0.5561
 7076SOL    HW221474   3.769   3.316   4.715 -2.3205 -0.0926 -1.6330
 7077SOL     OW21475   3.774   4.683   0.666 -0.7111 -0.3022  0.2848
 7077SOL    HW121476   3.861   4.703   0.632 -0.5333 -2.4792 -0.7512
 7077SOL    HW221477   3.779   4.703   0.760  0.9651 -0.5481  0.2704
 7078SOL     OW21478   3.149   5.270   2.805 -0.6155 -0.9794 -0.4218
 7078SOL    HW121479   3.132   5.197   2.746  1.2650 -2.3840  0.6884
 7078SOL    HW221480   3.085   5.260   2.876 -2.4714  0.3646 -1.7969
 7079SOL     OW21481   4.052   3.609   6.064  0.0873 -0.3512 -0.4208
 7079SOL    HW121482   3.964   3.646   6.051  0.7168  0.5445 -2.5087
 7079SOL    HW221483   4.094   3.667   6.127 -0.7879 -0.8140  0.6366
 7080SOL     OW21484   2.337   0.875   5.036  0.1925 -0.1527 -0.5038
 7080SOL    HW121485   2.355   0.964   5.067 -0.5992 -0.3979  0.7354
 7080SOL    HW221486   2.423   0.834   5.030  0.6236  0.8483 -1.6603
 7081SOL     OW21487   5.912   5.891   4.232 -0.4268  0.1212 -0.1386
 7081SOL    HW121488   5.954   5.846   4.158  0.5886 -1.5186  1.3499
 7081SOL    HW221489   5.982   5.899   4.298 -1.9926 -1.3024  1.8230
 7082SOL     OW21490   2.526   2.116   6.032 -0.2834  0.2456 -0.1355
 7082SOL    HW121491   2.438   2.113   6.070 -0.5575 -0.0948 -0.7873
 7082SOL    HW221492   2.512   2.112   5.937  0.3753  1.3209 -0.2968
 7083SOL     OW21493   5.422   5.837   1.180  0.0653 -0.0207 -0.6943
 7083SOL    HW121494   5.472   5.886   1.114  0.4000  1.7335  0.7881
 7083SOL    HW221495   5.489   5.800   1.238 -0.2645 -0.6327 -0.6937
 7084SOL     OW21496   2.446   3.919   0.440  0.1913  0.5009  0.0084
 7084SOL    HW121497   2.406   3.956   0.361 -1.0907 -1.5748 -0.3940
 7084SOL    HW221498   2.462   3.827   0.419 -0.9617 -0.3395  2.3908
 7085SOL     OW21499   2.588   0.251   5.267 -0.3840 -0.1748 -0.5126
 7085SOL    HW121500   2.605   0.232   5.360 -0.2930  3.7375  0.4498
 7085SOL    HW221501   2.671   0.233   5.223  0.0232 -0.6442  0.4109
 7086SOL     OW21502   0.438   6.143   2.411  0.1175  0.1855  0.1859
 7086SOL    HW121503   0.355   6.114   2.448  0.3601 -0.9649 -0.1355
 7086SOL    HW221504   0.505   6.106   2.469  0.4543 -0.4492 -0.5852
 7087SOL     OW21505   1.390   1.631   4.633  0.1172  0.1832 -0.3793
 7087SOL    HW121506   1.482   1.639   4.606  0.9821  2.4737  2.7096
 7087SOL    HW221507   1.391   1.565   4.702 -0.4893  0.3995 -0.1584
 7088SOL     OW21508   0.890   5.164   1.888 -0.4497  0.5924  0.1482
 7088SOL    HW121509   0.808   5.135   1.848  0.3303  0.8199 -1.6800
 7088SOL    HW221510   0.875   5.256   1.911 -0.7931  0.5470  0.1095
 7089SOL     OW21511   2.960   1.261   3.118 -0.6404  0.4884 -0.2386
 7089SOL    HW121512   2.980   1.335   3.176 -0.0883 -0.1381  0.3801
 7089SOL    HW221513   2.881   1.289   3.072  0.6170  2.2902 -1.4650
 7090SOL     OW21514   0.964   2.239   5.357 -0.1937  0.5499 -0.1049
 7090SOL    HW121515   0.990   2.313   5.411 -0.6054  0.9012 -0.3817
 7090SOL    HW221516   0.873   2.255   5.335 -0.4825 -0.3677  0.3614
 7091SOL     OW21517   5.382   5.006   2.401  0.2494 -0.4742  0.0328
 7091SOL    HW121518   5.292   5.007   2.368  0.0298 -1.6028  0.5664
 7091SOL    HW221519   5.435   4.978   2.327  0.3090  1.0708 -0.5573
 7092SOL     OW21520   0.582   5.279   1.094  0.0925 -0.5184 -0.0925
 7092SOL    HW121521   0.564   5.284   1.188  0.6467  0.5360 -0.0306
 7092SOL    HW221522   0.626   5.194   1.083  0.0783 -0.6259  0.6126
 7093SOL     OW21523   3.020   3.462   4.889 -0.5779  0.2733 -0.0247
 7093SOL    HW121524   3.100   3.514   4.884 -0.7703  0.5199 -0.6772
 7093SOL    HW221525   2.985   3.480   4.976  0.1216  0.0857  0.3031
 7094SOL     OW21526   5.202   3.564   3.992 -0.0811  0.3674 -0.5378
 7094SOL    HW121527   5.147   3.511   4.049  2.2236 -1.2049  0.4115
 7094SOL    HW221528   5.153   3.571   3.911 -1.6347 -0.9563  0.2213
 7095SOL     OW21529   3.833   2.362   0.743 -0.4663  0.0950  0.1242
 7095SOL    HW121530   3.828   2.271   0.714 -0.1169  0.7093 -2.0558
 7095SOL    HW221531   3.886   2.406   0.675 -0.6887  1.9338  1.0766
 7096SOL     OW21532   0.433   5.505   2.405  0.3584 -0.2426  0.2993
 7096SOL    HW121533   0.338   5.494   2.401  0.2887  0.7022 -2.4597
 7096SOL    HW221534   0.467   5.445   2.339  1.5812  0.3861  0.3237
 7097SOL     OW21535   4.407   1.439   0.242  0.3661  0.2706  0.0109
 7097SOL    HW121536   4.375   1.397   0.162  0.1031 -1.1580  0.8223
 7097SOL    HW221537   4.495   1.403   0.254  0.4019  0.4699  0.3590
 7098SOL     OW21538   3.855   0.688   0.294 -0.7848  0.6113 -0.3062
 7098SOL    HW121539   3.799   0.741   0.351  0.5831  1.6816  0.1317
 7098SOL    HW221540   3.815   0.602   0.293 -2.8193  1.5102 -0.6178
 7099SOL     OW21541   1.411   5.965   1.356  0.5530  0.4831 -0.3446
 7099SOL    HW121542   1.395   5.881   1.312  0.3081 -0.2915  1.1332
 7099SOL    HW221543   1.446   6.022   1.288  1.4352 -1.0507 -1.2461
 7100SOL     OW21544   0.078   4.571   3.830 -0.0533 -0.6241 -0.5451
 7100SOL    HW121545   0.135   4.495   3.819  0.0292 -0.6398 -0.0323
 7100SOL    HW221546   0.043   4.562   3.919 -0.8967 -0.6418 -0.8655
 7101SOL     OW21547   2.532   4.296   4.519  0.3187  0.3741 -0.8497
 7101SOL    HW121548   2.465   4.320   4.455  0.2438 -0.0440 -0.9315
 7101SOL    HW221549   2.586   4.374   4.527  0.7451  0.2182 -1.9567
 7102SOL     OW21550   1.577   2.831   3.566  0.0463 -0.3810  0.0547
 7102SOL    HW121551   1.600   2.892   3.636 -1.4168  0.0162  0.2179
 7102SOL    HW221552   1.607   2.746   3.598 -0.0124 -0.1006  0.8640
 7103SOL     OW21553   2.366   1.527   2.547 -0.2558  0.9917 -0.7518
 7103SOL    HW121554   2.435   1.498   2.487 -1.8310 -0.0060 -2.1616
 7103SOL    HW221555   2.368   1.622   2.542  0.4663  0.9501 -1.4324
 7104SOL     OW21556   3.347   3.773   3.815 -0.1360 -0.0569 -0.1557
 7104SOL    HW121557   3.280   3.808   3.874  0.6728 -0.5471  1.0945
 7104SOL    HW221558   3.344   3.679   3.829 -0.4971 -0.2640 -1.5436
 7105SOL     OW21559   4.395   1.359   5.118 -0.3767 -0.0549  0.1746
 7105SOL    HW121560   4.399   1.312   5.201 -0.2182  1.4443  1.0492
 7105SOL    HW221561   4.377   1.450   5.142  1.2683  0.7297 -1.3171
 7106SOL     OW21562   4.354   2.677   3.002  0.6579 -0.1017  0.0126
 7106SOL    HW121563   4.440   2.647   2.972  0.6090  1.5963 -2.1172
 7106SOL    HW221564   4.295   2.656   2.930 -0.6751 -0.8672  1.2752
 7107SOL     OW21565   3.746   5.370   0.385 -0.1065 -0.1308 -0.5608
 7107SOL    HW121566   3.691   5.348   0.309  0.0565 -1.6951 -0.2453
 7107SOL    HW221567   3.754   5.288   0.433  1.1416  0.4748  0.2870
 7108SOL     OW21568   6.018   1.613   1.027  0.3193 -0.2622  0.3872
 7108SOL    HW121569   6.026   1.633   1.120  2.4245 -1.0547  0.4309
 7108SOL    HW221570   5.941   1.663   0.998  1.0047  1.9177  2.0281
 7109SOL     OW21571   5.759   4.724   0.990  0.1421  0.2435  0.2845
 7109SOL    HW121572   5.751   4.662   1.063 -0.2871  0.0881  0.1054
 7109SOL    HW221573   5.729   4.675   0.913  0.1089  0.5693  0.0874
 7110SOL     OW21574   1.434   5.234   3.974  0.1890  0.0085 -0.0001
 7110SOL    HW121575   1.416   5.213   3.883 -0.6107 -1.2429  0.4251
 7110SOL    HW221576   1.527   5.216   3.985 -0.0625 -1.5091 -0.1579
 7111SOL     OW21577   0.671   1.720   5.483  0.1421  0.2791  0.1161
 7111SOL    HW121578   0.731   1.750   5.415  0.8956  2.4389  1.6301
 7111SOL    HW221579   0.586   1.755   5.459 -0.0822 -0.8343 -0.8155
 7112SOL     OW21580   1.605   1.125   1.943 -0.0991 -0.1618 -0.0034
 7112SOL    HW121581   1.555   1.155   1.868  1.8344 -0.2441 -1.3958
 7112SOL    HW221582   1.660   1.200   1.967  1.2018 -0.9556 -0.3892
 7113SOL     OW21583   3.820   5.926   5.036 -0.0214  0.4915  0.1735
 7113SOL    HW121584   3.727   5.905   5.036 -0.2341  1.1187  2.6927
 7113SOL    HW221585   3.863   5.846   5.006 -1.2671 -0.6034  1.1936
 7114SOL     OW21586   4.607   0.955   3.146 -0.8034 -0.5317 -0.4452
 7114SOL    HW121587   4.513   0.953   3.161 -0.7119 -0.2106  0.2003
 7114SOL    HW221588   4.644   0.994   3.225 -0.3023  1.3794 -1.5411
 7115SOL     OW21589   4.476   3.295   3.182  0.1601  0.2199 -0.2117
 7115SOL    HW121590   4.512   3.209   3.201 -0.8268 -0.2906 -0.5959
 7115SOL    HW221591   4.409   3.279   3.116 -0.6315  1.1554  0.3361
 7116SOL     OW21592   5.707   2.817   3.650  0.3186  0.0489  0.3540
 7116SOL    HW121593   5.720   2.780   3.562 -0.4454 -2.6625  1.2660
 7116SOL    HW221594   5.626   2.867   3.644  0.1459 -0.3106 -0.4318
 7117SOL     OW21595   4.184   4.136   2.632  0.4448  0.2310 -0.3220
 7117SOL    HW121596   4.207   4.051   2.669 -0.0572  0.3043  0.1785
 7117SOL    HW221597   4.242   4.146   2.556 -0.5592 -1.2576 -1.3400
 7118SOL     OW21598   0.999   0.833   0.663 -0.3994 -0.1116  0.2005
 7118SOL    HW121599   0.915   0.871   0.686 -0.1471 -0.7187  2.3491
 7118SOL    HW221600   0.982   0.780   0.585 -1.6213  1.0763 -0.3686
 7119SOL     OW21601   5.121   4.837   0.140 -0.4068 -0.0876  0.2547
 7119SOL    HW121602   5.153   4.748   0.151  0.8213  0.1681 -0.9573
 7119SOL    HW221603   5.174   4.889   0.200  0.0559  0.0444 -0.2562
 7120SOL     OW21604   5.459   5.885   2.319 -0.1219 -0.1843 -0.5117
 7120SOL    HW121605   5.529   5.834   2.360  0.2295 -0.4237 -1.3815
 7120SOL    HW221606   5.474   5.975   2.348  1.6535  0.0865 -2.1025
 7121SOL     OW21607   0.940   2.309   0.555  0.4376  0.3965  0.1802
 7121SOL    HW121608   0.994   2.259   0.494 -1.5311 -0.0011 -1.3686
 7121SOL    HW221609   0.945   2.261   0.637  0.9836 -0.6449 -0.4387
 7122SOL     OW21610   4.609   1.666   5.723 -0.5563  0.1239 -0.1840
 7122SOL    HW121611   4.618   1.605   5.649 -0.9766 -0.9744  0.6257
 7122SOL    HW221612   4.532   1.718   5.701  1.5908  2.6497 -2.3887
 7123SOL     OW21613   2.673   5.872   5.512  0.4067 -0.2092  0.3533
 7123SOL    HW121614   2.599   5.812   5.507 -1.3271  1.6456  1.9635
 7123SOL    HW221615   2.644   5.950   5.464  1.7904  0.1406  0.0435
 7124SOL     OW21616   1.735   0.361   4.311 -0.1634  0.0884 -0.1908
 7124SOL    HW121617   1.813   0.404   4.346  0.5889  0.5596 -2.2454
 7124SOL    HW221618   1.662   0.417   4.337  0.4948  1.0657 -0.4081
 7125SOL     OW21619   3.105   3.650   0.978 -0.4470 -0.3004 -0.2451
 7125SOL    HW121620   3.127   3.729   1.028  1.1847 -0.8159 -0.1203
 7125SOL    HW221621   3.058   3.684   0.901  0.4637  0.8204 -0.3291
 7126SOL     OW21622   2.555   0.546   0.497 -0.0235  0.3744 -0.3259
 7126SOL    HW121623   2.483   0.594   0.538  0.1644 -0.4459  1.0093
 7126SOL    HW221624   2.633   0.570   0.546  0.7838  1.7504 -2.1671
 7127SOL     OW21625   2.583   1.173   1.089  0.3453 -0.1539 -0.2152
 7127SOL    HW121626   2.566   1.120   1.011  0.3274 -0.9823  0.3476
 7127SOL    HW221627   2.677   1.164   1.105  0.7149  1.4991 -1.1934
 7128SOL     OW21628   3.528   3.830   1.587  0.2235 -0.1287  0.3056
 7128SOL    HW121629   3.617   3.796   1.579  0.6841  0.5827  1.9241
 7128SOL    HW221630   3.472   3.755   1.565  1.2214 -1.2773  1.4738
 7129SOL     OW21631   2.232   0.661   0.147 -0.1500 -0.5355 -0.3078
 7129SOL    HW121632   2.256   0.679   0.056  1.6880  0.9526  0.4192
 7129SOL    HW221633   2.168   0.729   0.170 -0.7626 -1.0279 -0.5173
 7130SOL     OW21634   5.110   0.956   4.555 -0.0514 -0.2295  0.2876
 7130SOL    HW121635   5.079   1.043   4.530 -0.3857 -0.2006  0.7830
 7130SOL    HW221636   5.121   0.961   4.650  1.6601 -0.1841  0.1223
 7131SOL     OW21637   0.679   1.651   1.742  0.6199  0.7434 -0.6724
 7131SOL    HW121638   0.593   1.686   1.720  0.1661 -0.0417 -0.2312
 7131SOL    HW221639   0.706   1.603   1.664 -0.3852 -0.9138 -0.0633
 7132SOL     OW21640   1.157   5.972   0.721  0.5213  0.6247 -0.2343
 7132SOL    HW121641   1.192   5.890   0.687 -0.4695  0.3029 -0.5058
 7132SOL    HW221642   1.107   5.947   0.799 -0.4793  0.8583 -0.7901
 7133SOL     OW21643   4.587   4.460   1.934 -0.2041 -0.5391  0.2302
 7133SOL    HW121644   4.603   4.552   1.916  0.6011 -0.8732 -0.9014
 7133SOL    HW221645   4.542   4.427   1.857 -0.7086 -1.0474  0.7256
 7134SOL     OW21646   0.016   5.301   3.670  0.3937  0.7324 -0.0131
 7134SOL    HW121647  -0.071   5.335   3.652  0.2479  0.6181  0.4590
 7134SOL    HW221648   0.046   5.351   3.746  1.1396  1.4617 -0.7734
 7135SOL     OW21649   4.267   4.827   3.785 -0.0457 -0.5583 -0.1360
 7135SOL    HW121650   4.223   4.909   3.810 -1.8525 -1.7560  0.7761
 7135SOL    HW221651   4.260   4.825   3.689 -1.4157 -0.3856 -0.0620
 7136SOL     OW21652   0.057   2.324   2.090  0.2549 -0.3037 -0.0610
 7136SOL    HW121653   0.100   2.340   2.174  0.7191  3.5311 -0.8624
 7136SOL    HW221654  -0.023   2.277   2.113 -0.2969  1.7602  2.7412
 7137SOL     OW21655   1.481   5.317   5.527 -0.0468 -0.8612  0.4386
 7137SOL    HW121656   1.527   5.363   5.457 -1.0376 -0.6109 -0.0551
 7137SOL    HW221657   1.391   5.309   5.496 -1.0102  1.0635  2.5307
 7138SOL     OW21658   1.910   3.904   3.387  0.1347 -0.1443  0.6094
 7138SOL    HW121659   1.871   3.820   3.411  1.4283 -1.0013 -0.1360
 7138SOL    HW221660   2.003   3.884   3.374  0.2431  1.1098 -0.8678
 7139SOL     OW21661   4.139   5.505   5.976 -0.3623 -0.2836  0.5866
 7139SOL    HW121662   4.095   5.484   6.059  0.1892 -1.1649  0.6692
 7139SOL    HW221663   4.219   5.453   5.977 -0.8884 -1.2069 -1.0003
 7140SOL     OW21664   1.284   3.002   4.179  0.4079  0.4311 -0.0680
 7140SOL    HW121665   1.327   2.952   4.110 -1.7232 -3.1886  0.9267
 7140SOL    HW221666   1.345   2.999   4.253  1.6631  2.2433 -0.9612
 7141SOL     OW21667   3.990   1.430   5.848  0.1729  0.1965  1.1775
 7141SOL    HW121668   3.917   1.411   5.906  0.2631 -0.1967  1.1688
 7141SOL    HW221669   4.068   1.426   5.904  0.3120 -0.7271  0.9339
 7142SOL     OW21670   1.869   2.736   3.068 -0.1612  0.4068  0.2366
 7142SOL    HW121671   1.829   2.650   3.082  2.1477 -0.5731  1.3599
 7142SOL    HW221672   1.884   2.769   3.156 -1.7672  2.4174 -0.1692
 7143SOL     OW21673   3.555   5.492   3.589  0.0753 -0.1938  0.2407
 7143SOL    HW121674   3.526   5.503   3.679  0.1342 -2.0577  0.5337
 7143SOL    HW221675   3.482   5.524   3.536 -0.0997  0.6015  0.9480
 7144SOL     OW21676   0.491   2.370   4.938  0.0832 -0.1677 -0.0775
 7144SOL    HW121677   0.565   2.312   4.922  0.8137  0.9362 -0.8693
 7144SOL    HW221678   0.483   2.374   5.033  0.7740 -0.6437  0.0028
 7145SOL     OW21679   5.946   2.605   5.806  0.3469  0.2909 -0.7008
 7145SOL    HW121680   5.927   2.583   5.897 -0.1263  1.7921 -0.4065
 7145SOL    HW221681   6.016   2.670   5.810  1.6402 -0.9919 -1.5281
 7146SOL     OW21682   5.343   3.265   1.686 -0.2603 -0.2640 -0.2122
 7146SOL    HW121683   5.411   3.322   1.651  0.3583 -0.1678  1.1150
 7146SOL    HW221684   5.332   3.292   1.777 -0.9503 -1.3290  0.0454
 7147SOL     OW21685   5.742   0.519   4.972  0.0371  0.2096 -0.5061
 7147SOL    HW121686   5.798   0.463   4.918  1.2275  0.2615  0.6414
 7147SOL    HW221687   5.693   0.457   5.026 -1.3781  0.1430 -1.8032
 7148SOL     OW21688   4.925   5.568   2.724  0.2532  0.4273  0.3132
 7148SOL    HW121689   5.014   5.604   2.721  0.2220  0.8559  2.4751
 7148SOL    HW221690   4.904   5.567   2.818 -2.0385  0.3731 -0.1671
 7149SOL     OW21691   0.323   0.319   5.076  0.8318 -0.2937  0.1861
 7149SOL    HW121692   0.230   0.322   5.099 -0.1936 -0.5276 -3.3334
 7149SOL    HW221693   0.353   0.409   5.087  1.2704 -0.7595  4.5880
 7150SOL     OW21694   0.114   4.446   1.945  0.2672 -0.1775 -0.5406
 7150SOL    HW121695   0.089   4.428   1.854 -0.0616 -1.4178 -0.2308
 7150SOL    HW221696   0.068   4.379   1.996 -0.3466  1.0977  0.6611
 7151SOL     OW21697   2.983   0.227   2.617  0.4877 -0.4477  0.0797
 7151SOL    HW121698   3.014   0.317   2.624 -0.9155  0.1542 -0.8939
 7151SOL    HW221699   3.060   0.177   2.590  1.7613  0.0736  2.4920
 7152SOL     OW21700   2.058   3.766   0.515 -0.7578  0.0046  0.3029
 7152SOL    HW121701   2.010   3.839   0.477 -2.0461 -0.7621  0.3949
 7152SOL    HW221702   2.122   3.742   0.448 -0.5373  0.9886  0.1461
 7153SOL     OW21703   0.446   3.494   0.852 -0.1026 -0.1931 -0.0550
 7153SOL    HW121704   0.421   3.412   0.810  1.1438  0.3025 -1.9235
 7153SOL    HW221705   0.541   3.487   0.863  0.1233  1.2107 -0.8310
 7154SOL     OW21706   3.280   1.200   0.752  0.1541 -0.0292  0.3855
 7154SOL    HW121707   3.188   1.196   0.724 -0.0455 -0.9066  1.1399
 7154SOL    HW221708   3.326   1.234   0.675 -0.3104 -2.8209 -1.2550
 7155SOL     OW21709   0.963   0.283   5.022  0.3497 -0.1535  0.1644
 7155SOL    HW121710   0.875   0.284   5.058  1.7617  0.6267  4.1828
 7155SOL    HW221711   0.974   0.368   4.981 -0.3471  0.3034  0.9020
 7156SOL     OW21712   3.086   1.896   2.662  0.2369  0.3099  0.0774
 7156SOL    HW121713   2.997   1.899   2.694 -0.1236  0.0276 -0.8456
 7156SOL    HW221714   3.124   1.819   2.704 -0.3433 -0.2799 -0.4535
 7157SOL     OW21715   0.724   1.193   5.480 -0.1541 -0.3331  0.5263
 7157SOL    HW121716   0.791   1.158   5.540 -2.0177 -1.5801  1.9726
 7157SOL    HW221717   0.721   1.130   5.408 -0.6032 -0.9244  1.0591
 7158SOL     OW21718   4.661   4.550   5.065  0.4053  0.6854 -0.5273
 7158SOL    HW121719   4.584   4.602   5.089  1.4478  2.2623 -0.4586
 7158SOL    HW221720   4.713   4.548   5.145 -0.5388 -2.3473  0.1622
 7159SOL     OW21721   3.936   5.487   4.028 -0.6940 -0.0024 -0.2609
 7159SOL    HW121722   3.930   5.418   4.094 -0.4880  0.4922  0.2864
 7159SOL    HW221723   3.945   5.568   4.078  2.0213  0.1720 -0.8894
 7160SOL     OW21724   3.524   3.707   5.487 -0.1098  0.1672  0.0393
 7160SOL    HW121725   3.452   3.721   5.549  0.7367  0.1008  1.0548
 7160SOL    HW221726   3.535   3.613   5.484 -0.1919  0.1657 -0.2832
 7161SOL     OW21727   0.352   1.947   3.066  0.3679  0.5709 -0.4988
 7161SOL    HW121728   0.298   1.950   3.145  0.5138  1.0033 -0.4153
 7161SOL    HW221729   0.441   1.938   3.099  0.3256 -0.4827 -0.6418
 7162SOL     OW21730   1.328   3.742   1.333  0.3963 -0.5175 -0.1735
 7162SOL    HW121731   1.279   3.693   1.267  0.4162 -0.7972  0.0183
 7162SOL    HW221732   1.419   3.722   1.315  0.3929 -0.7374  0.0498
 7163SOL     OW21733   1.678   4.437   0.574 -0.1615  0.0552 -0.1322
 7163SOL    HW121734   1.610   4.412   0.636 -2.9699  1.6856 -2.3032
 7163SOL    HW221735   1.673   4.372   0.504  1.5739 -0.6312  0.3368
 7164SOL     OW21736   0.263   5.481   4.079  0.3787 -0.1224 -0.3048
 7164SOL    HW121737   0.354   5.452   4.075  0.1437 -0.8912 -0.1373
 7164SOL    HW221738   0.269   5.576   4.089  1.1745 -0.2622  0.6685
 7165SOL     OW21739   0.727   0.991   2.746 -0.8313 -0.4833  0.1795
 7165SOL    HW121740   0.801   1.050   2.730 -0.9443 -0.2070  0.6564
 7165SOL    HW221741   0.749   0.912   2.697 -0.5088 -0.1781 -0.1786
 7166SOL     OW21742   4.604   2.505   4.266 -0.0055  0.3348  0.6551
 7166SOL    HW121743   4.680   2.495   4.323 -0.6136 -1.1832  1.2635
 7166SOL    HW221744   4.530   2.508   4.327 -0.5010  0.8934  0.0323
 7167SOL     OW21745   1.396   5.489   1.747  0.2080 -0.0801  0.4465
 7167SOL    HW121746   1.400   5.513   1.654  1.9615 -1.6341  0.0641
 7167SOL    HW221747   1.457   5.549   1.789  0.4329 -0.2583  0.3756
 7168SOL     OW21748   5.496   5.351   1.087  0.6548  0.2565  0.1148
 7168SOL    HW121749   5.471   5.271   1.133 -1.4401  0.5457 -0.4242
 7168SOL    HW221750   5.481   5.421   1.150 -2.0504  0.6349 -0.8236
 7169SOL     OW21751   4.596   5.975   4.620  0.0508  0.1756 -0.0156
 7169SOL    HW121752   4.503   5.961   4.599  0.0697  0.1768 -0.1008
 7169SOL    HW221753   4.624   6.043   4.558  0.5454 -0.9902 -1.1208
 7170SOL     OW21754   3.185   4.877   3.222 -0.0627 -0.1812 -0.0076
 7170SOL    HW121755   3.205   4.921   3.140  1.9982 -1.0084  0.0041
 7170SOL    HW221756   3.255   4.902   3.282 -0.4901 -1.0804  0.9135
 7171SOL     OW21757   3.841   2.439   4.181  0.3664  0.7042  0.3165
 7171SOL    HW121758   3.814   2.366   4.126  1.3444  1.4124 -1.1630
 7171SOL    HW221759   3.843   2.403   4.270 -0.3641 -0.7126 -0.2088
 7172SOL     OW21760   3.475   3.903   0.152 -0.3372 -0.2392 -0.1017
 7172SOL    HW121761   3.410   3.941   0.093 -0.5933 -0.5221 -0.0057
 7172SOL    HW221762   3.496   3.818   0.113 -0.7538 -0.5722  0.3864
 7173SOL     OW21763   3.712   1.896   0.010  0.0575 -0.1191 -0.0080
 7173SOL    HW121764   3.775   1.845  -0.041 -0.3128 -1.0989  0.4769
 7173SOL    HW221765   3.761   1.971   0.042  0.0421  1.1834 -2.7208
 7174SOL     OW21766   2.780   4.257   4.712  0.2166  0.0681 -0.3280
 7174SOL    HW121767   2.732   4.206   4.778 -2.2502  1.5816 -0.8534
 7174SOL    HW221768   2.791   4.196   4.639  0.6827 -0.8123  0.4377
 7175SOL     OW21769   1.616   0.740   5.564  0.0307  0.0418  0.1342
 7175SOL    HW121770   1.557   0.815   5.551  0.9944  0.4933 -2.2336
 7175SOL    HW221771   1.559   0.664   5.557 -0.6024  0.5114  0.0438
 7176SOL     OW21772   2.109   4.178   5.715  0.2772 -0.5960 -0.0261
 7176SOL    HW121773   2.194   4.144   5.687  0.7461  1.2132 -0.9454
 7176SOL    HW221774   2.128   4.234   5.790  0.0975  0.6477 -0.8654
 7177SOL     OW21775   0.457   0.557   1.505  0.3168  0.9167  0.7021
 7177SOL    HW121776   0.467   0.642   1.462  1.2567  0.3716 -0.2058
 7177SOL    HW221777   0.490   0.494   1.440 -1.9911 -0.3158  0.6446
 7178SOL     OW21778   4.437   4.699   1.396 -0.4622  0.1795  0.5274
 7178SOL    HW121779   4.423   4.703   1.301 -0.2456  0.3143  0.5005
 7178SOL    HW221780   4.371   4.757   1.433 -0.1389  0.6262  0.4173
 7179SOL     OW21781   2.560   4.007   4.236 -0.4614 -0.1491  0.2944
 7179SOL    HW121782   2.585   4.087   4.190 -1.3770 -0.6973 -1.2344
 7179SOL    HW221783   2.589   3.936   4.178 -0.8826 -0.8917  0.9752
 7180SOL     OW21784   3.784   3.511   3.423 -0.1658  0.3052 -0.5044
 7180SOL    HW121785   3.707   3.520   3.480  1.0398  0.7717  1.1207
 7180SOL    HW221786   3.858   3.528   3.480  1.2287 -1.0928 -1.8057
 7181SOL     OW21787   1.209   4.561   5.752 -0.1291  0.0462  0.5069
 7181SOL    HW121788   1.129   4.613   5.753  0.6691  1.3264  1.1676
 7181SOL    HW221789   1.261   4.598   5.680  2.2395  3.1921  3.4665
 7182SOL     OW21790   5.862   4.635   1.861  0.0984  0.2918 -0.1134
 7182SOL    HW121791   5.861   4.603   1.771 -1.2951  0.7732 -0.2853
 7182SOL    HW221792   5.918   4.713   1.858  2.4439 -1.2690  0.0568
 7183SOL     OW21793   3.343   5.162   1.660 -0.2574  0.6452  0.1764
 7183SOL    HW121794   3.326   5.239   1.606  0.4555  1.1471  0.6477
 7183SOL    HW221795   3.431   5.176   1.694 -0.6473  0.2989  1.3830
 7184SOL     OW21796   0.422   5.541   4.317 -0.5039  0.8825 -0.1444
 7184SOL    HW121797   0.472   5.533   4.236 -1.2905  0.6352 -0.6164
 7184SOL    HW221798   0.424   5.454   4.355 -0.1566  0.9922  0.0894
 7185SOL     OW21799   4.263   1.993   0.185 -0.2589  0.2198  0.0772
 7185SOL    HW121800   4.343   1.943   0.168 -1.6292 -1.0649 -3.2997
 7185SOL    HW221801   4.283   2.081   0.154 -0.4231 -0.3476 -1.7052
 7186SOL     OW21802   1.891   1.168   1.502  0.7506  0.2609 -0.3153
 7186SOL    HW121803   1.866   1.231   1.570  1.2366 -0.0419  0.1553
 7186SOL    HW221804   1.899   1.221   1.422 -0.1173  0.5673 -0.2015
 7187SOL     OW21805   2.203   5.162   3.047 -0.2801  0.9326 -0.5602
 7187SOL    HW121806   2.283   5.200   3.084  1.3471 -2.4234 -0.2013
 7187SOL    HW221807   2.214   5.173   2.952  0.9618  0.0461 -0.5546
 7188SOL     OW21808   5.502   0.965   3.763 -0.3315 -0.4302  0.1881
 7188SOL    HW121809   5.467   0.958   3.674 -1.4969 -2.1482  0.7302
 7188SOL    HW221810   5.425   0.984   3.817  0.2652 -0.0449  0.9194
 7189SOL     OW21811   2.058   3.601   5.894 -0.1266 -0.2172 -0.1852
 7189SOL    HW121812   1.964   3.590   5.880 -0.0243 -0.3870 -0.7497
 7189SOL    HW221813   2.099   3.561   5.818  0.4255 -0.6000  0.3024
 7190SOL     OW21814   2.989   5.050   3.254  0.5276 -0.0739 -0.3845
 7190SOL    HW121815   2.932   5.020   3.325 -1.1600 -0.1465 -1.7047
 7190SOL    HW221816   3.042   4.973   3.232  0.2023 -0.4085 -0.0143
 7191SOL     OW21817   0.269   0.132   3.003 -0.3018 -0.0204 -0.0143
 7191SOL    HW121818   0.228   0.161   3.084  0.2329  3.2459 -0.7775
 7191SOL    HW221819   0.344   0.079   3.031 -2.5839 -2.7804  1.4342
 7192SOL     OW21820   5.689   3.733   0.847 -0.5695  0.4916 -0.1696
 7192SOL    HW121821   5.680   3.827   0.865 -0.4012  0.5261 -0.2627
 7192SOL    HW221822   5.772   3.709   0.887  0.0241  0.6635 -1.2636
 7193SOL     OW21823   0.670   3.285   3.467 -0.0324 -0.5191  0.3778
 7193SOL    HW121824   0.765   3.302   3.467 -0.0179 -0.3536 -1.2761
 7193SOL    HW221825   0.663   3.191   3.449 -0.0988  0.0746 -3.7307
 7194SOL     OW21826   4.338   0.155   5.656 -0.3500  0.2241 -0.2158
 7194SOL    HW121827   4.295   0.210   5.721 -1.0032 -1.1094  0.5311
 7194SOL    HW221828   4.294   0.176   5.573 -0.4387  0.9615  0.0200
 7195SOL     OW21829   5.133   5.249   1.795  0.5007 -0.2063 -0.5482
 7195SOL    HW121830   5.125   5.340   1.821 -2.1870 -0.5979  0.3743
 7195SOL    HW221831   5.075   5.202   1.856  1.0133 -2.3892 -1.6460
 7196SOL     OW21832   1.973   5.651   3.111  0.9960  0.2135 -0.5281
 7196SOL    HW121833   2.011   5.724   3.062 -0.2561  0.5281 -1.0580
 7196SOL    HW221834   1.964   5.581   3.046 -1.6715  0.9802 -1.1125
 7197SOL     OW21835   5.799   6.126   3.743 -0.1897 -0.1170 -0.0158
 7197SOL    HW121836   5.789   6.077   3.825 -2.2648 -1.6426 -1.0729
 7197SOL    HW221837   5.729   6.091   3.686  2.0341 -0.1555 -2.9432
 7198SOL     OW21838   5.741   0.812   3.059  0.9416 -0.0899  0.1146
 7198SOL    HW121839   5.683   0.853   3.123  0.1149  0.8067 -1.1514
 7198SOL    HW221840   5.682   0.784   2.988  1.7081 -1.9037  0.1410
 7199SOL     OW21841   4.734   5.353   5.287  0.5144 -0.0140 -0.7235
 7199SOL    HW121842   4.715   5.424   5.227 -0.2099 -1.3677 -2.1759
 7199SOL    HW221843   4.649   5.327   5.322  0.8754  0.4264  0.5380
 7200SOL     OW21844   4.929   3.475   0.270  0.6165  0.5530  0.4092
 7200SOL    HW121845   4.878   3.516   0.200 -1.1156 -1.3585  0.4605
 7200SOL    HW221846   5.019   3.474   0.237  0.2133  1.7267 -0.7973
 7201SOL     OW21847   4.159   0.734   0.325  0.1312  0.0861  0.2118
 7201SOL    HW121848   4.182   0.807   0.267  0.7450 -1.6501 -1.8686
 7201SOL    HW221849   4.064   0.728   0.318  0.1171  0.4296  0.0799
 7202SOL     OW21850   3.412   5.831   0.649  0.3927  0.0869  0.4272
 7202SOL    HW121851   3.402   5.925   0.660 -0.2252 -0.0511  1.1743
 7202SOL    HW221852   3.505   5.814   0.664  0.5473  0.6039  0.0526
 7203SOL     OW21853   5.504   2.910   5.108  0.2397 -0.7391  0.1666
 7203SOL    HW121854   5.498   2.841   5.175 -1.9917  0.1777  0.9931
 7203SOL    HW221855   5.416   2.917   5.072  0.4488  1.4990 -0.0734
 7204SOL     OW21856   1.579   3.061   1.117  0.1356 -0.6082 -0.1008
 7204SOL    HW121857   1.644   3.073   1.186 -0.5286 -1.9809  0.8096
 7204SOL    HW221858   1.613   2.989   1.064  0.3191  0.0077 -0.8440
 7205SOL     OW21859   4.918   3.448   1.803 -0.2909  0.5425 -0.2891
 7205SOL    HW121860   4.887   3.385   1.868  1.1671 -0.4236 -0.4924
 7205SOL    HW221861   4.872   3.529   1.824 -0.9694 -0.1577  0.9993
 7206SOL     OW21862   0.850   0.859   3.256 -0.0913 -0.2597  0.4262
 7206SOL    HW121863   0.817   0.818   3.176  0.6695  0.9700 -0.5533
 7206SOL    HW221864   0.943   0.835   3.258  0.8219  2.6717 -1.1024
 7207SOL     OW21865   4.771   5.773   5.832  0.0478  0.6224  0.1481
 7207SOL    HW121866   4.760   5.867   5.845 -1.2116  0.8775 -2.1949
 7207SOL    HW221867   4.863   5.762   5.807 -0.1096  1.4356 -0.8411
 7208SOL     OW21868   5.454   0.835   0.038  0.3066 -0.2030  0.2996
 7208SOL    HW121869   5.436   0.741   0.046 -1.9640 -0.1784 -2.6143
 7208SOL    HW221870   5.369   0.873   0.015  1.8621  1.9586 -2.4998
 7209SOL     OW21871   1.084   2.841   3.541  0.0570 -0.6216  0.1932
 7209SOL    HW121872   1.101   2.747   3.540  1.8026 -0.3255 -0.8126
 7209SOL    HW221873   1.162   2.880   3.503  0.0752  1.3648  2.0950
 7210SOL     OW21874   5.593   5.984   5.083 -0.0438  0.1365  0.0799
 7210SOL    HW121875   5.568   6.063   5.034 -0.2551 -0.7618 -1.2920
 7210SOL    HW221876   5.669   5.950   5.037 -1.7316 -2.1221 -1.2463
 7211SOL     OW21877   5.205   2.703   0.963  0.5969  0.1054 -0.7143
 7211SOL    HW121878   5.176   2.720   1.053  1.8347  0.7305 -0.4149
 7211SOL    HW221879   5.138   2.645   0.927 -2.1852  3.0428 -0.7648
 7212SOL     OW21880   1.178   4.927   2.918  0.2593  0.7895  0.0500
 7212SOL    HW121881   1.110   4.880   2.870  0.4539  1.5224 -0.9514
 7212SOL    HW221882   1.239   4.957   2.851  1.6495  0.0532  0.9321
 7213SOL     OW21883   5.439   4.382   1.232  0.5655  0.2927  0.7346
 7213SOL    HW121884   5.365   4.425   1.275 -1.2268 -1.2204 -0.7034
 7213SOL    HW221885   5.436   4.414   1.142  1.4809 -0.0375  0.5791
 7214SOL     OW21886   0.031   1.276   4.971  0.1030 -0.0906  0.3003
 7214SOL    HW121887   0.039   1.194   5.020  1.4456 -0.0702  0.1505
 7214SOL    HW221888   0.077   1.260   4.889  0.8811  0.9713  0.5029
 7215SOL     OW21889   4.023   0.872   3.453 -0.0360 -0.2056 -0.9071
 7215SOL    HW121890   4.044   0.827   3.535 -1.0052 -0.1338 -0.6100
 7215SOL    HW221891   4.075   0.826   3.387  0.6917 -0.3158 -0.2653
 7216SOL     OW21892   4.487   3.920   3.470 -0.0647  0.2432  0.2121
 7216SOL    HW121893   4.403   3.938   3.428  1.4223  0.4466 -2.8851
 7216SOL    HW221894   4.544   3.992   3.445  2.2108 -1.9190 -1.3324
 7217SOL     OW21895   0.179   2.027   0.610 -0.0404 -0.6870  0.0457
 7217SOL    HW121896   0.223   2.010   0.693  0.7663  0.2253 -0.1723
 7217SOL    HW221897   0.248   2.059   0.552 -0.9258  0.5802 -0.3709
 7218SOL     OW21898   2.867   5.587   3.934 -0.1528 -0.5533 -0.2766
 7218SOL    HW121899   2.869   5.670   3.981  0.7763  0.6497 -2.2783
 7218SOL    HW221900   2.934   5.597   3.866  0.7788 -3.4039  0.0982
 7219SOL     OW21901   4.143   1.225   3.173  0.3445  0.2693 -0.5025
 7219SOL    HW121902   4.195   1.304   3.161  0.7454  0.2547  0.9158
 7219SOL    HW221903   4.175   1.165   3.106  1.7285  0.4853 -0.0723
 7220SOL     OW21904   1.386   2.224   5.065  0.3253  0.0282 -0.0956
 7220SOL    HW121905   1.366   2.141   5.107  2.7332 -0.1435  0.8888
 7220SOL    HW221906   1.360   2.291   5.128  1.1524 -0.1183  0.4127
 7221SOL     OW21907   0.467   1.602   2.661 -0.2430  0.4902  0.0670
 7221SOL    HW121908   0.375   1.579   2.651 -0.5829  1.8432 -0.1724
 7221SOL    HW221909   0.511   1.562   2.586 -0.7213  0.2978 -0.1130
 7222SOL     OW21910   4.819   3.669   1.949  0.5951  0.0047 -0.2891
 7222SOL    HW121911   4.808   3.682   2.043 -0.4341 -1.8979 -0.1001
 7222SOL    HW221912   4.751   3.606   1.926  0.8670  0.3923 -2.3137
 7223SOL     OW21913   1.648   3.584   4.698 -0.1535  0.9412 -0.3821
 7223SOL    HW121914   1.647   3.680   4.702  1.0099  0.9167  2.3563
 7223SOL    HW221915   1.555   3.559   4.702 -0.4019  1.9410  0.4041
 7224SOL     OW21916   4.865   6.089   2.077 -0.3278  0.5618  0.8154
 7224SOL    HW121917   4.780   6.097   2.121  0.0992  0.2502  1.7107
 7224SOL    HW221918   4.920   6.040   2.138  0.8178  1.6479  0.7138
 7225SOL     OW21919   4.401   1.390   0.987 -0.2432 -0.4023  0.4309
 7225SOL    HW121920   4.418   1.325   0.918 -1.0759 -0.6762  0.4651
 7225SOL    HW221921   4.406   1.474   0.943  1.5802 -0.4303  0.5332
 7226SOL     OW21922   4.827   3.752   2.538  0.2725  0.2348  1.0764
 7226SOL    HW121923   4.735   3.754   2.562  0.1262  1.1411  0.4869
 7226SOL    HW221924   4.850   3.659   2.536 -1.2995 -0.1634 -1.3229
 7227SOL     OW21925   1.073   1.691   0.311 -0.2504  0.5203  0.1302
 7227SOL    HW121926   1.126   1.634   0.367  1.7513  1.9875 -0.1623
 7227SOL    HW221927   1.053   1.767   0.366 -0.0172  1.0488 -0.5029
 7228SOL     OW21928   5.411   2.567   4.014  0.1786 -0.0345  0.2626
 7228SOL    HW121929   5.418   2.648   3.963 -0.7203 -0.7132 -0.9844
 7228SOL    HW221930   5.473   2.578   4.086  0.4015  1.5659 -0.1503
 7229SOL     OW21931   2.420   3.916   4.484  0.2327  0.5450 -0.4915
 7229SOL    HW121932   2.360   3.969   4.537  2.0079  0.3750  1.8168
 7229SOL    HW221933   2.470   3.981   4.434  0.0371  0.8542 -0.2934
 7230SOL     OW21934   4.245   4.443   1.159 -0.1227 -0.2741  0.3568
 7230SOL    HW121935   4.241   4.350   1.139  1.2786 -0.4739  0.8947
 7230SOL    HW221936   4.286   4.482   1.082  0.6966 -0.3267  0.7640
 7231SOL     OW21937   6.041   3.306   4.743  0.1183 -1.1577  0.3176
 7231SOL    HW121938   5.989   3.238   4.787 -1.5107 -0.3077 -0.1838
 7231SOL    HW221939   6.006   3.306   4.653  0.0387  0.3685  0.3359
 7232SOL     OW21940   2.247   5.282   2.126 -0.3981  0.0541  0.2424
 7232SOL    HW121941   2.302   5.210   2.096  0.0064  0.8076 -0.8939
 7232SOL    HW221942   2.160   5.263   2.089 -0.2978  0.1355 -0.0373
 7233SOL     OW21943   5.184   0.377   0.485 -0.3216  0.0614 -0.1862
 7233SOL    HW121944   5.267   0.373   0.532 -0.2547 -0.5763 -0.3433
 7233SOL    HW221945   5.204   0.426   0.405 -0.6078  1.8090  0.7652
 7234SOL     OW21946   0.050   0.313   2.915 -0.5715  0.2801 -0.0011
 7234SOL    HW121947   0.116   0.282   2.977 -1.5282 -1.1059  0.3776
 7234SOL    HW221948   0.095   0.380   2.864  0.3525  1.2447  1.9545
 7235SOL     OW21949   5.837   3.778   0.582  0.2168 -0.1265  0.3403
 7235SOL    HW121950   5.889   3.854   0.555  0.2653 -0.7815 -1.5027
 7235SOL    HW221951   5.876   3.751   0.665  1.2471  0.8783  0.2030
 7236SOL     OW21952   4.797   0.670   0.989  0.0931 -0.4282  0.2606
 7236SOL    HW121953   4.722   0.723   0.965  0.4139 -0.0526  0.0753
 7236SOL    HW221954   4.771   0.627   1.070  0.0989  0.5772  0.8132
 7237SOL     OW21955   1.601   1.706   2.387  0.0155  0.3332  0.1856
 7237SOL    HW121956   1.659   1.778   2.416  1.3298 -0.9828  0.9541
 7237SOL    HW221957   1.581   1.658   2.467 -0.3826 -0.4896 -0.3992
 7238SOL     OW21958   6.124   3.653   3.170 -0.1443  0.2853  0.8500
 7238SOL    HW121959   6.075   3.722   3.214  1.3527  1.7146  0.3646
 7238SOL    HW221960   6.062   3.616   3.107 -0.6287  2.0323  0.2509
 7239SOL     OW21961   4.322   0.872   5.420 -0.1597  0.2272  0.2521
 7239SOL    HW121962   4.411   0.898   5.443 -0.3833  0.4391  0.9315
 7239SOL    HW221963   4.293   0.938   5.357  0.0207  0.3964  0.3450
 7240SOL     OW21964   3.077   1.999   5.442  0.0013 -0.4771  0.0503
 7240SOL    HW121965   3.127   2.027   5.366  0.7205 -0.0449  0.6815
 7240SOL    HW221966   3.030   2.077   5.471  2.0343  0.1881  1.8281
 7241SOL     OW21967   4.521   3.542   4.837 -0.9579 -0.3923  0.4594
 7241SOL    HW121968   4.484   3.533   4.924 -2.3137  0.5507  0.0230
 7241SOL    HW221969   4.505   3.634   4.814  0.0836 -0.4248 -0.4702
 7242SOL     OW21970   1.012   5.583   2.070  0.5398  0.0067 -0.1341
 7242SOL    HW121971   1.058   5.582   1.986  2.9210  3.9460  0.8373
 7242SOL    HW221972   1.033   5.499   2.110  1.3329 -1.0057 -2.5129
 7243SOL     OW21973   4.526   0.738   4.660 -0.6281  0.5849 -0.2423
 7243SOL    HW121974   4.541   0.652   4.621 -3.6092 -0.2325  0.1258
 7243SOL    HW221975   4.532   0.723   4.754 -1.2156  0.7455 -0.1748
 7244SOL     OW21976   2.182   3.502   1.421 -0.3371  0.2633  0.0700
 7244SOL    HW121977   2.251   3.567   1.416 -1.9653  1.9875 -1.6501
 7244SOL    HW221978   2.138   3.520   1.504  0.6570 -0.2380  0.7252
 7245SOL     OW21979   3.739   1.890   3.032 -0.0186 -0.4544 -0.5279
 7245SOL    HW121980   3.780   1.809   3.061  0.7818 -0.0116 -0.3898
 7245SOL    HW221981   3.811   1.943   2.998 -0.3098  0.7171  0.5824
 7246SOL     OW21982   1.690   0.507   3.115 -0.1441 -0.0876  0.6234
 7246SOL    HW121983   1.761   0.571   3.108  1.0479 -1.1796  2.1804
 7246SOL    HW221984   1.687   0.465   3.029 -0.4543  1.5072 -0.1908
 7247SOL     OW21985   1.516   4.876   2.223  0.5369 -0.0613  0.2202
 7247SOL    HW121986   1.513   4.804   2.286 -1.9310 -0.6067 -0.4473
 7247SOL    HW221987   1.511   4.834   2.137 -1.4306  0.8560 -0.1697
 7248SOL     OW21988   2.497   2.446   6.138 -0.0786  0.1653  0.5014
 7248SOL    HW121989   2.486   2.400   6.055 -0.8797 -0.0098  0.6944
 7248SOL    HW221990   2.586   2.423   6.167 -0.3643 -1.0555  0.4656
 7249SOL     OW21991   4.988   1.749   1.669 -0.2183  0.3513 -0.0940
 7249SOL    HW121992   4.986   1.670   1.723  0.6519  0.0736 -0.4486
 7249SOL    HW221993   5.010   1.819   1.730 -0.0022  0.1633  0.0441
 7250SOL     OW21994   0.779   2.541   5.579  0.9179  0.2496  0.1199
 7250SOL    HW121995   0.802   2.630   5.603  0.4111  0.4196 -0.0153
 7250SOL    HW221996   0.686   2.533   5.602  1.0819 -0.3948  0.5900
 7251SOL     OW21997   0.591   1.395   3.966  0.2693  0.3446 -0.2512
 7251SOL    HW121998   0.515   1.454   3.962 -0.8937 -1.1675 -3.7491
 7251SOL    HW221999   0.631   1.401   3.880  0.6359 -3.2330 -0.4784
 7252SOL     OW22000   0.445   5.642   1.358  0.5919 -0.2836  0.0645
 7252SOL    HW122001   0.441   5.613   1.267 -0.3094 -1.2840  0.4057
 7252SOL    HW222002   0.362   5.615   1.396 -0.6712  3.3285  0.3037
 7253SOL     OW22003   1.438   1.738   6.052  0.4688  0.0895  0.6514
 7253SOL    HW122004   1.420   1.787   6.132  0.0920 -1.4040  1.5209
 7253SOL    HW222005   1.533   1.734   6.047  0.4928  0.1239  1.0629
 7254SOL     OW22006   0.403   0.571   3.681 -0.0213  0.4135 -0.1045
 7254SOL    HW122007   0.374   0.581   3.590 -1.6843 -0.2456  0.3058
 7254SOL    HW222008   0.333   0.611   3.732  1.0051  0.9796  0.8999
 7255SOL     OW22009   2.233   6.063   1.096 -0.6228  0.1010 -0.7003
 7255SOL    HW122010   2.249   6.063   1.191  1.1539  1.1518 -0.9343
 7255SOL    HW222011   2.161   6.001   1.083 -0.1751 -0.9055  1.2177
 7256SOL     OW22012   4.883   0.774   0.624 -0.6555 -0.5277 -0.1994
 7256SOL    HW122013   4.807   0.717   0.612 -0.6120 -0.9995  1.5491
 7256SOL    HW222014   4.853   0.860   0.596 -1.7066 -0.7936  0.0810
 7257SOL     OW22015   1.190   4.774   0.667  1.0559  0.2937 -0.5174
 7257SOL    HW122016   1.184   4.748   0.575 -0.3818 -0.8106 -0.1441
 7257SOL    HW222017   1.271   4.734   0.699  0.8022 -0.5495 -0.9274
 7258SOL     OW22018   1.304   5.987   5.618  0.0335  0.5945  0.1628
 7258SOL    HW122019   1.302   6.082   5.606 -2.8412  0.4749 -0.9323
 7258SOL    HW222020   1.324   5.953   5.531 -0.0600  0.1548  0.3146
 7259SOL     OW22021   5.031   4.284   3.854 -0.3788  0.0754 -0.4632
 7259SOL    HW122022   5.076   4.344   3.914 -1.6386  0.7114 -0.1031
 7259SOL    HW222023   5.003   4.211   3.910  0.5562 -0.5183 -0.7661
 7260SOL     OW22024   5.366   2.429   1.520 -0.1197  0.4031 -0.1335
 7260SOL    HW122025   5.327   2.514   1.498 -0.4915  0.5435  0.9897
 7260SOL    HW222026   5.424   2.409   1.446 -1.2301  0.8673 -1.1644
 7261SOL     OW22027   4.879   0.125   2.788 -0.4710 -0.4180  0.0460
 7261SOL    HW122028   4.957   0.082   2.751 -0.7915 -0.2396 -0.8650
 7261SOL    HW222029   4.910   0.210   2.816 -0.6182  0.2598 -1.7085
 7262SOL     OW22030   2.853   1.619   2.406 -0.3783 -0.3087 -0.3257
 7262SOL    HW122031   2.924   1.572   2.362 -1.6259 -1.5139 -1.1387
 7262SOL    HW222032   2.847   1.702   2.360  3.4694  1.9924  2.6386
 7263SOL     OW22033   0.482   2.663   3.855  0.6853 -1.0451  0.1087
 7263SOL    HW122034   0.442   2.722   3.919 -0.1645 -0.0448 -1.2886
 7263SOL    HW222035   0.409   2.619   3.813  1.0408  0.1137 -1.8387
 7264SOL     OW22036   4.210   3.816   5.435 -0.2428  0.2323 -0.4973
 7264SOL    HW122037   4.226   3.823   5.529 -1.6478  2.8997 -0.3582
 7264SOL    HW222038   4.161   3.734   5.425  0.4418 -0.4039  0.9741
 7265SOL     OW22039   4.960   5.717   3.578 -0.5306 -0.2910 -0.3880
 7265SOL    HW122040   5.029   5.651   3.583  0.1015  0.3641 -0.2780
 7265SOL    HW222041   4.953   5.738   3.485 -1.1092 -0.8818 -0.4925
 7266SOL     OW22042   1.719   4.649   3.421  0.4087 -0.0972 -0.0980
 7266SOL    HW122043   1.797   4.595   3.404  0.2448 -0.1223 -0.8272
 7266SOL    HW222044   1.645   4.589   3.407  0.1792  0.5741 -2.1423
 7267SOL     OW22045   1.467   4.672   0.718 -0.2620 -0.0254  0.1591
 7267SOL    HW122046   1.467   4.682   0.623 -0.4800 -0.7083  0.0774
 7267SOL    HW222047   1.548   4.712   0.747  1.6147 -2.9363 -0.6736
 7268SOL     OW22048   6.117   5.235   6.143 -0.4102 -0.2789  0.0646
 7268SOL    HW122049   6.207   5.205   6.155  0.7448  0.9263 -3.8776
 7268SOL    HW222050   6.066   5.154   6.133  0.3541 -0.9641  1.4171
 7269SOL     OW22051   3.345   2.968   5.335 -0.2337 -0.5052  0.4477
 7269SOL    HW122052   3.253   2.946   5.351 -0.2360 -2.1588 -1.4346
 7269SOL    HW222053   3.389   2.884   5.328  0.8693  0.1761 -1.5059
 7270SOL     OW22054   4.933   2.921   5.517  0.0516  0.1876 -0.6654
 7270SOL    HW122055   4.855   2.953   5.473  0.0327  0.6686 -0.2900
 7270SOL    HW222056   5.005   2.973   5.481  0.1865 -0.1861 -0.9390
 7271SOL     OW22057   2.746   1.162   1.801  0.0137  0.8456 -0.5162
 7271SOL    HW122058   2.754   1.067   1.799  0.4256  0.8723 -2.3362
 7271SOL    HW222059   2.836   1.195   1.799 -0.0392  1.3295  2.1307
 7272SOL     OW22060   1.181   4.689   3.418 -0.2429 -0.5282 -0.4122
 7272SOL    HW122061   1.138   4.766   3.455  0.4117 -0.4135  0.1321
 7272SOL    HW222062   1.110   4.640   3.375 -0.8407 -0.1433  0.1122
 7273SOL     OW22063   2.509   1.933   2.556  0.0019  0.6337 -0.0765
 7273SOL    HW122064   2.550   1.918   2.471  0.8460  0.6977  0.3142
 7273SOL    HW222065   2.538   1.860   2.611  1.5533  1.9272  0.8960
 7274SOL     OW22066   3.704   1.809   4.270  0.0124 -0.2003 -0.2129
 7274SOL    HW122067   3.776   1.863   4.304  0.3390 -0.9648  0.3373
 7274SOL    HW222068   3.629   1.869   4.266  0.1099  0.0719  1.3573
 7275SOL     OW22069   4.604   3.438   0.280 -0.0221 -0.2401 -0.0271
 7275SOL    HW122070   4.652   3.423   0.361  1.3787 -2.2205 -1.1264
 7275SOL    HW222071   4.645   3.515   0.242 -0.2472  0.3064  0.8223
 7276SOL     OW22072   3.280   0.177   2.278 -0.1300 -0.5136 -0.1150
 7276SOL    HW122073   3.218   0.228   2.226 -0.0321  1.9531  1.9896
 7276SOL    HW222074   3.274   0.214   2.366  2.6431 -1.7501  0.7151
 7277SOL     OW22075   4.797   0.704   5.515  0.5308  0.6640  0.0784
 7277SOL    HW122076   4.750   0.783   5.543  0.1940 -0.3601  2.7443
 7277SOL    HW222077   4.760   0.634   5.569  1.3273 -1.2233 -1.6820
 7278SOL     OW22078   4.967   1.614   4.367 -0.1350 -0.7203 -0.4167
 7278SOL    HW122079   4.948   1.603   4.274 -1.0810 -1.3715 -0.1671
 7278SOL    HW222080   4.957   1.707   4.383  0.0719 -0.5973 -0.9757
 7279SOL     OW22081   4.774   2.068   4.562  0.3327  0.0698 -0.2074
 7279SOL    HW122082   4.719   2.121   4.504  0.3885  0.2871 -0.0637
 7279SOL    HW222083   4.738   2.083   4.650  0.9174  0.5975 -0.0495
 7280SOL     OW22084   4.051   1.537   3.890 -0.3361 -0.0985 -0.1568
 7280SOL    HW122085   4.135   1.582   3.881 -1.3556  1.7599 -1.0068
 7280SOL    HW222086   4.006   1.583   3.961 -1.0056 -0.4362 -0.3512
 7281SOL     OW22087   1.745   3.735   1.919  0.5955  0.4641  0.5699
 7281SOL    HW122088   1.803   3.795   1.966 -0.0506  2.1676 -0.7199
 7281SOL    HW222089   1.658   3.755   1.952  0.2768  0.8369 -0.4541
 7282SOL     OW22090   1.065   5.430   5.633  0.6522 -0.3405 -0.5708
 7282SOL    HW122091   1.126   5.422   5.707 -1.1792 -0.5781  0.9909
 7282SOL    HW222092   0.990   5.476   5.670 -0.2448 -0.2938 -2.3736
 7283SOL     OW22093   3.757   5.637   0.458  0.4136  0.4512  0.1197
 7283SOL    HW122094   3.719   5.551   0.439 -0.0554  0.5040  0.7663
 7283SOL    HW222095   3.689   5.699   0.431  0.5335  0.5960  0.1540
 7284SOL     OW22096   4.988   2.526   1.014 -0.3579 -0.3276 -0.1165
 7284SOL    HW122097   4.929   2.561   0.948  0.1184  0.8104  0.0383
 7284SOL    HW222098   4.934   2.518   1.093  0.0761  2.5236  0.5650
 7285SOL     OW22099   3.173   5.371   0.708 -0.3250  0.3481 -0.3359
 7285SOL    HW122100   3.167   5.307   0.779  1.2209 -0.1988 -0.6631
 7285SOL    HW222101   3.127   5.329   0.635 -0.1162  0.0005 -0.2724
 7286SOL     OW22102   2.112   3.066   3.664  0.4156  0.4108  0.3296
 7286SOL    HW122103   2.138   2.995   3.605  1.7789 -0.8497  2.2932
 7286SOL    HW222104   2.194   3.095   3.703 -0.5432 -0.2737  3.1032
 7287SOL     OW22105   5.645   1.991   0.168 -0.1537 -0.1027 -0.1296
 7287SOL    HW122106   5.633   1.896   0.178 -1.5984  0.1579  0.8628
 7287SOL    HW222107   5.675   2.001   0.078 -0.9303 -1.4333 -0.5688
 7288SOL     OW22108   1.045   1.759   1.397  0.4370  0.4999  0.4476
 7288SOL    HW122109   1.027   1.674   1.358 -1.6268  0.8215  0.5983
 7288SOL    HW222110   1.053   1.819   1.323 -1.1573  0.6888  0.3963
 7289SOL     OW22111   1.302   2.965   4.531 -0.2880  0.0179 -0.6020
 7289SOL    HW122112   1.225   2.918   4.497 -0.7254  0.7936 -0.6972
 7289SOL    HW222113   1.335   2.908   4.600  0.3229 -1.3609 -1.9707
 7290SOL     OW22114   2.354   0.671   0.972  0.2771 -0.4430  0.0135
 7290SOL    HW122115   2.373   0.670   1.066 -0.2021 -0.2185  0.1140
 7290SOL    HW222116   2.293   0.744   0.960 -2.0743 -2.2600  0.0307
 7291SOL     OW22117   1.389   2.295   2.435 -0.4782 -0.4723 -0.4738
 7291SOL    HW122118   1.384   2.248   2.352 -3.0458 -2.6251  0.7237
 7291SOL    HW222119   1.297   2.311   2.458  0.1564 -0.0199  1.9548
 7292SOL     OW22120   1.594   5.748   0.326  0.2547 -0.2562  0.4605
 7292SOL    HW122121   1.616   5.731   0.417  1.1840 -0.0735  0.2771
 7292SOL    HW222122   1.678   5.767   0.283  0.3588 -3.6895 -1.1995
 7293SOL     OW22123   5.734   5.080   5.253  0.2930  0.6537  0.4335
 7293SOL    HW122124   5.803   5.145   5.240  0.5564  0.3065  0.0245
 7293SOL    HW222125   5.679   5.115   5.323  1.5189  0.4243  1.5506
 7294SOL     OW22126   5.029   2.004   1.846  0.1702 -0.5739  0.0063
 7294SOL    HW122127   5.017   2.098   1.861  2.5177 -0.5149  1.9032
 7294SOL    HW222128   4.970   1.962   1.909  2.9117 -0.2800  3.0022
 7295SOL     OW22129   1.052   0.021   4.563 -0.0437 -0.1047 -0.0117
 7295SOL    HW122130   0.962   0.049   4.579 -0.2727  0.8169 -2.4557
 7295SOL    HW222131   1.105   0.084   4.612 -0.6855  0.2252  0.2818
 7296SOL     OW22132   4.265   0.229   0.541  0.1351 -0.2693  0.1058
 7296SOL    HW122133   4.220   0.148   0.517  1.8514 -0.9631 -0.8851
 7296SOL    HW222134   4.306   0.259   0.460  0.7031  0.8376  0.7811
 7297SOL     OW22135   1.153   5.047   5.995  0.0451 -0.0293 -0.6461
 7297SOL    HW122136   1.096   5.082   6.064  0.2812 -0.2031 -0.3553
 7297SOL    HW222137   1.111   4.965   5.969  0.3742 -0.3647 -0.1392
 7298SOL     OW22138   5.176   1.127   2.483  0.1227  0.3525 -0.2494
 7298SOL    HW122139   5.174   1.094   2.393  0.7147 -0.8283  0.1480
 7298SOL    HW222140   5.153   1.051   2.536  0.5743  0.8321  0.6510
 7299SOL     OW22141   5.176   5.520   1.907  0.5338  0.1422  0.2387
 7299SOL    HW122142   5.094   5.529   1.956  1.1657  0.7128  1.2209
 7299SOL    HW222143   5.239   5.489   1.971  1.2382  0.3020 -0.3639
 7300SOL     OW22144   2.761   3.026   4.306  0.0618  0.1929 -0.1101
 7300SOL    HW122145   2.856   3.036   4.299 -0.0866  1.0908 -0.9996
 7300SOL    HW222146   2.735   3.089   4.373  0.1639 -0.5809  0.6801
 7301SOL     OW22147   1.174   5.698   0.391  0.0617 -0.4369  0.0482
 7301SOL    HW122148   1.252   5.715   0.338 -1.1695  3.6212 -0.8814
 7301SOL    HW222149   1.102   5.703   0.329 -1.2161  1.3575  1.5533
 7302SOL     OW22150   1.068   5.899   4.751  0.0491 -0.3958 -0.4308
 7302SOL    HW122151   1.105   5.846   4.822  0.1243  0.9861  0.6141
 7302SOL    HW222152   1.029   5.835   4.691  2.4007 -1.7849 -0.5884
 7303SOL     OW22153   0.577   3.567   2.088  0.2369  0.5601  0.3638
 7303SOL    HW122154   0.583   3.626   2.163  2.0791  2.3023 -1.0676
 7303SOL    HW222155   0.664   3.527   2.082 -0.3662 -0.7578  0.0495
 7304SOL     OW22156   2.506   1.132   3.377 -0.0786 -0.6925  0.8707
 7304SOL    HW122157   2.530   1.054   3.426 -1.1984 -0.8863  1.1512
 7304SOL    HW222158   2.410   1.131   3.378 -0.1022  0.2760  0.2251
 7305SOL     OW22159   0.237   2.346   0.643 -0.2230  0.9203 -0.1663
 7305SOL    HW122160   0.264   2.438   0.654  0.2010  1.0090 -1.6371
 7305SOL    HW222161   0.154   2.340   0.689  0.0559  1.8796  0.5034
 7306SOL     OW22162   0.228   4.249   5.889  0.4407  0.3046  0.2056
 7306SOL    HW122163   0.253   4.165   5.850  0.4621 -0.3844  1.6390
 7306SOL    HW222164   0.204   4.227   5.979 -1.2953  1.5887  0.0933
 7307SOL     OW22165   2.307   0.270   2.543  0.3857 -0.7340  0.7275
 7307SOL    HW122166   2.377   0.240   2.485  0.7044 -2.5841  1.9776
 7307SOL    HW222167   2.228   0.267   2.489  1.1522  1.1116 -0.6226
 7308SOL     OW22168   1.408   0.963   0.279  0.4688  0.2780 -0.0100
 7308SOL    HW122169   1.419   0.875   0.244  0.3060  0.8858 -1.6872
 7308SOL    HW222170   1.389   1.017   0.202 -0.0066  1.6796  1.0486
 7309SOL     OW22171   3.256   3.422   2.270  0.0331 -0.4711  0.0399
 7309SOL    HW122172   3.239   3.462   2.185 -0.5545 -0.2147  0.2711
 7309SOL    HW222173   3.348   3.396   2.267  0.7428  1.7954  0.2197
 7310SOL     OW22174   1.255   2.282   4.749  0.8340 -0.2071 -0.6169
 7310SOL    HW122175   1.316   2.335   4.698  1.1476 -0.1552 -0.1892
 7310SOL    HW222176   1.304   2.202   4.769  1.7100  0.8638  1.8927
 7311SOL     OW22177   3.562   5.558   4.232 -0.6362  0.0970 -0.5474
 7311SOL    HW122178   3.612   5.576   4.153 -1.7298 -2.4031 -1.9406
 7311SOL    HW222179   3.475   5.591   4.214 -0.7185  0.1414 -0.0884
 7312SOL     OW22180   5.143   3.810   1.064  0.1325  0.6513  0.3690
 7312SOL    HW122181   5.070   3.755   1.091 -0.0753 -0.7896 -2.7058
 7312SOL    HW222182   5.111   3.900   1.074 -2.8042  0.0758 -2.4642
 7313SOL     OW22183   0.813   4.412   0.895  0.1917  0.1565  0.1938
 7313SOL    HW122184   0.905   4.435   0.902  0.1002  0.5454  0.1018
 7313SOL    HW222185   0.787   4.389   0.984  0.4148 -0.0959  0.1934
 7314SOL     OW22186   4.213   3.751   1.046 -0.6311  0.5969 -0.1639
 7314SOL    HW122187   4.301   3.786   1.059 -0.2678 -0.5684  0.7253
 7314SOL    HW222188   4.197   3.759   0.952 -0.5728  3.0372 -0.0372
 7315SOL     OW22189   3.924   0.339   5.043 -0.1254  0.5830  0.2238
 7315SOL    HW122190   3.847   0.283   5.033  0.9924 -0.7657 -1.4031
 7315SOL    HW222191   3.982   0.289   5.102  0.0570  0.9710  0.3771
 7316SOL     OW22192   4.048   5.060   2.611 -0.3831 -0.0176 -0.1332
 7316SOL    HW122193   3.954   5.041   2.608 -0.9138  1.7677  2.2715
 7316SOL    HW222194   4.067   5.096   2.524 -1.1054 -3.2811 -1.8172
 7317SOL     OW22195   1.125   4.029   0.159  0.0582 -0.0382 -0.2219
 7317SOL    HW122196   1.042   4.032   0.112  0.4924  0.9078 -0.9406
 7317SOL    HW222197   1.175   4.103   0.125  1.4372 -0.9487 -0.2425
 7318SOL     OW22198   3.969   5.277   2.146  0.1454  0.2451 -0.1936
 7318SOL    HW122199   3.967   5.361   2.100 -0.9467  1.0434  1.2010
 7318SOL    HW222200   3.912   5.291   2.222 -0.2787 -1.8563 -0.0713
 7319SOL     OW22201   1.656   5.438   3.205 -0.8051  0.5874 -0.0492
 7319SOL    HW122202   1.693   5.397   3.128 -2.9083  0.1209 -0.8689
 7319SOL    HW222203   1.572   5.395   3.218  0.1133 -0.4911  3.4806
 7320SOL     OW22204   5.574   1.680   2.776  0.2843 -0.3333  0.5259
 7320SOL    HW122205   5.530   1.737   2.712  1.1509  0.2401  0.4238
 7320SOL    HW222206   5.658   1.723   2.792  0.0993 -0.4833  2.0429
 7321SOL     OW22207   3.192   3.650   5.146  0.2655 -0.0157 -0.4816
 7321SOL    HW122208   3.195   3.580   5.211 -0.1761 -1.1995 -1.6996
 7321SOL    HW222209   3.100   3.654   5.120  0.3457  0.8097 -0.6778
 7322SOL     OW22210   1.434   3.262   1.776  0.1352  0.0242 -0.4002
 7322SOL    HW122211   1.348   3.243   1.813 -1.3607  0.2767 -3.4888
 7322SOL    HW222212   1.494   3.250   1.849 -2.5017  0.0021  1.9359
 7323SOL     OW22213   5.060   5.329   4.706  0.4715 -0.3259 -0.0725
 7323SOL    HW122214   5.045   5.400   4.769  0.3034  0.6385 -1.1750
 7323SOL    HW222215   5.143   5.291   4.734  1.4689  1.4455 -0.4749
 7324SOL     OW22216   1.734   5.891   2.338  0.3080 -0.3638 -0.2684
 7324SOL    HW122217   1.645   5.898   2.372  1.0537 -0.0071  1.7495
 7324SOL    HW222218   1.726   5.911   2.245 -1.7778 -0.8477 -0.2400
 7325SOL     OW22219   0.263   0.062   4.052  0.3885 -0.1074  0.0624
 7325SOL    HW122220   0.195   0.023   3.996  0.2486 -1.4119  1.1068
 7325SOL    HW222221   0.257   0.156   4.034 -0.5601 -0.3648 -1.1061
 7326SOL     OW22222   5.893   5.420   2.091 -0.7014 -0.1815 -0.2512
 7326SOL    HW122223   5.954   5.431   2.017 -0.8654 -1.7658 -0.6511
 7326SOL    HW222224   5.900   5.328   2.114 -2.2368 -0.1670  0.3426
 7327SOL     OW22225   0.328   4.763   4.270 -0.3108  0.0537 -0.0319
 7327SOL    HW122226   0.361   4.809   4.192 -0.5546  1.5038  0.6846
 7327SOL    HW222227   0.257   4.819   4.302 -0.5724 -0.8026  0.9286
 7328SOL     OW22228   4.363   3.659   3.755  0.2008 -0.3198  0.6551
 7328SOL    HW122229   4.328   3.570   3.752 -0.8704  0.0817  0.6215
 7328SOL    HW222230   4.307   3.705   3.818 -0.5454  0.8304 -0.7622
 7329SOL     OW22231   3.821   2.066   1.545 -0.3528  0.0984 -0.4225
 7329SOL    HW122232   3.813   1.987   1.491  0.1136 -1.5939  1.7927
 7329SOL    HW222233   3.738   2.071   1.593 -1.0195  1.9350 -1.6873
 7330SOL     OW22234   0.908   2.022   4.031  0.4055 -0.4998  0.0473
 7330SOL    HW122235   0.948   1.949   3.986  0.8065  1.0353 -2.2633
 7330SOL    HW222236   0.907   2.093   3.966  0.7960  1.8141  2.3875
 7331SOL     OW22237   2.328   1.073   4.502 -0.2979  0.1583  0.4047
 7331SOL    HW122238   2.396   1.035   4.558 -0.2028 -0.5050 -0.1390
 7331SOL    HW222239   2.344   1.034   4.416  0.0899  1.8172 -0.2953
 7332SOL     OW22240   3.253   1.424   2.747  0.4703  0.2079 -0.3197
 7332SOL    HW122241   3.222   1.342   2.787  0.4491  0.8396  1.0144
 7332SOL    HW222242   3.205   1.431   2.665  0.5522 -1.1758 -0.5107
 7333SOL     OW22243   5.725   1.915   5.336  0.4801  0.4559  0.2895
 7333SOL    HW122244   5.720   1.990   5.395 -2.1110  0.4607  0.1689
 7333SOL    HW222245   5.714   1.839   5.393  2.8322  0.0884  0.3738
 7334SOL     OW22246   6.134   1.874   4.983  0.4770 -0.0922 -0.2539
 7334SOL    HW122247   6.166   1.784   4.988  1.0573  0.1791  1.3824
 7334SOL    HW222248   6.061   1.877   5.045  0.7784  0.6786  0.0731
 7335SOL     OW22249   3.462   3.949   0.439 -0.2568  0.3043 -0.1111
 7335SOL    HW122250   3.369   3.928   0.447  0.0536 -0.8414  0.7475
 7335SOL    HW222251   3.481   3.938   0.346 -0.8900  0.1594 -0.2273
 7336SOL     OW22252   4.633   0.366   3.083 -0.0783  0.2427 -1.0907
 7336SOL    HW122253   4.711   0.344   3.032  0.2293 -3.2767  0.5435
 7336SOL    HW222254   4.665   0.419   3.156  0.4858  0.3316 -1.4012
 7337SOL     OW22255   3.613   3.764   5.836 -0.7831  0.5593  0.0856
 7337SOL    HW122256   3.532   3.714   5.825 -0.4131  0.2007 -1.2659
 7337SOL    HW222257   3.588   3.854   5.815 -1.0365  0.6127  0.6124
 7338SOL     OW22258   1.693   5.337   5.768 -0.2614 -0.3088 -0.0333
 7338SOL    HW122259   1.654   5.330   5.680  0.1572 -0.7599 -0.1869
 7338SOL    HW222260   1.644   5.274   5.821 -0.2073 -0.3653 -0.0512
 7339SOL     OW22261   5.341   3.173   2.976  0.0166 -0.5783  0.0908
 7339SOL    HW122262   5.388   3.234   2.920 -0.4011  1.4031  1.7594
 7339SOL    HW222263   5.262   3.151   2.927  0.3466 -0.0349 -0.7026
 7340SOL     OW22264   5.873   3.506   1.050  0.0688 -0.0061  0.0162
 7340SOL    HW122265   5.897   3.459   0.970 -1.1044  0.3776 -0.5883
 7340SOL    HW222266   5.834   3.438   1.106  0.0154 -0.0910 -0.1242
 7341SOL     OW22267   5.102   0.052   0.716  0.1060 -0.1576  0.3702
 7341SOL    HW122268   5.192   0.076   0.738  0.6115  1.2658 -2.7669
 7341SOL    HW222269   5.110  -0.024   0.658 -0.4503  1.3749 -1.8477
 7342SOL     OW22270   5.794   1.678   5.471 -0.0532  0.5576  0.0250
 7342SOL    HW122271   5.836   1.624   5.538  1.7461  1.4765 -0.3113
 7342SOL    HW222272   5.780   1.618   5.398  0.3646  0.1447  0.2767
 7343SOL     OW22273   1.731   4.740   3.741 -0.0123  0.1769 -0.0729
 7343SOL    HW122274   1.799   4.806   3.726  0.4400 -0.5175 -1.2143
 7343SOL    HW222275   1.777   4.656   3.730 -0.7936 -0.3198  0.3637
 7344SOL     OW22276   5.480   1.661   3.702 -0.1414 -0.4820  0.2571
 7344SOL    HW122277   5.401   1.646   3.649 -0.5968 -0.7957  1.0074
 7344SOL    HW222278   5.520   1.739   3.664 -0.4489 -0.7024 -0.5519
 7345SOL     OW22279   0.551   1.164   5.981 -0.4650  0.0237 -0.0974
 7345SOL    HW122280   0.573   1.256   5.994 -0.8320  0.0223  0.6296
 7345SOL    HW222281   0.540   1.154   5.887 -0.7026  0.7880 -0.1543
 7346SOL     OW22282   0.632   4.964   5.865  1.0385  0.2139 -0.1530
 7346SOL    HW122283   0.578   4.885   5.867 -0.6927  1.3502  0.0187
 7346SOL    HW222284   0.721   4.931   5.856  0.2401 -1.6876 -1.8947
 7347SOL     OW22285   0.583   4.010   2.093  0.0398  0.3687 -0.2335
 7347SOL    HW122286   0.521   4.077   2.121 -2.5891 -2.0353  0.2040
 7347SOL    HW222287   0.541   3.968   2.017  0.9030 -1.6045  0.3009
 7348SOL     OW22288   4.179   4.498   1.999 -0.1673  0.8469  0.2711
 7348SOL    HW122289   4.089   4.517   1.972  0.0686  0.6098 -0.7089
 7348SOL    HW222290   4.223   4.582   1.996 -0.6278  1.1956  1.9389
 7349SOL     OW22291   2.914   5.766   0.898 -0.3047  0.0121 -0.3958
 7349SOL    HW122292   2.868   5.823   0.960 -1.2849 -0.5263 -0.6145
 7349SOL    HW222293   2.845   5.725   0.847  0.3746 -1.3833 -0.2408
 7350SOL     OW22294   1.028   2.583   3.860  0.3009 -0.4527  0.2868
 7350SOL    HW122295   0.946   2.614   3.821  1.2472  2.8579  0.5699
 7350SOL    HW222296   1.002   2.544   3.944 -1.0118  0.7490  0.4785
 7351SOL     OW22297   1.028   1.858   3.065  0.2919  0.1230  0.7007
 7351SOL    HW122298   1.005   1.912   2.989  0.2285 -3.4854 -2.1032
 7351SOL    HW222299   1.111   1.817   3.041  0.2955 -1.1176  2.6028
 7352SOL     OW22300   4.025   0.704   4.766  0.0460  0.3461 -0.5745
 7352SOL    HW122301   4.035   0.640   4.696  1.7240 -1.2969  1.0585
 7352SOL    HW222302   4.037   0.654   4.847  2.1435  2.7726  0.7704
 7353SOL     OW22303   4.029   0.955   1.438  0.1317 -0.6030 -0.1298
 7353SOL    HW122304   3.957   1.006   1.400 -0.4408 -0.4173  1.1471
 7353SOL    HW222305   4.095   1.021   1.461 -1.1060 -0.1773  2.6411
 7354SOL     OW22306   4.599   5.923   0.104 -0.0518  0.2976  0.4177
 7354SOL    HW122307   4.522   5.898   0.155 -1.2298 -0.8725 -1.7847
 7354SOL    HW222308   4.668   5.935   0.169 -1.1368 -2.3050  2.2375
 7355SOL     OW22309   4.391   2.684   5.289  0.0364 -0.7688  0.5237
 7355SOL    HW122310   4.355   2.604   5.328  1.6626 -1.2255  1.1553
 7355SOL    HW222311   4.483   2.664   5.275  0.1546  0.5091 -0.6640
 7356SOL     OW22312   1.663   6.038   0.949 -0.1113  0.3199 -0.0796
 7356SOL    HW122313   1.755   6.056   0.966 -0.4919  1.5111  0.8426
 7356SOL    HW222314   1.618   6.060   1.031 -1.5199  2.3594 -1.3069
 7357SOL     OW22315   2.581   4.605   3.730 -0.3817 -0.0415 -0.1807
 7357SOL    HW122316   2.591   4.578   3.639 -0.7874  0.2637 -0.3210
 7357SOL    HW222317   2.487   4.624   3.739 -0.5142 -1.0274  0.5762
 7358SOL     OW22318   5.806   5.147   2.706  0.2397  0.1166 -0.5746
 7358SOL    HW122319   5.826   5.236   2.733  1.1999 -0.3796  0.4535
 7358SOL    HW222320   5.741   5.156   2.636 -0.4952  1.5689  0.2582
 7359SOL     OW22321   1.244   0.095   3.239  0.1432  0.5195 -0.5842
 7359SOL    HW122322   1.309   0.165   3.230  0.9310  0.3343  2.4160
 7359SOL    HW222323   1.207   0.108   3.326 -2.4958 -0.5620 -1.4653
 7360SOL     OW22324   0.834   5.781   2.139 -0.1500  0.1940 -0.1577
 7360SOL    HW122325   0.917   5.737   2.120 -0.4366  0.3745 -2.0212
 7360SOL    HW222326   0.778   5.712   2.175  0.7307  0.0245  0.9136
 7361SOL     OW22327   5.757   4.911   2.459 -0.9818 -0.4297  0.4621
 7361SOL    HW122328   5.708   4.836   2.427 -1.4402 -0.4865  1.2669
 7361SOL    HW222329   5.765   4.896   2.553  0.9643 -0.6393  0.2963
 7362SOL     OW22330   1.334   1.132   4.372 -0.7847 -0.5703 -0.8215
 7362SOL    HW122331   1.322   1.171   4.285  0.4951 -0.4304 -0.9520
 7362SOL    HW222332   1.427   1.144   4.391 -0.9742 -0.9244  0.4201
 7363SOL     OW22333   2.762   0.340   2.458 -0.1218 -0.4255  0.2718
 7363SOL    HW122334   2.834   0.296   2.503 -0.0816  0.3966  1.0434
 7363SOL    HW222335   2.794   0.354   2.369  0.1297 -1.3141  0.2139
 7364SOL     OW22336   0.484   4.289   1.022 -0.4188  0.2295  0.6275
 7364SOL    HW122337   0.562   4.306   1.075 -0.2812 -0.2298  0.5736
 7364SOL    HW222338   0.516   4.289   0.932 -0.4775  0.0096  0.6075
 7365SOL     OW22339   4.934   5.651   5.270  0.3852  0.3142  0.1928
 7365SOL    HW122340   4.938   5.718   5.202 -1.0410  0.4787  0.2507
 7365SOL    HW222341   5.023   5.648   5.306  0.6705  1.5840 -0.3634
 7366SOL     OW22342   0.395   0.968   2.597 -0.1063  0.0725 -1.0294
 7366SOL    HW122343   0.362   1.047   2.640 -0.7436  0.3582 -1.9897
 7366SOL    HW222344   0.348   0.896   2.639 -0.7128  0.3436 -1.2277
 7367SOL     OW22345   0.328   0.663   5.964  0.1937 -0.6198  0.4160
 7367SOL    HW122346   0.358   0.629   5.880 -1.5330 -1.5341  0.1309
 7367SOL    HW222347   0.251   0.716   5.943  0.5535  0.3008  1.2955
 7368SOL     OW22348   2.925   5.722   5.151  0.2038 -0.0434 -0.2692
 7368SOL    HW122349   2.975   5.642   5.166 -1.3250 -0.5302  3.3015
 7368SOL    HW222350   2.950   5.780   5.223 -0.5203  1.7663 -1.3999
 7369SOL     OW22351   5.282   5.769   6.006  0.5848 -0.1903 -0.4120
 7369SOL    HW122352   5.354   5.752   6.068  0.5229 -0.2418 -0.3540
 7369SOL    HW222353   5.204   5.735   6.050  0.3205  0.9932  0.0815
 7370SOL     OW22354   3.921   1.575   5.474 -0.2716  0.7887 -0.0856
 7370SOL    HW122355   3.851   1.554   5.536 -0.9231  0.6103 -0.8656
 7370SOL    HW222356   3.878   1.575   5.389  0.4565  1.7673 -0.4707
 7371SOL     OW22357   6.082   0.169   2.446  0.2765  0.1183 -0.7031
 7371SOL    HW122358   6.024   0.101   2.411 -0.3346  1.0359 -1.5074
 7371SOL    HW222359   6.076   0.158   2.541  0.3044 -1.0410 -0.8224
 7372SOL     OW22360   3.253   1.349   2.197 -0.1276 -0.8018 -0.2527
 7372SOL    HW122361   3.289   1.285   2.260 -0.0078 -0.8038 -0.3223
 7372SOL    HW222362   3.246   1.300   2.115  1.9706 -0.1606 -0.8676
 7373SOL     OW22363   3.845   2.862   6.101  0.0238 -0.2016 -0.1315
 7373SOL    HW122364   3.889   2.920   6.162  0.5797 -1.2870  0.5399
 7373SOL    HW222365   3.754   2.859   6.131 -0.1753  0.8060 -0.5745
 7374SOL     OW22366   4.446   3.824   4.884 -0.3204 -0.5573  0.1364
 7374SOL    HW122367   4.489   3.832   4.970 -2.4449 -0.9467  1.2960
 7374SOL    HW222368   4.396   3.905   4.875 -0.0272 -0.4742 -0.8101
 7375SOL     OW22369   6.039   2.079   2.667  0.0406 -0.2438 -0.3503
 7375SOL    HW122370   5.990   2.122   2.597 -3.1293 -1.3631  1.0069
 7375SOL    HW222371   6.074   2.000   2.626  1.1559  0.7541 -1.4374
 7376SOL     OW22372   1.889   3.357   4.171  0.5887  0.1594  0.2632
 7376SOL    HW122373   1.903   3.416   4.246 -0.7305  0.5646  0.2196
 7376SOL    HW222374   1.803   3.319   4.187  0.1337  0.5093 -1.2151
 7377SOL     OW22375   3.404   0.603   3.916  0.7060 -0.0462 -0.5351
 7377SOL    HW122376   3.469   0.609   3.986  0.7489  1.3645 -0.6662
 7377SOL    HW222377   3.454   0.614   3.835  0.4491 -0.0566 -0.6975
 7378SOL     OW22378   5.327   5.743   0.656  0.0519  0.2310  0.2054
 7378SOL    HW122379   5.295   5.664   0.613  1.0794 -0.4938  0.7266
 7378SOL    HW222380   5.423   5.733   0.656  0.2066  1.5439  0.1475
 7379SOL     OW22381   1.909   6.057   3.455  0.5629 -0.4383  0.3416
 7379SOL    HW122382   1.907   6.022   3.366 -0.9748  0.1789  0.1047
 7379SOL    HW222383   1.999   6.086   3.467  0.7022 -0.1308 -1.1800
 7380SOL     OW22384   6.106   5.789   4.940  0.0390  0.7000  0.1391
 7380SOL    HW122385   6.196   5.758   4.930 -1.4339 -3.4037 -4.1187
 7380SOL    HW222386   6.076   5.749   5.022  1.7902  1.4712  1.2045
 7381SOL     OW22387   2.298   3.267   2.422  0.1943 -0.1691 -0.1273
 7381SOL    HW122388   2.278   3.348   2.469  0.7670 -1.6666  2.9526
 7381SOL    HW222389   2.218   3.215   2.426  0.2866 -0.3840 -0.7791
 7382SOL     OW22390   1.028   3.528   0.303 -0.2329  0.3037 -0.0487
 7382SOL    HW122391   1.037   3.588   0.229  3.4621 -1.3460 -1.1555
 7382SOL    HW222392   1.079   3.569   0.374 -0.5414  0.0582  0.3199
 7383SOL     OW22393   0.645   3.357   3.057 -0.3240  0.3779  0.0887
 7383SOL    HW122394   0.680   3.368   3.145 -0.7436  0.5315  0.2375
 7383SOL    HW222395   0.550   3.357   3.068 -0.4663  2.4495 -0.5772
 7384SOL     OW22396   6.090   3.115   4.513  0.3659  1.0182  0.5123
 7384SOL    HW122397   6.023   3.183   4.511  0.8646  1.5110  0.2548
 7384SOL    HW222398   6.047   3.037   4.478  0.5458  1.8883 -1.8175
 7385SOL     OW22399   1.713   1.457   0.782 -0.5418 -0.0899 -0.6215
 7385SOL    HW122400   1.784   1.496   0.833 -0.1128 -0.9206 -0.5638
 7385SOL    HW222401   1.742   1.464   0.691  0.4305 -1.9356 -0.5055
 7386SOL     OW22402   3.226   0.389   3.244 -0.5090 -0.0203 -0.2773
 7386SOL    HW122403   3.297   0.364   3.303 -0.7498  0.9501  0.4587
 7386SOL    HW222404   3.222   0.319   3.179  0.5125 -0.5424  0.2052
 7387SOL     OW22405   3.348   1.768   1.034 -0.5009  0.1863 -0.5772
 7387SOL    HW122406   3.403   1.698   1.000  1.0154  0.3920  1.2854
 7387SOL    HW222407   3.311   1.809   0.956  0.8718 -0.8569 -1.8401
 7388SOL     OW22408   5.574   5.321   4.262  0.5381  0.0799  0.5368
 7388SOL    HW122409   5.590   5.271   4.182  1.5676  0.5747  0.4114
 7388SOL    HW222410   5.509   5.270   4.310 -1.4678  0.6499 -1.3914
 7389SOL     OW22411   6.136   1.270   3.320 -0.0102 -0.4988 -0.2523
 7389SOL    HW122412   6.068   1.203   3.322  0.1582 -0.7148 -1.1079
 7389SOL    HW222413   6.217   1.222   3.304  0.5882 -0.3873  2.0831
 7390SOL     OW22414   4.161   4.528   2.685 -0.2923 -0.1844 -0.2375
 7390SOL    HW122415   4.140   4.608   2.732  0.2796 -0.6017  0.7458
 7390SOL    HW222416   4.154   4.459   2.750  1.1822 -0.6965 -0.5698
 7391SOL     OW22417   0.377   4.379   2.811 -0.4341  0.4422 -0.1423
 7391SOL    HW122418   0.376   4.452   2.750  1.6159  0.8931  0.2784
 7391SOL    HW222419   0.447   4.322   2.779 -0.6394 -0.2962  0.6745
 7392SOL     OW22420   3.136   3.712   5.903 -0.3353 -0.3192  0.9934
 7392SOL    HW122421   3.110   3.804   5.895 -0.0426 -0.3679 -1.3821
 7392SOL    HW222422   3.087   3.679   5.977 -0.1260  1.8594  2.1821
 7393SOL     OW22423   0.185   5.063   4.511 -0.0398 -0.2842  0.1302
 7393SOL    HW122424   0.125   5.010   4.458  1.2567 -0.3673 -1.3269
 7393SOL    HW222425   0.265   5.068   4.459  1.0348  0.3139  1.7470
 7394SOL     OW22426   1.402   5.053   6.096  0.4760  0.4524 -0.2249
 7394SOL    HW122427   1.307   5.053   6.085  0.4502 -0.6920 -0.1259
 7394SOL    HW222428   1.415   5.053   6.190  0.5929  1.6377 -0.2352
 7395SOL     OW22429   1.441   2.597   0.348  0.2930  0.1584  0.1919
 7395SOL    HW122430   1.521   2.566   0.306  0.1953  0.2028 -0.0293
 7395SOL    HW222431   1.425   2.683   0.309  0.6752  0.5841  0.9517
 7396SOL     OW22432   4.734   5.885   3.969 -0.2045  0.1914 -0.1070
 7396SOL    HW122433   4.781   5.862   3.889 -0.0802  1.9379 -0.5779
 7396SOL    HW222434   4.684   5.806   3.991 -1.1303  0.0338 -2.5421
 7397SOL     OW22435   4.530   5.272   0.817 -1.1015 -0.0951 -0.4467
 7397SOL    HW122436   4.558   5.265   0.726 -0.1413 -0.5298 -0.1405
 7397SOL    HW222437   4.604   5.313   0.861 -0.0210 -3.0811  0.7643
 7398SOL     OW22438   2.818   3.683   1.683  0.0984  0.4408  0.5141
 7398SOL    HW122439   2.889   3.651   1.738 -0.2264 -2.2583 -0.4990
 7398SOL    HW222440   2.739   3.646   1.721 -0.2094 -0.8010 -1.2160
 7399SOL     OW22441   3.151   4.421   2.868  0.3820  0.0308 -0.0023
 7399SOL    HW122442   3.087   4.486   2.838  0.0965 -0.7770 -1.2072
 7399SOL    HW222443   3.235   4.467   2.866  0.3246  0.1306 -1.7403
 7400SOL     OW22444   4.665   6.061   5.890 -0.0259 -0.1240 -0.0531
 7400SOL    HW122445   4.691   6.112   5.814  0.4256  0.2227  0.3325
 7400SOL    HW222446   4.708   6.104   5.964 -0.6520 -0.3161  0.4272
 7401SOL     OW22447   4.322   4.993   0.136  0.0295  0.0349  0.1696
 7401SOL    HW122448   4.386   4.937   0.091  0.9710  1.4321 -0.3119
 7401SOL    HW222449   4.268   4.933   0.186  0.9688 -1.3038 -0.3686
 7402SOL     OW22450   2.935   0.728   0.475 -0.0511 -0.5713  1.0585
 7402SOL    HW122451   2.936   0.702   0.383 -1.0964  2.5527  0.0269
 7402SOL    HW222452   3.027   0.742   0.497  0.1124  0.2835 -0.0754
 7403SOL     OW22453   0.578   2.405   4.220  0.3901  0.1401 -1.1202
 7403SOL    HW122454   0.508   2.355   4.178 -0.3561  0.7918 -0.6822
 7403SOL    HW222455   0.602   2.472   4.154 -1.0880  1.4454 -0.3946
 7404SOL     OW22456   5.455   2.016   4.685  0.1771 -0.2159  0.4500
 7404SOL    HW122457   5.392   2.048   4.621 -0.1895 -0.8975  0.4703
 7404SOL    HW222458   5.520   2.086   4.691 -0.1852  0.1740 -0.1077
 7405SOL     OW22459   4.921   1.144   0.964  0.2022 -0.3199 -0.5300
 7405SOL    HW122460   4.969   1.071   0.926 -0.3915 -2.0545  1.8057
 7405SOL    HW222461   4.845   1.104   1.007  0.2424  1.5205  1.4541
 7406SOL     OW22462   4.818   2.785   4.515  0.3881 -0.2141 -0.3262
 7406SOL    HW122463   4.729   2.791   4.550  0.0011 -1.0922 -1.1050
 7406SOL    HW222464   4.874   2.802   4.590 -0.4370 -0.3821  0.3494
 7407SOL     OW22465   3.144   0.377   5.636  0.6106  0.3339  0.2566
 7407SOL    HW122466   3.095   0.299   5.610  1.7822  0.1759 -1.6545
 7407SOL    HW222467   3.128   0.440   5.565  0.8267  1.3304  1.0731
 7408SOL     OW22468   1.706   1.645   3.405  0.2007 -0.3175  0.0095
 7408SOL    HW122469   1.684   1.720   3.348 -0.1564 -0.5418 -0.1541
 7408SOL    HW222470   1.625   1.593   3.408  0.6999 -1.1481 -0.5754
 7409SOL     OW22471   3.802   5.798   3.724  0.0708 -0.0647  0.6023
 7409SOL    HW122472   3.830   5.824   3.811  1.8592  0.2718 -0.0408
 7409SOL    HW222473   3.883   5.777   3.677 -0.5603  2.1959 -1.7469
 7410SOL     OW22474   0.874   4.531   4.447 -0.7006 -0.1813 -0.0939
 7410SOL    HW122475   0.842   4.578   4.370  0.2199  0.2254 -0.2357
 7410SOL    HW222476   0.833   4.575   4.521 -1.2584 -0.3068 -0.3200
 7411SOL     OW22477   0.693   3.939   3.968  0.1759 -0.2407  0.0900
 7411SOL    HW122478   0.782   3.968   3.992 -0.0256  0.8107 -0.3947
 7411SOL    HW222479   0.636   3.990   4.025 -0.1567 -0.2900 -0.2024
 7412SOL     OW22480   3.893   5.792   5.535  0.0455 -0.5546  0.5259
 7412SOL    HW122481   3.964   5.845   5.498  1.2063 -1.8391  0.7983
 7412SOL    HW222482   3.865   5.840   5.613 -0.5916  0.8311 -0.5195
 7413SOL     OW22483   3.263   2.183   6.139 -0.2546  0.0908 -0.2378
 7413SOL    HW122484   3.327   2.112   6.149 -0.1831  0.1006 -0.6022
 7413SOL    HW222485   3.242   2.182   6.045 -0.4437  0.3865 -0.1962
 7414SOL     OW22486   1.206   3.422   2.145 -0.5599  0.3994  0.3859
 7414SOL    HW122487   1.223   3.343   2.196  1.6552 -0.7043 -1.8132
 7414SOL    HW222488   1.293   3.454   2.121 -1.4596  1.8769 -1.1437
 7415SOL     OW22489   3.587   5.417   0.077 -0.1465 -0.0459 -0.1045
 7415SOL    HW122490   3.497   5.388   0.067 -0.2220  0.4125 -0.8080
 7415SOL    HW222491   3.580   5.502   0.120 -0.1594  0.7722 -1.6644
 7416SOL     OW22492   3.659   5.674   3.942  0.3729  0.1911  0.2751
 7416SOL    HW122493   3.714   5.711   3.873 -1.3040  1.1015 -0.6653
 7416SOL    HW222494   3.657   5.580   3.923  3.1091 -0.2125  1.5232
 7417SOL     OW22495   6.021   1.493   0.021 -0.1772  0.1991 -0.3616
 7417SOL    HW122496   6.072   1.468  -0.056 -1.1448  1.4379 -1.4388
 7417SOL    HW222497   6.086   1.530   0.081  0.4787 -0.0951 -0.8648
 7418SOL     OW22498   2.534   4.762   1.473  0.2358  0.2520 -0.3413
 7418SOL    HW122499   2.610   4.819   1.485 -1.0165  1.7588  0.7656
 7418SOL    HW222500   2.461   4.811   1.511 -1.2145 -1.3594 -0.9414
 7419SOL     OW22501   4.984   5.784   4.846  0.0401  0.0042  0.5285
 7419SOL    HW122502   4.895   5.759   4.820  0.0371 -1.3518  1.7052
 7419SOL    HW222503   5.040   5.749   4.777 -0.2777  0.1578  0.1924
 7420SOL     OW22504   0.948   2.787   5.152 -0.1708 -0.2673 -0.5913
 7420SOL    HW122505   0.856   2.788   5.177 -0.4743 -0.7330 -1.6441
 7420SOL    HW222506   0.983   2.706   5.191 -0.0347  0.2248  0.3429
 7421SOL     OW22507   1.741   5.631   5.026  0.5062 -0.2037 -0.5561
 7421SOL    HW122508   1.661   5.601   4.983  0.9696 -1.4873 -0.5748
 7421SOL    HW222509   1.787   5.682   4.959 -0.7682  1.4835 -0.2129
 7422SOL     OW22510   2.404   4.272   2.594  0.1365  0.3733  0.6509
 7422SOL    HW122511   2.372   4.225   2.517  0.7091 -0.1038  0.6954
 7422SOL    HW222512   2.479   4.220   2.624  1.4262  1.8476  0.1225
 7423SOL     OW22513   3.277   3.269   1.460  0.7233  0.1040  0.2876
 7423SOL    HW122514   3.318   3.321   1.391 -1.1632  1.9390  0.4551
 7423SOL    HW222515   3.183   3.281   1.447  0.2883 -0.4063  2.5057
 7424SOL     OW22516   0.397   3.554   4.460  0.0705  0.0856 -0.1424
 7424SOL    HW122517   0.402   3.458   4.456  0.6996  0.1218 -0.3998
 7424SOL    HW222518   0.489   3.582   4.464 -0.0501  0.7317 -1.3514
 7425SOL     OW22519   1.126   2.980   5.040 -0.1861  0.2217  0.1888
 7425SOL    HW122520   1.072   2.916   5.086 -0.7134  2.6647  3.3743
 7425SOL    HW222521   1.214   2.968   5.077  0.2037 -0.0312 -0.7889
 7426SOL     OW22522   0.253   3.677   0.826 -0.3451 -0.0409 -0.2333
 7426SOL    HW122523   0.320   3.608   0.830 -0.5644 -0.2769 -0.5541
 7426SOL    HW222524   0.291   3.751   0.873 -0.2867 -0.5370  0.5188
 7427SOL     OW22525   2.097   0.803   5.161 -0.1114  0.0102 -0.2956
 7427SOL    HW122526   2.067   0.819   5.250 -0.3484  0.2383 -0.4139
 7427SOL    HW222527   2.192   0.815   5.164 -0.2541  1.2964 -0.3423
 7428SOL     OW22528   4.281   0.634   5.787 -0.4219  0.0076  0.2521
 7428SOL    HW122529   4.354   0.581   5.755 -1.3608  0.6169 -3.2964
 7428SOL    HW222530   4.301   0.648   5.879  1.1944 -4.2060  0.7652
 7429SOL     OW22531   3.531   2.100   1.670  0.5892 -0.2608 -0.2740
 7429SOL    HW122532   3.545   2.132   1.759 -1.4267  1.4558 -0.4907
 7429SOL    HW222533   3.459   2.038   1.679  1.5063 -1.3813 -0.5039
 7430SOL     OW22534   4.148   0.300   5.853  0.2886 -0.5275 -0.0006
 7430SOL    HW122535   4.070   0.292   5.798 -0.3774  0.0652  0.8378
 7430SOL    HW222536   4.123   0.362   5.921  1.3873 -0.5900  0.4773
 7431SOL     OW22537   5.678   2.627   3.855  0.2176 -0.1042 -0.2106
 7431SOL    HW122538   5.686   2.676   3.936  1.5025 -0.5638 -0.0439
 7431SOL    HW222539   5.705   2.688   3.786 -0.6419  0.2081 -0.2884
 7432SOL     OW22540   4.048   2.664   2.404  0.1944  0.3714 -0.2200
 7432SOL    HW122541   4.097   2.586   2.377 -0.4226 -0.5578  1.1856
 7432SOL    HW222542   4.092   2.737   2.361  2.7490 -0.4144  0.8797
 7433SOL     OW22543   1.155   3.070   5.793 -0.3165  0.4801 -0.3793
 7433SOL    HW122544   1.065   3.049   5.771  0.1993 -2.7912  0.1437
 7433SOL    HW222545   1.160   3.060   5.888  0.6642  0.2204 -0.4443
 7434SOL     OW22546   0.039   2.354   1.157  0.3847 -0.2277  0.1453
 7434SOL    HW122547   0.028   2.300   1.079  1.5010 -0.6312  0.2538
 7434SOL    HW222548   0.012   2.298   1.229 -0.0019 -0.0829  0.1161
 7435SOL     OW22549   4.761   2.833   1.483  0.1957 -0.3952  0.1779
 7435SOL    HW122550   4.765   2.895   1.410 -0.8744 -0.9729 -0.3951
 7435SOL    HW222551   4.787   2.885   1.559  0.4576  0.4552 -0.4708
 7436SOL     OW22552   4.397   5.945   3.260 -0.4062  0.0710  0.6518
 7436SOL    HW122553   4.413   5.938   3.355 -0.2349  1.5300  0.7517
 7436SOL    HW222554   4.369   6.035   3.247 -0.8380 -0.2256 -0.6513
 7437SOL     OW22555   5.439   4.620   2.201 -0.1335  0.0709  0.0758
 7437SOL    HW122556   5.379   4.608   2.127 -1.2277 -0.9508  1.0839
 7437SOL    HW222557   5.497   4.544   2.196 -1.5904 -1.2042  1.4736
 7438SOL     OW22558   1.398   3.702   0.347 -0.1724  0.4279  0.0424
 7438SOL    HW122559   1.399   3.782   0.400  0.3140  0.0126  0.6716
 7438SOL    HW222560   1.322   3.713   0.289 -0.6701  0.9225  0.7710
 7439SOL     OW22561   2.966   1.037   2.035  0.9317 -0.4396  0.1141
 7439SOL    HW122562   3.001   1.068   2.118 -0.5756 -2.2150  1.5312
 7439SOL    HW222563   2.886   1.088   2.022  0.8561 -0.5651  0.0798
 7440SOL     OW22564   2.043   5.021   1.411 -0.2680  0.1063  0.0770
 7440SOL    HW122565   2.129   5.050   1.382  0.1434 -0.0389  1.1062
 7440SOL    HW222566   2.059   4.936   1.452 -0.8878  0.1148  0.3517
 7441SOL     OW22567   5.689   0.275   3.666  0.3797  0.0319 -0.2030
 7441SOL    HW122568   5.639   0.195   3.682  0.7088 -0.3635 -1.0633
 7441SOL    HW222569   5.623   0.340   3.644  0.0266  0.2728  1.4407
 7442SOL     OW22570   3.847   5.116   1.942  0.1314 -0.5365  0.4137
 7442SOL    HW122571   3.883   5.155   2.021  0.6214  1.4277 -0.7140
 7442SOL    HW222572   3.757   5.149   1.938  0.8457  1.4565 -1.0602
 7443SOL     OW22573   6.053   2.022   3.944  0.0597  0.2396 -0.3343
 7443SOL    HW122574   6.074   1.954   4.008  1.2177  0.1814 -0.7496
 7443SOL    HW222575   6.130   2.025   3.887  0.7855  3.0658  0.6481
 7444SOL     OW22576   3.586   0.956   2.094 -0.5169 -0.3738  0.2596
 7444SOL    HW122577   3.508   0.983   2.142 -1.1519 -1.7502  0.0517
 7444SOL    HW222578   3.602   1.027   2.031 -2.0791 -0.4265 -0.2381
 7445SOL     OW22579   6.035   4.834   1.777 -0.6960 -0.0958 -0.0243
 7445SOL    HW122580   6.053   4.821   1.684  0.4479 -0.1480  0.1915
 7445SOL    HW222581   6.118   4.865   1.814 -1.3596  0.7440  0.8315
 7446SOL     OW22582   4.953   5.399   0.462  0.2120  0.1294 -0.8274
 7446SOL    HW122583   4.967   5.357   0.377  0.3219  0.8485 -1.1725
 7446SOL    HW222584   4.908   5.480   0.441 -0.0190  0.1762 -0.1642
 7447SOL     OW22585   2.348   1.922   5.439 -0.2367 -0.3192  0.5063
 7447SOL    HW122586   2.342   1.962   5.352 -3.4758  1.1639  1.2690
 7447SOL    HW222587   2.329   1.993   5.500 -1.1239 -1.9507  2.2335
 7448SOL     OW22588   2.391   0.206   0.226  0.3975  0.1183  0.0595
 7448SOL    HW122589   2.392   0.239   0.316  1.6060  0.8771 -0.2079
 7448SOL    HW222590   2.480   0.221   0.194  0.1940 -0.8534 -1.0166
 7449SOL     OW22591   4.440   0.265   0.303  0.5074 -0.0331 -0.5964
 7449SOL    HW122592   4.363   0.232   0.256  0.7827 -2.1552  0.2928
 7449SOL    HW222593   4.515   0.236   0.251  0.8443 -2.9661  1.2496
 7450SOL     OW22594   4.653   2.464   5.800  0.0208 -0.1097 -0.2788
 7450SOL    HW122595   4.559   2.467   5.783 -0.1205 -0.3687  0.4405
 7450SOL    HW222596   4.691   2.521   5.733 -0.7200  0.6509 -0.0625
 7451SOL     OW22597   6.029   3.329   2.831  0.3944  0.0902  0.5851
 7451SOL    HW122598   5.958   3.266   2.813  0.1756  0.7208 -1.0052
 7451SOL    HW222599   6.101   3.300   2.774  1.2281 -0.2021  1.7585
 7452SOL     OW22600   1.374   0.134   1.929  0.4242 -0.1372 -0.2856
 7452SOL    HW122601   1.391   0.040   1.938 -3.1301 -0.7746  1.5097
 7452SOL    HW222602   1.306   0.140   1.862 -0.3483  0.9841  0.5623
 7453SOL     OW22603   2.158   0.760   4.644 -0.0829  0.8777  0.2712
 7453SOL    HW122604   2.154   0.740   4.737  0.3495  0.8168  0.2820
 7453SOL    HW222605   2.182   0.678   4.602  1.2604  1.2378  0.2726
 7454SOL     OW22606   2.496   2.622   5.207  0.4285  0.2377 -0.3093
 7454SOL    HW122607   2.441   2.625   5.129  0.8623 -0.7310 -0.6775
 7454SOL    HW222608   2.438   2.650   5.278 -0.8042 -1.4653 -0.5593
 7455SOL     OW22609   3.167   0.347   1.264  0.5063  0.4336 -0.3668
 7455SOL    HW122610   3.143   0.384   1.349 -1.8362 -0.5692 -0.5297
 7455SOL    HW222611   3.163   0.421   1.204 -0.4328  0.6542 -0.0443
 7456SOL     OW22612   2.384   2.599   4.950 -0.3412 -0.3382  0.6206
 7456SOL    HW122613   2.344   2.645   4.876  0.2836 -0.6236  0.0980
 7456SOL    HW222614   2.353   2.509   4.941  0.5549 -0.6010  0.1077
 7457SOL     OW22615   2.608   1.869   5.472 -0.1909 -0.3817 -0.1056
 7457SOL    HW122616   2.604   1.775   5.456  1.7255 -0.7863  1.5062
 7457SOL    HW222617   2.518   1.894   5.490 -0.6404 -2.0124  0.0330
 7458SOL     OW22618   4.639   0.509   3.316  0.5080 -0.1719  0.2777
 7458SOL    HW122619   4.604   0.485   3.402  2.1416 -1.2788  0.6843
 7458SOL    HW222620   4.734   0.516   3.330  0.9131 -1.2154 -1.6054
 7459SOL     OW22621   2.603   5.573   4.481  0.1228 -0.0492 -0.3590
 7459SOL    HW122622   2.689   5.578   4.439  0.5200 -0.2861  0.4063
 7459SOL    HW222623   2.589   5.660   4.518  0.3245 -0.1937  0.0647
 7460SOL     OW22624   0.920   6.122   3.114 -0.1834  0.0307  0.1492
 7460SOL    HW122625   0.990   6.104   3.177  0.6782  0.5754 -0.6310
 7460SOL    HW222626   0.958   6.100   3.029 -0.8122  0.7576 -0.3281
 7461SOL     OW22627   3.373   4.935   5.566  0.1072 -0.3326  0.0996
 7461SOL    HW122628   3.403   4.860   5.617 -1.1535  0.8624  2.8420
 7461SOL    HW222629   3.454   4.979   5.539  0.9112 -0.1487  2.5561
 7462SOL     OW22630   0.906   6.135   5.695 -0.3650 -0.8726 -0.0401
 7462SOL    HW122631   0.953   6.128   5.611  0.6201  0.1376  0.3963
 7462SOL    HW222632   0.940   6.062   5.747  0.7246 -0.1976  0.2437
 7463SOL     OW22633   2.599   2.704   1.608 -0.1635 -0.0471 -0.3909
 7463SOL    HW122634   2.566   2.752   1.684 -1.7578  0.4073 -1.3115
 7463SOL    HW222635   2.693   2.700   1.621 -0.3865  0.0180  1.6005
 7464SOL     OW22636   1.057   5.013   4.744  0.9900 -0.0581  0.4179
 7464SOL    HW122637   1.036   4.920   4.735  2.9925 -0.5016 -0.1172
 7464SOL    HW222638   1.017   5.054   4.667  2.4057 -0.9467 -0.8418
 7465SOL     OW22639   1.797   1.135   5.884  0.2432 -0.6361 -0.0746
 7465SOL    HW122640   1.772   1.064   5.825 -0.0263 -1.0025  0.4709
 7465SOL    HW222641   1.724   1.142   5.945 -0.5406  1.2625 -1.1307
 7466SOL     OW22642   1.219   5.270   4.168 -0.0894  0.2119  0.2914
 7466SOL    HW122643   1.297   5.248   4.117 -0.9605 -1.0021 -0.5713
 7466SOL    HW222644   1.238   5.357   4.205  1.1104  0.5429 -1.0260
 7467SOL     OW22645   5.660   2.377   4.413 -0.2073 -0.3295  0.1575
 7467SOL    HW122646   5.657   2.465   4.376  0.8155  0.2983  1.4621
 7467SOL    HW222647   5.570   2.346   4.410 -0.8727  1.4006  1.0805
 7468SOL     OW22648   2.874   0.569   2.813  0.2888 -0.2314  0.7987
 7468SOL    HW122649   2.825   0.638   2.768 -1.6624 -2.3480 -0.5288
 7468SOL    HW222650   2.835   0.566   2.901 -0.4875 -0.4770  0.4477
 7469SOL     OW22651   0.987   1.031   2.532  0.8496  0.4174  0.1544
 7469SOL    HW122652   1.031   0.946   2.536 -0.9171 -0.7200 -2.1045
 7469SOL    HW222653   0.977   1.056   2.623  0.3163 -2.4454  0.9987
 7470SOL     OW22654   2.614   1.548   0.826 -0.0353  0.1784  0.2737
 7470SOL    HW122655   2.686   1.609   0.837 -0.3754  0.8966 -1.1690
 7470SOL    HW222656   2.589   1.557   0.734 -2.2684  0.3002  0.8416
 7471SOL     OW22657   5.774   1.851   2.243 -0.3057  0.6214 -1.1278
 7471SOL    HW122658   5.762   1.773   2.189  0.4514  0.1134 -0.5590
 7471SOL    HW222659   5.742   1.923   2.187 -0.6714 -0.0396 -1.7863
 7472SOL     OW22660   2.176   6.122   3.535  0.0412  0.5665 -0.5704
 7472SOL    HW122661   2.247   6.151   3.592  0.1750  0.3373 -0.6221
 7472SOL    HW222662   2.218   6.105   3.450  0.0798 -0.4518 -0.3502
 7473SOL     OW22663   0.211   2.845   2.418 -0.6830 -0.2021  0.4907
 7473SOL    HW122664   0.216   2.899   2.496  0.6890 -1.0062  0.9799
 7473SOL    HW222665   0.301   2.819   2.400 -1.3532 -3.3770  1.0556
 7474SOL     OW22666   2.734   3.846   2.030 -0.3321  0.3727  0.2292
 7474SOL    HW122667   2.670   3.873   2.096  0.3421  0.0480  1.0285
 7474SOL    HW222668   2.722   3.751   2.023 -0.4456  0.4162 -0.1653
 7475SOL     OW22669   5.571   1.331   4.857 -0.3039 -0.1190 -0.0376
 7475SOL    HW122670   5.539   1.242   4.873 -0.0682  0.3254  3.8712
 7475SOL    HW222671   5.664   1.327   4.879 -0.3051  1.0771  0.2497
 7476SOL     OW22672   4.038   5.486   0.079 -0.1309 -0.2092 -0.3239
 7476SOL    HW122673   4.048   5.452   0.168 -0.9831  0.3563 -0.0028
 7476SOL    HW222674   3.947   5.515   0.074  0.7023  2.7594 -0.2955
 7477SOL     OW22675   1.302   0.599   0.915  0.3440 -0.3583 -0.5610
 7477SOL    HW122676   1.317   0.514   0.956 -0.1600 -0.5145 -0.6992
 7477SOL    HW222677   1.353   0.660   0.969 -0.3924 -0.5422  0.3797
 7478SOL     OW22678   0.064   2.241   4.241 -0.7463  0.2953 -0.2396
 7478SOL    HW122679   0.099   2.280   4.160  0.5066 -0.5375 -0.1324
 7478SOL    HW222680   0.062   2.147   4.223 -0.1774  0.0747  0.7924
 7479SOL     OW22681   1.624   1.341   5.409 -0.6629 -0.0071  0.8600
 7479SOL    HW122682   1.664   1.425   5.386  0.6090 -0.6024  0.7868
 7479SOL    HW222683   1.671   1.276   5.356 -1.3296 -0.8159  1.2246
 7480SOL     OW22684   1.006   1.384   2.611  0.5237 -0.4373  0.2966
 7480SOL    HW122685   0.977   1.398   2.521  0.6117  0.0690  0.3469
 7480SOL    HW222686   0.972   1.459   2.659  1.3471 -0.1770  0.4819
 7481SOL     OW22687   4.613   4.225   5.543  0.4331 -0.4304  0.0643
 7481SOL    HW122688   4.590   4.167   5.616  0.9138 -1.2417 -0.4101
 7481SOL    HW222689   4.644   4.305   5.585  1.6425 -1.2521  0.7806
 7482SOL     OW22690   4.922   4.888   4.470 -0.1738  0.2338  0.6443
 7482SOL    HW122691   5.006   4.893   4.424 -0.0634 -0.4148  0.7652
 7482SOL    HW222692   4.891   4.799   4.454 -0.6981  0.3779  0.8461
 7483SOL     OW22693   0.622   0.282   2.154  0.4762 -0.0811  0.2228
 7483SOL    HW122694   0.569   0.205   2.175  0.5269  0.2974  1.9216
 7483SOL    HW222695   0.707   0.263   2.193  0.7110  0.5301  0.0127
 7484SOL     OW22696   0.245   1.432   2.625  0.2842 -0.0465 -0.2379
 7484SOL    HW122697   0.169   1.376   2.611 -1.1671  1.8642 -0.3052
 7484SOL    HW222698   0.300   1.417   2.548 -1.1848  0.3274 -1.4058
 7485SOL     OW22699   4.830   3.210   3.242 -0.1113 -0.3005  0.0122
 7485SOL    HW122700   4.870   3.271   3.180 -0.9441 -0.0402 -0.2800
 7485SOL    HW222701   4.793   3.141   3.187 -1.8165  0.4882  0.1058
 7486SOL     OW22702   5.986   2.968   0.081  0.2859  0.0506 -0.0398
 7486SOL    HW122703   6.057   2.907   0.057 -0.1600 -0.4742 -0.0536
 7486SOL    HW222704   5.946   2.928   0.159  0.7788  0.9782  0.7044
 7487SOL     OW22705   1.786   0.625   1.662 -0.1492 -0.0258 -0.2851
 7487SOL    HW122706   1.773   0.584   1.747 -0.5040  1.4817  0.4255
 7487SOL    HW222707   1.697   0.632   1.626 -0.1730  0.6786 -0.1071
 7488SOL     OW22708   3.275   5.653   3.862  0.0980  0.1122 -0.0676
 7488SOL    HW122709   3.209   5.674   3.796  0.4031  0.5013 -0.2538
 7488SOL    HW222710   3.253   5.564   3.891 -1.0475  0.5675  0.5208
 7489SOL     OW22711   0.092   0.611   2.052 -0.1228  0.0657  0.1256
 7489SOL    HW122712   0.080   0.621   1.958  0.3871  0.8894  0.1395
 7489SOL    HW222713   0.022   0.552   2.079  0.1941 -0.7949 -0.8879
 7490SOL     OW22714   4.978   4.371   4.639  0.8512 -0.1922 -0.2779
 7490SOL    HW122715   5.035   4.428   4.588  0.5334  2.0462  1.7195
 7490SOL    HW222716   4.967   4.416   4.723 -1.8239 -1.7681  0.3320
 7491SOL     OW22717   0.304   4.581   3.583 -0.1304  0.1913  0.1462
 7491SOL    HW122718   0.234   4.523   3.554  0.1977  0.4452 -1.2748
 7491SOL    HW222719   0.259   4.655   3.623 -0.6251 -0.1984  0.3174
 7492SOL     OW22720   2.796   1.746   4.823  0.7482  0.2948  0.2675
 7492SOL    HW122721   2.858   1.692   4.871 -0.4062  0.1755  1.6932
 7492SOL    HW222722   2.810   1.835   4.856  0.1606  0.2618  0.6300
 7493SOL     OW22723   5.007   4.564   4.880  0.3380  0.9256 -0.1222
 7493SOL    HW122724   5.023   4.595   4.969 -1.1166  0.3590  0.3632
 7493SOL    HW222725   5.049   4.629   4.824  0.7607  1.6081  0.9618
 7494SOL     OW22726   1.819   5.091   3.421 -0.8229  0.6516 -0.4617
 7494SOL    HW122727   1.876   5.092   3.345 -0.5462 -0.7855 -0.3005
 7494SOL    HW222728   1.739   5.047   3.391 -1.5466  1.9108 -0.4606
 7495SOL     OW22729   5.797   1.957   3.929 -0.2251  0.1491  0.8400
 7495SOL    HW122730   5.755   2.037   3.959  0.0481  0.7186 -0.2480
 7495SOL    HW222731   5.889   1.981   3.919  0.0508 -0.5959  1.5061
 7496SOL     OW22732   1.575   4.851   0.525  0.3165 -0.6162 -0.3756
 7496SOL    HW122733   1.494   4.898   0.505 -0.2211 -1.0865  0.6261
 7496SOL    HW222734   1.643   4.918   0.522 -0.3101  0.0598  0.1343
 7497SOL     OW22735   4.125   5.811   0.985  0.7256  0.7346  0.0970
 7497SOL    HW122736   4.159   5.801   1.074 -1.0337 -0.2120  0.7003
 7497SOL    HW222737   4.062   5.882   0.992  1.1097  1.1518 -0.5811
 7498SOL     OW22738   4.524   2.300   0.397  0.5972 -0.4132  0.1247
 7498SOL    HW122739   4.446   2.249   0.375 -0.7654  0.0504  3.4179
 7498SOL    HW222740   4.504   2.388   0.367  0.1273 -0.4401  0.3440
 7499SOL     OW22741   0.274   0.909   1.452 -0.4154  0.0137 -0.1871
 7499SOL    HW122742   0.254   0.967   1.526 -3.4965 -0.9436 -0.1121
 7499SOL    HW222743   0.239   0.955   1.375 -0.1464 -0.4052 -0.5634
 7500SOL     OW22744   2.072   3.502   3.441 -0.3321  0.5412  0.5391
 7500SOL    HW122745   2.091   3.435   3.507  0.1254  0.2120  0.0787
 7500SOL    HW222746   1.989   3.473   3.402  0.1800 -0.1174 -0.0956
 7501SOL     OW22747   3.573   0.918   4.959 -0.3922  0.5240  0.3573
 7501SOL    HW122748   3.515   0.902   4.884 -1.7729  2.0277  1.0394
 7501SOL    HW222749   3.661   0.913   4.923 -0.8853 -1.7496 -0.7452
 7502SOL     OW22750   5.183   5.760   3.385  0.2756 -0.5194  0.5738
 7502SOL    HW122751   5.104   5.784   3.337  0.8726  0.4091  0.0400
 7502SOL    HW222752   5.251   5.752   3.318  1.0607  0.5436  1.2185
 7503SOL     OW22753   0.843   5.702   0.736  0.0934 -0.2406  0.3597
 7503SOL    HW122754   0.850   5.654   0.653 -0.7323 -2.1327  1.3284
 7503SOL    HW222755   0.749   5.720   0.745  0.3848  1.6834 -0.0023
 7504SOL     OW22756   1.116   2.312   2.301  0.2630 -0.5782  0.1493
 7504SOL    HW122757   1.106   2.217   2.314 -3.0550 -0.4810 -0.6423
 7504SOL    HW222758   1.137   2.320   2.208  0.0899 -0.5496  0.1115
 7505SOL     OW22759   1.623   1.489   3.161 -0.5646  0.0317  0.1382
 7505SOL    HW122760   1.710   1.492   3.199  0.8404  1.3342 -2.8925
 7505SOL    HW222761   1.597   1.581   3.152 -2.2641 -0.3231  0.9058
 7506SOL     OW22762   0.876   3.043   3.282 -0.1441 -0.5626 -0.6942
 7506SOL    HW122763   0.837   3.010   3.201  0.1062 -2.4944 -0.1042
 7506SOL    HW222764   0.804   3.039   3.345 -0.3709  1.0426 -0.8094
 7507SOL     OW22765   0.308   4.511   5.932  0.2361  0.1865 -0.2545
 7507SOL    HW122766   0.223   4.549   5.953  0.5376  0.1880  0.9833
 7507SOL    HW222767   0.289   4.419   5.914 -0.1295  0.3590 -0.7884
 7508SOL     OW22768   4.265   0.772   2.464 -0.3405  0.0876 -0.2395
 7508SOL    HW122769   4.269   0.853   2.414  0.6099  0.2003  0.0140
 7508SOL    HW222770   4.331   0.783   2.533 -2.4205  0.4649  1.8362
 7509SOL     OW22771   4.499   3.251   1.773  0.4465 -0.3859 -0.0406
 7509SOL    HW122772   4.513   3.265   1.679  2.1147 -2.0748 -0.0937
 7509SOL    HW222773   4.433   3.181   1.777  0.7913 -0.7131  0.0175
 7510SOL     OW22774   3.112   3.919   3.055 -0.2563 -0.2395  0.4502
 7510SOL    HW122775   3.147   4.001   3.088 -0.5906 -0.3005  0.9687
 7510SOL    HW222776   3.158   3.904   2.972 -0.2906  0.5291  0.2905
 7511SOL     OW22777   0.897   1.966   0.240  0.5150  0.1522 -0.0696
 7511SOL    HW122778   0.906   1.881   0.282 -3.0031  0.1505  0.9455
 7511SOL    HW222779   0.827   1.954   0.176  0.1228  2.2393 -0.0973
 7512SOL     OW22780   4.662   0.123   0.609  0.1826  0.2688  0.0721
 7512SOL    HW122781   4.621   0.098   0.526  2.4111  1.1955 -1.3951
 7512SOL    HW222782   4.623   0.208   0.630  1.2857  1.1678 -1.3325
 7513SOL     OW22783   5.647   4.043   5.911  0.1711  0.0010 -0.7005
 7513SOL    HW122784   5.566   4.093   5.915  0.3753  0.2550  0.9084
 7513SOL    HW222785   5.717   4.108   5.919  0.4933 -0.3348 -0.7484
 7514SOL     OW22786   2.570   2.833   4.934 -0.4213 -0.2029 -0.3280
 7514SOL    HW122787   2.572   2.886   5.013 -0.5973 -0.0969 -0.3928
 7514SOL    HW222788   2.516   2.757   4.957  0.9993 -1.0774  0.2068
 7515SOL     OW22789   3.840   2.201   4.049 -0.0951 -0.0702 -0.1087
 7515SOL    HW122790   3.838   2.265   3.978  1.0274 -0.3372 -0.4083
 7515SOL    HW222791   3.909   2.139   4.023 -1.2673 -1.5027  0.0961
 7516SOL     OW22792   2.313   4.812   1.252  0.6494 -0.6271  0.1807
 7516SOL    HW122793   2.328   4.901   1.283  0.2664 -0.1412 -0.9354
 7516SOL    HW222794   2.232   4.818   1.200  1.9669 -1.0427 -2.0692
 7517SOL     OW22795   4.287   3.389   3.734 -0.7029  0.1808 -0.3905
 7517SOL    HW122796   4.213   3.328   3.723 -0.2611 -0.8374  1.8361
 7517SOL    HW222797   4.362   3.341   3.699 -0.3894 -0.5216  1.1853
 7518SOL     OW22798   5.381   1.674   4.342 -0.1235 -0.5206 -0.6358
 7518SOL    HW122799   5.357   1.669   4.435  0.4300 -2.3900 -0.5483
 7518SOL    HW222800   5.298   1.690   4.297 -0.5441 -0.5043  0.1172
 7519SOL     OW22801   4.383   2.729   1.371 -0.1401 -0.4478  0.3829
 7519SOL    HW122802   4.326   2.799   1.339  0.6137 -0.3383 -0.7751
 7519SOL    HW222803   4.349   2.709   1.458 -0.8237  0.8419  0.4382
 7520SOL     OW22804   3.318   0.157   3.104  0.1048  0.0299  0.7719
 7520SOL    HW122805   3.358   0.111   3.178 -0.1993 -0.7455  0.4679
 7520SOL    HW222806   3.225   0.134   3.108 -0.1891  1.1962  1.0225
 7521SOL     OW22807   1.511   1.731   1.616  0.1969 -0.2431  0.4059
 7521SOL    HW122808   1.497   1.652   1.669  1.7915  0.6070  2.2017
 7521SOL    HW222809   1.596   1.764   1.644 -0.2049  1.8539 -0.6572
 7522SOL     OW22810   4.861   4.566   4.403 -0.1611 -0.1690  0.5419
 7522SOL    HW122811   4.776   4.539   4.367  0.9599 -1.7052 -1.0603
 7522SOL    HW222812   4.845   4.571   4.498 -2.1413  0.0025  0.2533
 7523SOL     OW22813   0.914   0.624   2.197 -0.6244 -0.3778  0.1201
 7523SOL    HW122814   0.863   0.658   2.124 -1.2805 -1.8630 -0.1476
 7523SOL    HW222815   0.961   0.549   2.161  2.0620  1.1049  0.2651
 7524SOL     OW22816   3.018   4.510   1.587  1.1635  0.0624  0.2408
 7524SOL    HW122817   2.965   4.581   1.623 -0.0419  1.6190 -4.0199
 7524SOL    HW222818   3.108   4.539   1.599  0.7420  1.4617  0.1445
 7525SOL     OW22819   4.893   3.724   4.956  1.0598  0.5943 -0.3263
 7525SOL    HW122820   4.875   3.815   4.932 -0.5891  0.3920  0.0151
 7525SOL    HW222821   4.863   3.716   5.047 -0.7633 -0.7599 -0.9755
 7526SOL     OW22822   4.568   0.313   4.904 -0.4363  0.2278 -0.5025
 7526SOL    HW122823   4.578   0.400   4.866 -1.6498  0.8200  0.4575
 7526SOL    HW222824   4.478   0.288   4.882 -0.5715 -0.1567  0.4481
 7527SOL     OW22825   3.624   0.529   3.218  0.4953 -0.6347  0.1857
 7527SOL    HW122826   3.588   0.606   3.261  0.5445 -0.6420  0.2400
 7527SOL    HW222827   3.712   0.557   3.191  0.8876 -0.9861  1.0727
 7528SOL     OW22828   6.004   3.241   3.811 -0.0184 -0.0201 -0.6481
 7528SOL    HW122829   6.070   3.271   3.874  0.7056 -1.7760 -0.5069
 7528SOL    HW222830   5.944   3.315   3.802  1.0790  1.0528  0.4412
 7529SOL     OW22831   2.325   1.367   3.659  0.0774 -0.3301 -0.1653
 7529SOL    HW122832   2.295   1.413   3.581 -1.3843 -1.2701 -0.2121
 7529SOL    HW222833   2.417   1.390   3.668 -0.0981  0.9152 -1.3523
 7530SOL     OW22834   4.113   4.727   4.446 -0.2142  0.1519  0.2745
 7530SOL    HW122835   4.157   4.785   4.508 -0.0699  0.8785 -0.4931
 7530SOL    HW222836   4.063   4.667   4.501  2.9673 -1.8384  1.3239
 7531SOL     OW22837   0.784   2.123   3.452 -0.2233 -0.1460 -0.1408
 7531SOL    HW122838   0.826   2.050   3.406 -0.5856  0.3037 -1.2388
 7531SOL    HW222839   0.690   2.105   3.446 -0.2713 -0.1688  0.6006
 7532SOL     OW22840   3.472   3.700   2.126 -0.6923  0.2573 -0.2024
 7532SOL    HW122841   3.420   3.621   2.112 -1.7961  0.5861  1.8070
 7532SOL    HW222842   3.445   3.759   2.056 -1.2570 -0.4427 -0.5861
 7533SOL     OW22843   1.900   5.434   0.598  0.3150  0.0387 -0.1838
 7533SOL    HW122844   1.905   5.405   0.507 -0.3886  1.8958 -0.8547
 7533SOL    HW222845   1.987   5.469   0.616  0.1206  0.7015 -0.5186
 7534SOL     OW22846   4.838   0.792   3.081 -0.0489  0.2483 -0.2150
 7534SOL    HW122847   4.770   0.851   3.112  0.8409  1.0705  0.2296
 7534SOL    HW222848   4.797   0.744   3.009 -0.8584  1.2926 -0.4824
 7535SOL     OW22849   4.706   0.371   2.634  0.1344 -0.0969 -0.3063
 7535SOL    HW122850   4.726   0.435   2.703 -2.0101 -0.1897  0.4862
 7535SOL    HW222851   4.738   0.288   2.669 -0.8197 -0.1199  0.5668
 7536SOL     OW22852   5.479   4.369   4.846 -0.4279  0.2329  0.6405
 7536SOL    HW122853   5.432   4.312   4.785  1.4678 -0.5106 -0.1820
 7536SOL    HW222854   5.423   4.447   4.853 -1.2205 -0.1125 -1.1887
 7537SOL     OW22855   3.556   2.905   4.623 -0.0364  0.1331 -0.2451
 7537SOL    HW122856   3.624   2.958   4.664 -0.9825  1.2707 -0.0831
 7537SOL    HW222857   3.545   2.830   4.682  1.7884 -0.6558 -0.8248
 7538SOL     OW22858   1.164   4.477   3.120 -0.6157 -0.0559 -0.6120
 7538SOL    HW122859   1.201   4.406   3.173  0.7751 -0.1327 -1.6339
 7538SOL    HW222860   1.211   4.471   3.036 -2.1324  0.6163 -1.5455
 7539SOL     OW22861   1.637   0.822   3.903  0.2584 -0.4332  0.2171
 7539SOL    HW122862   1.591   0.776   3.833 -1.8323  0.5017  0.8961
 7539SOL    HW222863   1.697   0.881   3.857 -0.0193 -0.8618 -0.7283
 7540SOL     OW22864   3.031   4.214   2.194 -0.4459 -0.6482  0.1231
 7540SOL    HW122865   3.062   4.157   2.124 -1.0619 -1.0563  0.1856
 7540SOL    HW222866   2.968   4.162   2.242 -2.0054  0.5109 -0.5968
 7541SOL     OW22867   2.641   0.792   4.489  0.5029 -0.4477 -0.4861
 7541SOL    HW122868   2.639   0.887   4.488 -1.3361 -0.4569 -0.8506
 7541SOL    HW222869   2.601   0.767   4.572  0.2895 -0.8897 -0.7134
 7542SOL     OW22870   0.190   3.586   4.646  0.4412  0.4512 -0.3389
 7542SOL    HW122871   0.166   3.494   4.643 -0.4153  0.4683  2.3924
 7542SOL    HW222872   0.273   3.592   4.600  0.9402 -1.8433  0.1545
 7543SOL     OW22873   1.737   0.723   4.733 -0.5776 -0.4342 -0.0420
 7543SOL    HW122874   1.797   0.652   4.709 -0.5655 -1.2012  2.0543
 7543SOL    HW222875   1.753   0.737   4.826 -1.8475  1.1193 -0.0206
 7544SOL     OW22876   5.640   3.571   3.678 -0.1574  0.3336 -0.0263
 7544SOL    HW122877   5.551   3.576   3.641 -0.1450 -1.9393 -0.5392
 7544SOL    HW222878   5.696   3.557   3.602  0.3045 -0.9007  0.5210
 7545SOL     OW22879   0.223   2.724   5.512  0.4013  0.1877  0.5251
 7545SOL    HW122880   0.303   2.766   5.481 -1.2645  1.1381 -2.9599
 7545SOL    HW222881   0.188   2.785   5.577  1.0120  1.2485 -0.1119
 7546SOL     OW22882   0.241   5.580   3.766  0.3361 -0.3976 -0.5283
 7546SOL    HW122883   0.215   5.666   3.801  0.7245 -1.0343  1.4557
 7546SOL    HW222884   0.184   5.518   3.811 -1.2845 -1.1149 -3.3613
 7547SOL     OW22885   2.211   1.290   5.382 -0.2310 -0.1344 -0.1690
 7547SOL    HW122886   2.238   1.325   5.297 -1.6921  0.0224 -0.6036
 7547SOL    HW222887   2.262   1.210   5.393  0.7793  0.4288 -0.6762
 7548SOL     OW22888   4.684   4.397   2.200 -0.5486 -0.0776  0.1350
 7548SOL    HW122889   4.656   4.436   2.117 -1.2238 -1.1401 -0.1542
 7548SOL    HW222890   4.758   4.451   2.227 -0.1834  0.1810 -1.2588
 7549SOL     OW22891   6.057   0.808   2.631 -0.9851 -0.4355 -0.2495
 7549SOL    HW122892   6.076   0.741   2.698  0.0190 -0.6467 -0.7269
 7549SOL    HW222893   6.143   0.840   2.605 -1.4263  0.3931 -0.6936
 7550SOL     OW22894   5.848   5.943   3.472  0.3155  0.4201 -0.1542
 7550SOL    HW122895   5.831   5.930   3.379 -1.6382  2.6430 -0.2075
 7550SOL    HW222896   5.761   5.949   3.511  1.0654 -1.2944  2.0227
 7551SOL     OW22897   1.112   0.192   4.803  0.5377 -0.3548 -0.4430
 7551SOL    HW122898   1.055   0.192   4.881  1.5340 -2.1253  0.3333
 7551SOL    HW222899   1.193   0.151   4.833  1.4386  0.1308 -2.1084
 7552NA      NA22900   2.430   4.647   1.318 -0.1060  0.2150 -0.6299
 7553NA      NA22901   0.571   4.964   4.776 -0.2644  0.0802  0.2097
 7554NA      NA22902   5.112   0.653   1.951 -0.3225 -0.1021  0.1023
 7555NA      NA22903   1.528   4.780   3.674  0.0464  0.0776  0.2024
 7556NA      NA22904   2.286   0.932   3.613  0.7163  0.0730  0.3093
 7557NA      NA22905   1.797   2.319   5.383 -0.0810  0.5290 -0.1774
 7558NA      NA22906   2.708   2.602   3.770 -0.0772 -0.0247 -0.1355
 7559NA      NA22907   2.579   5.847   2.963  0.1273 -0.4467 -0.3894
 7560NA      NA22908   0.357   6.096   0.190 -0.5796  0.1526  0.2031
 7561NA      NA22909   5.542   4.247   4.117 -0.0976  0.1482 -0.2305
 7562NA      NA22910   1.178   0.943   0.589 -0.3371 -0.1179  0.1118
 7563NA      NA22911   3.766   3.893   3.314 -0.0652 -0.2440 -0.4739
 7564NA      NA22912   5.523   5.162   4.945  0.3403 -0.4915  0.0389
 7565NA      NA22913   5.223   0.951   3.457  0.6228 -0.2565 -0.4116
 7566NA      NA22914   4.123   5.269   0.389  0.1286 -0.0534 -0.5917
 7567NA      NA22915   0.556   2.770   4.332 -0.0959 -0.6357 -0.1897
 7568NA      NA22916   1.410   5.297   0.956  0.3501  0.2478 -0.0762
 7569NA      NA22917   2.063   2.555   0.078  0.0499  0.1099  0.6287
 7570NA      NA22918   5.529   4.199   1.281  0.1171  0.3692 -0.1496
 7571NA      NA22919   4.438   4.498   2.337 -0.0142  0.0259  0.3896
 7572NA      NA22920   3.863   0.868   4.701 -0.6460 -0.1274 -0.3271
 7573CL      CL22921   5.350   5.211   4.785  0.1494  0.1826 -0.1581
 7574CL      CL22922   4.788   0.864   4.016 -0.0371 -0.4596 -0.3154
 7575CL      CL22923   1.381   4.698   0.284 -0.4015 -0.1784 -0.0324
 7576CL      CL22924   1.855   3.141   4.769  0.1238 -0.0877 -0.0903
 7577CL      CL22925   1.759   1.949   2.508  0.2235  0.1509  0.1752
 7578CL      CL22926   0.914   2.545   1.286 -0.2439 -0.2671 -0.2903
 7579CL      CL22927   0.837   3.062   5.786 -0.2286 -0.1858 -0.1206
 7580CL      CL22928   4.294   4.948   5.445 -0.1516 -0.3348  0.2265
 7581CL      CL22929   6.003   4.664   5.440  0.0873  0.4397  0.0677
 7582CL      CL22930   0.792   2.185   2.631 -0.2173 -0.2976 -0.3013
 7583CL      CL22931   2.324   5.126   1.342 -0.4183  0.1485  0.2853
 7584CL      CL22932   5.622   5.247   1.768  0.0480  0.2232  0.2460
 7585CL      CL22933   3.874   1.216   4.016 -0.0111  0.0301 -0.3404
 7586CL      CL22934   3.036   0.767   1.206  0.0764 -0.0467 -0.2540
 7587CL      CL22935   3.666   1.326   0.515  0.1578  0.2164  0.1424
 7588CL      CL22936   3.459   5.579   2.102 -0.1203  0.2897  0.1361
 7589CL      CL22937   2.858   1.255   4.924  0.1749 -0.2662  0.1882
 7590CL      CL22938   4.806   3.806   0.845  0.2523 -0.0181 -0.0049
 7591CL      CL22939   5.534   6.009   3.538  0.1368  0.4285  0.0906
 7592CL      CL22940   4.921   1.959   2.377 -0.0971 -0.0277 -0.1406
 7593CL      CL22941   4.958   0.381   2.936 -0.0074 -0.4173  0.1378
 7594CL      CL22942   3.031   1.654   6.140 -0.0616 -0.0681  0.6786
 7595CL      CL22943   2.775   1.954   3.428  0.2640  0.3054 -0.1322
 7596CL      CL22944   0.994   1.420   1.268  0.7165  0.1172  0.0991
 7597CL      CL22945   2.388   3.237   3.822  0.0474 -0.2702  0.3371
 7598CL      CL22946   2.049   2.328   5.713 -0.1688  0.3389 -0.1993
 7599CL      CL22947   0.398   5.077   1.580  0.2158 -0.2428  0.3403
 7600CL      CL22948   2.945   4.425   0.464  0.3546 -0.0839  0.0886
 7601CL      CL22949   0.698   5.465   0.284 -0.0822 -0.4496  0.2208
   6.14374   6.14374   6.14374
